<event>
 7    1  0.4252091E-004  0.1315108E+03  0.7546771E-02  0.1366942E+00
          2   -1    0    0  503    0  0.00000000000E+00  0.00000000000E+00  0.76148571926E+03  0.76148571926E+03  0.00000000000E+00 0. -1.
          1   -1    0    0  502    0 -0.00000000000E+00 -0.00000000000E+00 -0.97861973008E+03  0.97861973008E+03  0.00000000000E+00 0. -1.
         25    2    1    2    0    0 -0.83454139308E+02  0.14172023608E+03 -0.28781960811E+03  0.35429293686E+03  0.12503655310E+03 0.  0.
          4    1    3    3  501    0 -0.56749014471E+02  0.14554418730E+03 -0.15987500860E+03  0.22352895198E+03  0.12700000000E+01 0. -1.
         -4    1    3    3    0  501 -0.26705124837E+02 -0.38239512171E+01 -0.12794459952E+03  0.13076398488E+03  0.12700000000E+01 0. -1.
          2    1    1    2  502    0  0.25340331522E+02 -0.24411649202E+02 -0.65120119772E+03  0.65215110283E+03  0.00000000000E+00 0. -1.
          1    1    1    2  503    0  0.58113807787E+02 -0.11730858688E+03  0.72188679501E+03  0.73366140966E+03  0.00000000000E+00 0. -1.
<mgrwt>
<rscale>  0 0.68024635E+02</rscale>
<asrwt>0</asrwt>
<pdfrwt beam="1">  1        2 0.11715165E+00 0.13151080E+03</pdfrwt>
<pdfrwt beam="2">  1        1 0.15055688E+00 0.35186091E+02</pdfrwt>
<totfact> 0.10044771E+02</totfact>
</mgrwt>
</event>
<event>
 7    1  0.4252091E-004  0.7034295E+02  0.7546771E-02  0.1369146E+00
          2   -1    0    0  503    0  0.00000000000E+00  0.00000000000E+00  0.70561716935E+03  0.70561716935E+03  0.00000000000E+00 0. -1.
          1   -1    0    0  502    0 -0.00000000000E+00 -0.00000000000E+00 -0.27031111973E+03  0.27031111973E+03  0.00000000000E+00 0. -1.
         25    2    1    2    0    0 -0.60276280122E+02  0.93670453605E+00  0.33318586772E+03  0.36093228294E+03  0.12500073222E+03 0.  0.
          4    1    3    3  501    0 -0.18953192359E+01 -0.54622325185E+02  0.96653783602E+02  0.11104394368E+03  0.12700000000E+01 0.  1.
         -4    1    3    3    0  501 -0.58380960886E+02  0.55559029721E+02  0.23653208412E+03  0.24988833926E+03  0.12700000000E+01 0.  1.
          2    1    1    2  502    0  0.10673252585E+02 -0.63702345786E+02 -0.24778342511E+03  0.25606353302E+03  0.00000000000E+00 0. -1.
          1    1    1    2  503    0  0.49603027537E+02  0.62765641250E+02  0.34990360701E+03  0.35893247312E+03  0.00000000000E+00 0. -1.
<mgrwt>
<rscale>  0 0.67405284E+02</rscale>
<asrwt>0</asrwt>
<pdfrwt beam="1">  1        2 0.10855649E+00 0.70342949E+02</pdfrwt>
<pdfrwt beam="2">  1        1 0.41586326E-01 0.64590303E+02</pdfrwt>
<totfact> 0.58701954E+02</totfact>
</mgrwt>
</event>
<event>
 7    1  0.4252091E-004  0.6482850E+02  0.7546771E-02  0.1387561E+00
          1   -1    0    0  502    0 -0.00000000000E+00  0.00000000000E+00  0.90191997651E+02  0.90191997651E+02  0.00000000000E+00 0. -1.
          2   -1    0    0  503    0  0.00000000000E+00 -0.00000000000E+00 -0.10802630681E+04  0.10802630681E+04  0.00000000000E+00 0. -1.
         25    2    1    2    0    0  0.31509726854E+01  0.38310897047E+02 -0.80107352540E+03  0.81167696616E+03  0.12499220311E+03 0.  0.
          4    1    3    3  501    0  0.57350167198E+02  0.30114930872E+02 -0.26492710838E+03  0.27273418633E+03  0.12700000000E+01 0.  1.
         -4    1    3    3    0  501 -0.54199194513E+02  0.81959661757E+01 -0.53614641702E+03  0.53894277983E+03  0.12700000000E+01 0.  1.
          2    1    1    2  502    0  0.21470745705E+02  0.61169777940E+02  0.60735982454E+02  0.88834645376E+02  0.00000000000E+00 0. -1.
          1    1    1    2  503    0 -0.24621718390E+02 -0.99480674988E+02 -0.24973352747E+03  0.26994345418E+03  0.00000000000E+00 0. -1.
<mgrwt>
<rscale>  0 0.62517515E+02</rscale>
<asrwt>0</asrwt>
<pdfrwt beam="2">  1        2 0.16619431E+00 0.60288910E+02</pdfrwt>
<pdfrwt beam="1">  1        1 0.13875692E-01 0.64828502E+02</pdfrwt>
<totfact> 0.13388993E+03</totfact>
</mgrwt>
</event>
<event>
 7    1  0.4506425E-004  0.5998453E+03  0.7546771E-02  0.9905727E-01
          1   -1    0    0  503    0  0.00000000000E+00  0.00000000000E+00  0.42096860840E+03  0.42096860840E+03  0.00000000000E+00 0. -1.
         -1   -1    0    0    0  501 -0.00000000000E+00 -0.00000000000E+00 -0.21368245965E+03  0.21368245965E+03  0.00000000000E+00 0.  1.
         25    2    1    2    0    0 -0.23791794199E+03 -0.10942651585E+03  0.20838568086E+03  0.35724835748E+03  0.12499074942E+03 0.  0.
          4    1    3    3  502    0 -0.17758361734E+03 -0.33279914539E+02  0.18225392987E+03  0.25663515292E+03  0.12700000000E+01 0. -1.
         -4    1    3    3    0  502 -0.60334324654E+02 -0.76146601314E+02  0.26131750993E+02  0.10061320457E+03  0.12700000000E+01 0. -1.
          2    1    1    2  503    0  0.15921988191E+03  0.96967618927E+02  0.35412745110E+02  0.18975708797E+03  0.00000000000E+00 0. -1.
         -2    1    1    2    0  501  0.78698060076E+02  0.12458896926E+02 -0.36512277225E+02  0.87645622597E+02  0.00000000000E+00 0.  1.
<mgrwt>
<rscale>  0 0.59984534E+03</rscale>
<asrwt>0</asrwt>
<pdfrwt beam="1">  1        1 0.64764401E-01 0.59984534E+03</pdfrwt>
<pdfrwt beam="2">  1       -1 0.32874225E-01 0.59984534E+03</pdfrwt>
<totfact> 0.49157842E+02</totfact>
</mgrwt>
</event>
<event>
 7    1  0.4252091E-004  0.9127707E+02  0.7546771E-02  0.1413991E+00
          2   -1    0    0  503    0  0.00000000000E+00  0.00000000000E+00  0.42260770604E+03  0.42260770604E+03  0.00000000000E+00 0. -1.
          1   -1    0    0  502    0 -0.00000000000E+00 -0.00000000000E+00 -0.11879800190E+03  0.11879800190E+03  0.00000000000E+00 0. -1.
         25    2    1    2    0    0 -0.69507613613E+02  0.75786978766E+02  0.27407274100E+03  0.31830133444E+03  0.12499959060E+03 0.  0.
          4    1    3    3  501    0  0.28447734895E+02 -0.29676187448E+01  0.20271842498E+02  0.35080491444E+02  0.12700000000E+01 0. -1.
         -4    1    3    3    0  501 -0.97955348509E+02  0.78754597511E+02  0.25380089850E+03  0.28322084300E+03  0.12700000000E+01 0. -1.
          2    1    1    2  502    0 -0.52546420352E+01 -0.34342064728E+02 -0.78110606166E+02  0.85488335276E+02  0.00000000000E+00 0. -1.
          1    1    1    2  503    0  0.74762255649E+02 -0.41444914038E+02  0.10784756931E+03  0.13761603822E+03  0.00000000000E+00 0. -1.
<mgrwt>
<rscale>  0 0.56312737E+02</rscale>
<asrwt>0</asrwt>
<pdfrwt beam="1">  1        2 0.65016569E-01 0.91277066E+02</pdfrwt>
<pdfrwt beam="2">  1        1 0.18276616E-01 0.34741743E+02</pdfrwt>
<totfact> 0.27144498E+03</totfact>
</mgrwt>
</event>
<event>
 7    1  0.4252091E-004  0.6377707E+02  0.7546771E-02  0.1427484E+00
          2   -1    0    0  503    0  0.00000000000E+00  0.00000000000E+00  0.16022179504E+03  0.16022179504E+03  0.00000000000E+00 0. -1.
          1   -1    0    0  502    0 -0.00000000000E+00 -0.00000000000E+00 -0.19448008323E+03  0.19448008323E+03  0.00000000000E+00 0. -1.
         25    2    1    2    0    0  0.28402875889E+02  0.31462536976E+02  0.72253359995E+02  0.15047553158E+03  0.12500289189E+03 0.  0.
          4    1    3    3  501    0  0.89337398399E+00 -0.28005259000E+02  0.79726184679E+02  0.84516093570E+02  0.12700000000E+01 0.  1.
         -4    1    3    3    0  501  0.27509501905E+02  0.59467795976E+02 -0.74728246846E+01  0.65959438006E+02  0.12700000000E+01 0.  1.
          2    1    1    2  502    0  0.31104425832E+02  0.32278404276E+02 -0.10808430100E+03  0.11701109696E+03  0.00000000000E+00 0. -1.
          1    1    1    2  503    0 -0.59507301720E+02 -0.63740941253E+02  0.15726528132E+01  0.87215249737E+02  0.00000000000E+00 0. -1.
<mgrwt>
<rscale>  0 0.53468480E+02</rscale>
<asrwt>0</asrwt>
<pdfrwt beam="1">  1        2 0.24649507E-01 0.63777069E+02</pdfrwt>
<pdfrwt beam="2">  1        1 0.29920013E-01 0.44826116E+02</pdfrwt>
<totfact> 0.41696598E+03</totfact>
</mgrwt>
</event>
<event>
 7    1  0.4252091E-004  0.9647964E+02  0.7546771E-02  0.1355610E+00
          1   -1    0    0  502    0 -0.00000000000E+00  0.00000000000E+00  0.23000398002E+03  0.23000398002E+03  0.00000000000E+00 0. -1.
          2   -1    0    0  503    0  0.00000000000E+00 -0.00000000000E+00 -0.20760102906E+04  0.20760102906E+04  0.00000000000E+00 0. -1.
         25    2    1    2    0    0 -0.17483875544E+02  0.89205022861E+02  0.74022896727E+02  0.17136875149E+03  0.12499855095E+03 0.  0.
          4    1    3    3  501    0  0.53048600808E+01  0.33343090513E+02 -0.33810883544E+02  0.47798451559E+02  0.12700000000E+01 0.  1.
         -4    1    3    3    0  501 -0.22788735625E+02  0.55861932348E+02  0.10783378027E+03  0.12357029993E+03  0.12700000000E+01 0.  1.
          2    1    1    2  502    0  0.68967579828E+02 -0.77742642081E+02  0.81716834913E+02  0.13220471464E+03  0.00000000000E+00 0. -1.
          1    1    1    2  503    0 -0.51483704283E+02 -0.11462380780E+02 -0.20017460422E+04  0.20024408045E+04  0.00000000000E+00 0. -1.
<mgrwt>
<rscale>  0 0.71335464E+02</rscale>
<asrwt>0</asrwt>
<pdfrwt beam="2">  1        2 0.31938620E+00 0.52744270E+02</pdfrwt>
<pdfrwt beam="1">  1        1 0.35385228E-01 0.96479644E+02</pdfrwt>
<totfact> 0.13510323E+02</totfact>
</mgrwt>
</event>
<event>
 7    1  0.4252091E-004  0.1526105E+03  0.7546771E-02  0.1355242E+00
          2   -1    0    0  503    0  0.00000000000E+00  0.00000000000E+00  0.72129367982E+03  0.72129367982E+03  0.00000000000E+00 0. -1.
         -2   -1    0    0    0  501 -0.00000000000E+00 -0.00000000000E+00 -0.32975241601E+03  0.32975241601E+03  0.00000000000E+00 0.  1.
         25    2    1    2    0    0 -0.51094907749E+02  0.12534702608E+03 -0.81835093913E+02  0.20160448184E+03  0.12499927183E+03 0.  0.
          4    1    3    3  502    0 -0.51139889288E+01  0.96171566893E+02  0.78910792153E+01  0.96638528511E+02  0.12700000000E+01 0.  1.
         -4    1    3    3    0  502 -0.45980918820E+02  0.29175459186E+02 -0.89726173128E+02  0.10496595333E+03  0.12700000000E+01 0.  1.
          1    1    1    2  503    0  0.86773721675E+01  0.32303525938E+02  0.62544107897E+03  0.62633486079E+03  0.00000000000E+00 0. -1.
         -1    1    1    2    0  501  0.42417535581E+02 -0.15765055202E+03 -0.15206472125E+03  0.22310675320E+03  0.00000000000E+00 0.  1.
<mgrwt>
<rscale>  0 0.71446619E+02</rscale>
<asrwt>0</asrwt>
<pdfrwt beam="1">  1        2 0.11096826E+00 0.33448686E+02</pdfrwt>
<pdfrwt beam="2">  1       -2 0.50731141E-01 0.15261046E+03</pdfrwt>
<totfact> 0.16328388E+02</totfact>
</mgrwt>
</event>
<event>
 7    1  0.4252091E-004  0.1149116E+03  0.7546771E-02  0.1390360E+00
          1   -1    0    0  502    0 -0.00000000000E+00  0.00000000000E+00  0.30629928433E+04  0.30629928433E+04  0.00000000000E+00 0. -1.
          2   -1    0    0  503    0  0.00000000000E+00 -0.00000000000E+00 -0.13619855088E+03  0.13619855088E+03  0.00000000000E+00 0. -1.
         25    2    1    2    0    0  0.72375104790E+02  0.73075132998E+02 -0.11338928150E+02  0.16227043946E+03  0.12499997350E+03 0.  0.
          4    1    3    3  501    0  0.99796462616E+02  0.21592318333E+02 -0.17499201172E+02  0.10360210955E+03  0.12700000000E+01 0.  1.
         -4    1    3    3    0  501 -0.27421357825E+02  0.51482814665E+02  0.61602730223E+01  0.58668329911E+02  0.12700000000E+01 0.  1.
          2    1    1    2  502    0 -0.54741596201E+02 -0.10127008959E+03  0.29806898482E+04  0.29829120410E+04  0.00000000000E+00 0. -1.
          1    1    1    2  503    0 -0.17633508590E+02  0.28194956595E+02 -0.42556627624E+02  0.54008913684E+02  0.00000000000E+00 0. -1.
<mgrwt>
<rscale>  0 0.61817372E+02</rscale>
<asrwt>0</asrwt>
<pdfrwt beam="2">  1        2 0.20953625E-01 0.33255018E+02</pdfrwt>
<pdfrwt beam="1">  1        1 0.47122962E+00 0.11491161E+03</pdfrwt>
<totfact> 0.24949336E+01</totfact>
</mgrwt>
</event>
<event>
 7    1  0.4252091E-004  0.1679721E+03  0.7546771E-02  0.1386824E+00
         -1   -1    0    0    0  501 -0.00000000000E+00  0.00000000000E+00  0.36816283006E+03  0.36816283006E+03  0.00000000000E+00 0.  1.
          1   -1    0    0  503    0  0.00000000000E+00 -0.00000000000E+00 -0.82790476770E+03  0.82790476770E+03  0.00000000000E+00 0. -1.
         25    2    1    2    0    0  0.13187087456E+03 -0.69952470285E+02 -0.96426557344E+02  0.21727170173E+03  0.12500254300E+03 0.  0.
          4    1    3    3  502    0  0.22128733668E+02  0.27730721313E+02  0.87721881206E+01  0.36568264146E+02  0.12700000000E+01 0. -1.
         -4    1    3    3    0  502  0.10974214089E+03 -0.97683191598E+02 -0.10519874546E+03  0.18070343759E+03  0.12700000000E+01 0. -1.
          2    1    1    2  503    0  0.23367932607E+02 -0.13543659050E+01 -0.64711962417E+03  0.64754281910E+03  0.00000000000E+00 0. -1.
         -2    1    1    2    0  501 -0.15523880717E+03  0.71306836190E+02  0.28380424387E+03  0.33125307693E+03  0.00000000000E+00 0.  1.
<mgrwt>
<rscale>  0 0.62703645E+02</rscale>
<asrwt>0</asrwt>
<pdfrwt beam="2">  1        1 0.12736996E+00 0.23407148E+02</pdfrwt>
<pdfrwt beam="1">  1       -1 0.56640436E-01 0.16797207E+03</pdfrwt>
<totfact> 0.82384493E+01</totfact>
</mgrwt>
</event>
<event>
 7    1  0.4252091E-004  0.4050702E+02  0.7546771E-02  0.1603310E+00
          2   -1    0    0  503    0  0.00000000000E+00  0.00000000000E+00  0.72276929451E+03  0.72276929451E+03  0.00000000000E+00 0. -1.
          1   -1    0    0  502    0 -0.00000000000E+00 -0.00000000000E+00 -0.17947499579E+04  0.17947499579E+04  0.00000000000E+00 0. -1.
         25    2    1    2    0    0 -0.28305601488E+01  0.27915827501E+02  0.64006888926E+02  0.14321258491E+03  0.12500262858E+03 0.  0.
          4    1    3    3  501    0  0.44289853845E+02  0.56135052221E+02  0.24698638548E+02  0.75659572346E+02  0.12700000000E+01 0. -1.
         -4    1    3    3    0  501 -0.47120413994E+02 -0.28219224719E+02  0.39308250378E+02  0.67553012565E+02  0.12700000000E+01 0. -1.
          2    1    1    2  502    0  0.23794961638E+02 -0.32826706680E+02 -0.17547256767E+04  0.17551940045E+04  0.00000000000E+00 0. -1.
          1    1    1    2  503    0 -0.20964401489E+02  0.49108791791E+01  0.61873812442E+03  0.61911266299E+03  0.00000000000E+00 0. -1.
<mgrwt>
<rscale>  0 0.29532917E+02</rscale>
<asrwt>0</asrwt>
<pdfrwt beam="1">  1        2 0.11119528E+00 0.21531903E+02</pdfrwt>
<pdfrwt beam="2">  1        1 0.27611538E+00 0.40507017E+02</pdfrwt>
<totfact> 0.34106139E+01</totfact>
</mgrwt>
</event>
<event>
 7    1  0.4252091E-004  0.3269536E+02  0.7546771E-02  0.1614612E+00
          1   -1    0    0  503    0  0.00000000000E+00  0.00000000000E+00  0.90112686594E+03  0.90112686594E+03  0.00000000000E+00 0. -1.
         -1   -1    0    0    0  501 -0.00000000000E+00 -0.00000000000E+00 -0.67452874047E+02  0.67452874047E+02  0.00000000000E+00 0.  1.
         25    2    1    2    0    0  0.22293654079E+02  0.47509937794E+01  0.44842928584E+03  0.46608349861E+03  0.12500169726E+03 0.  0.
          4    1    3    3  502    0  0.49448412537E+00 -0.56943673910E+02  0.27217177241E+03  0.27806818069E+03  0.12700000000E+01 0. -1.
         -4    1    3    3    0  502  0.21799169954E+02  0.61694667689E+02  0.17625751343E+03  0.18801531792E+03  0.12700000000E+01 0. -1.
          2    1    1    2  503    0  0.38850505338E+01 -0.24637644648E+02  0.43887947139E+03  0.43958764491E+03  0.00000000000E+00 0. -1.
         -2    1    1    2    0  501 -0.26178704613E+02  0.19886650868E+02 -0.53634765333E+02  0.62908596474E+02  0.00000000000E+00 0.  1.
<mgrwt>
<rscale>  0 0.28556790E+02</rscale>
<asrwt>0</asrwt>
<pdfrwt beam="1">  1        1 0.13863489E+00 0.24942076E+02</pdfrwt>
<pdfrwt beam="2">  1       -1 0.10377366E-01 0.32695363E+02</pdfrwt>
<totfact> 0.10956536E+03</totfact>
</mgrwt>
</event>
<event>
 7    1  0.4252091E-004  0.1228694E+03  0.7546771E-02  0.1242274E+00
          1   -1    0    0  503    0  0.00000000000E+00  0.00000000000E+00  0.17643452288E+03  0.17643452288E+03  0.00000000000E+00 0. -1.
         -1   -1    0    0    0  501 -0.00000000000E+00 -0.00000000000E+00 -0.16963105105E+04  0.16963105105E+04  0.00000000000E+00 0.  1.
         25    2    1    2    0    0 -0.58965850753E+02 -0.75923444763E+02 -0.83463777692E+03  0.84940286735E+03  0.12499468546E+03 0.  0.
          4    1    3    3  502    0 -0.60231792404E+02  0.11700900472E+01 -0.58578146160E+03  0.58887245782E+03  0.12700000000E+01 0. -1.
         -4    1    3    3    0  502  0.12659416514E+01 -0.77093534810E+02 -0.24885631532E+03  0.26053040954E+03  0.12700000000E+01 0. -1.
          2    1    1    2  503    0 -0.11049542937E+03  0.41911115997E+02  0.13827005101E+03  0.18189114482E+03  0.00000000000E+00 0. -1.
         -2    1    1    2    0  501  0.16946128013E+03  0.34012328766E+02 -0.82350826170E+03  0.84145102118E+03  0.00000000000E+00 0.  1.
<mgrwt>
<rscale>  0 0.12050034E+03</rscale>
<asrwt>0</asrwt>
<pdfrwt beam="1">  1        1 0.27143773E-01 0.11817691E+03</pdfrwt>
<pdfrwt beam="2">  1       -1 0.26097085E+00 0.12286944E+03</pdfrwt>
<totfact> 0.12592074E+01</totfact>
</mgrwt>
</event>
<event>
 7    1  0.4252091E-004  0.4451684E+03  0.7546771E-02  0.1258313E+00
          1   -1    0    0  502    0 -0.00000000000E+00  0.00000000000E+00  0.12480400043E+04  0.12480400043E+04  0.00000000000E+00 0. -1.
          2   -1    0    0  503    0  0.00000000000E+00 -0.00000000000E+00 -0.20174600324E+04  0.20174600324E+04  0.00000000000E+00 0. -1.
         25    2    1    2    0    0  0.44884614639E+02  0.45605843276E+03 -0.66887479167E+03  0.82037856289E+03  0.12499430706E+03 0.  0.
          4    1    3    3  501    0  0.76776062740E+02  0.38152491717E+03 -0.50516166700E+03  0.63768781464E+03  0.12700000000E+01 0.  1.
         -4    1    3    3    0  501 -0.31891448101E+02  0.74533515586E+02 -0.16371312467E+03  0.18269074825E+03  0.12700000000E+01 0.  1.
          2    1    1    2  502    0 -0.19836627513E+02 -0.44401968698E+03  0.11299970877E+04  0.12142653715E+04  0.00000000000E+00 0. -1.
          3    1    1    2  503    0 -0.25047987125E+02 -0.12038745770E+02 -0.12305423241E+04  0.12308561023E+04  0.00000000000E+00 0. -1.
<mgrwt>
<rscale>  0 0.11122780E+03</rscale>
<asrwt>0</asrwt>
<pdfrwt beam="2">  1        2 0.31037847E+00 0.27790881E+02</pdfrwt>
<pdfrwt beam="1">  1        1 0.19200615E+00 0.44516845E+03</pdfrwt>
<totfact> 0.13277122E+01</totfact>
</mgrwt>
</event>
<event>
 7    1  0.4252091E-004  0.5142192E+02  0.7546771E-02  0.1465289E+00
          1   -1    0    0  502    0 -0.00000000000E+00  0.00000000000E+00  0.10127183437E+04  0.10127183437E+04  0.00000000000E+00 0. -1.
          2   -1    0    0  503    0  0.00000000000E+00 -0.00000000000E+00 -0.18234189098E+04  0.18234189098E+04  0.00000000000E+00 0. -1.
         25    2    1    2    0    0 -0.39529430283E+02 -0.42495040214E+02  0.28362938516E+03  0.31534036771E+03  0.12500206031E+03 0.  0.
          4    1    3    3  501    0 -0.40118683330E+02  0.21075673310E+02  0.31221020091E+02  0.55045960371E+02  0.12700000000E+01 0.  1.
         -4    1    3    3    0  501  0.58925304729E+00 -0.63570713524E+02  0.25240836507E+03  0.26029440734E+03  0.12700000000E+01 0.  1.
          2    1    1    2  502    0 -0.11858441370E+02  0.40310973190E+02  0.71224826265E+03  0.71348663956E+03  0.00000000000E+00 0. -1.
          1    1    1    2  503    0  0.51387871653E+02  0.21840670237E+01 -0.18065782139E+04  0.18073102463E+04  0.00000000000E+00 0. -1.
<mgrwt>
<rscale>  0 0.46483309E+02</rscale>
<asrwt>0</asrwt>
<pdfrwt beam="2">  1        2 0.28052598E+00 0.51421915E+02</pdfrwt>
<pdfrwt beam="1">  1        1 0.15580282E+00 0.42019010E+02</pdfrwt>
<totfact> 0.26358363E+01</totfact>
</mgrwt>
</event>
<event>
 7    1  0.4252091E-004  0.5536509E+02  0.7546771E-02  0.1435794E+00
          1   -1    0    0  502    0 -0.00000000000E+00  0.00000000000E+00  0.48711025497E+03  0.48711025497E+03  0.00000000000E+00 0. -1.
          2   -1    0    0  503    0  0.00000000000E+00 -0.00000000000E+00 -0.71096104437E+02  0.71096104437E+02  0.00000000000E+00 0. -1.
         25    2    1    2    0    0  0.34969506573E+02 -0.50246262463E+01  0.31836462957E+03  0.34384268072E+03  0.12499455374E+03 0.  0.
          4    1    3    3  501    0  0.39470122570E+02 -0.54770191763E+02  0.25128967696E+03  0.26020334189E+03  0.12700000000E+01 0.  1.
         -4    1    3    3    0  501 -0.45006159977E+01  0.49745565517E+02  0.67074952606E+02  0.83639338831E+02  0.12700000000E+01 0.  1.
          2    1    1    2  502    0 -0.11765297818E+02 -0.47042520182E+02  0.13684652739E+03  0.14518399704E+03  0.00000000000E+00 0. -1.
          1    1    1    2  503    0 -0.23204208755E+02  0.52067146428E+02 -0.39197006421E+02  0.69179681652E+02  0.00000000000E+00 0. -1.
<mgrwt>
<rscale>  0 0.51814416E+02</rscale>
<asrwt>0</asrwt>
<pdfrwt beam="2">  1        2 0.10937863E-01 0.55365092E+02</pdfrwt>
<pdfrwt beam="1">  1        1 0.74940037E-01 0.48491452E+02</pdfrwt>
<totfact> 0.34367628E+03</totfact>
</mgrwt>
</event>
<event>
 7    1  0.4252091E-004  0.7296510E+02  0.7546771E-02  0.1377954E+00
          2   -1    0    0  503    0  0.00000000000E+00  0.00000000000E+00  0.11554752250E+04  0.11554752250E+04  0.00000000000E+00 0. -1.
         -2   -1    0    0    0  501 -0.00000000000E+00 -0.00000000000E+00 -0.59709218496E+02  0.59709218496E+02  0.00000000000E+00 0.  1.
         25    2    1    2    0    0  0.69850425460E+02  0.65729200348E+02  0.92257160906E+03  0.93592886347E+03  0.12500021573E+03 0.  0.
          4    1    3    3  502    0 -0.25687696099E+02 -0.56380083640E+00  0.56455400694E+02  0.62040315681E+02  0.12700000000E+01 0. -1.
         -4    1    3    3    0  502  0.95538121559E+02  0.66293001184E+02  0.86611620836E+03  0.87388854779E+03  0.12700000000E+01 0. -1.
          1    1    1    2  503    0 -0.62409241827E+02 -0.82966918166E+01  0.20411595058E+03  0.21360493871E+03  0.00000000000E+00 0. -1.
         -1    1    1    2    0  501 -0.74411836324E+01 -0.57432508531E+02 -0.30921553166E+02  0.65650641278E+02  0.00000000000E+00 0.  1.
<mgrwt>
<rscale>  0 0.65004582E+02</rscale>
<asrwt>0</asrwt>
<pdfrwt beam="1">  1        2 0.17776540E+00 0.72965103E+02</pdfrwt>
<pdfrwt beam="2">  1       -2 0.91860345E-02 0.57912557E+02</pdfrwt>
<totfact> 0.15717671E+03</totfact>
</mgrwt>
</event>
<event>
 7    1  0.4252091E-004  0.8733605E+02  0.7546771E-02  0.1326617E+00
          2   -1    0    0  503    0  0.00000000000E+00  0.00000000000E+00  0.38670955736E+03  0.38670955736E+03  0.00000000000E+00 0. -1.
          1   -1    0    0  502    0 -0.00000000000E+00 -0.00000000000E+00 -0.12278846468E+04  0.12278846468E+04  0.00000000000E+00 0. -1.
         25    2    1    2    0    0 -0.30414929878E+02 -0.35930478778E+00 -0.36051654377E+02  0.13358009201E+03  0.12497488603E+03 0.  0.
          4    1    3    3  501    0  0.43615625521E+02  0.23992828386E+02 -0.21737279925E+02  0.54333238833E+02  0.12700000000E+01 0. -1.
         -4    1    3    3    0  501 -0.74030555399E+02 -0.24352133174E+02 -0.14314374452E+02  0.79246853179E+02  0.12700000000E+01 0. -1.
          2    1    1    2  502    0  0.54836647671E+02  0.71136266316E+02 -0.11371290758E+04  0.11406708383E+04  0.00000000000E+00 0. -1.
          1    1    1    2  503    0 -0.24421717793E+02 -0.70776961528E+02  0.33200564073E+03  0.34034327386E+03  0.00000000000E+00 0. -1.
<mgrwt>
<rscale>  0 0.80864174E+02</rscale>
<asrwt>0</asrwt>
<pdfrwt beam="1">  1        2 0.59493779E-01 0.74871881E+02</pdfrwt>
<pdfrwt beam="2">  1        1 0.18890533E+00 0.87336053E+02</pdfrwt>
<totfact> 0.13624218E+02</totfact>
</mgrwt>
</event>
<event>
 7    1  0.4252091E-004  0.6275893E+02  0.7546771E-02  0.1434740E+00
          2   -1    0    0  503    0  0.00000000000E+00  0.00000000000E+00  0.31368555482E+04  0.31368555482E+04  0.00000000000E+00 0. -1.
          1   -1    0    0  502    0 -0.00000000000E+00 -0.00000000000E+00 -0.18305173929E+04  0.18305173929E+04  0.00000000000E+00 0. -1.
         25    2    1    2    0    0  0.17242421663E+02  0.73839388524E+02  0.24438839785E+03  0.28478246346E+03  0.12500322432E+03 0.  0.
          4    1    3    3  501    0 -0.44747323758E+02  0.34399581405E+02  0.17436997842E+03  0.18328163153E+03  0.12700000000E+01 0.  1.
         -4    1    3    3    0  501  0.61989745420E+02  0.39439807120E+02  0.70018419433E+02  0.10150083193E+03  0.12700000000E+01 0.  1.
          2    1    1    2  502    0 -0.40256161734E+02 -0.15449786761E+02 -0.18097206778E+04  0.18102342904E+04  0.00000000000E+00 0. -1.
          1    1    1    2  503    0  0.23013740071E+02 -0.58389601763E+02  0.28716704352E+04  0.28723561873E+04  0.00000000000E+00 0. -1.
<mgrwt>
<rscale>  0 0.52020255E+02</rscale>
<asrwt>0</asrwt>
<pdfrwt beam="1">  1        2 0.48259316E+00 0.62758931E+02</pdfrwt>
<pdfrwt beam="2">  1        1 0.28161806E+00 0.43119073E+02</pdfrwt>
<totfact> 0.16207929E+00</totfact>
</mgrwt>
</event>
<event>
 7    1  0.4252091E-004  0.1629399E+03  0.7546771E-02  0.1295947E+00
          1   -1    0    0  502    0 -0.00000000000E+00  0.00000000000E+00  0.35876067929E+03  0.35876067929E+03  0.00000000000E+00 0. -1.
          2   -1    0    0  503    0  0.00000000000E+00 -0.00000000000E+00 -0.82115273334E+03  0.82115273334E+03  0.00000000000E+00 0. -1.
         25    2    1    2    0    0  0.17153663230E+03 -0.65085773075E+02 -0.12009984272E+03  0.25241288644E+03  0.12500927541E+03 0.  0.
          4    1    3    3  501    0 -0.84987016812E+00 -0.37117811805E+02  0.51408012800E+01  0.37503266128E+02  0.12700000000E+01 0.  1.
         -4    1    3    3    0  501  0.17238650247E+03 -0.27967961270E+02 -0.12524064400E+03  0.21490962031E+03  0.12700000000E+01 0.  1.
          2    1    1    2  502    0 -0.42842841117E+02 -0.31169681787E+02  0.27990929307E+03  0.28487939631E+03  0.00000000000E+00 0. -1.
          1    1    1    2  503    0 -0.12869379119E+03  0.96255454862E+02 -0.62220150440E+03  0.64262112988E+03  0.00000000000E+00 0. -1.
<mgrwt>
<rscale>  0 0.92913033E+02</rscale>
<asrwt>0</asrwt>
<pdfrwt beam="2">  1        2 0.12633119E+00 0.16293995E+03</pdfrwt>
<pdfrwt beam="1">  1        1 0.55193951E-01 0.52981677E+02</pdfrwt>
<totfact> 0.33756227E+02</totfact>
</mgrwt>
</event>
<event>
 7    1  0.4252091E-004  0.1024793E+03  0.7546771E-02  0.1321163E+00
          2   -1    0    0  503    0  0.00000000000E+00  0.00000000000E+00  0.25702759123E+04  0.25702759123E+04  0.00000000000E+00 0. -1.
          1   -1    0    0  502    0 -0.00000000000E+00 -0.00000000000E+00 -0.97390887381E+02  0.97390887381E+02  0.00000000000E+00 0. -1.
         25    2    1    2    0    0  0.12950051816E+03 -0.96216355975E+02  0.40730722262E+03  0.45557974185E+03  0.12500302486E+03 0.  0.
          4    1    3    3  501    0  0.68985353091E+02 -0.66267972846E+02  0.36158231393E+03  0.37402380381E+03  0.12700000000E+01 0.  1.
         -4    1    3    3    0  501  0.60515165072E+02 -0.29948383129E+02  0.45724908690E+02  0.81555938045E+02  0.12700000000E+01 0.  1.
          2    1    1    2  502    0 -0.87822173657E+02  0.43790038028E+02 -0.39615553574E+02  0.10582860531E+03  0.00000000000E+00 0. -1.
          1    1    1    2  503    0 -0.41678344505E+02  0.52426317947E+02  0.21051933559E+04  0.21062584525E+04  0.00000000000E+00 0. -1.
<mgrwt>
<rscale>  0 0.82846331E+02</rscale>
<asrwt>0</asrwt>
<pdfrwt beam="1">  1        2 0.39542701E+00 0.66974646E+02</pdfrwt>
<pdfrwt beam="2">  1        1 0.14983215E-01 0.10247930E+03</pdfrwt>
<totfact> 0.21602978E+02</totfact>
</mgrwt>
</event>
<event>
 7    1  0.4252091E-004  0.7199017E+02  0.7546771E-02  0.1435207E+00
          1   -1    0    0  503    0  0.00000000000E+00  0.00000000000E+00  0.72193452277E+03  0.72193452277E+03  0.00000000000E+00 0. -1.
         -1   -1    0    0    0  501 -0.00000000000E+00 -0.00000000000E+00 -0.64089891300E+03  0.64089891300E+03  0.00000000000E+00 0.  1.
         25    2    1    2    0    0  0.72984501835E+02  0.77184205467E+02  0.71507599545E+02  0.17894720398E+03  0.12499850374E+03 0.  0.
          4    1    3    3  502    0  0.16679163162E+02  0.25779019416E+02  0.94445819959E+02  0.99319575783E+02  0.12700000000E+01 0.  1.
         -4    1    3    3    0  502  0.56305338673E+02  0.51405186051E+02 -0.22938220414E+02  0.79627628194E+02  0.12700000000E+01 0.  1.
          2    1    1    2  503    0 -0.55120276782E+02 -0.44260408352E+02  0.59401181342E+03  0.59820336269E+03  0.00000000000E+00 0. -1.
         -2    1    1    2    0  501 -0.17864225053E+02 -0.32923797115E+02 -0.58448380320E+03  0.58568286910E+03  0.00000000000E+00 0.  1.
<mgrwt>
<rscale>  0 0.51928921E+02</rscale>
<asrwt>0</asrwt>
<pdfrwt beam="1">  1        1 0.11106685E+00 0.71990172E+02</pdfrwt>
<pdfrwt beam="2">  1       -1 0.98599833E-01 0.37458069E+02</pdfrwt>
<totfact> 0.32667847E+01</totfact>
</mgrwt>
</event>
<event>
 7    1  0.4252091E-004  0.7514045E+02  0.7546771E-02  0.1370761E+00
         -2   -1    0    0    0  501 -0.00000000000E+00  0.00000000000E+00  0.29112194193E+02  0.29112194193E+02  0.00000000000E+00 0.  1.
          2   -1    0    0  503    0  0.00000000000E+00 -0.00000000000E+00 -0.19637961585E+04  0.19637961585E+04  0.00000000000E+00 0. -1.
         25    2    1    2    0    0 -0.45648181158E+02  0.13862357692E+02 -0.68424274830E+03  0.69720512039E+03  0.12502367736E+03 0.  0.
          4    1    3    3  502    0 -0.72682124557E+02  0.10538152180E+02 -0.64641152914E+03  0.65057145786E+03  0.12700000000E+01 0. -1.
         -4    1    3    3    0  502  0.27033943400E+02  0.33242055124E+01 -0.37831219156E+02  0.46633662529E+02  0.12700000000E+01 0. -1.
          1    1    1    2  503    0  0.40687979082E+02 -0.73318944271E+02 -0.12296732380E+04  0.12325288846E+04  0.00000000000E+00 0. -1.
         -1    1    1    2    0  501  0.49602020759E+01  0.59456586579E+02 -0.20767978026E+02  0.63174347670E+02  0.00000000000E+00 0.  1.
<mgrwt>
<rscale>  0 0.66956064E+02</rscale>
<asrwt>0</asrwt>
<pdfrwt beam="2">  1        2 0.30212244E+00 0.75140450E+02</pdfrwt>
<pdfrwt beam="1">  1       -2 0.44787998E-02 0.59663132E+02</pdfrwt>
<totfact> 0.17784627E+03</totfact>
</mgrwt>
</event>
<event>
 7    1  0.4252091E-004  0.8485110E+02  0.7546771E-02  0.1381724E+00
          1   -1    0    0  503    0  0.00000000000E+00  0.00000000000E+00  0.93372925784E+03  0.93372925784E+03  0.00000000000E+00 0. -1.
         -1   -1    0    0    0  501 -0.00000000000E+00 -0.00000000000E+00 -0.32271786913E+03  0.32271786913E+03  0.00000000000E+00 0.  1.
         25    2    1    2    0    0 -0.22869888903E+02 -0.50917157961E+02  0.30557530371E+03  0.33483799164E+03  0.12499850246E+03 0.  0.
          4    1    3    3  502    0 -0.28766450117E+02 -0.91266112548E+02  0.22555721522E+03  0.24501975878E+03  0.12700000000E+01 0.  1.
         -4    1    3    3    0  502  0.58965612138E+01  0.40348954588E+02  0.80018088482E+02  0.89818232864E+02  0.12700000000E+01 0.  1.
          2    1    1    2  503    0 -0.92432585150E+00  0.92940554845E+02  0.60807705435E+03  0.61513941927E+03  0.00000000000E+00 0. -1.
         -2    1    1    2    0  501  0.23794214755E+02 -0.42023396884E+02 -0.30264096934E+03  0.30646971606E+03  0.00000000000E+00 0.  1.
<mgrwt>
<rscale>  0 0.64012818E+02</rscale>
<asrwt>0</asrwt>
<pdfrwt beam="1">  1        1 0.14365065E+00 0.84851097E+02</pdfrwt>
<pdfrwt beam="2">  1       -1 0.49648903E-01 0.48292137E+02</pdfrwt>
<totfact> 0.81969986E+01</totfact>
</mgrwt>
</event>
<event>
 7    1  0.4252091E-004  0.6841647E+02  0.7546771E-02  0.1409980E+00
          1   -1    0    0  502    0 -0.00000000000E+00  0.00000000000E+00  0.80394447272E+03  0.80394447272E+03  0.00000000000E+00 0. -1.
          2   -1    0    0  503    0  0.00000000000E+00 -0.00000000000E+00 -0.36284679703E+03  0.36284679703E+03  0.00000000000E+00 0. -1.
         25    2    1    2    0    0 -0.76208529929E+02  0.35298621643E+02 -0.49438272343E+02  0.15850316371E+03  0.12500150963E+03 0.  0.
          4    1    3    3  501    0 -0.57473633143E+02  0.58753618273E+01  0.34704881243E+02  0.67407566826E+02  0.12700000000E+01 0. -1.
         -4    1    3    3    0  501 -0.18734896786E+02  0.29423259815E+02 -0.84143153586E+02  0.91095596881E+02  0.12700000000E+01 0. -1.
          2    1    1    2  502    0  0.34659977164E+02 -0.58971941062E+02  0.74562475439E+03  0.74875582015E+03  0.00000000000E+00 0. -1.
          1    1    1    2  503    0  0.41548552765E+02  0.23673319420E+02 -0.25508880636E+03  0.25953228589E+03  0.00000000000E+00 0. -1.
<mgrwt>
<rscale>  0 0.57198285E+02</rscale>
<asrwt>0</asrwt>
<pdfrwt beam="2">  1        2 0.55822584E-01 0.47819539E+02</pdfrwt>
<pdfrwt beam="1">  1        1 0.12368376E+00 0.68416465E+02</pdfrwt>
<totfact> 0.29751458E+02</totfact>
</mgrwt>
</event>
<event>
 7    1  0.4252091E-004  0.8788966E+02  0.7546771E-02  0.1329885E+00
          1   -1    0    0  502    0 -0.00000000000E+00  0.00000000000E+00  0.13227060276E+03  0.13227060276E+03  0.00000000000E+00 0. -1.
          2   -1    0    0  503    0  0.00000000000E+00 -0.00000000000E+00 -0.51059255859E+03  0.51059255859E+03  0.00000000000E+00 0. -1.
         25    2    1    2    0    0 -0.22209979957E+02  0.75580969929E+01 -0.23380361082E+03  0.26615667378E+03  0.12499935409E+03 0.  0.
          4    1    3    3  501    0 -0.43338044837E+02 -0.16803371561E+02 -0.22882635263E+03  0.23350300209E+03  0.12700000000E+01 0.  1.
         -4    1    3    3    0  501  0.21128064881E+02  0.24361468554E+02 -0.49772581922E+01  0.32653671690E+02  0.12700000000E+01 0.  1.
          2    1    1    2  502    0 -0.74788617647E+02  0.46165514742E+02  0.84710776787E+02  0.12206763611E+03  0.00000000000E+00 0. -1.
          1    1    1    2  503    0  0.96998597604E+02 -0.53723611735E+02 -0.22922912180E+03  0.25463885147E+03  0.00000000000E+00 0. -1.
<mgrwt>
<rscale>  0 0.79707076E+02</rscale>
<asrwt>0</asrwt>
<pdfrwt beam="2">  1        2 0.78552699E-01 0.72286297E+02</pdfrwt>
<pdfrwt beam="1">  1        1 0.20349324E-01 0.87889659E+02</pdfrwt>
<totfact> 0.20285778E+03</totfact>
</mgrwt>
</event>
<event>
 7    1  0.4252091E-004  0.1323115E+03  0.7546771E-02  0.1347953E+00
          2   -1    0    0  503    0  0.00000000000E+00  0.00000000000E+00  0.12111155917E+04  0.12111155917E+04  0.00000000000E+00 0. -1.
          1   -1    0    0  502    0 -0.00000000000E+00 -0.00000000000E+00 -0.64371257363E+03  0.64371257363E+03  0.00000000000E+00 0. -1.
         25    2    1    2    0    0 -0.55744306305E+02 -0.83667958196E+02 -0.17954018791E+02  0.16141504740E+03  0.12499886329E+03 0.  0.
          4    1    3    3  501    0 -0.89749110390E+02 -0.42596428968E+02 -0.35130356079E+02  0.10538080183E+03  0.12700000000E+01 0. -1.
         -4    1    3    3    0  501  0.34004804085E+02 -0.41071529228E+02  0.17176337288E+02  0.56034245570E+02  0.12700000000E+01 0. -1.
          2    1    1    2  502    0  0.61304262552E+01 -0.40588994393E+02 -0.54933175506E+03  0.55086334576E+03  0.00000000000E+00 0. -1.
          1    1    1    2  503    0  0.49613880050E+02  0.12425695259E+03  0.11346887919E+04  0.11425497721E+04  0.00000000000E+00 0. -1.
<mgrwt>
<rscale>  0 0.73697354E+02</rscale>
<asrwt>0</asrwt>
<pdfrwt beam="1">  1        2 0.18632548E+00 0.13231149E+03</pdfrwt>
<pdfrwt beam="2">  1        1 0.99032704E-01 0.41049343E+02</pdfrwt>
<totfact> 0.96487199E+01</totfact>
</mgrwt>
</event>
<event>
 7    1  0.4252091E-004  0.2621111E+03  0.7546771E-02  0.1226982E+00
          2   -1    0    0  503    0  0.00000000000E+00  0.00000000000E+00  0.14101757190E+04  0.14101757190E+04  0.00000000000E+00 0. -1.
          1   -1    0    0  502    0 -0.00000000000E+00 -0.00000000000E+00 -0.85174448667E+03  0.85174448667E+03  0.00000000000E+00 0. -1.
         25    2    1    2    0    0 -0.73504687835E+01 -0.27604749413E+03  0.20101122847E+03  0.36371265205E+03  0.12500052354E+03 0.  0.
          4    1    3    3  501    0 -0.41132642608E+02 -0.55493334639E+02  0.96387368516E+01  0.69756165501E+02  0.12700000000E+01 0.  1.
         -4    1    3    3    0  501  0.33782173825E+02 -0.22055415949E+03  0.19137249162E+03  0.29395648655E+03  0.12700000000E+01 0.  1.
          2    1    1    2  502    0  0.67764567950E+02  0.25263000888E+03 -0.74721608763E+03  0.79167281100E+03  0.00000000000E+00 0. -1.
          1    1    1    2  503    0 -0.60414099167E+02  0.23417485247E+02  0.11046360915E+04  0.11065347426E+04  0.00000000000E+00 0. -1.
<mgrwt>
<rscale>  0 0.13031956E+03</rscale>
<asrwt>0</asrwt>
<pdfrwt beam="1">  1        2 0.21695011E+00 0.64793842E+02</pdfrwt>
<pdfrwt beam="2">  1        1 0.13103761E+00 0.26211114E+03</pdfrwt>
<totfact> 0.48926544E+01</totfact>
</mgrwt>
</event>
<event>
 7    1  0.4252091E-004  0.4486141E+02  0.7546771E-02  0.1496389E+00
          1   -1    0    0  502    0 -0.00000000000E+00  0.00000000000E+00  0.99582316773E+03  0.99582316773E+03  0.00000000000E+00 0. -1.
          2   -1    0    0  503    0  0.00000000000E+00 -0.00000000000E+00 -0.68054099029E+02  0.68054099029E+02  0.00000000000E+00 0. -1.
         25    2    1    2    0    0  0.48468551503E+01  0.30900447007E+02  0.67198711428E+03  0.68422468314E+03  0.12497361974E+03 0.  0.
          4    1    3    3  501    0 -0.33450661940E+02  0.14898944866E+02  0.60001178559E+03  0.60112950442E+03  0.12700000000E+01 0. -1.
         -4    1    3    3    0  501  0.38297517090E+02  0.16001502140E+02  0.71975328694E+02  0.83095178721E+02  0.12700000000E+01 0. -1.
          2    1    1    2  502    0  0.39296469794E+02 -0.22905868265E+02  0.30769644985E+03  0.31104018485E+03  0.00000000000E+00 0. -1.
          1    1    1    2  503    0 -0.44143324944E+02 -0.79945787420E+01 -0.51914495441E+02  0.68612398758E+02  0.00000000000E+00 0. -1.
<mgrwt>
<rscale>  0 0.41652780E+02</rscale>
<asrwt>0</asrwt>
<pdfrwt beam="2">  1        2 0.10469862E-01 0.44861414E+02</pdfrwt>
<pdfrwt beam="1">  1        1 0.15320355E+00 0.38673638E+02</pdfrwt>
<totfact> 0.13442770E+03</totfact>
</mgrwt>
</event>
<event>
 7    1  0.4252091E-004  0.8888254E+02  0.7546771E-02  0.1347856E+00
          2   -1    0    0  503    0  0.00000000000E+00  0.00000000000E+00  0.21194049187E+04  0.21194049187E+04  0.00000000000E+00 0. -1.
          1   -1    0    0  502    0 -0.00000000000E+00 -0.00000000000E+00 -0.18450953334E+02  0.18450953334E+02  0.00000000000E+00 0. -1.
         25    2    1    2    0    0 -0.10609095339E+03 -0.91153281597E+02  0.94073511547E+03  0.95925606400E+03  0.12500171085E+03 0.  0.
          4    1    3    3  501    0 -0.90139750906E+02 -0.27668758245E+02  0.28358021659E+03  0.29884793293E+03  0.12700000000E+01 0.  1.
         -4    1    3    3    0  501 -0.15951202481E+02 -0.63484523352E+02  0.65715489888E+03  0.66040813107E+03  0.12700000000E+01 0.  1.
          2    1    1    2  502    0  0.61113961112E+02  0.49713091193E+02  0.18012107242E+03  0.19659579957E+03  0.00000000000E+00 0. -1.
          1    1    1    2  503    0  0.44976992275E+02  0.41440190404E+02  0.98009777750E+03  0.98200400849E+03  0.00000000000E+00 0. -1.
<mgrwt>
<rscale>  0 0.73728008E+02</rscale>
<asrwt>0</asrwt>
<pdfrwt beam="1">  1        2 0.32606210E+00 0.61157332E+02</pdfrwt>
<pdfrwt beam="2">  1        1 0.28386099E-02 0.88882544E+02</pdfrwt>
<totfact> 0.33744614E+03</totfact>
</mgrwt>
</event>
<event>
 7    1  0.4252091E-004  0.7372309E+02  0.7546771E-02  0.1409331E+00
          2   -1    0    0  503    0  0.00000000000E+00  0.00000000000E+00  0.39252895150E+03  0.39252895150E+03  0.00000000000E+00 0. -1.
          1   -1    0    0  502    0 -0.00000000000E+00 -0.00000000000E+00 -0.23903637770E+03  0.23903637770E+03  0.00000000000E+00 0. -1.
         25    2    1    2    0    0 -0.47179453476E+02  0.88053794761E+00 -0.31300838849E+02  0.13722180587E+03  0.12499362111E+03 0.  0.
          4    1    3    3  501    0 -0.20568199017E+02 -0.58154028666E+02 -0.37432190683E+02  0.72164559586E+02  0.12700000000E+01 0. -1.
         -4    1    3    3    0  501 -0.26611254459E+02  0.59034566614E+02  0.61313518344E+01  0.65057246287E+02  0.12700000000E+01 0. -1.
          2    1    1    2  502    0  0.69543407872E+02 -0.39471809687E+02 -0.14283374019E+03  0.16369418644E+03  0.00000000000E+00 0. -1.
          1    1    1    2  503    0 -0.22363954396E+02  0.38591271740E+02  0.32762715284E+03  0.33064933689E+03  0.00000000000E+00 0. -1.
<mgrwt>
<rscale>  0 0.57343484E+02</rscale>
<asrwt>0</asrwt>
<pdfrwt beam="1">  1        2 0.60389070E-01 0.44603057E+02</pdfrwt>
<pdfrwt beam="2">  1        1 0.36774827E-01 0.73723088E+02</pdfrwt>
<totfact> 0.12885487E+03</totfact>
</mgrwt>
</event>
<event>
 7    1  0.4252091E-004  0.4821052E+02  0.7546771E-02  0.1485754E+00
          2   -1    0    0  503    0  0.00000000000E+00  0.00000000000E+00  0.78116593855E+03  0.78116593855E+03  0.00000000000E+00 0. -1.
         -2   -1    0    0    0  501 -0.00000000000E+00 -0.00000000000E+00 -0.10699913789E+03  0.10699913789E+03  0.00000000000E+00 0.  1.
         25    2    1    2    0    0 -0.18753335886E+01 -0.11406522356E+02  0.13279306401E+03  0.18273885850E+03  0.12500346766E+03 0.  0.
          4    1    3    3  502    0 -0.51860200653E+02  0.27975243914E+02  0.44283478944E+02  0.73720649015E+02  0.12700000000E+01 0. -1.
         -4    1    3    3    0  502  0.49984867065E+02 -0.39381766270E+02  0.88509585071E+02  0.10901820949E+03  0.12700000000E+01 0. -1.
          1    1    1    2  503    0  0.38254212210E+01 -0.38561019398E+02  0.61511200688E+03  0.61633137764E+03  0.00000000000E+00 0. -1.
         -1    1    1    2    0  501 -0.19500876324E+01  0.49967541753E+02 -0.73738270232E+02  0.89094840296E+02  0.00000000000E+00 0.  1.
<mgrwt>
<rscale>  0 0.43222358E+02</rscale>
<asrwt>0</asrwt>
<pdfrwt beam="1">  1        2 0.12017937E+00 0.38750304E+02</pdfrwt>
<pdfrwt beam="2">  1       -2 0.16461406E-01 0.48210517E+02</pdfrwt>
<totfact> 0.10652216E+03</totfact>
</mgrwt>
</event>
<event>
 7    1  0.4252091E-004  0.7853443E+02  0.7546771E-02  0.1352149E+00
         -2   -1    0    0    0  501 -0.00000000000E+00  0.00000000000E+00  0.89893518770E+03  0.89893518770E+03  0.00000000000E+00 0.  1.
          2   -1    0    0  503    0  0.00000000000E+00 -0.00000000000E+00 -0.95247381733E+03  0.95247381733E+03  0.00000000000E+00 0. -1.
         25    2    1    2    0    0 -0.12614728188E+03 -0.63822120318E+02 -0.21195625204E+03  0.28379258714E+03  0.12500551976E+03 0.  0.
          4    1    3    3  502    0  0.24856070462E+02 -0.10710357071E+01 -0.23058058905E+02  0.33944930944E+02  0.12700000000E+01 0. -1.
         -4    1    3    3    0  502 -0.15100335234E+03 -0.62751084611E+02 -0.18889819313E+03  0.24984765620E+03  0.12700000000E+01 0. -1.
          1    1    1    2  503    0  0.69203662222E+02  0.29039821141E+02 -0.70130449103E+03  0.70530876020E+03  0.00000000000E+00 0. -1.
         -1    1    1    2    0  501  0.56943619658E+02  0.34782299177E+02  0.85972211345E+03  0.86230765769E+03  0.00000000000E+00 0.  1.
<mgrwt>
<rscale>  0 0.72389939E+02</rscale>
<asrwt>0</asrwt>
<pdfrwt beam="2">  1        2 0.14653443E+00 0.78534433E+02</pdfrwt>
<pdfrwt beam="1">  1       -2 0.13829772E+00 0.66726188E+02</pdfrwt>
<totfact> 0.12569487E+01</totfact>
</mgrwt>
</event>
<event>
 7    1  0.4252091E-004  0.7966236E+02  0.7546771E-02  0.1340017E+00
          2   -1    0    0  503    0  0.00000000000E+00  0.00000000000E+00  0.33967974165E+04  0.33967974165E+04  0.00000000000E+00 0. -1.
         -2   -1    0    0    0  501 -0.00000000000E+00 -0.00000000000E+00 -0.30307498067E+03  0.30307498067E+03  0.00000000000E+00 0.  1.
         25    2    1    2    0    0  0.27651404874E+02  0.33049879649E+02 -0.76473892958E+01  0.13243855463E+03  0.12499837381E+03 0.  0.
          4    1    3    3  502    0  0.77736389902E+02  0.22941396787E+02 -0.63913139158E+01  0.81312457810E+02  0.12700000000E+01 0. -1.
         -4    1    3    3    0  502 -0.50084985028E+02  0.10108482862E+02 -0.12560753801E+01  0.51126096823E+02  0.12700000000E+01 0. -1.
          3    1    1    2  503    0  0.33666299028E+02 -0.72663195691E+02  0.33281912098E+04  0.33291545606E+04  0.00000000000E+00 0. -1.
         -1    1    1    2    0  501 -0.61317703902E+02  0.39613316042E+02 -0.22682138469E+03  0.23827928187E+03  0.00000000000E+00 0.  1.
<mgrwt>
<rscale>  0 0.76258726E+02</rscale>
<asrwt>0</asrwt>
<pdfrwt beam="1">  1        2 0.52258419E+00 0.79662357E+02</pdfrwt>
<pdfrwt beam="2">  1       -2 0.46626922E-01 0.73000518E+02</pdfrwt>
<totfact> 0.65616179E+00</totfact>
</mgrwt>
</event>
<event>
 7    1  0.4252091E-004  0.1384518E+03  0.7546771E-02  0.1364898E+00
          2   -1    0    0  503    0  0.00000000000E+00  0.00000000000E+00  0.23134287992E+03  0.23134287992E+03  0.00000000000E+00 0. -1.
          1   -1    0    0  502    0 -0.00000000000E+00 -0.00000000000E+00 -0.16674166316E+03  0.16674166316E+03  0.00000000000E+00 0. -1.
         25    2    1    2    0    0 -0.90406742243E+02 -0.94587737265E+02  0.99919724304E+02  0.20670977795E+03  0.12499904764E+03 0.  0.
          4    1    3    3  501    0  0.19985264989E+02  0.14754398512E+02  0.20355196627E+02  0.32141095530E+02  0.12700000000E+01 0. -1.
         -4    1    3    3    0  501 -0.11039200723E+03 -0.10934213578E+03  0.79564527677E+02  0.17456868242E+03  0.12700000000E+01 0. -1.
          2    1    1    2  502    0  0.11926616923E+03  0.76619287722E+02 -0.55046492464E+02  0.15206922998E+03  0.00000000000E+00 0. -1.
          1    1    1    2  503    0 -0.28859426986E+02  0.17968449543E+02  0.19727984918E+02  0.39305535156E+02  0.00000000000E+00 0. -1.
<mgrwt>
<rscale>  0 0.68606232E+02</rscale>
<asrwt>0</asrwt>
<pdfrwt beam="1">  1        2 0.35591212E-01 0.33996054E+02</pdfrwt>
<pdfrwt beam="2">  1        1 0.25652563E-01 0.13845180E+03</pdfrwt>
<totfact> 0.34533142E+03</totfact>
</mgrwt>
</event>
<event>
 7    1  0.4252091E-004  0.1042412E+03  0.7546771E-02  0.1278137E+00
         -2   -1    0    0    0  501 -0.00000000000E+00  0.00000000000E+00  0.10206174688E+03  0.10206174688E+03  0.00000000000E+00 0.  1.
          2   -1    0    0  503    0  0.00000000000E+00 -0.00000000000E+00 -0.22836314516E+04  0.22836314516E+04  0.00000000000E+00 0. -1.
         25    2    1    2    0    0  0.70575398704E+02 -0.37869299811E+02 -0.36201620306E+03  0.39127488694E+03  0.12500134039E+03 0.  0.
          4    1    3    3  502    0 -0.10331776898E+02 -0.13344155712E+02  0.24760335936E+01  0.17104261103E+02  0.12700000000E+01 0.  1.
         -4    1    3    3    0  502  0.80907175602E+02 -0.24525144099E+02 -0.36449223665E+03  0.37417062583E+03  0.12700000000E+01 0.  1.
          1    1    1    2  503    0 -0.66325655298E+02 -0.72043107796E+02 -0.18705962063E+04  0.18731576199E+04  0.00000000000E+00 0. -1.
         -1    1    1    2    0  501 -0.42497434053E+01  0.10991240761E+03  0.51042704582E+02  0.12126069172E+03  0.00000000000E+00 0.  1.
<mgrwt>
<rscale>  0 0.10103374E+03</rscale>
<asrwt>0</asrwt>
<pdfrwt beam="2">  1        2 0.35132793E+00 0.97924981E+02</pdfrwt>
<pdfrwt beam="1">  1       -2 0.15701806E-01 0.10424119E+03</pdfrwt>
<totfact> 0.18146988E+02</totfact>
</mgrwt>
</event>
<event>
 7    1  0.4252091E-004  0.8487771E+02  0.7546771E-02  0.1407359E+00
         -1   -1    0    0    0  501 -0.00000000000E+00  0.00000000000E+00  0.26070501123E+03  0.26070501123E+03  0.00000000000E+00 0.  1.
          1   -1    0    0  503    0  0.00000000000E+00 -0.00000000000E+00 -0.10944581139E+04  0.10944581139E+04  0.00000000000E+00 0. -1.
         25    2    1    2    0    0  0.61494388848E+02  0.99327893890E+02  0.74569685731E+02  0.18663540205E+03  0.12499817960E+03 0.  0.
          4    1    3    3  502    0  0.80834665407E+02  0.11623475319E+03  0.47611223605E+02  0.14937604391E+03  0.12700000000E+01 0.  1.
         -4    1    3    3    0  502 -0.19340276558E+02 -0.16906859301E+02  0.26958462126E+02  0.37259358140E+02  0.12700000000E+01 0.  1.
          2    1    1    2  503    0 -0.27234123504E+02 -0.79985294894E+02 -0.10336871323E+04  0.10371347224E+04  0.00000000000E+00 0. -1.
         -2    1    1    2    0  501 -0.34260265344E+02 -0.19342598996E+02  0.12536434389E+03  0.13139300072E+03  0.00000000000E+00 0.  1.
<mgrwt>
<rscale>  0 0.57787337E+02</rscale>
<asrwt>0</asrwt>
<pdfrwt beam="2">  1        1 0.16837817E+00 0.84877707E+02</pdfrwt>
<pdfrwt beam="1">  1       -1 0.40108463E-01 0.39343385E+02</pdfrwt>
<totfact> 0.90896519E+01</totfact>
</mgrwt>
</event>
<event>
 7    1  0.4252091E-004  0.6552622E+02  0.7546771E-02  0.1412021E+00
          2   -1    0    0  503    0  0.00000000000E+00  0.00000000000E+00  0.11568747671E+03  0.11568747671E+03  0.00000000000E+00 0. -1.
          1   -1    0    0  502    0 -0.00000000000E+00 -0.00000000000E+00 -0.33943858137E+04  0.33943858137E+04  0.00000000000E+00 0. -1.
         25    2    1    2    0    0 -0.10112370358E+03 -0.82523692288E+01 -0.25102526084E+04  0.25154083075E+04  0.12496675846E+03 0.  0.
          4    1    3    3  501    0 -0.23018956869E+02  0.72053774150E+01 -0.73744478274E+02  0.77599296484E+02  0.12700000000E+01 0. -1.
         -4    1    3    3    0  501 -0.78104746713E+02 -0.15457746644E+02 -0.24365081301E+04  0.24378090110E+04  0.12700000000E+01 0. -1.
          2    1    1    2  502    0  0.52327505181E+02  0.14065353893E+02 -0.87534036809E+03  0.87701582767E+03  0.00000000000E+00 0. -1.
          1    1    1    2  503    0  0.48796198402E+02 -0.58129846640E+01  0.10689463948E+03  0.11764915520E+03  0.00000000000E+00 0. -1.
<mgrwt>
<rscale>  0 0.56745386E+02</rscale>
<asrwt>0</asrwt>
<pdfrwt beam="1">  1        2 0.17798072E-01 0.49141223E+02</pdfrwt>
<pdfrwt beam="2">  1        1 0.52221324E+00 0.65526224E+02</pdfrwt>
<totfact> 0.19778237E+01</totfact>
</mgrwt>
</event>
<event>
 7    1  0.4252091E-004  0.2841906E+02  0.7546771E-02  0.1653041E+00
          2   -1    0    0  503    0  0.00000000000E+00  0.00000000000E+00  0.20132316444E+04  0.20132316444E+04  0.00000000000E+00 0. -1.
         -2   -1    0    0    0  501 -0.00000000000E+00 -0.00000000000E+00 -0.71795675157E+02  0.71795675157E+02  0.00000000000E+00 0.  1.
         25    2    1    2    0    0 -0.14464004871E+02 -0.45448573661E+02  0.20811896397E+03  0.24741498985E+03  0.12500357498E+03 0.  0.
          4    1    3    3  502    0 -0.65360868690E+02 -0.17800367507E+01  0.85427891898E+02  0.10758600885E+03  0.12700000000E+01 0.  1.
         -4    1    3    3    0  502  0.50896863820E+02 -0.43668536910E+02  0.12269107207E+03  0.13982898100E+03  0.12700000000E+01 0.  1.
          1    1    1    2  503    0  0.17070169671E+02  0.22602268227E+02  0.17828118475E+04  0.17830368299E+04  0.00000000000E+00 0. -1.
         -1    1    1    2    0  501 -0.26061648008E+01  0.22846305434E+02 -0.49494842244E+02  0.54575499775E+02  0.00000000000E+00 0.  1.
<mgrwt>
<rscale>  0 0.25563281E+02</rscale>
<asrwt>0</asrwt>
<pdfrwt beam="1">  1        2 0.30972790E+00 0.28419061E+02</pdfrwt>
<pdfrwt beam="2">  1       -2 0.11045490E-01 0.22994473E+02</pdfrwt>
<totfact> 0.44966892E+02</totfact>
</mgrwt>
</event>
<event>
 7    1  0.4252091E-004  0.1004557E+03  0.7546771E-02  0.1417478E+00
          1   -1    0    0  503    0  0.00000000000E+00  0.00000000000E+00  0.15078836889E+03  0.15078836889E+03  0.00000000000E+00 0. -1.
         -1   -1    0    0    0  501 -0.00000000000E+00 -0.00000000000E+00 -0.23095971598E+03  0.23095971598E+03  0.00000000000E+00 0.  1.
         25    2    1    2    0    0 -0.95874850258E+02 -0.14407754020E+02 -0.61778366731E+02  0.16982730589E+03  0.12500070777E+03 0.  0.
          4    1    3    3  502    0 -0.39232438078E+02  0.44328836609E+02  0.11302489990E+02  0.60279259556E+02  0.12700000000E+01 0. -1.
         -4    1    3    3    0  502 -0.56642412180E+02 -0.58736590629E+02 -0.73080856721E+02  0.10954804633E+03  0.12700000000E+01 0. -1.
          2    1    1    2  503    0  0.91798116371E+02  0.44863084075E+02  0.66317483033E+02  0.12180968368E+03  0.00000000000E+00 0. -1.
         -2    1    1    2    0  501  0.40767338863E+01 -0.30455330055E+02 -0.84710463395E+02  0.90111095302E+02  0.00000000000E+00 0.  1.
<mgrwt>
<rscale>  0 0.55558078E+02</rscale>
<asrwt>0</asrwt>
<pdfrwt beam="1">  1        1 0.23198211E-01 0.10045571E+03</pdfrwt>
<pdfrwt beam="2">  1       -1 0.35532264E-01 0.30726973E+02</pdfrwt>
<totfact> 0.15259151E+03</totfact>
</mgrwt>
</event>
<event>
 7    1  0.4252091E-004  0.2708637E+03  0.7546771E-02  0.1179040E+00
          2   -1    0    0  503    0  0.00000000000E+00  0.00000000000E+00  0.52519526200E+03  0.52519526200E+03  0.00000000000E+00 0. -1.
          1   -1    0    0  502    0 -0.00000000000E+00 -0.00000000000E+00 -0.17029834551E+04  0.17029834551E+04  0.00000000000E+00 0. -1.
         25    2    1    2    0    0  0.54095823503E+02 -0.26516488841E+03 -0.12215360374E+04  0.12573819541E+04  0.12498124520E+03 0.  0.
          4    1    3    3  501    0 -0.29554854082E+02 -0.16007663872E+03 -0.61812493447E+03  0.63920111638E+03  0.12700000000E+01 0.  1.
         -4    1    3    3    0  501  0.83650677585E+02 -0.10508824969E+03 -0.60341110292E+03  0.61818083771E+03  0.12700000000E+01 0.  1.
          2    1    1    2  502    0 -0.10526179117E+03 -0.14292602731E+01 -0.42024430127E+03  0.43322899281E+03  0.00000000000E+00 0. -1.
          1    1    1    2  503    0  0.51165967662E+02  0.26659414869E+03  0.46399214559E+03  0.53756777017E+03  0.00000000000E+00 0. -1.
<mgrwt>
<rscale>  0 0.16886156E+03</rscale>
<asrwt>0</asrwt>
<pdfrwt beam="1">  1        2 0.80799271E-01 0.27086370E+03</pdfrwt>
<pdfrwt beam="2">  1        1 0.26199746E+00 0.10527149E+03</pdfrwt>
<totfact> 0.46809223E+01</totfact>
</mgrwt>
</event>
<event>
 7    1  0.4252091E-004  0.1085692E+03  0.7546771E-02  0.1289216E+00
          2   -1    0    0  503    0  0.00000000000E+00  0.00000000000E+00  0.18456337933E+04  0.18456337933E+04  0.00000000000E+00 0. -1.
         -2   -1    0    0    0  501 -0.00000000000E+00 -0.00000000000E+00 -0.86145169979E+02  0.86145169979E+02  0.00000000000E+00 0.  1.
         25    2    1    2    0    0 -0.12282483626E+03  0.14223133051E+03  0.60503176077E+03  0.64575807778E+03  0.12499748674E+03 0.  0.
          4    1    3    3  502    0 -0.97969981604E+02  0.23714305321E+02  0.21708760514E+03  0.23935147122E+03  0.12700000000E+01 0. -1.
         -4    1    3    3    0  502 -0.24854854657E+02  0.11851702519E+03  0.38794415563E+03  0.40640660655E+03  0.12700000000E+01 0. -1.
          1    1    1    2  503    0  0.53778334552E+02 -0.65392702925E+02  0.11772023362E+04  0.11802430492E+04  0.00000000000E+00 0. -1.
         -1    1    1    2    0  501  0.69046501709E+02 -0.76838627590E+02 -0.22745473611E+02  0.10577783633E+03  0.00000000000E+00 0.  1.
<mgrwt>
<rscale>  0 0.95875477E+02</rscale>
<asrwt>0</asrwt>
<pdfrwt beam="1">  1        2 0.28394363E+00 0.84665901E+02</pdfrwt>
<pdfrwt beam="2">  1       -2 0.13253104E-01 0.10856918E+03</pdfrwt>
<totfact> 0.40474325E+02</totfact>
</mgrwt>
</event>
<event>
 7    1  0.4252091E-004  0.2291432E+03  0.7546771E-02  0.1361238E+00
          2   -1    0    0  503    0  0.00000000000E+00  0.00000000000E+00  0.89410671590E+03  0.89410671590E+03  0.00000000000E+00 0. -1.
         -2   -1    0    0    0  501 -0.00000000000E+00 -0.00000000000E+00 -0.16896623883E+03  0.16896623883E+03  0.00000000000E+00 0.  1.
         25    2    1    2    0    0  0.11763734142E+03 -0.21414050730E+03  0.23704023338E+03  0.36263847586E+03  0.12499556381E+03 0.  0.
          4    1    3    3  502    0 -0.24511143400E+02 -0.14586241154E+02  0.16413891230E+02  0.32933012421E+02  0.12700000000E+01 0. -1.
         -4    1    3    3    0  502  0.14214848482E+03 -0.19955426615E+03  0.22062634215E+03  0.32970546344E+03  0.12700000000E+01 0. -1.
          1    1    1    2  503    0 -0.11350041827E+02  0.17881484714E+02  0.47646930566E+03  0.47693979723E+03  0.00000000000E+00 0. -1.
         -1    1    1    2    0  501 -0.10628729959E+03  0.19625902259E+03  0.11630938022E+02  0.22349468164E+03  0.00000000000E+00 0.  1.
<mgrwt>
<rscale>  0 0.69664459E+02</rscale>
<asrwt>0</asrwt>
<pdfrwt beam="1">  1        2 0.13755488E+00 0.21179494E+02</pdfrwt>
<pdfrwt beam="2">  1       -2 0.25994806E-01 0.22914320E+03</pdfrwt>
<totfact> 0.45654552E+02</totfact>
</mgrwt>
</event>
<event>
 7    1  0.8238581E-004  0.5481255E+02  0.7546771E-02  0.1487378E+00
          2   -1    0    0  503    0  0.00000000000E+00  0.00000000000E+00  0.22078037228E+03  0.22078037228E+03  0.00000000000E+00 0.  1.
         -2   -1    0    0    0  501 -0.00000000000E+00 -0.00000000000E+00 -0.64257093569E+02  0.64257093569E+02  0.00000000000E+00 0. -1.
         25    2    1    2    0    0 -0.39652137399E+02 -0.21026658704E+02  0.84610228002E+02  0.15747176545E+03  0.12499621536E+03 0.  0.
          4    1    3    3  502    0 -0.67258238820E+02 -0.92867926065E+01  0.23000291126E+00  0.67908622482E+02  0.12700000000E+01 0. -1.
         -4    1    3    3    0  502  0.27606101421E+02 -0.11739866097E+02  0.84380225091E+02  0.89563142967E+02  0.12700000000E+01 0. -1.
          3    1    1    2  503    0  0.33505828143E+02  0.54159104050E+02  0.22071817217E+02  0.67401885628E+02  0.00000000000E+00 0. -1.
         -3    1    1    2    0  501  0.61463092561E+01 -0.33132445346E+02  0.49841233492E+02  0.60163814774E+02  0.00000000000E+00 0.  1.
<mgrwt>
<rscale>  0 0.42977410E+02</rscale>
<asrwt>0</asrwt>
<pdfrwt beam="1">  1        2 0.33966211E-01 0.54812552E+02</pdfrwt>
<pdfrwt beam="2">  1       -2 0.98857068E-02 0.33697716E+02</pdfrwt>
<totfact> 0.86262766E+03</totfact>
</mgrwt>
</event>
<event>
 7    1  0.4252091E-004  0.2776025E+03  0.7546771E-02  0.1215124E+00
          2   -1    0    0  503    0  0.00000000000E+00  0.00000000000E+00  0.30888844648E+03  0.30888844648E+03  0.00000000000E+00 0. -1.
          1   -1    0    0  502    0 -0.00000000000E+00 -0.00000000000E+00 -0.15184120361E+04  0.15184120361E+04  0.00000000000E+00 0. -1.
         25    2    1    2    0    0 -0.21434497375E+03 -0.17659855690E+03 -0.37452717646E+03  0.48272774097E+03  0.12499859170E+03 0.  0.
          4    1    3    3  501    0 -0.15963781728E+02 -0.81513921743E+02 -0.12479109096E+03  0.14991261137E+03  0.12700000000E+01 0. -1.
         -4    1    3    3    0  501 -0.19838119202E+03 -0.95084635155E+02 -0.24973608550E+03  0.33281512960E+03  0.12700000000E+01 0. -1.
          2    1    1    2  502    0  0.49559314318E+02 -0.48401245252E+02 -0.10119265039E+04  0.10142948563E+04  0.00000000000E+00 0. -1.
          1    1    1    2  503    0  0.16478565943E+03  0.22499980215E+03  0.17693009075E+03  0.33027788533E+03  0.00000000000E+00 0. -1.
<mgrwt>
<rscale>  0 0.13867399E+03</rscale>
<asrwt>0</asrwt>
<pdfrwt beam="1">  1        2 0.47521299E-01 0.27760252E+03</pdfrwt>
<pdfrwt beam="2">  1        1 0.23360185E+00 0.69273416E+02</pdfrwt>
<totfact> 0.11458070E+02</totfact>
</mgrwt>
</event>
<event>
 7    1  0.4252091E-004  0.1229182E+03  0.7546771E-02  0.1326168E+00
          2   -1    0    0  503    0  0.00000000000E+00  0.00000000000E+00  0.12314704148E+04  0.12314704148E+04  0.00000000000E+00 0. -1.
          1   -1    0    0  502    0 -0.00000000000E+00 -0.00000000000E+00 -0.30232482346E+03  0.30232482346E+03  0.00000000000E+00 0. -1.
         25    2    1    2    0    0  0.86647744135E+02 -0.45246820844E+02 -0.64038669309E+02  0.17111718114E+03  0.12500012862E+03 0.  0.
          4    1    3    3  501    0  0.98462310666E+02 -0.75746635602E+02 -0.60535499616E+02  0.13819746394E+03  0.12700000000E+01 0.  1.
         -4    1    3    3    0  501 -0.11814566530E+02  0.30499814758E+02 -0.35031696926E+01  0.32919717199E+02  0.12700000000E+01 0.  1.
          2    1    1    2  502    0 -0.10430595800E+02 -0.52381306744E+02 -0.17755060037E+03  0.18540985496E+03  0.00000000000E+00 0. -1.
          1    1    1    2  503    0 -0.76217148336E+02  0.97628127588E+02  0.11707348610E+04  0.11772682021E+04  0.00000000000E+00 0. -1.
<mgrwt>
<rscale>  0 0.81024867E+02</rscale>
<asrwt>0</asrwt>
<pdfrwt beam="1">  1        2 0.18945698E+00 0.12291824E+03</pdfrwt>
<pdfrwt beam="2">  1        1 0.46511512E-01 0.53409724E+02</pdfrwt>
<totfact> 0.23939011E+02</totfact>
</mgrwt>
</event>
<event>
 7    1  0.4252091E-004  0.8683223E+02  0.7546771E-02  0.1311987E+00
          2   -1    0    0  503    0  0.00000000000E+00  0.00000000000E+00  0.20606594432E+04  0.20606594432E+04  0.00000000000E+00 0. -1.
         -2   -1    0    0    0  501 -0.00000000000E+00 -0.00000000000E+00 -0.76982581351E+03  0.76982581351E+03  0.00000000000E+00 0.  1.
         25    2    1    2    0    0 -0.13450134545E+02  0.10030393039E+03  0.21929925440E+02  0.16232118999E+03  0.12500185007E+03 0.  0.
          4    1    3    3  502    0  0.47678119460E+02  0.59123063351E+01  0.11192846500E+02  0.49346237487E+02  0.12700000000E+01 0. -1.
         -4    1    3    3    0  502 -0.61128254005E+02  0.94391624054E+02  0.10737078941E+02  0.11297495250E+03  0.12700000000E+01 0. -1.
          1    1    1    2  503    0 -0.62663651827E+02 -0.60629882012E+02  0.19649308343E+04  0.19668644843E+04  0.00000000000E+00 0. -1.
         -1    1    1    2    0  501  0.76113786372E+02 -0.39674048377E+02 -0.69602713005E+03  0.70129958246E+03  0.00000000000E+00 0.  1.
<mgrwt>
<rscale>  0 0.86331272E+02</rscale>
<asrwt>0</asrwt>
<pdfrwt beam="1">  1        2 0.31702453E+00 0.86832233E+02</pdfrwt>
<pdfrwt beam="2">  1       -2 0.11843474E+00 0.85833202E+02</pdfrwt>
<totfact> 0.47486986E+00</totfact>
</mgrwt>
</event>
<event>
 7    1  0.4252091E-004  0.1492394E+03  0.7546771E-02  0.1206015E+00
         -2   -1    0    0    0  501 -0.00000000000E+00  0.00000000000E+00  0.92158892403E+03  0.92158892403E+03  0.00000000000E+00 0.  1.
          2   -1    0    0  503    0  0.00000000000E+00 -0.00000000000E+00 -0.34537053563E+03  0.34537053563E+03  0.00000000000E+00 0. -1.
         25    2    1    2    0    0 -0.78258216128E+02 -0.49644420518E+02  0.12495516580E+03  0.19956747398E+03  0.12499786530E+03 0.  0.
          4    1    3    3  502    0 -0.52631597825E+02 -0.73152577311E+02  0.13591583723E+03  0.16308314557E+03  0.12700000000E+01 0.  1.
         -4    1    3    3    0  502 -0.25626618303E+02  0.23508156793E+02 -0.10960671433E+02  0.36484328412E+02  0.12700000000E+01 0.  1.
          1    1    1    2  503    0  0.94755146273E+02 -0.11529895191E+03 -0.28015429284E+03  0.31742528862E+03  0.00000000000E+00 0. -1.
         -1    1    1    2    0  501 -0.16496930145E+02  0.16494337243E+03  0.73141751544E+03  0.74996669707E+03  0.00000000000E+00 0.  1.
<mgrwt>
<rscale>  0 0.14557787E+03</rscale>
<asrwt>0</asrwt>
<pdfrwt beam="2">  1        2 0.53133929E-01 0.14923936E+03</pdfrwt>
<pdfrwt beam="1">  1       -2 0.14178291E+00 0.14200622E+03</pdfrwt>
<totfact> 0.35807373E+01</totfact>
</mgrwt>
</event>
<event>
 7    1  0.4252091E-004  0.7424821E+02  0.7546771E-02  0.1370456E+00
          2   -1    0    0  503    0  0.00000000000E+00  0.00000000000E+00  0.31875557171E+04  0.31875557171E+04  0.00000000000E+00 0. -1.
          1   -1    0    0  502    0 -0.00000000000E+00 -0.00000000000E+00 -0.77916373391E+01  0.77916373391E+01  0.00000000000E+00 0. -1.
         25    2    1    2    0    0  0.33102307408E+02 -0.34752935166E+02  0.17373198739E+04  0.17424724332E+04  0.12500522774E+03 0.  0.
          4    1    3    3  501    0  0.19692007061E+02  0.10439174792E+02  0.53220510270E+02  0.57712971902E+02  0.12700000000E+01 0. -1.
         -4    1    3    3    0  501  0.13410300347E+02 -0.45192109957E+02  0.16840993637E+04  0.16847594613E+04  0.12700000000E+01 0. -1.
          2    1    1    2  502    0 -0.62296738980E+02 -0.40396935619E+02  0.36831135012E+03  0.37572070308E+03  0.00000000000E+00 0. -1.
          1    1    1    2  503    0  0.29194431572E+02  0.75149870785E+02  0.10741328557E+04  0.10771542181E+04  0.00000000000E+00 0. -1.
<mgrwt>
<rscale>  0 0.67040662E+02</rscale>
<asrwt>0</asrwt>
<pdfrwt beam="1">  1        2 0.49039215E+00 0.60532780E+02</pdfrwt>
<pdfrwt beam="2">  1        1 0.11987160E-02 0.74248206E+02</pdfrwt>
<totfact> 0.29214277E+03</totfact>
</mgrwt>
</event>
<event>
 7    1  0.4252091E-004  0.6801084E+02  0.7546771E-02  0.1448122E+00
          2   -1    0    0  503    0  0.00000000000E+00  0.00000000000E+00  0.10679350562E+04  0.10679350562E+04  0.00000000000E+00 0. -1.
          1   -1    0    0  502    0 -0.00000000000E+00 -0.00000000000E+00 -0.10793690998E+03  0.10793690998E+03  0.00000000000E+00 0. -1.
         25    2    1    2    0    0 -0.77414908778E+02 -0.27643278134E+02  0.33495159043E+02  0.15330950269E+03  0.12499863603E+03 0.  0.
          4    1    3    3  501    0 -0.23402590252E+02  0.27912702353E+01 -0.46468774855E+02  0.52119404799E+02  0.12700000000E+01 0.  1.
         -4    1    3    3    0  501 -0.54012318527E+02 -0.30434548369E+02  0.79963933898E+02  0.10119009789E+03  0.12700000000E+01 0.  1.
          2    1    1    2  502    0  0.98898950834E+01  0.34625312056E+02 -0.39917924954E+02  0.53760236163E+02  0.00000000000E+00 0. -1.
          1    1    1    2  503    0  0.67525013695E+02 -0.69820339219E+01  0.96642091211E+03  0.96880222730E+03  0.00000000000E+00 0. -1.
<mgrwt>
<rscale>  0 0.49488104E+02</rscale>
<asrwt>0</asrwt>
<pdfrwt beam="1">  1        2 0.16429769E+00 0.68010842E+02</pdfrwt>
<pdfrwt beam="2">  1        1 0.16605679E-01 0.36010030E+02</pdfrwt>
<totfact> 0.10438258E+03</totfact>
</mgrwt>
</event>
<event>
 7    1  0.4252091E-004  0.6080345E+02  0.7546771E-02  0.1425172E+00
          1   -1    0    0  502    0 -0.00000000000E+00  0.00000000000E+00  0.68193678237E+03  0.68193678237E+03  0.00000000000E+00 0. -1.
          2   -1    0    0  503    0  0.00000000000E+00 -0.00000000000E+00 -0.17536519524E+04  0.17536519524E+04  0.00000000000E+00 0. -1.
         25    2    1    2    0    0  0.59076700250E+01 -0.64652607683E+02 -0.82238832133E+02  0.16310341083E+03  0.12499854747E+03 0.  0.
          4    1    3    3  501    0  0.57957020468E+02 -0.66256912102E+02 -0.59553392428E+02  0.10628835342E+03  0.12700000000E+01 0. -1.
         -4    1    3    3    0  501 -0.52049350443E+02  0.16043044187E+01 -0.22685439704E+02  0.56815057412E+02  0.12700000000E+01 0. -1.
          2    1    1    2  502    0  0.38637692524E+02  0.47167936021E+02  0.63970355556E+03  0.64260277347E+03  0.00000000000E+00 0. -1.
          1    1    1    2  503    0 -0.44545362549E+02  0.17484671662E+02 -0.16291798934E+04  0.16298825504E+04  0.00000000000E+00 0. -1.
<mgrwt>
<rscale>  0 0.53941513E+02</rscale>
<asrwt>0</asrwt>
<pdfrwt beam="2">  1        2 0.26979260E+00 0.47853977E+02</pdfrwt>
<pdfrwt beam="1">  1        1 0.10491335E+00 0.60803448E+02</pdfrwt>
<totfact> 0.50444151E+01</totfact>
</mgrwt>
</event>
<event>
 7    1  0.4252091E-004  0.7706607E+02  0.7546771E-02  0.1360443E+00
          2   -1    0    0  503    0  0.00000000000E+00  0.00000000000E+00  0.99261263738E+03  0.99261263738E+03  0.00000000000E+00 0. -1.
          1   -1    0    0  502    0 -0.00000000000E+00 -0.00000000000E+00 -0.22833871802E+03  0.22833871802E+03  0.00000000000E+00 0. -1.
         25    2    1    2    0    0  0.36063775358E+02 -0.20938658113E+02  0.36387154562E+03  0.38699865127E+03  0.12500572419E+03 0.  0.
          4    1    3    3  501    0 -0.25031789733E+02  0.34662473504E+02  0.18630896788E+03  0.19115627633E+03  0.12700000000E+01 0. -1.
         -4    1    3    3    0  501  0.61095565092E+02 -0.55601131617E+02  0.17756257773E+03  0.19584237494E+03  0.12700000000E+01 0. -1.
          2    1    1    2  502    0 -0.54028757110E+01 -0.63164402856E+02 -0.20879831466E+03  0.21821014884E+03  0.00000000000E+00 0. -1.
          1    1    1    2  503    0 -0.30660899647E+02  0.84103060969E+02  0.60920068841E+03  0.61574255528E+03  0.00000000000E+00 0. -1.
<mgrwt>
<rscale>  0 0.69897123E+02</rscale>
<asrwt>0</asrwt>
<pdfrwt beam="1">  1        2 0.15270963E+00 0.77066073E+02</pdfrwt>
<pdfrwt beam="2">  1        1 0.35129034E-01 0.63395054E+02</pdfrwt>
<totfact> 0.47008141E+02</totfact>
</mgrwt>
</event>
<event>
 7    1  0.4252091E-004  0.1638702E+03  0.7546771E-02  0.1245209E+00
          2   -1    0    0  503    0  0.00000000000E+00  0.00000000000E+00  0.23757893381E+04  0.23757893381E+04  0.00000000000E+00 0. -1.
         -2   -1    0    0    0  501 -0.00000000000E+00 -0.00000000000E+00 -0.25832613377E+03  0.25832613377E+03  0.00000000000E+00 0.  1.
         25    2    1    2    0    0  0.99365108786E+02  0.13105043773E+03 -0.85365390870E+02  0.22351680889E+03  0.12499948730E+03 0.  0.
          4    1    3    3  502    0  0.29275930229E+02  0.13323414433E+03 -0.54904494251E+02  0.14705282620E+03  0.12700000000E+01 0.  1.
         -4    1    3    3    0  502  0.70089178557E+02 -0.21837065968E+01 -0.30460896619E+02  0.76463982686E+02  0.12700000000E+01 0.  1.
          1    1    1    2  503    0 -0.75170991744E+02  0.41823972723E+02  0.22319670798E+04  0.22336241779E+04  0.00000000000E+00 0. -1.
         -1    1    1    2    0  501 -0.24194117042E+02 -0.17287441045E+03 -0.29138484616E+02  0.17697448510E+03  0.00000000000E+00 0.  1.
<mgrwt>
<rscale>  0 0.11872901E+03</rscale>
<asrwt>0</asrwt>
<pdfrwt beam="1">  1        2 0.36550604E+00 0.86022803E+02</pdfrwt>
<pdfrwt beam="2">  1       -2 0.39742484E-01 0.16387025E+03</pdfrwt>
<totfact> 0.32907574E+01</totfact>
</mgrwt>
</event>
<event>
 7    1  0.4252091E-004  0.5089265E+02  0.7546771E-02  0.1518190E+00
          1   -1    0    0  502    0 -0.00000000000E+00  0.00000000000E+00  0.79294277649E+01  0.79294277649E+01  0.00000000000E+00 0. -1.
          2   -1    0    0  503    0  0.00000000000E+00 -0.00000000000E+00 -0.20340806001E+04  0.20340806001E+04  0.00000000000E+00 0. -1.
         25    2    1    2    0    0 -0.53543968914E+02 -0.20012750893E+02 -0.13237800287E+04  0.13308980945E+04  0.12501482582E+03 0.  0.
          4    1    3    3  501    0 -0.54541648348E+02 -0.14475146663E+02 -0.22071582549E+03  0.22781880913E+03  0.12700000000E+01 0.  1.
         -4    1    3    3    0  501  0.99767943415E+00 -0.55376042300E+01 -0.11030642032E+04  0.11030792853E+04  0.12700000000E+01 0.  1.
          2    1    1    2  502    0  0.31846650905E+02  0.39839061542E+02 -0.15972957695E+03  0.16767497652E+03  0.00000000000E+00 0. -1.
          1    1    1    2  503    0  0.21697318008E+02 -0.19826310649E+02 -0.54264156672E+03  0.54343695691E+03  0.00000000000E+00 0. -1.
<mgrwt>
<rscale>  0 0.38675675E+02</rscale>
<asrwt>0</asrwt>
<pdfrwt beam="2">  1        2 0.31293604E+00 0.29391431E+02</pdfrwt>
<pdfrwt beam="1">  1        1 0.12199098E-02 0.50892651E+02</pdfrwt>
<totfact> 0.11894762E+04</totfact>
</mgrwt>
</event>
<event>
 7    1  0.4252091E-004  0.4987150E+02  0.7546771E-02  0.1530281E+00
          3   -1    0    0  502    0 -0.00000000000E+00  0.00000000000E+00  0.79738933705E+03  0.79738933705E+03  0.00000000000E+00 0. -1.
          2   -1    0    0  503    0  0.00000000000E+00 -0.00000000000E+00 -0.65907828067E+03  0.65907828067E+03  0.00000000000E+00 0. -1.
         25    2    1    2    0    0 -0.97506937865E+01  0.32432941907E+02  0.12399762040E+03  0.17929699458E+03  0.12500012260E+03 0.  0.
          4    1    3    3  501    0  0.32307489694E+02  0.66975792926E+02  0.80654913634E+02  0.10971034009E+03  0.12700000000E+01 0. -1.
         -4    1    3    3    0  501 -0.42058183480E+02 -0.34542851020E+02  0.43342706768E+02  0.69586654498E+02  0.12700000000E+01 0. -1.
          2    1    1    2  502    0  0.22668102705E+02  0.15878887305E+02  0.64445438463E+03  0.64504839803E+03  0.00000000000E+00 0. -1.
          1    1    1    2  503    0 -0.12917408918E+02 -0.48311829211E+02 -0.63014094866E+03  0.63212222510E+03  0.00000000000E+00 0. -1.
<mgrwt>
<rscale>  0 0.37151883E+02</rscale>
<asrwt>0</asrwt>
<pdfrwt beam="2">  1        2 0.10139666E+00 0.49871496E+02</pdfrwt>
<pdfrwt beam="1">  1        3 0.12267528E+00 0.27676379E+02</pdfrwt>
<totfact> 0.15984786E+01</totfact>
</mgrwt>
</event>
<event>
 7    1  0.4252091E-004  0.7677105E+02  0.7546771E-02  0.1380037E+00
          2   -1    0    0  503    0  0.00000000000E+00  0.00000000000E+00  0.26042383878E+04  0.26042383878E+04  0.00000000000E+00 0. -1.
          1   -1    0    0  502    0 -0.00000000000E+00 -0.00000000000E+00 -0.13678201971E+04  0.13678201971E+04  0.00000000000E+00 0. -1.
         25    2    1    2    0    0 -0.91542750050E+02 -0.88047429070E+02  0.17680877343E+03  0.25103888456E+03  0.12500701719E+03 0.  0.
          4    1    3    3  501    0 -0.39087465088E+02 -0.53517194344E+02  0.17616499951E+03  0.18822231529E+03  0.12700000000E+01 0.  1.
         -4    1    3    3    0  501 -0.52455284962E+02 -0.34530234726E+02  0.64377391723E+00  0.62816569275E+02  0.12700000000E+01 0.  1.
          2    1    1    2  502    0  0.43652075238E+02  0.62853858860E+02 -0.13292982974E+04  0.13314991831E+04  0.00000000000E+00 0. -1.
          1    1    1    2  503    0  0.47890674812E+02  0.25193570211E+02  0.23889077147E+04  0.23895205172E+04  0.00000000000E+00 0. -1.
<mgrwt>
<rscale>  0 0.64454038E+02</rscale>
<asrwt>0</asrwt>
<pdfrwt beam="1">  1        2 0.40065206E+00 0.54113147E+02</pdfrwt>
<pdfrwt beam="2">  1        1 0.21043388E+00 0.76771047E+02</pdfrwt>
<totfact> 0.59187935E+00</totfact>
</mgrwt>
</event>
<event>
 7    1  0.4252091E-004  0.1310743E+03  0.7546771E-02  0.1237065E+00
          1   -1    0    0  502    0 -0.00000000000E+00  0.00000000000E+00  0.48683977411E+03  0.48683977411E+03  0.00000000000E+00 0. -1.
          2   -1    0    0  503    0  0.00000000000E+00 -0.00000000000E+00 -0.78384392468E+03  0.78384392468E+03  0.00000000000E+00 0. -1.
         25    2    1    2    0    0  0.53972818913E+02 -0.22491342858E+03 -0.24981964886E+03  0.36267347869E+03  0.12499231836E+03 0.  0.
          4    1    3    3  501    0  0.16633184091E+02 -0.22422681645E+03 -0.22299640605E+03  0.31667544591E+03  0.12700000000E+01 0. -1.
         -4    1    3    3    0  501  0.37339634821E+02 -0.68661213045E+00 -0.26823242815E+02  0.45998032784E+02  0.12700000000E+01 0. -1.
          2    1    1    2  502    0 -0.67700232582E+02  0.10892315315E+03  0.41340553659E+03  0.43284144033E+03  0.00000000000E+00 0. -1.
          1    1    1    2  503    0  0.13727413669E+02  0.11599027544E+03 -0.46059003830E+03  0.47516877977E+03  0.00000000000E+00 0. -1.
<mgrwt>
<rscale>  0 0.12373135E+03</rscale>
<asrwt>0</asrwt>
<pdfrwt beam="2">  1        2 0.12059137E+00 0.11679977E+03</pdfrwt>
<pdfrwt beam="1">  1        1 0.74898427E-01 0.13107429E+03</pdfrwt>
<totfact> 0.24438975E+02</totfact>
</mgrwt>
</event>
<event>
 7    1  0.4252091E-004  0.9613988E+02  0.7546771E-02  0.1383920E+00
          2   -1    0    0  503    0  0.00000000000E+00  0.00000000000E+00  0.13498418125E+04  0.13498418125E+04  0.00000000000E+00 0. -1.
         -2   -1    0    0    0  501 -0.00000000000E+00 -0.00000000000E+00 -0.65796347150E+03  0.65796347150E+03  0.00000000000E+00 0.  1.
         25    2    1    2    0    0 -0.47316359130E+02 -0.34517633366E+02  0.54058092149E+02  0.14824857900E+03  0.12500023597E+03 0.  0.
          4    1    3    3  502    0 -0.57305605478E+02 -0.63428659055E+02 -0.72205351092E+00  0.85494218928E+02  0.12700000000E+01 0.  1.
         -4    1    3    3    0  502  0.99892463476E+01  0.28911025689E+02  0.54780145660E+02  0.62754360067E+02  0.12700000000E+01 0.  1.
          3    1    1    2  503    0  0.66155764988E+02  0.71907959044E+02  0.12460562430E+04  0.12498813945E+04  0.00000000000E+00 0. -1.
         -1    1    1    2    0  501 -0.18839405858E+02 -0.37390325678E+02 -0.60823599411E+03  0.60967531047E+03  0.00000000000E+00 0.  1.
<mgrwt>
<rscale>  0 0.63444614E+02</rscale>
<asrwt>0</asrwt>
<pdfrwt beam="1">  1        2 0.20766797E+00 0.96139876E+02</pdfrwt>
<pdfrwt beam="2">  1       -2 0.10122515E+00 0.41868361E+02</pdfrwt>
<totfact> 0.15810662E+01</totfact>
</mgrwt>
</event>
<event>
 7    1  0.4252091E-004  0.1128652E+03  0.7546771E-02  0.1352976E+00
          2   -1    0    0  503    0  0.00000000000E+00  0.00000000000E+00  0.81968182990E+03  0.81968182990E+03  0.00000000000E+00 0. -1.
          1   -1    0    0  502    0 -0.00000000000E+00 -0.00000000000E+00 -0.94341449825E+03  0.94341449825E+03  0.00000000000E+00 0. -1.
         25    2    1    2    0    0  0.11604949140E+03  0.98980047893E+02  0.73684622763E+02  0.21051563470E+03  0.12499149765E+03 0.  0.
          4    1    3    3  501    0  0.12293116214E+03  0.68971961955E+02  0.11889670688E+02  0.14146441012E+03  0.12700000000E+01 0.  1.
         -4    1    3    3    0  501 -0.68816707421E+01  0.30008085939E+02  0.61794952075E+02  0.69051224579E+02  0.12700000000E+01 0.  1.
          2    1    1    2  502    0 -0.22698254137E+02 -0.40130156413E+02 -0.86989137885E+03  0.87111230688E+03  0.00000000000E+00 0. -1.
          1    1    1    2  503    0 -0.93351237259E+02 -0.58849891481E+02  0.67247408774E+03  0.68146838658E+03  0.00000000000E+00 0. -1.
<mgrwt>
<rscale>  0 0.72136077E+02</rscale>
<asrwt>0</asrwt>
<pdfrwt beam="1">  1        2 0.12610490E+00 0.11286523E+03</pdfrwt>
<pdfrwt beam="2">  1        1 0.14514069E+00 0.46104666E+02</pdfrwt>
<totfact> 0.95947833E+01</totfact>
</mgrwt>
</event>
<event>
 7    1  0.4252091E-004  0.7181374E+02  0.7546771E-02  0.1503858E+00
          2   -1    0    0  503    0  0.00000000000E+00  0.00000000000E+00  0.91710059796E+03  0.91710059796E+03  0.00000000000E+00 0. -1.
          1   -1    0    0  502    0 -0.00000000000E+00 -0.00000000000E+00 -0.30259396285E+02  0.30259396285E+02  0.00000000000E+00 0. -1.
         25    2    1    2    0    0 -0.82857910671E+02  0.39235221295E+02  0.30551959825E+03  0.34259619773E+03  0.12500037533E+03 0.  0.
          4    1    3    3  501    0 -0.72996748760E+02  0.64122910561E+02  0.11658104270E+03  0.15176635136E+03  0.12700000000E+01 0. -1.
         -4    1    3    3    0  501 -0.98611619111E+01 -0.24887689266E+02  0.18893855555E+03  0.19082984637E+03  0.12700000000E+01 0. -1.
          2    1    1    2  502    0  0.22484722156E+02 -0.46019030517E+01  0.40427072199E+01  0.23304156792E+02  0.00000000000E+00 0. -1.
          1    1    1    2  503    0  0.60373188515E+02 -0.34633318243E+02  0.57727889621E+03  0.58145963973E+03  0.00000000000E+00 0. -1.
<mgrwt>
<rscale>  0 0.40597837E+02</rscale>
<asrwt>0</asrwt>
<pdfrwt beam="1">  1        2 0.14109238E+00 0.71813738E+02</pdfrwt>
<pdfrwt beam="2">  1        1 0.46552925E-02 0.22950822E+02</pdfrwt>
<totfact> 0.60667703E+03</totfact>
</mgrwt>
</event>
<event>
 7    1  0.4252091E-004  0.5897110E+02  0.7546771E-02  0.1409759E+00
          2   -1    0    0  503    0  0.00000000000E+00  0.00000000000E+00  0.64327822399E+02  0.64327822399E+02  0.00000000000E+00 0. -1.
          1   -1    0    0  502    0 -0.00000000000E+00 -0.00000000000E+00 -0.29529008971E+04  0.29529008971E+04  0.00000000000E+00 0. -1.
         25    2    1    2    0    0  0.23200930856E+00  0.76632443302E+02 -0.10432236377E+03  0.17994424557E+03  0.12499676291E+03 0.  0.
          4    1    3    3  501    0 -0.45862823040E+02  0.76639285276E+02 -0.33428894012E+02  0.95373384336E+02  0.12700000000E+01 0.  1.
         -4    1    3    3    0  501  0.46094832349E+02 -0.68419732994E-02 -0.70893469754E+02  0.84570861234E+02  0.12700000000E+01 0.  1.
          2    1    1    2  502    0 -0.42680090944E+02 -0.40761909937E+02 -0.27809880275E+04  0.27816141955E+04  0.00000000000E+00 0. -1.
          1    1    1    2  503    0  0.42448081636E+02 -0.35870533366E+02 -0.32626834381E+01  0.55670278441E+02  0.00000000000E+00 0. -1.
<mgrwt>
<rscale>  0 0.57247661E+02</rscale>
<asrwt>0</asrwt>
<pdfrwt beam="1">  1        2 0.98965868E-02 0.55574588E+02</pdfrwt>
<pdfrwt beam="2">  1        1 0.45429250E+00 0.58971101E+02</pdfrwt>
<totfact> 0.80484786E+01</totfact>
</mgrwt>
</event>
<event>
 7    1  0.4252091E-004  0.6896140E+02  0.7546771E-02  0.1522507E+00
          1   -1    0    0  502    0 -0.00000000000E+00  0.00000000000E+00  0.28415135622E+04  0.28415135622E+04  0.00000000000E+00 0. -1.
          2   -1    0    0  503    0  0.00000000000E+00 -0.00000000000E+00 -0.18077378772E+03  0.18077378772E+03  0.00000000000E+00 0. -1.
         25    2    1    2    0    0 -0.71869262070E+02 -0.35363310151E+02  0.55577517546E+03  0.57526344165E+03  0.12500490831E+03 0.  0.
          4    1    3    3  501    0 -0.14537422008E+02 -0.76092669115E+02  0.26438025269E+03  0.27549947703E+03  0.12700000000E+01 0.  1.
         -4    1    3    3    0  501 -0.57331840062E+02  0.40729358964E+02  0.29139492278E+03  0.29976396462E+03  0.12700000000E+01 0.  1.
          2    1    1    2  502    0  0.52588984218E+02  0.43870093175E+02  0.22748278161E+04  0.22758584708E+04  0.00000000000E+00 0. -1.
          1    1    1    2  503    0  0.19280277852E+02 -0.85067830244E+01 -0.16986321706E+03  0.17116543746E+03  0.00000000000E+00 0. -1.
<mgrwt>
<rscale>  0 0.38121666E+02</rscale>
<asrwt>0</asrwt>
<pdfrwt beam="2">  1        2 0.27811354E-01 0.21073549E+02</pdfrwt>
<pdfrwt beam="1">  1        1 0.43715590E+00 0.68961399E+02</pdfrwt>
<totfact> 0.27980805E+01</totfact>
</mgrwt>
</event>
<event>
 7    1  0.4252091E-004  0.2437919E+02  0.7546771E-02  0.1685421E+00
         -2   -1    0    0    0  501 -0.00000000000E+00  0.00000000000E+00  0.74022228027E+02  0.74022228027E+02  0.00000000000E+00 0.  1.
          2   -1    0    0  503    0  0.00000000000E+00 -0.00000000000E+00 -0.18831403921E+03  0.18831403921E+03  0.00000000000E+00 0. -1.
         25    2    1    2    0    0  0.39294642817E+02  0.12483127673E+02 -0.61612526484E+02  0.14532955251E+03  0.12499871192E+03 0.  0.
          4    1    3    3  502    0  0.59356136074E+02  0.34925982671E+02  0.81282915762E+01  0.69358901225E+02  0.12700000000E+01 0.  1.
         -4    1    3    3    0  502 -0.20061493258E+02 -0.22442854998E+02 -0.69740818061E+02  0.75970651280E+02  0.12700000000E+01 0.  1.
          1    1    1    2  503    0 -0.23576452661E+02  0.35070212006E+01 -0.78949231400E+02  0.82468960563E+02  0.00000000000E+00 0. -1.
         -1    1    1    2    0  501 -0.15718190156E+02 -0.15990148874E+02  0.26269946706E+02  0.34537754164E+02  0.00000000000E+00 0.  1.
<mgrwt>
<rscale>  0 0.23380128E+02</rscale>
<asrwt>0</asrwt>
<pdfrwt beam="2">  1        2 0.28971391E-01 0.24379192E+02</pdfrwt>
<pdfrwt beam="1">  1       -2 0.11388035E-01 0.22422006E+02</pdfrwt>
<totfact> 0.76912351E+03</totfact>
</mgrwt>
</event>
<event>
 7    1  0.4252091E-004  0.2784045E+03  0.7546771E-02  0.1234657E+00
          1   -1    0    0  502    0 -0.00000000000E+00  0.00000000000E+00  0.14716391010E+04  0.14716391010E+04  0.00000000000E+00 0. -1.
          2   -1    0    0  503    0  0.00000000000E+00 -0.00000000000E+00 -0.20545730132E+04  0.20545730132E+04  0.00000000000E+00 0. -1.
         25    2    1    2    0    0 -0.15771514608E+03 -0.20486231234E+03 -0.23311300867E+03  0.36987636573E+03  0.12499686712E+03 0.  0.
          4    1    3    3  501    0 -0.16959737342E+03 -0.15036294045E+03 -0.21160093114E+03  0.31007878014E+03  0.12700000000E+01 0.  1.
         -4    1    3    3    0  501  0.11882227334E+02 -0.54499371890E+02 -0.21512077532E+02  0.59797585592E+02  0.12700000000E+01 0.  1.
          2    1    1    2  502    0 -0.53567411572E+02  0.17522932981E+02  0.13913122697E+04  0.13924533575E+04  0.00000000000E+00 0. -1.
          1    1    1    2  503    0  0.21128255765E+03  0.18733937936E+03 -0.17411331732E+04  0.17638823910E+04  0.00000000000E+00 0. -1.
<mgrwt>
<rscale>  0 0.12526394E+03</rscale>
<asrwt>0</asrwt>
<pdfrwt beam="2">  1        2 0.31608815E+00 0.27840452E+03</pdfrwt>
<pdfrwt beam="1">  1        1 0.22640602E+00 0.56360631E+02</pdfrwt>
<totfact> 0.82766236E+00</totfact>
</mgrwt>
</event>
<event>
 7    1  0.4252091E-004  0.8618459E+02  0.7546771E-02  0.1328607E+00
          2   -1    0    0  503    0  0.00000000000E+00  0.00000000000E+00  0.15339086527E+04  0.15339086527E+04  0.00000000000E+00 0. -1.
          1   -1    0    0  502    0 -0.00000000000E+00 -0.00000000000E+00 -0.78218724728E+03  0.78218724728E+03  0.00000000000E+00 0. -1.
         25    2    1    2    0    0  0.21736114089E+02  0.20650073606E+02  0.74421059691E+02  0.14853665748E+03  0.12500304114E+03 0.  0.
          4    1    3    3  501    0  0.48859890305E+02 -0.13156380781E+02 -0.11847163994E+02  0.51984107480E+02  0.12700000000E+01 0. -1.
         -4    1    3    3    0  501 -0.27123776216E+02  0.33806454387E+02  0.86268223685E+02  0.96552550004E+02  0.12700000000E+01 0. -1.
          2    1    1    2  502    0  0.12467567958E+02 -0.86891223155E+02 -0.74156215899E+03  0.74673955336E+03  0.00000000000E+00 0. -1.
          1    1    1    2  503    0 -0.34203682047E+02  0.66241149548E+02  0.14188625047E+04  0.14208196891E+04  0.00000000000E+00 0. -1.
<mgrwt>
<rscale>  0 0.80156766E+02</rscale>
<asrwt>0</asrwt>
<pdfrwt beam="1">  1        2 0.23598595E+00 0.74550532E+02</pdfrwt>
<pdfrwt beam="2">  1        1 0.12033650E+00 0.86184592E+02</pdfrwt>
<totfact> 0.50362636E+01</totfact>
</mgrwt>
</event>
<event>
 7    1  0.4252091E-004  0.4547365E+02  0.7546771E-02  0.1507164E+00
         -2   -1    0    0    0  501  0.00000000000E+00  0.00000000000E+00  0.62500282494E+02  0.62500282494E+02  0.00000000000E+00 0.  1.
         -1   -1    0    0    0  502 -0.00000000000E+00 -0.00000000000E+00 -0.14081105214E+04  0.14081105214E+04  0.00000000000E+00 0.  1.
         25    2    1    2    0    0  0.35114133203E+02  0.63989362552E+02 -0.91437656893E+02  0.17121376692E+03  0.12500267202E+03 0.  0.
          4    1    3    3  503    0  0.79980804978E+02  0.52436937042E+02 -0.76632551775E+02  0.12255905688E+03  0.12700000000E+01 0.  1.
         -4    1    3    3    0  503 -0.44866671775E+02  0.11552425510E+02 -0.14805105117E+02  0.48654710038E+02  0.12700000000E+01 0.  1.
         -2    1    1    2    0  502 -0.26948834982E+02 -0.23011409370E+02 -0.12570173587E+04  0.12575167612E+04  0.00000000000E+00 0.  1.
         -1    1    1    2    0  501 -0.81652982214E+01 -0.40977953182E+02  0.28447767036E+01  0.41880275745E+02  0.00000000000E+00 0.  1.
<mgrwt>
<rscale>  0 0.40142737E+02</rscale>
<asrwt>0</asrwt>
<pdfrwt beam="1">  1       -2 0.96154287E-02 0.45473653E+02</pdfrwt>
<pdfrwt beam="2">  1       -1 0.21663237E+00 0.35436770E+02</pdfrwt>
<totfact> 0.72801408E+01</totfact>
</mgrwt>
</event>
<event>
 7    1  0.4252091E-004  0.1556821E+03  0.7546771E-02  0.1281874E+00
          2   -1    0    0  503    0  0.00000000000E+00  0.00000000000E+00  0.18865105895E+04  0.18865105895E+04  0.00000000000E+00 0. -1.
         -2   -1    0    0    0  501 -0.00000000000E+00 -0.00000000000E+00 -0.35746227042E+02  0.35746227042E+02  0.00000000000E+00 0.  1.
         25    2    1    2    0    0  0.55147471718E+02  0.17233635863E+03  0.57493786569E+03  0.61556786596E+03  0.12501673509E+03 0.  0.
          4    1    3    3  502    0  0.79819127886E+00  0.10508765306E+03  0.45930955312E+03  0.47118035870E+03  0.12700000000E+01 0. -1.
         -4    1    3    3    0  502  0.54349280439E+02  0.67248705574E+02  0.11562831258E+03  0.14438750727E+03  0.12700000000E+01 0. -1.
          1    1    1    2  503    0  0.29194292048E+02 -0.56140846618E+02  0.93122678204E+03  0.93337421270E+03  0.00000000000E+00 0. -1.
         -1    1    1    2    0  501 -0.84341763766E+02 -0.11619551201E+03  0.34459971468E+03  0.37331473784E+03  0.00000000000E+00 0.  1.
<mgrwt>
<rscale>  0 0.99253464E+02</rscale>
<asrwt>0</asrwt>
<pdfrwt beam="1">  1        2 0.29023232E+00 0.63277969E+02</pdfrwt>
<pdfrwt beam="2">  1       -2 0.54994210E-02 0.15568215E+03</pdfrwt>
<totfact> 0.15993491E+03</totfact>
</mgrwt>
</event>
<event>
 7    1  0.4252091E-004  0.5214734E+02  0.7546771E-02  0.1527206E+00
         -1   -1    0    0    0  501 -0.00000000000E+00  0.00000000000E+00  0.24494853761E+02  0.24494853761E+02  0.00000000000E+00 0. -1.
          1   -1    0    0  503    0  0.00000000000E+00 -0.00000000000E+00 -0.80553268557E+03  0.80553268557E+03  0.00000000000E+00 0.  1.
         25    2    1    2    0    0  0.26642508696E+02  0.45220567180E+02 -0.63669300834E+03  0.65096736528E+03  0.12500320325E+03 0.  0.
          4    1    3    3  502    0  0.30540838602E+02  0.82896143237E+02 -0.31856865108E+03  0.33059357486E+03  0.12700000000E+01 0. -1.
         -4    1    3    3    0  502 -0.38983299056E+01 -0.37675576057E+02 -0.31812435726E+03  0.32037379042E+03  0.12700000000E+01 0. -1.
          2    1    1    2  503    0 -0.18890527263E+01 -0.56032923165E+02 -0.34246936558E+02  0.65697105432E+02  0.00000000000E+00 0. -1.
         -2    1    1    2    0  501 -0.24753455970E+02  0.10812355985E+02 -0.11009788691E+03  0.11336306862E+03  0.00000000000E+00 0.  1.
<mgrwt>
<rscale>  0 0.37531275E+02</rscale>
<asrwt>0</asrwt>
<pdfrwt beam="2">  1        1 0.12392809E+00 0.52147336E+02</pdfrwt>
<pdfrwt beam="1">  1       -1 0.37684395E-02 0.27011861E+02</pdfrwt>
<totfact> 0.51226705E+03</totfact>
</mgrwt>
</event>
<event>
 7    1  0.4252091E-004  0.1606743E+03  0.7546771E-02  0.1303915E+00
          2   -1    0    0  503    0  0.00000000000E+00  0.00000000000E+00  0.59209770048E+03  0.59209770048E+03  0.00000000000E+00 0. -1.
          1   -1    0    0  502    0 -0.00000000000E+00 -0.00000000000E+00 -0.27758718698E+03  0.27758718698E+03  0.00000000000E+00 0. -1.
         25    2    1    2    0    0  0.85763772867E+02  0.17505818075E+03 -0.87118525009E+01  0.23173819975E+03  0.12500362182E+03 0.  0.
          4    1    3    3  501    0  0.11729574081E+03  0.11853584803E+03 -0.36471725211E+01  0.16680513436E+03  0.12700000000E+01 0. -1.
         -4    1    3    3    0  501 -0.31531967945E+02  0.56522332716E+02 -0.50646799798E+01  0.64933065394E+02  0.12700000000E+01 0. -1.
          2    1    1    2  502    0 -0.82464926347E+02 -0.12524405057E+03 -0.11991528732E+03  0.19200576141E+03  0.00000000000E+00 0. -1.
          1    1    1    2  503    0 -0.32988465204E+01 -0.49814130176E+02  0.44313765332E+03  0.44594092629E+03  0.00000000000E+00 0. -1.
<mgrwt>
<rscale>  0 0.89562161E+02</rscale>
<asrwt>0</asrwt>
<pdfrwt beam="1">  1        2 0.91091953E-01 0.49923241E+02</pdfrwt>
<pdfrwt beam="2">  1        1 0.42705721E-01 0.16067428E+03</pdfrwt>
<totfact> 0.69991774E+02</totfact>
</mgrwt>
</event>
<event>
 7    1  0.4252091E-004  0.4063238E+02  0.7546771E-02  0.1540168E+00
          2   -1    0    0  503    0  0.00000000000E+00  0.00000000000E+00  0.37859391916E+02  0.37859391916E+02  0.00000000000E+00 0. -1.
         -2   -1    0    0    0  501 -0.00000000000E+00 -0.00000000000E+00 -0.31832678765E+03  0.31832678765E+03  0.00000000000E+00 0.  1.
         25    2    1    2    0    0 -0.40882143283E+01 -0.19462317398E+02 -0.14765329993E+03  0.19444013501E+03  0.12493988085E+03 0.  0.
          4    1    3    3  502    0 -0.45425079262E+02 -0.22479219606E+02 -0.14417376382E+03  0.15282813947E+03  0.12700000000E+01 0. -1.
         -4    1    3    3    0  502  0.41336864934E+02  0.30169022076E+01 -0.34795361174E+01  0.41611995543E+02  0.12700000000E+01 0. -1.
          1    1    1    2  503    0  0.31897466739E+01 -0.31679071280E+02 -0.88560476276E+02  0.94110020716E+02  0.00000000000E+00 0.  1.
         -1    1    1    2    0  501  0.89846765439E+00  0.51141388678E+02 -0.44253619527E+02  0.67636023843E+02  0.00000000000E+00 0. -1.
<mgrwt>
<rscale>  0 0.35968106E+02</rscale>
<asrwt>0</asrwt>
<pdfrwt beam="1">  1        2 0.58245219E-02 0.31839253E+02</pdfrwt>
<pdfrwt beam="2">  1       -2 0.48973351E-01 0.40632380E+02</pdfrwt>
<totfact> 0.42401599E+03</totfact>
</mgrwt>
</event>
<event>
 7    1  0.4252091E-004  0.6988325E+02  0.7546771E-02  0.1384725E+00
         -2   -1    0    0    0  501 -0.00000000000E+00  0.00000000000E+00  0.19130222716E+03  0.19130222716E+03  0.00000000000E+00 0.  1.
          2   -1    0    0  503    0  0.00000000000E+00 -0.00000000000E+00 -0.94298803916E+03  0.94298803916E+03  0.00000000000E+00 0. -1.
         25    2    1    2    0    0  0.10188131140E+03  0.24459266679E+02  0.59254642386E+02  0.17352912997E+03  0.12499275565E+03 0.  0.
          4    1    3    3  502    0 -0.23612170372E+02  0.28416917378E+02  0.19665086466E+02  0.41873432014E+02  0.12700000000E+01 0. -1.
         -4    1    3    3    0  502  0.12549348177E+03 -0.39576506995E+01  0.39589555920E+02  0.13165569796E+03  0.12700000000E+01 0. -1.
          1    1    1    2  503    0 -0.66539058259E+02  0.20547112237E+02 -0.87333015395E+03  0.87610227023E+03  0.00000000000E+00 0. -1.
         -3    1    1    2    0  501 -0.35342253143E+02 -0.45006378915E+02  0.62389699572E+02  0.84658866122E+02  0.00000000000E+00 0.  1.
<mgrwt>
<rscale>  0 0.63237941E+02</rscale>
<asrwt>0</asrwt>
<pdfrwt beam="2">  1        2 0.14507508E+00 0.69883246E+02</pdfrwt>
<pdfrwt beam="1">  1       -2 0.29431112E-01 0.57224549E+02</pdfrwt>
<totfact> 0.31388465E+02</totfact>
</mgrwt>
</event>
<event>
 7    1  0.4252091E-004  0.7911641E+02  0.7546771E-02  0.1417270E+00
          1   -1    0    0  502    0 -0.00000000000E+00  0.00000000000E+00  0.99395659150E+03  0.99395659150E+03  0.00000000000E+00 0. -1.
          2   -1    0    0  503    0  0.00000000000E+00 -0.00000000000E+00 -0.96558961293E+03  0.96558961293E+03  0.00000000000E+00 0. -1.
         25    2    1    2    0    0 -0.76613252486E+02 -0.86738539062E+02 -0.15377009804E+02  0.17103119809E+03  0.12498821414E+03 0.  0.
          4    1    3    3  501    0 -0.90899340649E+02 -0.97129772467E+01 -0.13476217650E+01  0.91435556770E+02  0.12700000000E+01 0. -1.
         -4    1    3    3    0  501  0.14286088162E+02 -0.77025561815E+02 -0.14029388039E+02  0.79595641317E+02  0.12700000000E+01 0. -1.
          2    1    1    2  502    0  0.18209753970E+02  0.34575123107E+02  0.91395389870E+03  0.91478891731E+03  0.00000000000E+00 0. -1.
          1    1    1    2  503    0  0.58403498516E+02  0.52163415954E+02 -0.87020991033E+03  0.87372608902E+03  0.00000000000E+00 0. -1.
<mgrwt>
<rscale>  0 0.55602650E+02</rscale>
<asrwt>0</asrwt>
<pdfrwt beam="2">  1        2 0.14855225E+00 0.79116413E+02</pdfrwt>
<pdfrwt beam="1">  1        1 0.15291640E+00 0.39077286E+02</pdfrwt>
<totfact> 0.73603907E+01</totfact>
</mgrwt>
</event>
<event>
 7    1  0.4252091E-004  0.7370250E+02  0.7546771E-02  0.1391731E+00
         -2   -1    0    0    0  501 -0.00000000000E+00  0.00000000000E+00  0.15628439207E+03  0.15628439207E+03  0.00000000000E+00 0.  1.
          2   -1    0    0  503    0  0.00000000000E+00 -0.00000000000E+00 -0.16174027699E+04  0.16174027699E+04  0.00000000000E+00 0. -1.
         25    2    1    2    0    0 -0.55528575726E+01 -0.10201202947E+03 -0.47160056789E+03  0.49846624463E+03  0.12499685202E+03 0.  0.
          4    1    3    3  502    0  0.27648313466E+02 -0.11773596961E+03 -0.31046322105E+03  0.33318945407E+03  0.12700000000E+01 0.  1.
         -4    1    3    3    0  502 -0.33201171039E+02  0.15723940135E+02 -0.16113734683E+03  0.16527679056E+03  0.12700000000E+01 0.  1.
          1    1    1    2  503    0  0.37340256143E+02  0.61770726410E+02 -0.11265745610E+04  0.11288844755E+04  0.00000000000E+00 0. -1.
         -3    1    1    2    0  501 -0.31787398570E+02  0.40241303060E+02  0.13705675113E+03  0.14633644184E+03  0.00000000000E+00 0.  1.
<mgrwt>
<rscale>  0 0.61478299E+02</rscale>
<asrwt>0</asrwt>
<pdfrwt beam="2">  1        2 0.24883119E+00 0.73702502E+02</pdfrwt>
<pdfrwt beam="1">  1       -2 0.24043753E-01 0.51281587E+02</pdfrwt>
<totfact> 0.19313529E+02</totfact>
</mgrwt>
</event>
<event>
 7    1  0.4252091E-004  0.7244708E+02  0.7546771E-02  0.1401131E+00
          1   -1    0    0  502    0 -0.00000000000E+00  0.00000000000E+00  0.57845768866E+03  0.57845768866E+03  0.00000000000E+00 0. -1.
          2   -1    0    0  503    0  0.00000000000E+00 -0.00000000000E+00 -0.21052968480E+04  0.21052968480E+04  0.00000000000E+00 0. -1.
         25    2    1    2    0    0 -0.10385141819E+02  0.24646014551E+02 -0.16680649982E+03  0.21015068048E+03  0.12499449155E+03 0.  0.
          4    1    3    3  501    0  0.25001606047E+02 -0.36903423500E+02 -0.11168614562E+03  0.12025951519E+03  0.12700000000E+01 0. -1.
         -4    1    3    3    0  501 -0.35386747866E+02  0.61549438051E+02 -0.55120354206E+02  0.89891165287E+02  0.12700000000E+01 0. -1.
          2    1    1    2  502    0 -0.13852737116E+01  0.48389497349E+02  0.55501784829E+03  0.55712500784E+03  0.00000000000E+00 0. -1.
          1    1    1    2  503    0  0.11770415531E+02 -0.73035511899E+02 -0.19150505078E+04  0.19164788484E+04  0.00000000000E+00 0. -1.
<mgrwt>
<rscale>  0 0.59220891E+02</rscale>
<asrwt>0</asrwt>
<pdfrwt beam="2">  1        2 0.32389182E+00 0.72447078E+02</pdfrwt>
<pdfrwt beam="1">  1        1 0.88993491E-01 0.48409322E+02</pdfrwt>
<totfact> 0.40585522E+01</totfact>
</mgrwt>
</event>
<event>
 7    1  0.4252091E-004  0.3982011E+02  0.7546771E-02  0.1523472E+00
          1   -1    0    0  502    0 -0.00000000000E+00  0.00000000000E+00  0.16897264928E+02  0.16897264928E+02  0.00000000000E+00 0. -1.
          2   -1    0    0  503    0  0.00000000000E+00 -0.00000000000E+00 -0.18196522920E+04  0.18196522920E+04  0.00000000000E+00 0. -1.
         25    2    1    2    0    0 -0.17525461116E+02  0.11284165701E+02 -0.69114938083E+03  0.70267083091E+03  0.12499742325E+03 0.  0.
          4    1    3    3  501    0 -0.71825415756E+02  0.84139360605E+01 -0.39761980753E+03  0.40414453963E+03  0.12700000000E+01 0.  1.
         -4    1    3    3    0  501  0.54299954641E+02  0.28702296410E+01 -0.29352957329E+03  0.29852629129E+03  0.12700000000E+01 0.  1.
          2    1    1    2  502    0  0.19592248822E+02  0.30513363532E+02 -0.19884816239E+02  0.41356105774E+02  0.00000000000E+00 0. -1.
          1    1    1    2  503    0 -0.20667877065E+01 -0.41797529234E+02 -0.10917208300E+04  0.10925226202E+04  0.00000000000E+00 0. -1.
<mgrwt>
<rscale>  0 0.37999351E+02</rscale>
<asrwt>0</asrwt>
<pdfrwt beam="2">  1        2 0.27994662E+00 0.39820108E+02</pdfrwt>
<pdfrwt beam="1">  1        1 0.25995781E-02 0.36261847E+02</pdfrwt>
<totfact> 0.49599970E+03</totfact>
</mgrwt>
</event>
<event>
 7    1  0.4252091E-004  0.7069284E+02  0.7546771E-02  0.1368682E+00
          2   -1    0    0  503    0  0.00000000000E+00  0.00000000000E+00  0.70904170632E+03  0.70904170632E+03  0.00000000000E+00 0. -1.
          1   -1    0    0  502    0 -0.00000000000E+00 -0.00000000000E+00 -0.97355223033E+02  0.97355223033E+02  0.00000000000E+00 0. -1.
         25    2    1    2    0    0 -0.12392337511E+03 -0.14903556037E+02  0.47603232537E+03  0.50775201496E+03  0.12500485998E+03 0.  0.
          4    1    3    3  501    0 -0.14581081490E+03 -0.16976892011E+01  0.44014222795E+03  0.46367064779E+03  0.12700000000E+01 0.  1.
         -4    1    3    3    0  501  0.21887439791E+02 -0.13205866835E+02  0.35890097417E+02  0.44081367175E+02  0.12700000000E+01 0.  1.
          2    1    1    2  502    0  0.61589663425E+02  0.31550202198E+02 -0.60645757622E+02  0.92014182695E+02  0.00000000000E+00 0. -1.
          1    1    1    2  503    0  0.62333711687E+02 -0.16646646161E+02  0.19629991554E+03  0.20663073170E+03  0.00000000000E+00 0. -1.
<mgrwt>
<rscale>  0 0.67535006E+02</rscale>
<asrwt>0</asrwt>
<pdfrwt beam="1">  1        2 0.10908334E+00 0.64518233E+02</pdfrwt>
<pdfrwt beam="2">  1        1 0.14977727E-01 0.70692837E+02</pdfrwt>
<totfact> 0.20608829E+03</totfact>
</mgrwt>
</event>
<event>
 7    1  0.4252091E-004  0.8756711E+02  0.7546771E-02  0.1437068E+00
          1   -1    0    0  502    0 -0.00000000000E+00  0.00000000000E+00  0.17886585670E+04  0.17886585670E+04  0.00000000000E+00 0. -1.
          2   -1    0    0  503    0  0.00000000000E+00 -0.00000000000E+00 -0.39995890330E+03  0.39995890330E+03  0.00000000000E+00 0. -1.
         25    2    1    2    0    0  0.31322439089E+00  0.65302778701E+02  0.31379377769E+03  0.34402658924E+03  0.12499283248E+03 0.  0.
          4    1    3    3  501    0  0.23903178104E+02  0.69917945950E+02  0.79668579352E+02  0.10866727440E+03  0.12700000000E+01 0. -1.
         -4    1    3    3    0  501 -0.23589953713E+02 -0.46151672487E+01  0.23412519834E+03  0.23535931484E+03  0.12700000000E+01 0. -1.
          2    1    1    2  502    0  0.20546842838E+02 -0.87371295842E+02  0.14577669319E+04  0.14605274197E+04  0.00000000000E+00 0. -1.
          1    1    1    2  503    0 -0.20860067229E+02  0.22068517141E+02 -0.38286104589E+03  0.38406346131E+03  0.00000000000E+00 0. -1.
<mgrwt>
<rscale>  0 0.51567052E+02</rscale>
<asrwt>0</asrwt>
<pdfrwt beam="2">  1        2 0.61532140E-01 0.30367118E+02</pdfrwt>
<pdfrwt beam="1">  1        1 0.27517824E+00 0.87567114E+02</pdfrwt>
<totfact> 0.57587776E+01</totfact>
</mgrwt>
</event>
<event>
 7    1  0.4252091E-004  0.2961710E+03  0.7546771E-02  0.1278162E+00
          2   -1    0    0  503    0  0.00000000000E+00  0.00000000000E+00  0.17981346720E+04  0.17981346720E+04  0.00000000000E+00 0. -1.
          1   -1    0    0  502    0 -0.00000000000E+00 -0.00000000000E+00 -0.92081489197E+02  0.92081489197E+02  0.00000000000E+00 0. -1.
         25    2    1    2    0    0  0.19171909615E+03 -0.21283994732E+03  0.63918913700E+03  0.71150889135E+03  0.12500037841E+03 0.  0.
          4    1    3    3  501    0  0.17631635069E+03 -0.22881288440E+03  0.60883468875E+03  0.67388729229E+03  0.12700000000E+01 0.  1.
         -4    1    3    3    0  501  0.15402745467E+02  0.15972937081E+02  0.30354448248E+02  0.37621599053E+02  0.12700000000E+01 0.  1.
          2    1    1    2  502    0 -0.13867399247E+02 -0.31543954283E+02 -0.27049055950E+02  0.43806132464E+02  0.00000000000E+00 0. -1.
          1    1    1    2  503    0 -0.17785169691E+03  0.24438390160E+03  0.10939131018E+04  0.11349011374E+04  0.00000000000E+00 0. -1.
<mgrwt>
<rscale>  0 0.10102148E+03</rscale>
<asrwt>0</asrwt>
<pdfrwt beam="1">  1        2 0.27663608E+00 0.29617096E+03</pdfrwt>
<pdfrwt beam="2">  1        1 0.14166384E-01 0.34457594E+02</pdfrwt>
<totfact> 0.46422471E+02</totfact>
</mgrwt>
</event>
<event>
 7    1  0.4252091E-004  0.1038948E+03  0.7546771E-02  0.1304247E+00
          1   -1    0    0  502    0 -0.00000000000E+00  0.00000000000E+00  0.70062297243E+03  0.70062297243E+03  0.00000000000E+00 0. -1.
          2   -1    0    0  503    0  0.00000000000E+00 -0.00000000000E+00 -0.28836955362E+03  0.28836955362E+03  0.00000000000E+00 0. -1.
         25    2    1    2    0    0 -0.54789458221E+02  0.66302209846E+02 -0.72465461079E+02  0.16814521617E+03  0.12499481153E+03 0.  0.
          4    1    3    3  501    0  0.33830284033E+02  0.48214346718E+02 -0.14369601095E+02  0.60640000683E+02  0.12700000000E+01 0. -1.
         -4    1    3    3    0  501 -0.88619742254E+02  0.18087863128E+02 -0.58095859984E+02  0.10750521549E+03  0.12700000000E+01 0. -1.
          2    1    1    2  502    0 -0.11870985774E+02 -0.10478773933E+03  0.63941833445E+03  0.64805647674E+03  0.00000000000E+00 0. -1.
          1    1    1    2  503    0  0.66660443995E+02  0.38485529483E+02 -0.15469945457E+03  0.17279083314E+03  0.00000000000E+00 0. -1.
<mgrwt>
<rscale>  0 0.89426128E+02</rscale>
<asrwt>0</asrwt>
<pdfrwt beam="2">  1        2 0.44364547E-01 0.76972403E+02</pdfrwt>
<pdfrwt beam="1">  1        1 0.10778815E+00 0.10389480E+03</pdfrwt>
<totfact> 0.45216997E+02</totfact>
</mgrwt>
</event>
<event>
 7    1  0.4252091E-004  0.1359442E+03  0.7546771E-02  0.1282924E+00
          2   -1    0    0  503    0  0.00000000000E+00  0.00000000000E+00  0.36875765042E+03  0.36875765042E+03  0.00000000000E+00 0. -1.
          1   -1    0    0  502    0 -0.00000000000E+00 -0.00000000000E+00 -0.61926153032E+03  0.61926153032E+03  0.00000000000E+00 0. -1.
         25    2    1    2    0    0  0.54477240211E+02 -0.95580711137E+02 -0.24095707315E+03  0.29289857947E+03  0.12500329881E+03 0.  0.
          4    1    3    3  501    0  0.25644484371E+02 -0.11845441969E+03 -0.21821412057E+03  0.24961591384E+03  0.12700000000E+01 0.  1.
         -4    1    3    3    0  501  0.28832755840E+02  0.22873708557E+02 -0.22742952577E+02  0.43282665634E+02  0.12700000000E+01 0.  1.
          2    1    1    2  502    0 -0.57812909191E+02 -0.42489918557E+02 -0.33446164713E+03  0.34207063459E+03  0.00000000000E+00 0. -1.
          1    1    1    2  503    0  0.33356689796E+01  0.13807062969E+03  0.32491484038E+03  0.35304996668E+03  0.00000000000E+00 0. -1.
<mgrwt>
<rscale>  0 0.98760692E+02</rscale>
<asrwt>0</asrwt>
<pdfrwt beam="1">  1        2 0.56731947E-01 0.13594416E+03</pdfrwt>
<pdfrwt beam="2">  1        1 0.95271004E-01 0.71747653E+02</pdfrwt>
<totfact> 0.42051569E+02</totfact>
</mgrwt>
</event>
<event>
 7    1  0.4252091E-004  0.6995936E+02  0.7546771E-02  0.1443954E+00
          1   -1    0    0  502    0 -0.00000000000E+00  0.00000000000E+00  0.13102797480E+04  0.13102797480E+04  0.00000000000E+00 0. -1.
          2   -1    0    0  503    0  0.00000000000E+00 -0.00000000000E+00 -0.10176680949E+04  0.10176680949E+04  0.00000000000E+00 0. -1.
         25    2    1    2    0    0  0.93922194196E+02  0.44395947149E+02  0.32531792678E+03  0.36366251232E+03  0.12500516270E+03 0.  0.
          4    1    3    3  501    0  0.58342615346E+02  0.20351983349E+02  0.36729461618E+02  0.71893881815E+02  0.12700000000E+01 0. -1.
         -4    1    3    3    0  501  0.35579578850E+02  0.24043963800E+02  0.28858846516E+03  0.29176863051E+03  0.12700000000E+01 0. -1.
          2    1    1    2  502    0 -0.62101167883E+02 -0.27337227748E+02  0.96427060984E+03  0.96665489606E+03  0.00000000000E+00 0. -1.
          3    1    1    2  503    0 -0.31821026313E+02 -0.17058719401E+02 -0.99697688349E+03  0.99763043450E+03  0.00000000000E+00 0. -1.
<mgrwt>
<rscale>  0 0.50258224E+02</rscale>
<asrwt>0</asrwt>
<pdfrwt beam="2">  1        2 0.15656432E+00 0.36105091E+02</pdfrwt>
<pdfrwt beam="1">  1        1 0.20158150E+00 0.69959359E+02</pdfrwt>
<totfact> 0.42058120E+01</totfact>
</mgrwt>
</event>
<event>
 7    1  0.4252091E-004  0.4629790E+02  0.7546771E-02  0.1554405E+00
          2   -1    0    0  503    0  0.00000000000E+00  0.00000000000E+00  0.33481827860E+03  0.33481827860E+03  0.00000000000E+00 0. -1.
          1   -1    0    0  502    0 -0.00000000000E+00 -0.00000000000E+00 -0.88291848488E+03  0.88291848488E+03  0.00000000000E+00 0. -1.
         25    2    1    2    0    0 -0.15136370782E+02  0.18564091252E+02 -0.33106083942E+03  0.35468243052E+03  0.12499844766E+03 0.  0.
          4    1    3    3  501    0 -0.48783910139E+01 -0.53784832196E+02 -0.14979290255E+03  0.15923609335E+03  0.12700000000E+01 0.  1.
         -4    1    3    3    0  501 -0.10257979768E+02  0.72348923448E+02 -0.18126793687E+03  0.19544633716E+03  0.12700000000E+01 0.  1.
          2    1    1    2  502    0  0.37814519416E+02 -0.30207802601E+02 -0.53845677944E+03  0.54062755437E+03  0.00000000000E+00 0. -1.
          1    1    1    2  503    0 -0.22678148634E+02  0.11643711349E+02  0.32141741258E+03  0.32242677859E+03  0.00000000000E+00 0. -1.
<mgrwt>
<rscale>  0 0.34354847E+02</rscale>
<asrwt>0</asrwt>
<pdfrwt beam="1">  1        2 0.51510504E-01 0.25492635E+02</pdfrwt>
<pdfrwt beam="2">  1        1 0.13583361E+00 0.46297903E+02</pdfrwt>
<totfact> 0.28524799E+02</totfact>
</mgrwt>
</event>
<event>
 7    1  0.4252091E-004  0.5320205E+02  0.7546771E-02  0.1444988E+00
          2   -1    0    0  503    0  0.00000000000E+00  0.00000000000E+00  0.64204136913E+02  0.64204136913E+02  0.00000000000E+00 0. -1.
          1   -1    0    0  502    0 -0.00000000000E+00 -0.00000000000E+00 -0.11113576435E+04  0.11113576435E+04  0.00000000000E+00 0. -1.
         25    2    1    2    0    0  0.68062772604E+01  0.10546657388E+02 -0.57625672592E+03  0.58979337920E+03  0.12500743414E+03 0.  0.
          4    1    3    3  501    0 -0.52335794898E+02 -0.94876735396E+00 -0.14143860793E+03  0.15081919075E+03  0.12700000000E+01 0.  1.
         -4    1    3    3    0  501  0.59142072158E+02  0.11495424742E+02 -0.43481811799E+03  0.43897418845E+03  0.12700000000E+01 0.  1.
          2    1    1    2  502    0 -0.55966130380E+02  0.97946106277E+01 -0.51410235987E+03  0.51723242220E+03  0.00000000000E+00 0. -1.
          1    1    1    2  503    0  0.49159853120E+02 -0.20341268016E+02  0.43205579212E+02  0.68535979006E+02  0.00000000000E+00 0. -1.
<mgrwt>
<rscale>  0 0.50065622E+02</rscale>
<asrwt>0</asrwt>
<pdfrwt beam="1">  1        2 0.98775591E-02 0.53202052E+02</pdfrwt>
<pdfrwt beam="2">  1        1 0.17097811E+00 0.47114094E+02</pdfrwt>
<totfact> 0.11996596E+03</totfact>
</mgrwt>
</event>
<event>
 7    1  0.4252091E-004  0.8036658E+02  0.7546771E-02  0.1399197E+00
          1   -1    0    0  502    0 -0.00000000000E+00  0.00000000000E+00  0.34558795531E+02  0.34558795531E+02  0.00000000000E+00 0. -1.
          2   -1    0    0  503    0  0.00000000000E+00 -0.00000000000E+00 -0.21394173695E+04  0.21394173695E+04  0.00000000000E+00 0. -1.
         25    2    1    2    0    0  0.12191786815E+02  0.66967413542E+02 -0.83553647366E+03  0.84757331159E+03  0.12500418219E+03 0.  0.
          4    1    3    3  501    0  0.34560424049E+02  0.77437170524E+02 -0.79879345615E+03  0.80328297429E+03  0.12700000000E+01 0.  1.
         -4    1    3    3    0  501 -0.22368637234E+02 -0.10469756982E+02 -0.36743017513E+02  0.44290337309E+02  0.12700000000E+01 0.  1.
          2    1    1    2  502    0  0.44205796370E+02 -0.30680198595E+01  0.90216206894E+01  0.45221176659E+02  0.00000000000E+00 0. -1.
          1    1    1    2  503    0 -0.56397583185E+02 -0.63899393682E+02 -0.12783437210E+04  0.12811816767E+04  0.00000000000E+00 0. -1.
<mgrwt>
<rscale>  0 0.59675912E+02</rscale>
<asrwt>0</asrwt>
<pdfrwt beam="2">  1        2 0.32914115E+00 0.80366575E+02</pdfrwt>
<pdfrwt beam="1">  1        1 0.53167375E-02 0.44312134E+02</pdfrwt>
<totfact> 0.12688199E+03</totfact>
</mgrwt>
</event>
<event>
 7    1  0.4252091E-004  0.1306518E+03  0.7546771E-02  0.1319920E+00
          1   -1    0    0  502    0 -0.00000000000E+00  0.00000000000E+00  0.19443581082E+04  0.19443581082E+04  0.00000000000E+00 0. -1.
          2   -1    0    0  503    0  0.00000000000E+00 -0.00000000000E+00 -0.19986235036E+03  0.19986235036E+03  0.00000000000E+00 0. -1.
         25    2    1    2    0    0 -0.55749129513E+02 -0.72080449278E+02  0.53485958209E+02  0.16367253234E+03  0.12499757401E+03 0.  0.
          4    1    3    3  501    0  0.20143350892E+02  0.19185055878E+02  0.33058069606E+02  0.43223486905E+02  0.12700000000E+01 0.  1.
         -4    1    3    3    0  501 -0.75892480406E+02 -0.91265505156E+02  0.20427888603E+02  0.12044904544E+03  0.12700000000E+01 0.  1.
          2    1    1    2  502    0 -0.39339767540E+02 -0.35692800106E+02  0.17996178687E+04  0.18004016404E+04  0.00000000000E+00 0. -1.
          3    1    1    2  503    0  0.95088897053E+02  0.10777324938E+03 -0.10860806909E+03  0.18014628583E+03  0.00000000000E+00 0. -1.
<mgrwt>
<rscale>  0 0.83306976E+02</rscale>
<asrwt>0</asrwt>
<pdfrwt beam="2">  1        2 0.30748055E-01 0.13065184E+03</pdfrwt>
<pdfrwt beam="1">  1        1 0.29913200E+00 0.53118672E+02</pdfrwt>
<totfact> 0.10222957E+02</totfact>
</mgrwt>
</event>
<event>
 7    1  0.4252091E-004  0.1540564E+03  0.7546771E-02  0.1382205E+00
         -2   -1    0    0    0  501 -0.00000000000E+00  0.00000000000E+00  0.80060067995E+02  0.80060067995E+02  0.00000000000E+00 0. -1.
          2   -1    0    0  503    0  0.00000000000E+00 -0.00000000000E+00 -0.74301304998E+03  0.74301304998E+03  0.00000000000E+00 0.  1.
         25    2    1    2    0    0  0.14897741696E+03  0.41045004419E+02 -0.59874586855E+03  0.63087275441E+03  0.12499941599E+03 0.  0.
          4    1    3    3  502    0  0.13002456975E+03  0.77323932736E+02 -0.39345796496E+03  0.42154022631E+03  0.12700000000E+01 0. -1.
         -4    1    3    3    0  502  0.18952847206E+02 -0.36278928316E+02 -0.20528790360E+03  0.20933252810E+03  0.12700000000E+01 0. -1.
          1    1    1    2  503    0 -0.13944600578E+03 -0.65765643627E+02 -0.49669607346E+02  0.16197956137E+03  0.00000000000E+00 0. -1.
         -1    1    1    2    0  501 -0.95314111802E+01  0.24720639207E+02 -0.14537506090E+02  0.30220802194E+02  0.00000000000E+00 0.  1.
<mgrwt>
<rscale>  0 0.63887764E+02</rscale>
<asrwt>0</asrwt>
<pdfrwt beam="2">  1        2 0.11430970E+00 0.15405645E+03</pdfrwt>
<pdfrwt beam="1">  1       -2 0.12316934E-01 0.26494486E+02</pdfrwt>
<totfact> 0.16237599E+03</totfact>
</mgrwt>
</event>
<event>
 7    1  0.4252091E-004  0.9226434E+02  0.7546771E-02  0.1393456E+00
          2   -1    0    0  503    0  0.00000000000E+00  0.00000000000E+00  0.46540018259E+02  0.46540018259E+02  0.00000000000E+00 0. -1.
          1   -1    0    0  502    0 -0.00000000000E+00 -0.00000000000E+00 -0.11821866764E+04  0.11821866764E+04  0.00000000000E+00 0. -1.
         25    2    1    2    0    0  0.58879592567E+02 -0.10316195787E+03 -0.32578198761E+03  0.36860435500E+03  0.12500428435E+03 0.  0.
          4    1    3    3  501    0  0.66432332214E+01 -0.99543049721E+02 -0.11899907463E+03  0.15529115866E+03  0.12700000000E+01 0.  1.
         -4    1    3    3    0  501  0.52236359345E+02 -0.36189081450E+01 -0.20678291298E+03  0.21331319634E+03  0.12700000000E+01 0.  1.
          2    1    1    2  502    0 -0.21874101756E+02  0.86945550275E+02 -0.81453170854E+03  0.81945098039E+03  0.00000000000E+00 0. -1.
          1    1    1    2  503    0 -0.37005490811E+02  0.16216407591E+02  0.46670379603E+01  0.40671359316E+02  0.00000000000E+00 0. -1.
<mgrwt>
<rscale>  0 0.61055128E+02</rscale>
<asrwt>0</asrwt>
<pdfrwt beam="1">  1        2 0.71600033E-02 0.40402701E+02</pdfrwt>
<pdfrwt beam="2">  1        1 0.18187486E+00 0.92264343E+02</pdfrwt>
<totfact> 0.14693751E+03</totfact>
</mgrwt>
</event>
<event>
 7    1  0.4252091E-004  0.8331802E+02  0.7546771E-02  0.1420672E+00
         -1   -1    0    0    0  501 -0.00000000000E+00  0.00000000000E+00  0.76306947593E+02  0.76306947593E+02  0.00000000000E+00 0.  1.
          1   -1    0    0  503    0  0.00000000000E+00 -0.00000000000E+00 -0.12462535810E+04  0.12462535810E+04  0.00000000000E+00 0. -1.
         25    2    1    2    0    0 -0.86095675922E+02 -0.19679059618E+02 -0.25155153796E+03  0.29445482677E+03  0.12500295181E+03 0.  0.
          4    1    3    3  502    0 -0.67998146220E+02  0.25318994013E+01 -0.35977409980E+02  0.76981460968E+02  0.12700000000E+01 0.  1.
         -4    1    3    3    0  502 -0.18097529702E+02 -0.22210959019E+02 -0.21557412798E+03  0.21747336580E+03  0.12700000000E+01 0.  1.
          2    1    1    2  503    0  0.81901612335E+02 -0.16223816093E+02 -0.96529127192E+03  0.96889541539E+03  0.00000000000E+00 0. -1.
         -2    1    1    2    0  501  0.41940635869E+01  0.35902875711E+02  0.46896176461E+02  0.59210286441E+02  0.00000000000E+00 0.  1.
<mgrwt>
<rscale>  0 0.54878938E+02</rscale>
<asrwt>0</asrwt>
<pdfrwt beam="2">  1        1 0.19173131E+00 0.83318024E+02</pdfrwt>
<pdfrwt beam="1">  1       -1 0.11739531E-01 0.36147014E+02</pdfrwt>
<totfact> 0.49102487E+02</totfact>
</mgrwt>
</event>
<event>
 7    1  0.4252091E-004  0.1254689E+03  0.7546771E-02  0.1343767E+00
         -2   -1    0    0    0  501 -0.00000000000E+00  0.00000000000E+00  0.39713859477E+03  0.39713859477E+03  0.00000000000E+00 0.  1.
          2   -1    0    0  503    0  0.00000000000E+00 -0.00000000000E+00 -0.67943174675E+03  0.67943174675E+03  0.00000000000E+00 0. -1.
         25    2    1    2    0    0  0.24006705607E+02  0.78079367711E+02 -0.40877491459E+03  0.43519425412E+03  0.12499759376E+03 0.  0.
          4    1    3    3  502    0  0.60569844350E+02  0.60338032368E+02 -0.36727008257E+03  0.37709191273E+03  0.12700000000E+01 0. -1.
         -4    1    3    3    0  502 -0.36563138743E+02  0.17741335342E+02 -0.41504832024E+02  0.58102341397E+02  0.12700000000E+01 0. -1.
          1    1    1    2  503    0  0.13677467834E+02  0.42736648190E+02 -0.24492382645E+03  0.24900035138E+03  0.00000000000E+00 0. -1.
         -1    1    1    2    0  501 -0.37684173441E+02 -0.12081601590E+03  0.37140558906E+03  0.39237573602E+03  0.00000000000E+00 0.  1.
<mgrwt>
<rscale>  0 0.75033563E+02</rscale>
<asrwt>0</asrwt>
<pdfrwt beam="2">  1        2 0.10452796E+00 0.44871976E+02</pdfrwt>
<pdfrwt beam="1">  1       -2 0.61098245E-01 0.12546886E+03</pdfrwt>
<totfact> 0.11893608E+02</totfact>
</mgrwt>
</event>
<event>
 7    1  0.4252091E-004  0.1263756E+03  0.7546771E-02  0.1424668E+00
         -2   -1    0    0    0  501 -0.00000000000E+00  0.00000000000E+00  0.16523147147E+03  0.16523147147E+03  0.00000000000E+00 0.  1.
          2   -1    0    0  503    0  0.00000000000E+00 -0.00000000000E+00 -0.12978021157E+04  0.12978021157E+04  0.00000000000E+00 0. -1.
         25    2    1    2    0    0 -0.92929948162E+02  0.57129106804E+02 -0.37995768516E+03  0.41459805269E+03  0.12499597062E+03 0.  0.
          4    1    3    3  502    0 -0.63886437939E+02 -0.11156715135E+02 -0.68171970251E+02  0.94100901553E+02  0.12700000000E+01 0. -1.
         -4    1    3    3    0  502 -0.29043510223E+02  0.68285821938E+02 -0.31178571491E+03  0.32049715114E+03  0.12700000000E+01 0. -1.
          1    1    1    2  503    0  0.10770270620E+03 -0.74904709773E+02 -0.89480826553E+03  0.90437404902E+03  0.00000000000E+00 0. -1.
         -1    1    1    2    0  501 -0.14772758033E+02  0.17775602970E+02  0.14219530641E+03  0.14406148551E+03  0.00000000000E+00 0.  1.
<mgrwt>
<rscale>  0 0.54045412E+02</rscale>
<asrwt>0</asrwt>
<pdfrwt beam="2">  1        2 0.19966187E+00 0.12637556E+03</pdfrwt>
<pdfrwt beam="1">  1       -2 0.25420226E-01 0.23112906E+02</pdfrwt>
<totfact> 0.23736627E+02</totfact>
</mgrwt>
</event>
<event>
 7    1  0.4252091E-004  0.1333448E+03  0.7546771E-02  0.1230723E+00
          1   -1    0    0  502    0 -0.00000000000E+00  0.00000000000E+00  0.13451038632E+04  0.13451038632E+04  0.00000000000E+00 0. -1.
          2   -1    0    0  503    0  0.00000000000E+00 -0.00000000000E+00 -0.79107993951E+03  0.79107993951E+03  0.00000000000E+00 0. -1.
         25    2    1    2    0    0 -0.68188871714E+02  0.47298239040E+02 -0.59616369716E+02  0.16144363110E+03  0.12499235514E+03 0.  0.
          4    1    3    3  501    0  0.33032935244E+02  0.32555370377E+02 -0.88158428812E+01  0.47226676115E+02  0.12700000000E+01 0. -1.
         -4    1    3    3    0  501 -0.10122180696E+03  0.14742868663E+02 -0.50800526835E+02  0.11421695499E+03  0.12700000000E+01 0. -1.
          2    1    1    2  502    0 -0.67850997633E+02 -0.10202702645E+03  0.12833394134E+04  0.12891754427E+04  0.00000000000E+00 0. -1.
          1    1    1    2  503    0  0.13603986935E+03  0.54728787406E+02 -0.66969911999E+03  0.68556472892E+03  0.00000000000E+00 0. -1.
<mgrwt>
<rscale>  0 0.12782238E+03</rscale>
<asrwt>0</asrwt>
<pdfrwt beam="2">  1        2 0.12170461E+00 0.13334480E+03</pdfrwt>
<pdfrwt beam="1">  1        1 0.20693905E+00 0.12252866E+03</pdfrwt>
<totfact> 0.49303983E+01</totfact>
</mgrwt>
</event>
<event>
 7    1  0.4252091E-004  0.2538735E+02  0.7546771E-02  0.1681417E+00
         -2   -1    0    0    0  501 -0.00000000000E+00  0.00000000000E+00  0.21744430357E+03  0.21744430357E+03  0.00000000000E+00 0.  1.
          2   -1    0    0  503    0  0.00000000000E+00 -0.00000000000E+00 -0.10461268742E+04  0.10461268742E+04  0.00000000000E+00 0. -1.
         25    2    1    2    0    0  0.39017564083E+02  0.24259587501E+02 -0.19741060004E+03  0.23813085910E+03  0.12499785260E+03 0.  0.
          4    1    3    3  502    0 -0.41799136584E+02  0.30230183926E+02 -0.87281600420E+02  0.10139389780E+03  0.12700000000E+01 0.  1.
         -4    1    3    3    0  502  0.80816700667E+02 -0.59705964251E+01 -0.11012899962E+03  0.13673696130E+03  0.12700000000E+01 0.  1.
          1    1    1    2  503    0 -0.18048126069E+02 -0.17592175130E+02 -0.82754952420E+03  0.82793323069E+03  0.00000000000E+00 0. -1.
         -1    1    1    2    0  501 -0.20969438014E+02 -0.66674123708E+01  0.19627755365E+03  0.19750708793E+03  0.00000000000E+00 0.  1.
<mgrwt>
<rscale>  0 0.23635158E+02</rscale>
<asrwt>0</asrwt>
<pdfrwt beam="2">  1        2 0.16094260E+00 0.25387347E+02</pdfrwt>
<pdfrwt beam="1">  1       -2 0.33452970E-01 0.22003902E+02</pdfrwt>
<totfact> 0.22385879E+02</totfact>
</mgrwt>
</event>
<event>
 7    1  0.4252091E-004  0.1163307E+03  0.7546771E-02  0.1445662E+00
          1   -1    0    0  502    0 -0.00000000000E+00  0.00000000000E+00  0.66500708807E+03  0.66500708807E+03  0.00000000000E+00 0. -1.
          2   -1    0    0  503    0  0.00000000000E+00 -0.00000000000E+00 -0.15261638517E+03  0.15261638517E+03  0.00000000000E+00 0. -1.
         25    2    1    2    0    0 -0.11681223475E+03  0.47281892953E+02  0.10706552552E+03  0.20728645774E+03  0.12499589281E+03 0.  0.
          4    1    3    3  501    0 -0.11533337235E+03  0.57233087032E+01  0.11712609092E+03  0.16448306027E+03  0.12700000000E+01 0. -1.
         -4    1    3    3    0  501 -0.14788624050E+01  0.41558584250E+02 -0.10060565407E+02  0.42803397472E+02  0.12700000000E+01 0. -1.
          2    1    1    2  502    0  0.53303962349E+01 -0.20766207460E+02  0.47548823501E+03  0.47597133330E+03  0.00000000000E+00 0. -1.
          1    1    1    2  503    0  0.11148183852E+03 -0.26515685493E+02 -0.70163057618E+02  0.13436568219E+03  0.00000000000E+00 0. -1.
<mgrwt>
<rscale>  0 0.49940596E+02</rscale>
<asrwt>0</asrwt>
<pdfrwt beam="2">  1        2 0.23479444E-01 0.11633075E+03</pdfrwt>
<pdfrwt beam="1">  1        1 0.10230878E+00 0.21439415E+02</pdfrwt>
<totfact> 0.10285320E+03</totfact>
</mgrwt>
</event>
<event>
 7    1  0.4252091E-004  0.1023824E+03  0.7546771E-02  0.1408591E+00
          1   -1    0    0  502    0 -0.00000000000E+00  0.00000000000E+00  0.14931990490E+04  0.14931990490E+04  0.00000000000E+00 0. -1.
          2   -1    0    0  503    0  0.00000000000E+00 -0.00000000000E+00 -0.37547218614E+03  0.37547218614E+03  0.00000000000E+00 0. -1.
         25    2    1    2    0    0  0.31793773083E+02 -0.83726230255E+02  0.27456211026E+03  0.31468935772E+03  0.12499645526E+03 0.  0.
          4    1    3    3  501    0  0.20270990976E+02  0.23098741813E+02  0.15961549363E+02  0.34653266896E+02  0.12700000000E+01 0.  1.
         -4    1    3    3    0  501  0.11522782106E+02 -0.10682497207E+03  0.25860056090E+03  0.28003609082E+03  0.12700000000E+01 0.  1.
          2    1    1    2  502    0  0.32143244009E+02  0.32149652402E+01  0.11909146019E+04  0.11913526402E+04  0.00000000000E+00 0. -1.
          1    1    1    2  503    0 -0.63937017092E+02  0.80511265014E+02 -0.34774984937E+03  0.36262923722E+03  0.00000000000E+00 0. -1.
<mgrwt>
<rscale>  0 0.57509325E+02</rscale>
<asrwt>0</asrwt>
<pdfrwt beam="2">  1        2 0.57764952E-01 0.10238240E+03</pdfrwt>
<pdfrwt beam="1">  1        1 0.22972293E+00 0.32303624E+02</pdfrwt>
<totfact> 0.10452900E+02</totfact>
</mgrwt>
</event>
<event>
 7    1  0.4252091E-004  0.8777953E+02  0.7546771E-02  0.1471280E+00
          1   -1    0    0  502    0 -0.00000000000E+00  0.00000000000E+00  0.98841911742E+03  0.98841911742E+03  0.00000000000E+00 0. -1.
          2   -1    0    0  503    0  0.00000000000E+00 -0.00000000000E+00 -0.35887360984E+03  0.35887360984E+03  0.00000000000E+00 0. -1.
         25    2    1    2    0    0  0.25535427360E+02 -0.78742892365E+02  0.10786772515E+03  0.18468916591E+03  0.12498856238E+03 0.  0.
          4    1    3    3  501    0 -0.50100591324E+01  0.33027695369E+02  0.31341195265E+02  0.45823714106E+02  0.12700000000E+01 0.  1.
         -4    1    3    3    0  501  0.30545486492E+02 -0.11177058773E+03  0.76526529885E+02  0.13886545180E+03  0.12700000000E+01 0.  1.
          2    1    1    2  502    0 -0.39205725458E+01  0.88163536773E+02  0.83939059077E+03  0.84401702825E+03  0.00000000000E+00 0. -1.
          1    1    1    2  503    0 -0.21614854814E+02 -0.94206444077E+01 -0.31771280834E+03  0.31858653310E+03  0.00000000000E+00 0. -1.
<mgrwt>
<rscale>  0 0.45494160E+02</rscale>
<asrwt>0</asrwt>
<pdfrwt beam="2">  1        2 0.55211325E-01 0.23578602E+02</pdfrwt>
<pdfrwt beam="1">  1        1 0.15206448E+00 0.87779529E+02</pdfrwt>
<totfact> 0.21422034E+02</totfact>
</mgrwt>
</event>
<event>
 7    1  0.4252091E-004  0.1002216E+03  0.7546771E-02  0.1309843E+00
          1   -1    0    0  503    0  0.00000000000E+00  0.00000000000E+00  0.31634952842E+03  0.31634952842E+03  0.00000000000E+00 0. -1.
         -1   -1    0    0    0  501 -0.00000000000E+00 -0.00000000000E+00 -0.38140903898E+03  0.38140903898E+03  0.00000000000E+00 0.  1.
         25    2    1    2    0    0  0.24594263026E+02  0.15262532168E+03 -0.84876001464E+02  0.21618197634E+03  0.12502537614E+03 0.  0.
          4    1    3    3  502    0  0.44780355005E+01 -0.50728852599E+01 -0.53741712534E+02  0.54180914840E+02  0.12700000000E+01 0. -1.
         -4    1    3    3    0  502  0.20116227525E+02  0.15769820694E+03 -0.31134288930E+02  0.16200106150E+03  0.12700000000E+01 0. -1.
          2    1    1    2  503    0  0.24036078464E+02 -0.94448392684E+02  0.23447327653E+03  0.25392114791E+03  0.00000000000E+00 0. -1.
         -2    1    1    2    0  501 -0.48630341490E+02 -0.58176928991E+02 -0.21465678563E+03  0.22765544315E+03  0.00000000000E+00 0.  1.
<mgrwt>
<rscale>  0 0.87174119E+02</rscale>
<asrwt>0</asrwt>
<pdfrwt beam="1">  1        1 0.48669158E-01 0.10022162E+03</pdfrwt>
<pdfrwt beam="2">  1       -1 0.58678313E-01 0.75825228E+02</pdfrwt>
<totfact> 0.25645831E+02</totfact>
</mgrwt>
</event>
<event>
 7    1  0.4252091E-004  0.3453247E+02  0.7546771E-02  0.1597172E+00
          1   -1    0    0  502    0 -0.00000000000E+00  0.00000000000E+00  0.57932553564E+04  0.57932553564E+04  0.00000000000E+00 0. -1.
          2   -1    0    0  503    0  0.00000000000E+00 -0.00000000000E+00 -0.13736959814E+02  0.13736959814E+02  0.00000000000E+00 0. -1.
         25    2    1    2    0    0  0.40042976904E+02 -0.44224622741E+02  0.40230584630E+04  0.40254421187E+04  0.12500238640E+03 0.  0.
          4    1    3    3  501    0  0.70546795992E+02  0.50307271849E+01  0.14428172644E+04  0.14445502518E+04  0.12700000000E+01 0.  1.
         -4    1    3    3    0  501 -0.30503819088E+02 -0.49255349926E+02  0.25802411986E+04  0.25808918669E+04  0.12700000000E+01 0.  1.
          2    1    1    2  502    0 -0.21127501745E+02  0.15506044366E+02  0.17451544590E+04  0.17453512238E+04  0.00000000000E+00 0. -1.
          1    1    1    2  503    0 -0.18915475160E+02  0.28718578375E+02  0.11305474586E+02  0.36198973742E+02  0.00000000000E+00 0. -1.
<mgrwt>
<rscale>  0 0.30083112E+02</rscale>
<asrwt>0</asrwt>
<pdfrwt beam="2">  1        2 0.21133831E-02 0.34532467E+02</pdfrwt>
<pdfrwt beam="1">  1        1 0.89126810E+00 0.26207036E+02</pdfrwt>
<totfact> 0.80833416E-01</totfact>
</mgrwt>
</event>
<event>
 7    1  0.4252091E-004  0.1015541E+03  0.7546771E-02  0.1333569E+00
          1   -1    0    0  502    0 -0.00000000000E+00  0.00000000000E+00  0.50936907929E+03  0.50936907929E+03  0.00000000000E+00 0. -1.
          2   -1    0    0  503    0  0.00000000000E+00 -0.00000000000E+00 -0.15797151358E+04  0.15797151358E+04  0.00000000000E+00 0. -1.
         25    2    1    2    0    0  0.25465903739E+02  0.10455889736E+01  0.31443778697E+03  0.33933211314E+03  0.12500222249E+03 0.  0.
          4    1    3    3  501    0  0.65366508306E+02 -0.34556757075E+02  0.17472555108E+03  0.18973028479E+03  0.12700000000E+01 0.  1.
         -4    1    3    3    0  501 -0.39900604567E+02  0.35602346049E+02  0.13971223589E+03  0.14960182835E+03  0.12700000000E+01 0.  1.
          2    1    1    2  502    0 -0.10790232448E+03 -0.60353901249E+02  0.15968254749E+03  0.20195054097E+03  0.00000000000E+00 0. -1.
          1    1    1    2  503    0  0.82436420739E+02  0.59308312275E+02 -0.15444663910E+04  0.15478015610E+04  0.00000000000E+00 0. -1.
<mgrwt>
<rscale>  0 0.78429326E+02</rscale>
<asrwt>0</asrwt>
<pdfrwt beam="2">  1        2 0.24303310E+00 0.10155412E+03</pdfrwt>
<pdfrwt beam="1">  1        1 0.78364474E-01 0.60570258E+02</pdfrwt>
<totfact> 0.84136175E+01</totfact>
</mgrwt>
</event>
<event>
 7    1  0.4252091E-004  0.5697598E+02  0.7546771E-02  0.1440695E+00
         -2   -1    0    0    0  501 -0.00000000000E+00  0.00000000000E+00  0.42799364748E+03  0.42799364748E+03  0.00000000000E+00 0.  1.
          2   -1    0    0  503    0  0.00000000000E+00 -0.00000000000E+00 -0.35264102144E+04  0.35264102144E+04  0.00000000000E+00 0. -1.
         25    2    1    2    0    0 -0.15636846116E+02  0.18865718829E+02 -0.86789762211E+03  0.87719501766E+03  0.12499756098E+03 0.  0.
          4    1    3    3  502    0 -0.36344078357E+02 -0.18872535678E+02 -0.99688321410E+02  0.10777958508E+03  0.12700000000E+01 0.  1.
         -4    1    3    3    0  502  0.20707232241E+02  0.37738254507E+02 -0.76820930070E+03  0.76941543258E+03  0.12700000000E+01 0.  1.
          1    1    1    2  503    0  0.25984326805E+02  0.37255270126E+02 -0.26517453598E+04  0.26521343468E+04  0.00000000000E+00 0. -1.
         -1    1    1    2    0  501 -0.10347480689E+02 -0.56120988955E+02  0.42122641492E+03  0.42507449745E+03  0.00000000000E+00 0.  1.
<mgrwt>
<rscale>  0 0.50871915E+02</rscale>
<asrwt>0</asrwt>
<pdfrwt beam="2">  1        2 0.54252465E+00 0.45421805E+02</pdfrwt>
<pdfrwt beam="1">  1       -2 0.65845176E-01 0.56975978E+02</pdfrwt>
<totfact> 0.30678370E+00</totfact>
</mgrwt>
</event>
<event>
 7    1  0.4252091E-004  0.8375268E+02  0.7546771E-02  0.1329905E+00
          2   -1    0    0  503    0  0.00000000000E+00  0.00000000000E+00  0.41344365158E+03  0.41344365158E+03  0.00000000000E+00 0. -1.
          1   -1    0    0  502    0 -0.00000000000E+00 -0.00000000000E+00 -0.15499768497E+03  0.15499768497E+03  0.00000000000E+00 0. -1.
         25    2    1    2    0    0  0.47345504005E+01  0.21947959447E+02  0.45124196181E+02  0.13477963431E+03  0.12500091140E+03 0.  0.
          4    1    3    3  501    0  0.36562050965E+01  0.26057732644E+02 -0.40895367838E+02  0.48645835144E+02  0.12700000000E+01 0.  1.
         -4    1    3    3    0  501  0.10783453040E+01 -0.41097731974E+01  0.86019564019E+02  0.86133799163E+02  0.12700000000E+01 0.  1.
          2    1    1    2  502    0  0.80485418670E+02 -0.23164826481E+02 -0.87426718460E+02  0.12106999176E+03  0.00000000000E+00 0. -1.
          1    1    1    2  503    0 -0.85219969070E+02  0.12168670344E+01  0.30074848889E+03  0.31259171048E+03  0.00000000000E+00 0. -1.
<mgrwt>
<rscale>  0 0.79699887E+02</rscale>
<asrwt>0</asrwt>
<pdfrwt beam="1">  1        2 0.63606715E-01 0.75843207E+02</pdfrwt>
<pdfrwt beam="2">  1        1 0.23845798E-01 0.83752682E+02</pdfrwt>
<totfact> 0.20780419E+03</totfact>
</mgrwt>
</event>
<event>
 7    1  0.4252091E-004  0.6963035E+02  0.7546771E-02  0.1398355E+00
          2   -1    0    0  503    0  0.00000000000E+00  0.00000000000E+00  0.23009802698E+04  0.23009802698E+04  0.00000000000E+00 0. -1.
          1   -1    0    0  502    0 -0.00000000000E+00 -0.00000000000E+00 -0.18783094802E+03  0.18783094802E+03  0.00000000000E+00 0. -1.
         25    2    1    2    0    0  0.32988788191E+02 -0.10047660626E+03  0.15575002418E+04  0.15660830933E+04  0.12500177273E+03 0.  0.
          4    1    3    3  501    0 -0.17440521132E+02 -0.85221758168E+02  0.13172847605E+04  0.13201544126E+04  0.12700000000E+01 0.  1.
         -4    1    3    3    0  501  0.50429309323E+02 -0.15254848097E+02  0.24021548129E+03  0.24592868068E+03  0.12700000000E+01 0.  1.
          2    1    1    2  502    0  0.78158498614E+01  0.69077094320E+02 -0.17601955918E+03  0.18925014579E+03  0.00000000000E+00 0. -1.
          1    1    1    2  503    0 -0.40804638052E+02  0.31399511944E+02  0.73166863917E+03  0.73347797879E+03  0.00000000000E+00 0. -1.
<mgrwt>
<rscale>  0 0.59875561E+02</rscale>
<asrwt>0</asrwt>
<pdfrwt beam="1">  1        2 0.35399694E+00 0.51487356E+02</pdfrwt>
<pdfrwt beam="2">  1        1 0.28897071E-01 0.69630354E+02</pdfrwt>
<totfact> 0.13357338E+02</totfact>
</mgrwt>
</event>
<event>
 7    1  0.4252091E-004  0.9533427E+02  0.7546771E-02  0.1338647E+00
         -2   -1    0    0    0  501 -0.00000000000E+00  0.00000000000E+00  0.15834450679E+04  0.15834450679E+04  0.00000000000E+00 0.  1.
          2   -1    0    0  503    0  0.00000000000E+00 -0.00000000000E+00 -0.43952415951E+03  0.43952415951E+03  0.00000000000E+00 0. -1.
         25    2    1    2    0    0 -0.65802487707E+02  0.13286443627E+03  0.23325507105E+02  0.19532415768E+03  0.12499808589E+03 0.  0.
          4    1    3    3  502    0  0.24955166686E+02 -0.19194451411E+00 -0.15811536317E+02  0.29570505030E+02  0.12700000000E+01 0.  1.
         -4    1    3    3    0  502 -0.90757654394E+02  0.13305638078E+03  0.39137043422E+02  0.16575365265E+03  0.12700000000E+01 0.  1.
          1    1    1    2  503    0  0.46738096257E+02 -0.40323664325E+02 -0.34930183236E+03  0.35471427605E+03  0.00000000000E+00 0. -1.
         -1    1    1    2    0  501  0.19064391450E+02 -0.92540771946E+02  0.14698972337E+04  0.14729307937E+04  0.00000000000E+00 0.  1.
<mgrwt>
<rscale>  0 0.76712921E+02</rscale>
<asrwt>0</asrwt>
<pdfrwt beam="2">  1        2 0.67619102E-01 0.61728823E+02</pdfrwt>
<pdfrwt beam="1">  1       -2 0.24360693E+00 0.95334271E+02</pdfrwt>
<totfact> 0.63108589E+00</totfact>
</mgrwt>
</event>
<event>
 7    1  0.4252091E-004  0.7631248E+02  0.7546771E-02  0.1428074E+00
          1   -1    0    0  502    0 -0.00000000000E+00  0.00000000000E+00  0.57444540662E+03  0.57444540662E+03  0.00000000000E+00 0. -1.
          2   -1    0    0  503    0  0.00000000000E+00 -0.00000000000E+00 -0.11470477918E+04  0.11470477918E+04  0.00000000000E+00 0. -1.
         25    2    1    2    0    0 -0.60602014055E+02  0.23723758247E+02  0.90358280934E+02  0.16736763301E+03  0.12494752832E+03 0.  0.
          4    1    3    3  501    0 -0.71551955644E+01  0.54893430465E+02 -0.28955479117E+01  0.55448017363E+02  0.12700000000E+01 0. -1.
         -4    1    3    3    0  501 -0.53446818490E+02 -0.31169672218E+02  0.93253828846E+02  0.11191961565E+03  0.12700000000E+01 0. -1.
          2    1    1    2  502    0 -0.15208961748E+02 -0.34052767183E+02  0.44347861159E+03  0.44504402300E+03  0.00000000000E+00 0. -1.
          1    1    1    2  503    0  0.75810975803E+02  0.10329008937E+02 -0.11064392777E+04  0.11090815424E+04  0.00000000000E+00 0. -1.
<mgrwt>
<rscale>  0 0.53348479E+02</rscale>
<asrwt>0</asrwt>
<pdfrwt beam="2">  1        2 0.17646889E+00 0.76312483E+02</pdfrwt>
<pdfrwt beam="1">  1        1 0.88376216E-01 0.37294818E+02</pdfrwt>
<totfact> 0.12586176E+02</totfact>
</mgrwt>
</event>
<event>
 7    1  0.4252091E-004  0.1808786E+03  0.7546771E-02  0.1204771E+00
          1   -1    0    0  502    0 -0.00000000000E+00  0.00000000000E+00  0.18042940095E+03  0.18042940095E+03  0.00000000000E+00 0. -1.
          2   -1    0    0  503    0  0.00000000000E+00 -0.00000000000E+00 -0.14661404215E+04  0.14661404215E+04  0.00000000000E+00 0. -1.
         25    2    1    2    0    0 -0.12955943405E+03  0.23011588116E+03 -0.56001700270E+03  0.63164908526E+03  0.12499023112E+03 0.  0.
          4    1    3    3  501    0 -0.72240036351E+02  0.10101566372E+03 -0.39685645553E+03  0.41583584064E+03  0.12700000000E+01 0. -1.
         -4    1    3    3    0  501 -0.57319397703E+02  0.12910021744E+03 -0.16316054717E+03  0.21581324461E+03  0.12700000000E+01 0. -1.
          2    1    1    2  502    0  0.25555463606E+02 -0.17281298439E+03  0.85911406766E+02  0.19467454664E+03  0.00000000000E+00 0. -1.
          1    1    1    2  503    0  0.10400397045E+03 -0.57302896768E+02 -0.81160542465E+03  0.82024619059E+03  0.00000000000E+00 0. -1.
<mgrwt>
<rscale>  0 0.14655541E+03</rscale>
<asrwt>0</asrwt>
<pdfrwt beam="2">  1        2 0.22556006E+00 0.11874531E+03</pdfrwt>
<pdfrwt beam="1">  1        1 0.27758370E-01 0.18087863E+03</pdfrwt>
<totfact> 0.34324933E+02</totfact>
</mgrwt>
</event>
<event>
 7    1  0.4252091E-004  0.3790672E+02  0.7546771E-02  0.1578102E+00
          2   -1    0    0  503    0  0.00000000000E+00  0.00000000000E+00  0.10848293357E+04  0.10848293357E+04  0.00000000000E+00 0. -1.
          1   -1    0    0  502    0 -0.00000000000E+00 -0.00000000000E+00 -0.15758500531E+03  0.15758500531E+03  0.00000000000E+00 0. -1.
         25    2    1    2    0    0  0.19209502125E+02 -0.14341094550E+02  0.56200788593E+03  0.57624142261E+03  0.12500656512E+03 0.  0.
          4    1    3    3  501    0  0.58475122312E+02  0.26971235664E+02  0.21026738091E+03  0.21991082705E+03  0.12700000000E+01 0.  1.
         -4    1    3    3    0  501 -0.39265620187E+02 -0.41312330215E+02  0.35174050502E+03  0.35633059555E+03  0.12700000000E+01 0.  1.
          2    1    1    2  502    0 -0.57643063946E+01  0.37554777066E+02 -0.14771364268E+03  0.15252183038E+03  0.00000000000E+00 0. -1.
          1    1    1    2  503    0 -0.13445195731E+02 -0.23213682515E+02  0.51295008717E+03  0.51365108806E+03  0.00000000000E+00 0. -1.
<mgrwt>
<rscale>  0 0.31888799E+02</rscale>
<asrwt>0</asrwt>
<pdfrwt beam="1">  1        2 0.16689682E+00 0.26826262E+02</pdfrwt>
<pdfrwt beam="2">  1        1 0.24243848E-01 0.37906715E+02</pdfrwt>
<totfact> 0.68342812E+02</totfact>
</mgrwt>
</event>
<event>
 7    1  0.4252091E-004  0.4354702E+02  0.7546771E-02  0.1511755E+00
          2   -1    0    0  503    0  0.00000000000E+00  0.00000000000E+00  0.30297091004E+03  0.30297091004E+03  0.00000000000E+00 0. -1.
         -2   -1    0    0    0  501 -0.00000000000E+00 -0.00000000000E+00 -0.43367538909E+02  0.43367538909E+02  0.00000000000E+00 0.  1.
         25    2    1    2    0    0 -0.10245079636E+02  0.28726872490E+02  0.18106211297E+03  0.22212416714E+03  0.12500184805E+03 0.  0.
          4    1    3    3  502    0 -0.31910971761E+02 -0.37813655801E+02  0.36461574081E+02  0.61475539593E+02  0.12700000000E+01 0.  1.
         -4    1    3    3    0  502  0.21665892125E+02  0.66540528291E+02  0.14460053889E+03  0.16064862755E+03  0.12700000000E+01 0.  1.
          1    1    1    2  503    0  0.33833977668E+02  0.11912857212E+02  0.66734978562E+02  0.75764183989E+02  0.00000000000E+00 0. -1.
         -1    1    1    2    0  501 -0.23588898032E+02 -0.40639729701E+02  0.11806279600E+02  0.48450097818E+02  0.00000000000E+00 0.  1.
<mgrwt>
<rscale>  0 0.39522525E+02</rscale>
<asrwt>0</asrwt>
<pdfrwt beam="1">  1        2 0.46610908E-01 0.35869963E+02</pdfrwt>
<pdfrwt beam="2">  1       -2 0.66719293E-02 0.43547019E+02</pdfrwt>
<totfact> 0.11422223E+04</totfact>
</mgrwt>
</event>
<event>
 7    1  0.4252091E-004  0.4039509E+02  0.7546771E-02  0.1551489E+00
         -1   -1    0    0    0  501 -0.00000000000E+00  0.00000000000E+00  0.87443931173E+03  0.87443931173E+03  0.00000000000E+00 0.  1.
          1   -1    0    0  503    0  0.00000000000E+00 -0.00000000000E+00 -0.79134666956E+03  0.79134666956E+03  0.00000000000E+00 0. -1.
         25    2    1    2    0    0 -0.35947810188E+01  0.11999539945E+02 -0.16895904110E+03  0.21054308635E+03  0.12499728890E+03 0.  0.
          4    1    3    3  502    0  0.42058174944E-01  0.20907208041E+02  0.15356598054E+02  0.25972121991E+02  0.12700000000E+01 0. -1.
         -4    1    3    3    0  502 -0.36368391937E+01 -0.89076680955E+01 -0.18431563915E+03  0.18457096436E+03  0.12700000000E+01 0. -1.
          2    1    1    2  503    0 -0.24020471589E+02  0.17582982515E+02 -0.60074723062E+03  0.60148431353E+03  0.00000000000E+00 0. -1.
         -2    1    1    2    0  501  0.27615252607E+02 -0.29582522460E+02  0.85279891388E+03  0.85375858141E+03  0.00000000000E+00 0.  1.
<mgrwt>
<rscale>  0 0.34676910E+02</rscale>
<asrwt>0</asrwt>
<pdfrwt beam="2">  1        1 0.12174564E+00 0.29768176E+02</pdfrwt>
<pdfrwt beam="1">  1       -1 0.13452912E+00 0.40395087E+02</pdfrwt>
<totfact> 0.14872947E+01</totfact>
</mgrwt>
</event>
<event>
 7    1  0.4252091E-004  0.9217924E+02  0.7546771E-02  0.1345278E+00
          2   -1    0    0  503    0  0.00000000000E+00  0.00000000000E+00  0.13549524538E+04  0.13549524538E+04  0.00000000000E+00 0. -1.
         -2   -1    0    0    0  501 -0.00000000000E+00 -0.00000000000E+00 -0.22714436638E+02  0.22714436638E+02  0.00000000000E+00 0.  1.
         25    2    1    2    0    0 -0.68339846749E+02 -0.11081502648E+03  0.55869784975E+03  0.58712730336E+03  0.12499951311E+03 0.  0.
          4    1    3    3  502    0 -0.20970262870E+02 -0.12082312161E+03  0.47352122978E+03  0.48914409595E+03  0.12700000000E+01 0.  1.
         -4    1    3    3    0  502 -0.47369583879E+02  0.10008095132E+02  0.85176619969E+02  0.97983207410E+02  0.12700000000E+01 0.  1.
          3    1    1    2  503    0  0.14046426474E+02  0.84606561746E+02  0.61449706789E+03  0.62045323662E+03  0.00000000000E+00 0. -1.
         -3    1    1    2    0  501  0.54293420275E+02  0.26208464737E+02  0.15904309951E+03  0.17008635045E+03  0.00000000000E+00 0.  1.
<mgrwt>
<rscale>  0 0.74547396E+02</rscale>
<asrwt>0</asrwt>
<pdfrwt beam="1">  1        2 0.20845416E+00 0.92179238E+02</pdfrwt>
<pdfrwt beam="2">  1       -2 0.34945298E-02 0.60288134E+02</pdfrwt>
<totfact> 0.50827294E+03</totfact>
</mgrwt>
</event>
<event>
 7    1  0.4252091E-004  0.1760000E+03  0.7546771E-02  0.1231026E+00
          2   -1    0    0  503    0  0.00000000000E+00  0.00000000000E+00  0.18963656758E+04  0.18963656758E+04  0.00000000000E+00 0. -1.
         -2   -1    0    0    0  501 -0.00000000000E+00 -0.00000000000E+00 -0.68812424023E+02  0.68812424023E+02  0.00000000000E+00 0.  1.
         25    2    1    2    0    0 -0.14242115691E+03 -0.10825781584E+03  0.13608269289E+04  0.13782161645E+04  0.12500530043E+03 0.  0.
          4    1    3    3  502    0 -0.14594595873E+03 -0.88826462769E+02  0.84976949993E+03  0.86677573759E+03  0.12700000000E+01 0.  1.
         -4    1    3    3    0  502  0.35248018242E+01 -0.19431353076E+02  0.51105742895E+03  0.51144042693E+03  0.12700000000E+01 0.  1.
          1    1    1    2  503    0  0.18428022145E+03  0.25722322553E+02  0.45758453223E+03  0.49396805771E+03  0.00000000000E+00 0. -1.
         -1    1    1    2    0  501 -0.41859064542E+02  0.82535493292E+02  0.91417906755E+01  0.92993877616E+02  0.00000000000E+00 0.  1.
<mgrwt>
<rscale>  0 0.12762307E+03</rscale>
<asrwt>0</asrwt>
<pdfrwt beam="1">  1        2 0.29174853E+00 0.17600002E+03</pdfrwt>
<pdfrwt beam="2">  1       -2 0.10586528E-01 0.92543444E+02</pdfrwt>
<totfact> 0.50133907E+02</totfact>
</mgrwt>
</event>
<event>
 7    1  0.4252091E-004  0.3349980E+02  0.7546771E-02  0.1565713E+00
          1   -1    0    0  502    0 -0.00000000000E+00  0.00000000000E+00  0.48808168624E+03  0.48808168624E+03  0.00000000000E+00 0. -1.
          2   -1    0    0  503    0  0.00000000000E+00 -0.00000000000E+00 -0.55918567878E+03  0.55918567878E+03  0.00000000000E+00 0. -1.
         25    2    1    2    0    0  0.15881408411E+01 -0.65824016417E+02 -0.28250702585E+02  0.14407609612E+03  0.12499798378E+03 0.  0.
          4    1    3    3  501    0  0.59365214468E+02 -0.32676673573E+02  0.79716303561E+01  0.68243340152E+02  0.12700000000E+01 0. -1.
         -4    1    3    3    0  501 -0.57777073627E+02 -0.33147342845E+02 -0.36222332942E+02  0.75832755972E+02  0.12700000000E+01 0. -1.
          2    1    1    2  502    0 -0.28399283299E+01  0.32671905061E+02  0.42896061475E+03  0.43021242146E+03  0.00000000000E+00 0. -1.
          1    1    1    2  503    0  0.12517874887E+01  0.33152111356E+02 -0.47181390469E+03  0.47297884744E+03  0.00000000000E+00 0. -1.
<mgrwt>
<rscale>  0 0.33145575E+02</rscale>
<asrwt>0</asrwt>
<pdfrwt beam="2">  1        2 0.86028566E-01 0.33499796E+02</pdfrwt>
<pdfrwt beam="1">  1        1 0.75089490E-01 0.32795100E+02</pdfrwt>
<totfact> 0.37996445E+02</totfact>
</mgrwt>
</event>
<event>
 7    1  0.4252091E-004  0.8064382E+02  0.7546771E-02  0.1470246E+00
          2   -1    0    0  503    0  0.00000000000E+00  0.00000000000E+00  0.21425769416E+04  0.21425769416E+04  0.00000000000E+00 0. -1.
          1   -1    0    0  502    0 -0.00000000000E+00 -0.00000000000E+00 -0.17739210735E+03  0.17739210735E+03  0.00000000000E+00 0. -1.
         25    2    1    2    0    0  0.72569894331E+02 -0.63920732842E+02 -0.64985699514E+02  0.17087905810E+03  0.12499704679E+03 0.  0.
          4    1    3    3  501    0  0.88740495383E+02 -0.33266224167E+01 -0.13716265057E+02  0.89864847213E+02  0.12700000000E+01 0.  1.
         -4    1    3    3    0  501 -0.16170601052E+02 -0.60594110425E+02 -0.51269434458E+02  0.81014210891E+02  0.12700000000E+01 0.  1.
          2    1    1    2  502    0 -0.16031723093E+01  0.25805784996E+02 -0.55834334366E+02  0.61530330690E+02  0.00000000000E+00 0. -1.
          1    1    1    2  503    0 -0.70966722021E+02  0.38114947846E+02  0.20860048682E+04  0.20875596602E+04  0.00000000000E+00 0. -1.
<mgrwt>
<rscale>  0 0.45662777E+02</rscale>
<asrwt>0</asrwt>
<pdfrwt beam="1">  1        2 0.32962720E+00 0.80643823E+02</pdfrwt>
<pdfrwt beam="2">  1        1 0.27291095E-01 0.25855535E+02</pdfrwt>
<totfact> 0.15741044E+02</totfact>
</mgrwt>
</event>
<event>
 7    1  0.4252091E-004  0.5512129E+02  0.7546771E-02  0.1460706E+00
          2   -1    0    0  503    0  0.00000000000E+00  0.00000000000E+00  0.23259340112E+04  0.23259340112E+04  0.00000000000E+00 0. -1.
          1   -1    0    0  502    0 -0.00000000000E+00 -0.00000000000E+00 -0.62502208978E+03  0.62502208978E+03  0.00000000000E+00 0. -1.
         25    2    1    2    0    0  0.35333390598E+02 -0.76314699782E+02  0.20260107085E+03  0.25247763865E+03  0.12500152885E+03 0.  0.
          4    1    3    3  501    0 -0.13372382857E+02 -0.85573878393E+02  0.17608973658E+03  0.19624198713E+03  0.12700000000E+01 0. -1.
         -4    1    3    3    0  501  0.48705773455E+02  0.92591786106E+01  0.26511334269E+02  0.56235651513E+02  0.12700000000E+01 0. -1.
          2    1    1    2  502    0 -0.41367171004E+02  0.36246516023E+02 -0.59862740472E+03  0.60114875234E+03  0.00000000000E+00 0. -1.
          1    1    1    2  503    0  0.60337804056E+01  0.40068183760E+02  0.20969382553E+04  0.20973297100E+04  0.00000000000E+00 0. -1.
<mgrwt>
<rscale>  0 0.47260042E+02</rscale>
<asrwt>0</asrwt>
<pdfrwt beam="1">  1        2 0.35783600E+00 0.40519944E+02</pdfrwt>
<pdfrwt beam="2">  1        1 0.96157246E-01 0.55121290E+02</pdfrwt>
<totfact> 0.30599256E+01</totfact>
</mgrwt>
</event>
<event>
 7    1  0.4252091E-004  0.8346836E+02  0.7546771E-02  0.1369835E+00
         -2   -1    0    0    0  501 -0.00000000000E+00  0.00000000000E+00  0.41790063315E+03  0.41790063315E+03  0.00000000000E+00 0.  1.
          2   -1    0    0  503    0  0.00000000000E+00 -0.00000000000E+00 -0.77141532254E+03  0.77141532254E+03  0.00000000000E+00 0. -1.
         25    2    1    2    0    0  0.21159723122E+02  0.24571750992E+02 -0.25322284423E+03  0.28425034562E+03  0.12499978128E+03 0.  0.
          4    1    3    3  502    0  0.24111092781E+00 -0.92302243783E+01  0.12486249820E+02  0.15581223031E+02  0.12700000000E+01 0.  1.
         -4    1    3    3    0  502  0.20918612194E+02  0.33801975371E+02 -0.26570909405E+03  0.26866912259E+03  0.12700000000E+01 0.  1.
          1    1    1    2  503    0  0.12972777861E+02  0.52545814877E+02 -0.49677396305E+03  0.49971364400E+03  0.00000000000E+00 0. -1.
         -1    1    1    2    0  501 -0.34132500983E+02 -0.77117565870E+02  0.39648211789E+03  0.40535196607E+03  0.00000000000E+00 0.  1.
<mgrwt>
<rscale>  0 0.67213105E+02</rscale>
<asrwt>0</asrwt>
<pdfrwt beam="2">  1        2 0.11867928E+00 0.54123522E+02</pdfrwt>
<pdfrwt beam="1">  1       -2 0.64292405E-01 0.83468357E+02</pdfrwt>
<totfact> 0.92338636E+01</totfact>
</mgrwt>
</event>
<event>
 7    1  0.1061658E-003  0.5978410E+02  0.7546771E-02  0.1492856E+00
         -2   -1    0    0    0  501 -0.00000000000E+00  0.00000000000E+00  0.16921233562E+02  0.16921233562E+02  0.00000000000E+00 0.  1.
          2   -1    0    0  503    0  0.00000000000E+00 -0.00000000000E+00 -0.85392941229E+03  0.85392941229E+03  0.00000000000E+00 0. -1.
         25    2    1    2    0    0 -0.30901373211E+02 -0.23185241239E+02 -0.58048847780E+03  0.59504919002E+03  0.12499686160E+03 0.  0.
          4    1    3    3  502    0  0.44746214696E+01 -0.51970044412E+02 -0.49848027746E+03  0.50120365887E+03  0.12700000000E+01 0.  1.
         -4    1    3    3    0  502 -0.35375994680E+02  0.28784803173E+02 -0.82008200346E+02  0.93845531152E+02  0.12700000000E+01 0.  1.
          3    1    1    2  503    0 -0.17473843174E+02 -0.24063679328E+02 -0.46798864763E+02  0.55448440926E+02  0.00000000000E+00 0. -1.
         -3    1    1    2    0  501  0.48375216385E+02  0.47248920567E+02 -0.20972083616E+03  0.22035301490E+03  0.00000000000E+00 0.  1.
<mgrwt>
<rscale>  0 0.42165236E+02</rscale>
<asrwt>0</asrwt>
<pdfrwt beam="2">  1        2 0.13137372E+00 0.29738794E+02</pdfrwt>
<pdfrwt beam="1">  1       -2 0.26032673E-02 0.59784102E+02</pdfrwt>
<totfact> 0.15643361E+04</totfact>
</mgrwt>
</event>
<event>
 7    1  0.4252091E-004  0.9334413E+02  0.7546771E-02  0.1420782E+00
          2   -1    0    0  503    0  0.00000000000E+00  0.00000000000E+00  0.12234269953E+03  0.12234269953E+03  0.00000000000E+00 0. -1.
          1   -1    0    0  502    0 -0.00000000000E+00 -0.00000000000E+00 -0.18606083599E+03  0.18606083599E+03  0.00000000000E+00 0. -1.
         25    2    1    2    0    0  0.44807016291E+02  0.68685242119E+02  0.92557363474E+01  0.14979023635E+03  0.12500446015E+03 0.  0.
          4    1    3    3  501    0 -0.31069610935E+02  0.32452441595E+02  0.40085099970E+02  0.60223831070E+02  0.12700000000E+01 0.  1.
         -4    1    3    3    0  501  0.75876627227E+02  0.36232800524E+02 -0.30829363623E+02  0.89566405278E+02  0.12700000000E+01 0.  1.
          2    1    1    2  502    0 -0.51113153256E+01  0.31829546259E+02 -0.22667147727E+02  0.39408693781E+02  0.00000000000E+00 0. -1.
          1    1    1    2  503    0 -0.39695700966E+02 -0.10051478838E+03 -0.50306725084E+02  0.11920460539E+03  0.00000000000E+00 0. -1.
<mgrwt>
<rscale>  0 0.54855862E+02</rscale>
<asrwt>0</asrwt>
<pdfrwt beam="1">  1        2 0.18821954E-01 0.93344127E+02</pdfrwt>
<pdfrwt beam="2">  1        1 0.28624744E-01 0.32237332E+02</pdfrwt>
<totfact> 0.59402184E+03</totfact>
</mgrwt>
</event>
<event>
 7    1  0.4252091E-004  0.8438667E+02  0.7546771E-02  0.1344684E+00
          2   -1    0    0  503    0  0.00000000000E+00  0.00000000000E+00  0.63496185785E+03  0.63496185785E+03  0.00000000000E+00 0. -1.
          1   -1    0    0  502    0 -0.00000000000E+00 -0.00000000000E+00 -0.35182090610E+03  0.35182090610E+03  0.00000000000E+00 0. -1.
         25    2    1    2    0    0 -0.11539495302E+03 -0.64818212656E+02  0.23633369333E+03  0.29832214099E+03  0.12500035731E+03 0.  0.
          4    1    3    3  501    0 -0.69523693881E+02  0.20901933266E+02  0.15647366690E+03  0.17249943814E+03  0.12700000000E+01 0.  1.
         -4    1    3    3    0  501 -0.45871259136E+02 -0.85720145923E+02  0.79860026436E+02  0.12582270286E+03  0.12700000000E+01 0.  1.
          2    1    1    2  502    0  0.49260407514E+02  0.67593547017E+02 -0.31229887605E+03  0.32330490768E+03  0.00000000000E+00 0. -1.
          1    1    1    2  503    0  0.66134545503E+02 -0.27753343606E+01  0.35910613447E+03  0.36515571528E+03  0.00000000000E+00 0. -1.
<mgrwt>
<rscale>  0 0.74738118E+02</rscale>
<asrwt>0</asrwt>
<pdfrwt beam="1">  1        2 0.97686440E-01 0.66192753E+02</pdfrwt>
<pdfrwt beam="2">  1        1 0.54126293E-01 0.84386675E+02</pdfrwt>
<totfact> 0.48148188E+02</totfact>
</mgrwt>
</event>
<event>
 7    1  0.4252091E-004  0.2004006E+03  0.7546771E-02  0.1370662E+00
         -1   -1    0    0    0  501 -0.00000000000E+00  0.00000000000E+00  0.25286421683E+03  0.25286421683E+03  0.00000000000E+00 0.  1.
          1   -1    0    0  503    0  0.00000000000E+00 -0.00000000000E+00 -0.28223703920E+04  0.28223703920E+04  0.00000000000E+00 0. -1.
         25    2    1    2    0    0  0.17153635667E+03  0.74052330619E+02 -0.39604593467E+03  0.45539864474E+03  0.12500829547E+03 0.  0.
          4    1    3    3  502    0 -0.56510805717E+01 -0.18003582897E+02 -0.74787702535E+02  0.77141928024E+02  0.12700000000E+01 0. -1.
         -4    1    3    3    0  502  0.17718743724E+03  0.92055913515E+02 -0.32125823213E+03  0.37825671672E+03  0.12700000000E+01 0. -1.
          2    1    1    2  503    0 -0.17860188491E+03 -0.95297309865E+02 -0.23917998821E+04  0.24003514090E+04  0.00000000000E+00 0. -1.
         -2    1    1    2    0  501  0.70655282332E+01  0.21244979247E+02  0.21833964160E+03  0.21948455510E+03  0.00000000000E+00 0.  1.
<mgrwt>
<rscale>  0 0.66983461E+02</rscale>
<asrwt>0</asrwt>
<pdfrwt beam="2">  1        1 0.43421085E+00 0.20040057E+03</pdfrwt>
<pdfrwt beam="1">  1       -1 0.38902186E-01 0.22389078E+02</pdfrwt>
<totfact> 0.64546668E+00</totfact>
</mgrwt>
</event>
<event>
 7    1  0.4252091E-004  0.9581783E+02  0.7546771E-02  0.1344897E+00
          2   -1    0    0  503    0  0.00000000000E+00  0.00000000000E+00  0.23268104157E+04  0.23268104157E+04  0.00000000000E+00 0. -1.
          1   -1    0    0  502    0 -0.00000000000E+00 -0.00000000000E+00 -0.19925046162E+04  0.19925046162E+04  0.00000000000E+00 0. -1.
         25    2    1    2    0    0 -0.12093190741E+03 -0.81466087788E+02 -0.26000132708E+03  0.32323504610E+03  0.12497581868E+03 0.  0.
          4    1    3    3  501    0 -0.91560118100E+02  0.13521762481E+02 -0.12891813032E+03  0.15870598764E+03  0.12700000000E+01 0. -1.
         -4    1    3    3    0  501 -0.29371789307E+02 -0.94987850269E+02 -0.13108319676E+03  0.16452905846E+03  0.12700000000E+01 0. -1.
          2    1    1    2  502    0  0.64196616150E+02  0.68540892129E+02 -0.16992208861E+04  0.17018139379E+04  0.00000000000E+00 0. -1.
          1    1    1    2  503    0  0.56735291257E+02  0.12925195659E+02  0.22935280127E+04  0.22942660480E+04  0.00000000000E+00 0. -1.
<mgrwt>
<rscale>  0 0.74669533E+02</rscale>
<asrwt>0</asrwt>
<pdfrwt beam="1">  1        2 0.35797083E+00 0.58188950E+02</pdfrwt>
<pdfrwt beam="2">  1        1 0.30653917E+00 0.95817834E+02</pdfrwt>
<totfact> 0.32007323E+00</totfact>
</mgrwt>
</event>
<event>
 7    1  0.4252091E-004  0.3594579E+02  0.7546771E-02  0.1571459E+00
          1   -1    0    0  502    0 -0.00000000000E+00  0.00000000000E+00  0.18750026515E+04  0.18750026515E+04  0.00000000000E+00 0. -1.
          2   -1    0    0  503    0  0.00000000000E+00 -0.00000000000E+00 -0.10962662271E+03  0.10962662271E+03  0.00000000000E+00 0. -1.
         25    2    1    2    0    0  0.14675396429E+02  0.27805969421E+02  0.59357377553E+03  0.60740700812E+03  0.12499962931E+03 0.  0.
          4    1    3    3  501    0 -0.43827979739E+02  0.15269566206E+02  0.44223190261E+03  0.44466247879E+03  0.12700000000E+01 0. -1.
         -4    1    3    3    0  501  0.58503376168E+02  0.12536403216E+02  0.15134187292E+03  0.16274452933E+03  0.12700000000E+01 0. -1.
          2    1    1    2  502    0  0.14219399087E+02 -0.33662917862E+02  0.12721287673E+04  0.12726535208E+04  0.00000000000E+00 0. -1.
          1    1    1    2  503    0 -0.28894795515E+02  0.58569484412E+01 -0.10032651409E+03  0.10456874525E+03  0.00000000000E+00 0. -1.
<mgrwt>
<rscale>  0 0.32554093E+02</rscale>
<asrwt>0</asrwt>
<pdfrwt beam="2">  1        2 0.16865636E-01 0.29482419E+02</pdfrwt>
<pdfrwt beam="1">  1        1 0.28846192E+00 0.35945794E+02</pdfrwt>
<totfact> 0.21497143E+02</totfact>
</mgrwt>
</event>
<event>
 7    1  0.4252091E-004  0.1550797E+03  0.7546771E-02  0.1212214E+00
          2   -1    0    0  503    0  0.00000000000E+00  0.00000000000E+00  0.10351078561E+04  0.10351078561E+04  0.00000000000E+00 0. -1.
          1   -1    0    0  502    0 -0.00000000000E+00 -0.00000000000E+00 -0.15178767623E+04  0.15178767623E+04  0.00000000000E+00 0. -1.
         25    2    1    2    0    0 -0.27802345747E+02 -0.14956712901E+03  0.56746821041E+03  0.60065587771E+03  0.12499606832E+03 0.  0.
          4    1    3    3  501    0 -0.34009278495E+02 -0.17109786317E+03  0.50335254716E+03  0.53272554795E+03  0.12700000000E+01 0.  1.
         -4    1    3    3    0  501  0.62069327489E+01  0.21530734163E+02  0.64115663251E+02  0.67930329764E+02  0.12700000000E+01 0.  1.
          2    1    1    2  502    0  0.13416219301E+03  0.78543737764E+02 -0.14880854574E+04  0.14961841268E+04  0.00000000000E+00 0. -1.
          1    1    1    2  503    0 -0.10635984727E+03  0.71023391243E+02  0.43784834083E+03  0.45614461389E+03  0.00000000000E+00 0. -1.
<mgrwt>
<rscale>  0 0.14083209E+03</rscale>
<asrwt>0</asrwt>
<pdfrwt beam="1">  1        2 0.15924736E+00 0.12789347E+03</pdfrwt>
<pdfrwt beam="2">  1        1 0.23351950E+00 0.15507968E+03</pdfrwt>
<totfact> 0.26213004E+01</totfact>
</mgrwt>
</event>
<event>
 7    1  0.4252091E-004  0.6519206E+02  0.7546771E-02  0.1418379E+00
          2   -1    0    0  503    0  0.00000000000E+00  0.00000000000E+00  0.74134674454E+03  0.74134674454E+03  0.00000000000E+00 0. -1.
         -2   -1    0    0    0  501 -0.00000000000E+00 -0.00000000000E+00 -0.57282770997E+02  0.57282770997E+02  0.00000000000E+00 0.  1.
         25    2    1    2    0    0  0.81922235513E+02 -0.24233440863E+02  0.14700939227E+03  0.21104279720E+03  0.12501515310E+03 0.  0.
          4    1    3    3  502    0  0.31792151044E+02 -0.72883396880E+02  0.95293128038E+02  0.12411737815E+03  0.12700000000E+01 0.  1.
         -4    1    3    3    0  502  0.50130084470E+02  0.48649956016E+02  0.51716264235E+02  0.86925419042E+02  0.12700000000E+01 0.  1.
          1    1    1    2  503    0 -0.40771676435E+02 -0.23421077540E+02  0.52031687390E+03  0.52243710219E+03  0.00000000000E+00 0. -1.
         -1    1    1    2    0  501 -0.41150559079E+02  0.47654518403E+02  0.16737707364E+02  0.65149616150E+02  0.00000000000E+00 0.  1.
<mgrwt>
<rscale>  0 0.55365404E+02</rscale>
<asrwt>0</asrwt>
<pdfrwt beam="1">  1        2 0.11405334E+00 0.47019958E+02</pdfrwt>
<pdfrwt beam="2">  1       -2 0.88127345E-02 0.65192060E+02</pdfrwt>
<totfact> 0.30473669E+03</totfact>
</mgrwt>
</event>
<event>
 7    1  0.4252091E-004  0.5192646E+02  0.7546771E-02  0.1456344E+00
          2   -1    0    0  503    0  0.00000000000E+00  0.00000000000E+00  0.15411433300E+04  0.15411433300E+04  0.00000000000E+00 0. -1.
          1   -1    0    0  502    0 -0.00000000000E+00 -0.00000000000E+00 -0.81749770407E+02  0.81749770407E+02  0.00000000000E+00 0. -1.
         25    2    1    2    0    0  0.18938892126E+01  0.21624089345E+02  0.54927016611E+03  0.56373095012E+03  0.12499472264E+03 0.  0.
          4    1    3    3  501    0  0.11435711122E+02 -0.46575924811E+02  0.12470476239E+03  0.13361505500E+03  0.12700000000E+01 0.  1.
         -4    1    3    3    0  501 -0.95418219091E+01  0.68200014156E+02  0.42456540372E+03  0.43011589511E+03  0.12700000000E+01 0.  1.
          2    1    1    2  502    0 -0.39828744673E+02  0.19623756021E+02 -0.67030760215E+02  0.80402385024E+02  0.00000000000E+00 0. -1.
          1    1    1    2  503    0  0.37934855461E+02 -0.41247845366E+02  0.97715415370E+03  0.97875976527E+03  0.00000000000E+00 0. -1.
<mgrwt>
<rscale>  0 0.48016353E+02</rscale>
<asrwt>0</asrwt>
<pdfrwt beam="1">  1        2 0.23709895E+00 0.51926456E+02</pdfrwt>
<pdfrwt beam="2">  1        1 0.12576889E-01 0.44400684E+02</pdfrwt>
<totfact> 0.86481481E+02</totfact>
</mgrwt>
</event>
<event>
 7    1  0.4252091E-004  0.5506153E+02  0.7546771E-02  0.1427684E+00
          1   -1    0    0  502    0 -0.00000000000E+00  0.00000000000E+00  0.22746427715E+03  0.22746427715E+03  0.00000000000E+00 0. -1.
          2   -1    0    0  503    0  0.00000000000E+00 -0.00000000000E+00 -0.11568177946E+04  0.11568177946E+04  0.00000000000E+00 0. -1.
         25    2    1    2    0    0 -0.79057823328E+01 -0.21604016867E+02 -0.27859164264E+03  0.30621480398E+03  0.12499987156E+03 0.  0.
          4    1    3    3  501    0  0.38185746175E+02  0.26397129900E+02 -0.50482540375E+02  0.68593435988E+02  0.12700000000E+01 0.  1.
         -4    1    3    3    0  501 -0.46091528507E+02 -0.48001146767E+02 -0.22810910227E+03  0.23762136799E+03  0.12700000000E+01 0.  1.
          2    1    1    2  502    0  0.55624614750E+02  0.13419170639E+01  0.20923624597E+03  0.21650797938E+03  0.00000000000E+00 0. -1.
          1    1    1    2  503    0 -0.47718832418E+02  0.20262099803E+02 -0.85999812077E+03  0.86155928838E+03  0.00000000000E+00 0. -1.
<mgrwt>
<rscale>  0 0.53427751E+02</rscale>
<asrwt>0</asrwt>
<pdfrwt beam="2">  1        2 0.17797197E+00 0.51842450E+02</pdfrwt>
<pdfrwt beam="1">  1        1 0.34994505E-01 0.55061530E+02</pdfrwt>
<totfact> 0.39041763E+02</totfact>
</mgrwt>
</event>
<event>
 7    1  0.4252091E-004  0.6070932E+02  0.7546771E-02  0.1446053E+00
         -2   -1    0    0    0  501 -0.00000000000E+00  0.00000000000E+00  0.15299436373E+03  0.15299436373E+03  0.00000000000E+00 0.  1.
          2   -1    0    0  503    0  0.00000000000E+00 -0.00000000000E+00 -0.21481148846E+04  0.21481148846E+04  0.00000000000E+00 0. -1.
         25    2    1    2    0    0 -0.80663083558E+02 -0.57924237189E+02 -0.14995631506E+03  0.21904208119E+03  0.12502314428E+03 0.  0.
          4    1    3    3  502    0 -0.84679767097E+02 -0.26717505585E+02 -0.28041114922E+02  0.93125748782E+02  0.12700000000E+01 0.  1.
         -4    1    3    3    0  502  0.40166835384E+01 -0.31206731604E+02 -0.12191520014E+03  0.12591633241E+03  0.12700000000E+01 0.  1.
          1    1    1    2  503    0  0.29162274386E+02  0.28767107212E+02 -0.19559956288E+04  0.19564245155E+04  0.00000000000E+00 0. -1.
         -1    1    1    2    0  501  0.51500809172E+02  0.29157129977E+02  0.11083142305E+03  0.12564265163E+03  0.00000000000E+00 0.  1.
<mgrwt>
<rscale>  0 0.49868314E+02</rscale>
<asrwt>0</asrwt>
<pdfrwt beam="2">  1        2 0.33047922E+00 0.40963212E+02</pdfrwt>
<pdfrwt beam="1">  1       -2 0.23537594E-01 0.60709322E+02</pdfrwt>
<totfact> 0.11813172E+02</totfact>
</mgrwt>
</event>
<event>
 7    1  0.4252091E-004  0.7797876E+02  0.7546771E-02  0.1349542E+00
          1   -1    0    0  502    0 -0.00000000000E+00  0.00000000000E+00  0.61742418934E+03  0.61742418934E+03  0.00000000000E+00 0. -1.
          2   -1    0    0  503    0  0.00000000000E+00 -0.00000000000E+00 -0.10999620161E+04  0.10999620161E+04  0.00000000000E+00 0. -1.
         25    2    1    2    0    0  0.58335559892E+02  0.62233879683E+01 -0.15408894591E+03  0.20690234502E+03  0.12499363591E+03 0.  0.
          4    1    3    3  501    0 -0.25128441919E+02 -0.21868362757E+02 -0.49533579514E+01  0.33701818021E+02  0.12700000000E+01 0.  1.
         -4    1    3    3    0  501  0.83464001811E+02  0.28091750725E+02 -0.14913558796E+03  0.17320052700E+03  0.12700000000E+01 0.  1.
          2    1    1    2  502    0 -0.48653164075E+02  0.61802262884E+02  0.58710746654E+03  0.59235278959E+03  0.00000000000E+00 0. -1.
          1    1    1    2  503    0 -0.96823958172E+01 -0.68025650852E+02 -0.91555634734E+03  0.91813107078E+03  0.00000000000E+00 0. -1.
<mgrwt>
<rscale>  0 0.73198492E+02</rscale>
<asrwt>0</asrwt>
<pdfrwt beam="2">  1        2 0.16922492E+00 0.68711265E+02</pdfrwt>
<pdfrwt beam="1">  1        1 0.94988338E-01 0.77978760E+02</pdfrwt>
<totfact> 0.11947575E+02</totfact>
</mgrwt>
</event>
<event>
 7    1  0.4252091E-004  0.9854597E+02  0.7546771E-02  0.1349193E+00
          1   -1    0    0  502    0 -0.00000000000E+00  0.00000000000E+00  0.45609451021E+03  0.45609451021E+03  0.00000000000E+00 0. -1.
          2   -1    0    0  503    0  0.00000000000E+00 -0.00000000000E+00 -0.11438398633E+04  0.11438398633E+04  0.00000000000E+00 0. -1.
         25    2    1    2    0    0  0.96958150548E+02 -0.86465573514E+02 -0.19533816774E+03  0.26581758207E+03  0.12499923520E+03 0.  0.
          4    1    3    3  501    0  0.90981798885E+02 -0.58246109520E+02 -0.52549491032E+02  0.12013891505E+03  0.12700000000E+01 0.  1.
         -4    1    3    3    0  501  0.59763516627E+01 -0.28219463994E+02 -0.14278867671E+03  0.14567866701E+03  0.12700000000E+01 0.  1.
          2    1    1    2  502    0 -0.42456858306E+02  0.88334588289E+02  0.41431846651E+03  0.42575271696E+03  0.00000000000E+00 0. -1.
          1    1    1    2  503    0 -0.54501292242E+02 -0.18690147752E+01 -0.90672565183E+03  0.90836407445E+03  0.00000000000E+00 0. -1.
<mgrwt>
<rscale>  0 0.73307842E+02</rscale>
<asrwt>0</asrwt>
<pdfrwt beam="2">  1        2 0.17597536E+00 0.54533330E+02</pdfrwt>
<pdfrwt beam="1">  1        1 0.70168387E-01 0.98545967E+02</pdfrwt>
<totfact> 0.16897390E+02</totfact>
</mgrwt>
</event>
<event>
 7    1  0.4252091E-004  0.1225725E+03  0.7546771E-02  0.1252250E+00
          2   -1    0    0  503    0  0.00000000000E+00  0.00000000000E+00  0.50896783090E+03  0.50896783090E+03  0.00000000000E+00 0. -1.
          1   -1    0    0  502    0 -0.00000000000E+00 -0.00000000000E+00 -0.13647653599E+04  0.13647653599E+04  0.00000000000E+00 0. -1.
         25    2    1    2    0    0 -0.46486861504E+02  0.38566435507E+02 -0.16137750075E+03  0.21288320279E+03  0.12501264753E+03 0.  0.
          4    1    3    3  501    0  0.24357993389E+02  0.32866725812E+02 -0.51596882428E+01  0.41252500413E+02  0.12700000000E+01 0.  1.
         -4    1    3    3    0  501 -0.70844854893E+02  0.56997096946E+01 -0.15621781251E+03  0.17163070238E+03  0.12700000000E+01 0.  1.
          2    1    1    2  502    0  0.13276975005E+03  0.25015590100E+02 -0.11677486273E+04  0.11755383629E+04  0.00000000000E+00 0. -1.
          1    1    1    2  503    0 -0.86282888548E+02 -0.63582025607E+02  0.47332859898E+03  0.48531162509E+03  0.00000000000E+00 0. -1.
<mgrwt>
<rscale>  0 0.11461779E+03</rscale>
<asrwt>0</asrwt>
<pdfrwt beam="1">  1        2 0.78302744E-01 0.10717934E+03</pdfrwt>
<pdfrwt beam="2">  1        1 0.20996390E+00 0.12257249E+03</pdfrwt>
<totfact> 0.80025002E+01</totfact>
</mgrwt>
</event>
<event>
 7    1  0.4252091E-004  0.1259971E+03  0.7546771E-02  0.1273324E+00
         -1   -1    0    0    0  502 -0.00000000000E+00  0.00000000000E+00  0.78018217699E+03  0.78018217699E+03  0.00000000000E+00 0.  1.
         -2   -1    0    0    0  501  0.00000000000E+00 -0.00000000000E+00 -0.39569907521E+03  0.39569907521E+03  0.00000000000E+00 0.  1.
         25    2    1    2    0    0 -0.17318727025E+03 -0.70576198780E+01  0.26503247877E+03  0.34045660952E+03  0.12499939034E+03 0.  0.
          4    1    3    3  503    0 -0.65885480779E+02 -0.62264549893E+02  0.89112074300E+02  0.12712334733E+03  0.12700000000E+01 0.  1.
         -4    1    3    3    0  503 -0.10730178947E+03  0.55206930015E+02  0.17592040447E+03  0.21333326219E+03  0.12700000000E+01 0.  1.
         -2    1    1    2    0  502  0.59999827730E+02  0.59981164502E+02  0.46255802173E+03  0.47027400831E+03  0.00000000000E+00 0.  1.
         -1    1    1    2    0  501  0.11318744252E+03 -0.52923544624E+02 -0.34310739873E+03  0.36515063437E+03  0.00000000000E+00 0.  1.
<mgrwt>
<rscale>  0 0.10339012E+03</rscale>
<asrwt>0</asrwt>
<pdfrwt beam="2">  1       -2 0.60876781E-01 0.12599712E+03</pdfrwt>
<pdfrwt beam="1">  1       -1 0.12002803E+00 0.84839374E+02</pdfrwt>
<totfact> 0.13624318E+01</totfact>
</mgrwt>
</event>
<event>
 7    1  0.4252091E-004  0.9667832E+02  0.7546771E-02  0.1351278E+00
          1   -1    0    0  502    0 -0.00000000000E+00  0.00000000000E+00  0.17778393056E+03  0.17778393056E+03  0.00000000000E+00 0. -1.
          2   -1    0    0  503    0  0.00000000000E+00 -0.00000000000E+00 -0.80939548745E+03  0.80939548745E+03  0.00000000000E+00 0. -1.
         25    2    1    2    0    0  0.19428980396E+02  0.13533643406E+03 -0.34107242358E+03  0.38813545313E+03  0.12500118476E+03 0.  0.
          4    1    3    3  501    0 -0.42301573211E+02  0.10283774256E+03 -0.24819041523E+03  0.27196529099E+03  0.12700000000E+01 0. -1.
         -4    1    3    3    0  501  0.61730553607E+02  0.32498691494E+02 -0.92882008344E+02  0.11617016214E+03  0.12700000000E+01 0. -1.
          2    1    1    2  502    0 -0.28965046937E+02 -0.46291706009E+02  0.14471370615E+03  0.15467369763E+03  0.00000000000E+00 0. -1.
          1    1    1    2  503    0  0.95360665415E+01 -0.89044728047E+02 -0.43525283947E+03  0.44437026726E+03  0.00000000000E+00 0. -1.
<mgrwt>
<rscale>  0 0.72658710E+02</rscale>
<asrwt>0</asrwt>
<pdfrwt beam="2">  1        2 0.12452239E+00 0.96678325E+02</pdfrwt>
<pdfrwt beam="1">  1        1 0.27351373E-01 0.54606739E+02</pdfrwt>
<totfact> 0.81483715E+02</totfact>
</mgrwt>
</event>
<event>
 7    1  0.4252091E-004  0.3863916E+03  0.7546771E-02  0.1196740E+00
         -2   -1    0    0    0  501 -0.00000000000E+00  0.00000000000E+00  0.34824729653E+03  0.34824729653E+03  0.00000000000E+00 0.  1.
          2   -1    0    0  503    0  0.00000000000E+00 -0.00000000000E+00 -0.23596986573E+04  0.23596986573E+04  0.00000000000E+00 0. -1.
         25    2    1    2    0    0 -0.36518662894E+03 -0.23980354179E+03 -0.64173255409E+03  0.78632710710E+03  0.12499054272E+03 0.  0.
          4    1    3    3  502    0 -0.35075585018E+03 -0.18313095925E+03 -0.56721736738E+03  0.69159509066E+03  0.12700000000E+01 0.  1.
         -4    1    3    3    0  502 -0.14430778754E+02 -0.56672582541E+02 -0.74515186709E+02  0.94732016433E+02  0.12700000000E+01 0.  1.
          1    1    1    2  503    0  0.55648267275E+02  0.24108373589E+02 -0.15158254398E+04  0.15170381364E+04  0.00000000000E+00 0. -1.
         -1    1    1    2    0  501  0.30953836166E+03  0.21569516821E+03  0.14610663313E+03  0.40458071033E+03  0.00000000000E+00 0.  1.
<mgrwt>
<rscale>  0 0.15307882E+03</rscale>
<asrwt>0</asrwt>
<pdfrwt beam="2">  1        2 0.36303057E+00 0.60646050E+02</pdfrwt>
<pdfrwt beam="1">  1       -2 0.53576506E-01 0.38639163E+03</pdfrwt>
<totfact> 0.19477416E+01</totfact>
</mgrwt>
</event>
<event>
 7    1  0.4252091E-004  0.1129621E+03  0.7546771E-02  0.1278894E+00
          2   -1    0    0  503    0  0.00000000000E+00  0.00000000000E+00  0.83806122415E+03  0.83806122415E+03  0.00000000000E+00 0. -1.
          1   -1    0    0  502    0 -0.00000000000E+00 -0.00000000000E+00 -0.21671013889E+04  0.21671013889E+04  0.00000000000E+00 0. -1.
         25    2    1    2    0    0 -0.36198170749E+02 -0.48316514038E+02  0.13758319863E+02  0.13949212493E+03  0.12499587376E+03 0.  0.
          4    1    3    3  501    0 -0.41789406274E+02 -0.12447483023E+02 -0.49850761403E+02  0.66242023088E+02  0.12700000000E+01 0. -1.
         -4    1    3    3    0  501  0.55912355248E+01 -0.35869031015E+02  0.63609081266E+02  0.73250101844E+02  0.12700000000E+01 0. -1.
          2    1    1    2  502    0 -0.27972451359E+02  0.11101333768E+03 -0.21000273287E+04  0.21031455491E+04  0.00000000000E+00 0. -1.
          3    1    1    2  503    0  0.64170622108E+02 -0.62696823641E+02  0.75722884407E+03  0.76252493909E+03  0.00000000000E+00 0. -1.
<mgrwt>
<rscale>  0 0.10066967E+03</rscale>
<asrwt>0</asrwt>
<pdfrwt beam="1">  1        2 0.12893250E+00 0.89714884E+02</pdfrwt>
<pdfrwt beam="2">  1        1 0.33340021E+00 0.11296210E+03</pdfrwt>
<totfact> 0.14049708E+01</totfact>
</mgrwt>
</event>
<event>
 7    1  0.4252091E-004  0.1281346E+03  0.7546771E-02  0.1270510E+00
         -2   -1    0    0    0  501 -0.00000000000E+00  0.00000000000E+00  0.49184924863E+03  0.49184924863E+03  0.00000000000E+00 0.  1.
          2   -1    0    0  503    0  0.00000000000E+00 -0.00000000000E+00 -0.84625907881E+03  0.84625907881E+03  0.00000000000E+00 0. -1.
         25    2    1    2    0    0 -0.59318233991E+02  0.52487993334E+02  0.24642891640E+02  0.15001417798E+03  0.12499335645E+03 0.  0.
          4    1    3    3  502    0  0.19508442516E+02 -0.22800282625E+02 -0.15559859907E+02  0.33825350811E+02  0.12700000000E+01 0. -1.
         -4    1    3    3    0  502 -0.78826676507E+02  0.75288275959E+02  0.40202751546E+02  0.11618882716E+03  0.12700000000E+01 0. -1.
          1    1    1    2  503    0  0.22846127962E+02  0.82617614675E+02 -0.76901745230E+03  0.77377998021E+03  0.00000000000E+00 0. -1.
         -1    1    1    2    0  501  0.36472106029E+02 -0.13510560801E+03  0.38996473048E+03  0.41431416926E+03  0.00000000000E+00 0.  1.
<mgrwt>
<rscale>  0 0.10480204E+03</rscale>
<asrwt>0</asrwt>
<pdfrwt beam="2">  1        2 0.13019370E+00 0.85718235E+02</pdfrwt>
<pdfrwt beam="1">  1       -2 0.75669115E-01 0.12813456E+03</pdfrwt>
<totfact> 0.57195137E+01</totfact>
</mgrwt>
</event>
<event>
 7    1  0.4252091E-004  0.1171867E+03  0.7546771E-02  0.1398090E+00
          2   -1    0    0  503    0  0.00000000000E+00  0.00000000000E+00  0.13374147004E+04  0.13374147004E+04  0.00000000000E+00 0. -1.
         -2   -1    0    0    0  501 -0.00000000000E+00 -0.00000000000E+00 -0.18152501203E+03  0.18152501203E+03  0.00000000000E+00 0.  1.
         25    2    1    2    0    0 -0.10316482401E+03 -0.74063711805E+02  0.38861635163E+03  0.42751648488E+03  0.12497704498E+03 0.  0.
          4    1    3    3  502    0 -0.19485474933E+02 -0.74823933446E+02  0.96577690265E+02  0.12372213992E+03  0.12700000000E+01 0. -1.
         -4    1    3    3    0  502 -0.83679349081E+02  0.76022164130E+00  0.29203866136E+03  0.30379434496E+03  0.12700000000E+01 0. -1.
          1    1    1    2  503    0  0.26986066699E+02 -0.14547109239E+02  0.90799299488E+03  0.90851039892E+03  0.00000000000E+00 0. -1.
         -1    1    1    2    0  501  0.76178757315E+02  0.88610821044E+02 -0.14071965817E+03  0.18291282860E+03  0.00000000000E+00 0.  1.
<mgrwt>
<rscale>  0 0.59938484E+02</rscale>
<asrwt>0</asrwt>
<pdfrwt beam="1">  1        2 0.20575610E+00 0.30657237E+02</pdfrwt>
<pdfrwt beam="2">  1       -2 0.27926926E-01 0.11718675E+03</pdfrwt>
<totfact> 0.22689020E+02</totfact>
</mgrwt>
</event>
<event>
 7    1  0.4252091E-004  0.1357332E+03  0.7546771E-02  0.1239694E+00
          1   -1    0    0  502    0 -0.00000000000E+00  0.00000000000E+00  0.14659381973E+03  0.14659381973E+03  0.00000000000E+00 0. -1.
          2   -1    0    0  503    0  0.00000000000E+00 -0.00000000000E+00 -0.17107092103E+04  0.17107092103E+04  0.00000000000E+00 0. -1.
         25    2    1    2    0    0  0.68193463572E+01 -0.13206492498E+03 -0.10957393596E+03  0.21241241976E+03  0.12499976292E+03 0.  0.
          4    1    3    3  501    0 -0.29007129179E+02 -0.10247778059E+03 -0.15702014272E+02  0.10766278471E+03  0.12700000000E+01 0. -1.
         -4    1    3    3    0  501  0.35826475537E+02 -0.29587144389E+02 -0.93871921686E+02  0.10474963505E+03  0.12700000000E+01 0. -1.
          2    1    1    2  502    0 -0.11125043364E+03  0.98112884590E+02  0.34101580093E+02  0.15220287406E+03  0.00000000000E+00 0. -1.
          1    1    1    2  503    0  0.10443108728E+03  0.33952040393E+02 -0.14886430347E+04  0.14926877362E+04  0.00000000000E+00 0. -1.
<mgrwt>
<rscale>  0 0.12208639E+03</rscale>
<asrwt>0</asrwt>
<pdfrwt beam="2">  1        2 0.26318604E+00 0.10981163E+03</pdfrwt>
<pdfrwt beam="1">  1        1 0.22552895E-01 0.13573322E+03</pdfrwt>
<totfact> 0.33437481E+02</totfact>
</mgrwt>
</event>
<event>
 7    1  0.4252091E-004  0.1114675E+03  0.7546771E-02  0.1345507E+00
          2   -1    0    0  503    0  0.00000000000E+00  0.00000000000E+00  0.16874162467E+04  0.16874162467E+04  0.00000000000E+00 0. -1.
          1   -1    0    0  502    0 -0.00000000000E+00 -0.00000000000E+00 -0.37424245532E+03  0.37424245532E+03  0.00000000000E+00 0. -1.
         25    2    1    2    0    0 -0.26958550667E+02 -0.72118809611E+01  0.11908500341E+04  0.11977174788E+04  0.12499832222E+03 0.  0.
          4    1    3    3  501    0  0.32175955965E+02  0.37669533585E+02  0.33399215814E+03  0.33764872353E+03  0.12700000000E+01 0.  1.
         -4    1    3    3    0  501 -0.59134506633E+02 -0.44881414546E+02  0.85685787599E+03  0.86006875527E+03  0.12700000000E+01 0.  1.
          2    1    1    2  502    0 -0.45301840760E+00 -0.11146657515E+03 -0.35460116173E+03  0.37170820075E+03  0.00000000000E+00 0. -1.
          1    1    1    2  503    0  0.27411569075E+02  0.11867845611E+03  0.47692491896E+03  0.49223302245E+03  0.00000000000E+00 0. -1.
<mgrwt>
<rscale>  0 0.74474179E+02</rscale>
<asrwt>0</asrwt>
<pdfrwt beam="1">  1        2 0.25960249E+00 0.49758034E+02</pdfrwt>
<pdfrwt beam="2">  1        1 0.57575764E-01 0.11146750E+03</pdfrwt>
<totfact> 0.11565334E+02</totfact>
</mgrwt>
</event>
<event>
 7    1  0.7007043E-004  0.9188067E+02  0.7546771E-02  0.1428374E+00
          2   -1    0    0  503    0  0.00000000000E+00  0.00000000000E+00  0.15503986567E+04  0.15503986567E+04  0.00000000000E+00 0. -1.
         -2   -1    0    0    0  501 -0.00000000000E+00 -0.00000000000E+00 -0.14788345240E+02  0.14788345240E+02  0.00000000000E+00 0.  1.
         25    2    1    2    0    0 -0.20506808958E+02 -0.10263302561E+03  0.94553738578E+03  0.95949370269E+03  0.12503259746E+03 0.  0.
          4    1    3    3  502    0  0.26601946074E+02 -0.86625110622E+02  0.33857770969E+03  0.35049686407E+03  0.12700000000E+01 0.  1.
         -4    1    3    3    0  502 -0.47108755031E+02 -0.16007914985E+02  0.60695967610E+03  0.60899683862E+03  0.12700000000E+01 0.  1.
          3    1    1    2  503    0 -0.20122079654E+02  0.23457033921E+02  0.31660530745E+03  0.31811012438E+03  0.00000000000E+00 0. -1.
         -3    1    1    2    0  501  0.40628888611E+02  0.79175991687E+02  0.27346761826E+03  0.28758317490E+03  0.00000000000E+00 0.  1.
<mgrwt>
<rscale>  0 0.53287796E+02</rscale>
<asrwt>0</asrwt>
<pdfrwt beam="1">  1        2 0.23852274E+00 0.30905186E+02</pdfrwt>
<pdfrwt beam="2">  1       -2 0.22751313E-02 0.91880670E+02</pdfrwt>
<totfact> 0.87129212E+03</totfact>
</mgrwt>
</event>
<event>
 7    1  0.4252091E-004  0.5924500E+02  0.7546771E-02  0.1415177E+00
         -1   -1    0    0    0  502 -0.00000000000E+00  0.00000000000E+00  0.44030601027E+03  0.44030601027E+03  0.00000000000E+00 0.  1.
         -2   -1    0    0    0  501  0.00000000000E+00 -0.00000000000E+00 -0.12825198408E+03  0.12825198408E+03  0.00000000000E+00 0.  1.
         25    2    1    2    0    0 -0.24019852273E+02 -0.22591112297E+01  0.11826580247E+03  0.17376608656E+03  0.12500318363E+03 0.  0.
          4    1    3    3  503    0  0.35705062597E+02 -0.41461072864E+02  0.62867111373E+02  0.83353216197E+02  0.12700000000E+01 0. -1.
         -4    1    3    3    0  503 -0.59724914870E+02  0.39201961634E+02  0.55398691096E+02  0.90412870363E+02  0.12700000000E+01 0. -1.
         -2    1    1    2    0  502 -0.52945142149E+01 -0.52770764468E+02  0.28190283729E+03  0.28684838354E+03  0.00000000000E+00 0.  1.
         -1    1    1    2    0  501  0.29314366487E+02  0.55029875697E+02 -0.88114613575E+02  0.10794352425E+03  0.00000000000E+00 0.  1.
<mgrwt>
<rscale>  0 0.56054440E+02</rscale>
<asrwt>0</asrwt>
<pdfrwt beam="2">  1       -2 0.19731075E-01 0.59245003E+02</pdfrwt>
<pdfrwt beam="1">  1       -1 0.67739385E-01 0.53035700E+02</pdfrwt>
<totfact> 0.35829385E+02</totfact>
</mgrwt>
</event>
<event>
 7    1  0.4252091E-004  0.6206057E+02  0.7546771E-02  0.1418399E+00
          2   -1    0    0  503    0  0.00000000000E+00  0.00000000000E+00  0.47711387131E+03  0.47711387131E+03  0.00000000000E+00 0. -1.
         -2   -1    0    0    0  501 -0.00000000000E+00 -0.00000000000E+00 -0.46918375617E+02  0.46918375617E+02  0.00000000000E+00 0.  1.
         25    2    1    2    0    0 -0.26755793593E+02  0.10018200676E+03  0.22294252233E+03  0.27582667427E+03  0.12499871604E+03 0.  0.
          4    1    3    3  502    0 -0.20213875610E+02  0.89779650103E+02  0.23868554367E+03  0.25581514419E+03  0.12700000000E+01 0.  1.
         -4    1    3    3    0  502 -0.65419179836E+01  0.10402356653E+02 -0.15743021350E+02  0.20011530078E+02  0.12700000000E+01 0.  1.
          1    1    1    2  503    0  0.17618083192E+02 -0.46135389343E+02  0.18064746420E+03  0.18727620598E+03  0.00000000000E+00 0. -1.
         -1    1    1    2    0  501  0.91377104009E+01 -0.54046617413E+02  0.26605509169E+02  0.60929366674E+02  0.00000000000E+00 0.  1.
<mgrwt>
<rscale>  0 0.55361146E+02</rscale>
<asrwt>0</asrwt>
<pdfrwt beam="1">  1        2 0.73402131E-01 0.49384927E+02</pdfrwt>
<pdfrwt beam="2">  1       -2 0.72182119E-02 0.62060566E+02</pdfrwt>
<totfact> 0.66246779E+03</totfact>
</mgrwt>
</event>
<event>
 7    1  0.4252091E-004  0.1436923E+03  0.7546771E-02  0.1399026E+00
         -2   -1    0    0    0  501 -0.00000000000E+00  0.00000000000E+00  0.26098472994E+02  0.26098472994E+02  0.00000000000E+00 0.  1.
          2   -1    0    0  503    0  0.00000000000E+00 -0.00000000000E+00 -0.14779898172E+04  0.14779898172E+04  0.00000000000E+00 0. -1.
         25    2    1    2    0    0  0.14627505782E+03  0.45321045618E+02 -0.99891862179E+03  0.10182894417E+04  0.12499833772E+03 0.  0.
          4    1    3    3  502    0  0.16637930834E+03  0.34075465540E+02 -0.93579202638E+03  0.95107914556E+03  0.12700000000E+01 0.  1.
         -4    1    3    3    0  502 -0.20104250521E+02  0.11245580078E+02 -0.63126595414E+02  0.67210296152E+02  0.12700000000E+01 0.  1.
          3    1    1    2  503    0 -0.13191293095E+03 -0.25081992514E+02 -0.43473895100E+03  0.45500338813E+03  0.00000000000E+00 0. -1.
         -3    1    1    2    0  501 -0.14362126870E+02 -0.20239053104E+02 -0.18233771462E+02  0.30795460388E+02  0.00000000000E+00 0.  1.
<mgrwt>
<rscale>  0 0.59716243E+02</rscale>
<asrwt>0</asrwt>
<pdfrwt beam="2">  1        2 0.22738304E+00 0.14369227E+03</pdfrwt>
<pdfrwt beam="1">  1       -2 0.40151498E-02 0.24817130E+02</pdfrwt>
<totfact> 0.30773268E+03</totfact>
</mgrwt>
</event>
<event>
 7    1  0.4252091E-004  0.7022331E+02  0.7546771E-02  0.1393627E+00
          1   -1    0    0  502    0 -0.00000000000E+00  0.00000000000E+00  0.46203786420E+03  0.46203786420E+03  0.00000000000E+00 0. -1.
          2   -1    0    0  503    0  0.00000000000E+00 -0.00000000000E+00 -0.85015222532E+02  0.85015222532E+02  0.00000000000E+00 0. -1.
         25    2    1    2    0    0  0.11490184752E+01 -0.15415021100E+02  0.37156037357E+02  0.13131941270E+03  0.12500109568E+03 0.  0.
          4    1    3    3  501    0 -0.52924700968E+02  0.21360962552E+02  0.32634096375E+02  0.65756458541E+02  0.12700000000E+01 0. -1.
         -4    1    3    3    0  501  0.54073719443E+02 -0.36775983651E+02  0.45219409818E+01  0.65562954160E+02  0.12700000000E+01 0. -1.
          2    1    1    2  502    0  0.69090965476E+02 -0.12559953068E+02  0.33242634545E+03  0.33976254809E+03  0.00000000000E+00 0. -1.
          1    1    1    2  503    0 -0.70239983951E+02  0.27974974167E+02  0.74402588576E+01  0.75971125942E+02  0.00000000000E+00 0. -1.
<mgrwt>
<rscale>  0 0.61013551E+02</rscale>
<asrwt>0</asrwt>
<pdfrwt beam="2">  1        2 0.13079265E-01 0.53011644E+02</pdfrwt>
<pdfrwt beam="1">  1        1 0.71082747E-01 0.70223315E+02</pdfrwt>
<totfact> 0.29500208E+03</totfact>
</mgrwt>
</event>
<event>
 7    1  0.4252091E-004  0.7853703E+02  0.7546771E-02  0.1443483E+00
          1   -1    0    0  503    0  0.00000000000E+00  0.00000000000E+00  0.15977048396E+04  0.15977048396E+04  0.00000000000E+00 0. -1.
         -1   -1    0    0    0  501 -0.00000000000E+00 -0.00000000000E+00 -0.16263070442E+03  0.16263070442E+03  0.00000000000E+00 0.  1.
         25    2    1    2    0    0  0.89855118880E+01 -0.10834722937E+03  0.60911742147E+03  0.63124425152E+03  0.12500164155E+03 0.  0.
          4    1    3    3  502    0 -0.12293545317E+02 -0.35325188304E+02  0.32310041483E+02  0.49442409588E+02  0.12700000000E+01 0. -1.
         -4    1    3    3    0  502  0.21279057205E+02 -0.73022041070E+02  0.57680737999E+03  0.58180184193E+03  0.12700000000E+01 0. -1.
          2    1    1    2  503    0  0.59218492773E+01  0.31726571452E+02  0.96718703593E+03  0.96772537742E+03  0.00000000000E+00 0. -1.
         -2    1    1    2    0  501 -0.14907361165E+02  0.76620657922E+02 -0.14123032222E+03  0.16136591509E+03  0.00000000000E+00 0.  1.
<mgrwt>
<rscale>  0 0.50346237E+02</rscale>
<asrwt>0</asrwt>
<pdfrwt beam="1">  1        1 0.24580073E+00 0.32274504E+02</pdfrwt>
<pdfrwt beam="2">  1       -1 0.25020109E-01 0.78537025E+02</pdfrwt>
<totfact> 0.10484860E+02</totfact>
</mgrwt>
</event>
<event>
 7    1  0.4252091E-004  0.7493211E+02  0.7546771E-02  0.1371938E+00
         -1   -1    0    0    0  501 -0.00000000000E+00  0.00000000000E+00  0.64281446696E+03  0.64281446696E+03  0.00000000000E+00 0.  1.
          1   -1    0    0  503    0  0.00000000000E+00 -0.00000000000E+00 -0.17671960008E+03  0.17671960008E+03  0.00000000000E+00 0. -1.
         25    2    1    2    0    0 -0.82713734836E+02 -0.91375313947E+02 -0.43684529507E+01  0.17559960111E+03  0.12500050639E+03 0.  0.
          4    1    3    3  502    0  0.12234911390E+02 -0.93678650251E+01  0.39710592107E+02  0.42614480841E+02  0.12700000000E+01 0. -1.
         -4    1    3    3    0  502 -0.94948646226E+02 -0.82007448922E+02 -0.44079045058E+02  0.13298512027E+03  0.12700000000E+01 0. -1.
          2    1    1    2  503    0  0.33007819827E+02  0.59127727017E+02 -0.71653627376E+02  0.98589282319E+02  0.00000000000E+00 0. -1.
         -2    1    1    2    0  501  0.49705915008E+02  0.32247586930E+02  0.54211694720E+03  0.54534518361E+03  0.00000000000E+00 0.  1.
<mgrwt>
<rscale>  0 0.66631387E+02</rscale>
<asrwt>0</asrwt>
<pdfrwt beam="2">  1        1 0.27187631E-01 0.74932110E+02</pdfrwt>
<pdfrwt beam="1">  1       -1 0.98894532E-01 0.59250189E+02</pdfrwt>
<totfact> 0.18562533E+02</totfact>
</mgrwt>
</event>
<event>
 7    1  0.4252091E-004  0.5504441E+02  0.7546771E-02  0.1425179E+00
          2   -1    0    0  503    0  0.00000000000E+00  0.00000000000E+00  0.34169226594E+03  0.34169226594E+03  0.00000000000E+00 0. -1.
         -2   -1    0    0    0  501 -0.00000000000E+00 -0.00000000000E+00 -0.41605961930E+03  0.41605961930E+03  0.00000000000E+00 0.  1.
         25    2    1    2    0    0  0.56752550219E+01  0.46990766790E+01  0.39691704526E+01  0.12532309204E+03  0.12504332546E+03 0.  0.
          4    1    3    3  502    0  0.59096766887E+02  0.29603623913E+02  0.55958414076E+01  0.66345525444E+02  0.12700000000E+01 0.  1.
         -4    1    3    3    0  502 -0.53421511866E+02 -0.24904547234E+02 -0.16266709550E+01  0.58977566594E+02  0.12700000000E+01 0.  1.
          1    1    1    2  503    0  0.49360408230E+02 -0.18907569474E+02  0.27221479682E+03  0.27729919165E+03  0.00000000000E+00 0. -1.
         -1    1    1    2    0  501 -0.55035663252E+02  0.14208492795E+02 -0.35055132063E+03  0.35512960155E+03  0.00000000000E+00 0.  1.
<mgrwt>
<rscale>  0 0.53940024E+02</rscale>
<asrwt>0</asrwt>
<pdfrwt beam="1">  1        2 0.52568041E-01 0.52857791E+02</pdfrwt>
<pdfrwt beam="2">  1       -2 0.64009172E-01 0.55044415E+02</pdfrwt>
<totfact> 0.22383374E+02</totfact>
</mgrwt>
</event>
<event>
 7    1  0.4252091E-004  0.4280502E+02  0.7546771E-02  0.1494084E+00
          1   -1    0    0  503    0  0.00000000000E+00  0.00000000000E+00  0.11637803510E+03  0.11637803510E+03  0.00000000000E+00 0. -1.
         -1   -1    0    0    0  501 -0.00000000000E+00 -0.00000000000E+00 -0.33327042107E+03  0.33327042107E+03  0.00000000000E+00 0.  1.
         25    2    1    2    0    0  0.62948169611E+02  0.19271949795E+02 -0.10273996258E+03  0.17467972576E+03  0.12499450618E+03 0.  0.
          4    1    3    3  502    0  0.92040245384E+02  0.44456259129E+02 -0.67583616468E+02  0.12254355903E+03  0.12700000000E+01 0. -1.
         -4    1    3    3    0  502 -0.29092075773E+02 -0.25184309334E+02 -0.35156346111E+02  0.52136166730E+02  0.12700000000E+01 0. -1.
          2    1    1    2  503    0 -0.38382557169E+02  0.14926766787E+02  0.72632987508E+02  0.83495987544E+02  0.00000000000E+00 0. -1.
         -2    1    1    2    0  501 -0.24565612441E+02 -0.34198716582E+02 -0.18678541090E+03  0.19147274286E+03  0.00000000000E+00 0.  1.
<mgrwt>
<rscale>  0 0.41986115E+02</rscale>
<asrwt>0</asrwt>
<pdfrwt beam="1">  1        1 0.17904313E-01 0.41182873E+02</pdfrwt>
<pdfrwt beam="2">  1       -1 0.51272372E-01 0.42805023E+02</pdfrwt>
<totfact> 0.10904438E+03</totfact>
</mgrwt>
</event>
<event>
 7    1  0.4252091E-004  0.4011378E+02  0.7546771E-02  0.1609458E+00
          1   -1    0    0  502    0 -0.00000000000E+00  0.00000000000E+00  0.24799499699E+03  0.24799499699E+03  0.00000000000E+00 0. -1.
          2   -1    0    0  503    0  0.00000000000E+00 -0.00000000000E+00 -0.23707076138E+04  0.23707076138E+04  0.00000000000E+00 0. -1.
         25    2    1    2    0    0 -0.57966420846E+02  0.18609764226E+02 -0.15558138836E+03  0.20865506240E+03  0.12499974956E+03 0.  0.
          4    1    3    3  501    0 -0.60171990683E+02  0.26542892974E+02 -0.14538056544E+02  0.67365878739E+02  0.12700000000E+01 0.  1.
         -4    1    3    3    0  501  0.22055698368E+01 -0.79331287483E+01 -0.14104333182E+03  0.14128918366E+03  0.12700000000E+01 0.  1.
          2    1    1    2  502    0  0.20284705051E+02 -0.52764157562E+01  0.22077927851E+03  0.22177195414E+03  0.00000000000E+00 0. -1.
          1    1    1    2  503    0  0.37681715795E+02 -0.13333348470E+02 -0.21879105070E+04  0.21882755942E+04  0.00000000000E+00 0. -1.
<mgrwt>
<rscale>  0 0.28996097E+02</rscale>
<asrwt>0</asrwt>
<pdfrwt beam="2">  1        2 0.36472427E+00 0.40113785E+02</pdfrwt>
<pdfrwt beam="1">  1        1 0.38153074E-01 0.20959719E+02</pdfrwt>
<totfact> 0.89342789E+01</totfact>
</mgrwt>
</event>
<event>
 7    1  0.4252091E-004  0.8509767E+02  0.7546771E-02  0.1443442E+00
          2   -1    0    0  503    0  0.00000000000E+00  0.00000000000E+00  0.27605719723E+03  0.27605719723E+03  0.00000000000E+00 0. -1.
         -2   -1    0    0    0  501 -0.00000000000E+00 -0.00000000000E+00 -0.39086986927E+03  0.39086986927E+03  0.00000000000E+00 0.  1.
         25    2    1    2    0    0  0.28827048065E+02  0.61413662248E+02  0.12497486611E+03  0.18933222361E+03  0.12500134850E+03 0.  0.
          4    1    3    3  502    0 -0.39422588463E+02 -0.16906417929E+01  0.72579714064E+02  0.82622191598E+02  0.12700000000E+01 0.  1.
         -4    1    3    3    0  502  0.68249636528E+02  0.63104304041E+02  0.52395152048E+02  0.10671003202E+03  0.12700000000E+01 0.  1.
          1    1    1    2  503    0  0.29770494547E+02  0.12178700839E+01  0.11179721002E+03  0.11569953207E+03  0.00000000000E+00 0. -1.
         -1    1    1    2    0  501 -0.58597542612E+02 -0.62631532332E+02 -0.35158474817E+03  0.36189531082E+03  0.00000000000E+00 0.  1.
<mgrwt>
<rscale>  0 0.50353935E+02</rscale>
<asrwt>0</asrwt>
<pdfrwt beam="1">  1        2 0.42470338E-01 0.29795395E+02</pdfrwt>
<pdfrwt beam="2">  1       -2 0.60133826E-01 0.85097674E+02</pdfrwt>
<totfact> 0.31249761E+02</totfact>
</mgrwt>
</event>
<event>
 7    1  0.4252091E-004  0.7662311E+02  0.7546771E-02  0.1417109E+00
          1   -1    0    0  502    0 -0.00000000000E+00  0.00000000000E+00  0.85112491034E+03  0.85112491034E+03  0.00000000000E+00 0. -1.
          2   -1    0    0  503    0  0.00000000000E+00 -0.00000000000E+00 -0.39765179444E+02  0.39765179444E+02  0.00000000000E+00 0. -1.
         25    2    1    2    0    0 -0.50676007868E+02  0.34887392252E+02  0.51290971477E+03  0.53149407004E+03  0.12499753228E+03 0.  0.
          4    1    3    3  501    0 -0.17139440189E+02 -0.36866613750E+02  0.65325853357E+02  0.76954451699E+02  0.12700000000E+01 0.  1.
         -4    1    3    3    0  501 -0.33536567678E+02  0.71754006002E+02  0.44758386141E+03  0.45453961834E+03  0.12700000000E+01 0.  1.
          2    1    1    2  502    0  0.87418943554E+02 -0.18093363711E+02  0.30559737840E+03  0.31836959527E+03  0.00000000000E+00 0. -1.
          1    1    1    2  503    0 -0.36742935687E+02 -0.16794028541E+02 -0.71473622778E+01  0.41026424473E+02  0.00000000000E+00 0. -1.
<mgrwt>
<rscale>  0 0.55637222E+02</rscale>
<asrwt>0</asrwt>
<pdfrwt beam="2">  1        2 0.61177206E-02 0.40399044E+02</pdfrwt>
<pdfrwt beam="1">  1        1 0.13094228E+00 0.76623112E+02</pdfrwt>
<totfact> 0.31145418E+03</totfact>
</mgrwt>
</event>
<event>
 7    1  0.4252091E-004  0.1673359E+03  0.7546771E-02  0.1207970E+00
         -1   -1    0    0    0  501 -0.00000000000E+00  0.00000000000E+00  0.32583342395E+03  0.32583342395E+03  0.00000000000E+00 0.  1.
          1   -1    0    0  503    0  0.00000000000E+00 -0.00000000000E+00 -0.99418158584E+03  0.99418158584E+03  0.00000000000E+00 0. -1.
         25    2    1    2    0    0 -0.34256963859E+02  0.80630306734E+02 -0.28485119740E+03  0.32317251342E+03  0.12500193133E+03 0.  0.
          4    1    3    3  502    0  0.40893646947E+02  0.63243310462E+02 -0.14845334432E+03  0.16646926149E+03  0.12700000000E+01 0.  1.
         -4    1    3    3    0  502 -0.75150610806E+02  0.17386996272E+02 -0.13639785307E+03  0.15670325193E+03  0.12700000000E+01 0.  1.
          2    1    1    2  503    0 -0.12395727514E+03 -0.39134056967E+01 -0.65869450236E+03  0.67026798241E+03  0.00000000000E+00 0. -1.
         -2    1    1    2    0  501  0.15821423900E+03 -0.76716901037E+02  0.27519753786E+03  0.32657451396E+03  0.00000000000E+00 0.  1.
<mgrwt>
<rscale>  0 0.14405843E+03</rscale>
<asrwt>0</asrwt>
<pdfrwt beam="2">  1        1 0.15295102E+00 0.12401903E+03</pdfrwt>
<pdfrwt beam="1">  1       -1 0.50128218E-01 0.16733586E+03</pdfrwt>
<totfact> 0.70610833E+01</totfact>
</mgrwt>
</event>
<event>
 7    1  0.4252091E-004  0.9058420E+02  0.7546771E-02  0.1437232E+00
          2   -1    0    0  503    0  0.00000000000E+00  0.00000000000E+00  0.27797841100E+03  0.27797841100E+03  0.00000000000E+00 0. -1.
          1   -1    0    0  502    0 -0.00000000000E+00 -0.00000000000E+00 -0.18478339225E+04  0.18478339225E+04  0.00000000000E+00 0. -1.
         25    2    1    2    0    0 -0.60406527882E+02 -0.52634520325E+02 -0.23680325429E+03  0.27950129831E+03  0.12500341265E+03 0.  0.
          4    1    3    3  501    0 -0.91678256757E+01  0.49971189652E+01 -0.18786499451E+03  0.18815921260E+03  0.12700000000E+01 0. -1.
         -4    1    3    3    0  501 -0.51238702206E+02 -0.57631639290E+02 -0.48938259787E+02  0.91342085711E+02  0.12700000000E+01 0. -1.
          2    1    1    2  502    0  0.46779856408E+02  0.78595120737E+02 -0.15875235983E+04  0.15901561945E+04  0.00000000000E+00 0. -1.
          1    1    1    2  503    0  0.13626671474E+02 -0.25960600412E+02  0.25447134108E+03  0.25615484063E+03  0.00000000000E+00 0. -1.
<mgrwt>
<rscale>  0 0.51535351E+02</rscale>
<asrwt>0</asrwt>
<pdfrwt beam="1">  1        2 0.42765908E-01 0.29319600E+02</pdfrwt>
<pdfrwt beam="2">  1        1 0.28428215E+00 0.90584196E+02</pdfrwt>
<totfact> 0.75707547E+01</totfact>
</mgrwt>
</event>
<event>
 7    1  0.4252091E-004  0.1015596E+03  0.7546771E-02  0.1449028E+00
          1   -1    0    0  502    0 -0.00000000000E+00  0.00000000000E+00  0.50649991286E+03  0.50649991286E+03  0.00000000000E+00 0. -1.
          2   -1    0    0  503    0  0.00000000000E+00 -0.00000000000E+00 -0.85860112503E+03  0.85860112503E+03  0.00000000000E+00 0. -1.
         25    2    1    2    0    0 -0.51109296136E+02 -0.62526884019E+02 -0.15285668791E+03  0.21333619788E+03  0.12500157964E+03 0.  0.
          4    1    3    3  501    0 -0.69696352298E+02 -0.15015064829E+02 -0.24818934423E+02  0.75502490696E+02  0.12700000000E+01 0.  1.
         -4    1    3    3    0  501  0.18587056162E+02 -0.47511819191E+02 -0.12803775349E+03  0.13783370719E+03  0.12700000000E+01 0.  1.
          2    1    1    2  502    0  0.73517824424E+02  0.70991473265E+02  0.47056095301E+03  0.48153117270E+03  0.00000000000E+00 0. -1.
          1    1    1    2  503    0 -0.22408528288E+02 -0.84645892455E+01 -0.66980547727E+03  0.67023366731E+03  0.00000000000E+00 0. -1.
<mgrwt>
<rscale>  0 0.49322947E+02</rscale>
<asrwt>0</asrwt>
<pdfrwt beam="2">  1        2 0.13209248E+00 0.23953944E+02</pdfrwt>
<pdfrwt beam="1">  1        1 0.77923063E-01 0.10155961E+03</pdfrwt>
<totfact> 0.22293073E+02</totfact>
</mgrwt>
</event>
<event>
 7    1  0.4252091E-004  0.1010934E+03  0.7546771E-02  0.1391539E+00
          2   -1    0    0  503    0  0.00000000000E+00  0.00000000000E+00  0.11741098931E+04  0.11741098931E+04  0.00000000000E+00 0. -1.
          1   -1    0    0  502    0 -0.00000000000E+00 -0.00000000000E+00 -0.66692767414E+02  0.66692767414E+02  0.00000000000E+00 0. -1.
         25    2    1    2    0    0 -0.68413999333E+02 -0.12584983022E+02  0.26052527636E+03  0.29721438724E+03  0.12499646099E+03 0.  0.
          4    1    3    3  501    0  0.56187658831E+01 -0.54513679187E+02  0.73032648922E+02  0.91316441330E+02  0.12700000000E+01 0. -1.
         -4    1    3    3    0  501 -0.74032765217E+02  0.41928696165E+02  0.18749262743E+03  0.20589794591E+03  0.12700000000E+01 0. -1.
          2    1    1    2  502    0 -0.35038092344E+02 -0.13206719708E+02 -0.37381826143E+02  0.52910171861E+02  0.00000000000E+00 0. -1.
          1    1    1    2  503    0  0.10345209168E+03  0.25791702730E+02  0.88427367550E+03  0.89067810144E+03  0.00000000000E+00 0. -1.
<mgrwt>
<rscale>  0 0.61525469E+02</rscale>
<asrwt>0</asrwt>
<pdfrwt beam="1">  1        2 0.18063228E+00 0.10109336E+03</pdfrwt>
<pdfrwt beam="2">  1        1 0.10260427E-01 0.37444430E+02</pdfrwt>
<totfact> 0.16283039E+03</totfact>
</mgrwt>
</event>
<event>
 7    1  0.4252091E-004  0.1140490E+03  0.7546771E-02  0.1260433E+00
          1   -1    0    0  503    0  0.00000000000E+00  0.00000000000E+00  0.13673466888E+04  0.13673466888E+04  0.00000000000E+00 0. -1.
         -1   -1    0    0    0  501 -0.00000000000E+00 -0.00000000000E+00 -0.15506738130E+04  0.15506738130E+04  0.00000000000E+00 0.  1.
         25    2    1    2    0    0 -0.17275764872E+03  0.70986907333E+02  0.76906892480E+03  0.80123409683E+03  0.12499888250E+03 0.  0.
          4    1    3    3  502    0 -0.53766501251E+02  0.45374309256E+02  0.51189144415E+03  0.51670506877E+03  0.12700000000E+01 0.  1.
         -4    1    3    3    0  502 -0.11899114747E+03  0.25612598077E+02  0.25717748065E+03  0.28452902807E+03  0.12700000000E+01 0.  1.
          2    1    1    2  503    0  0.10432103281E+03  0.20089504149E+02  0.57520989796E+03  0.58493836664E+03  0.00000000000E+00 0. -1.
         -2    1    1    2    0  501  0.68436615910E+02 -0.91076411482E+02 -0.15276059470E+04  0.15318480383E+04  0.00000000000E+00 0.  1.
<mgrwt>
<rscale>  0 0.11007413E+03</rscale>
<asrwt>0</asrwt>
<pdfrwt beam="1">  1        1 0.21036103E+00 0.10623778E+03</pdfrwt>
<pdfrwt beam="2">  1       -1 0.23856520E+00 0.11404900E+03</pdfrwt>
<totfact> 0.98906811E-01</totfact>
</mgrwt>
</event>
<event>
 7    1  0.4252091E-004  0.5895024E+02  0.7546771E-02  0.1478541E+00
          2   -1    0    0  503    0  0.00000000000E+00  0.00000000000E+00  0.22930776926E+04  0.22930776926E+04  0.00000000000E+00 0. -1.
          1   -1    0    0  502    0 -0.00000000000E+00 -0.00000000000E+00 -0.76836892695E+03  0.76836892695E+03  0.00000000000E+00 0. -1.
         25    2    1    2    0    0 -0.53455901134E+02 -0.31197321339E+02 -0.20794013665E+03  0.25039103731E+03  0.12500305960E+03 0.  0.
          4    1    3    3  501    0 -0.54081325830E+02 -0.52086311521E+02 -0.21543876281E+03  0.22815180708E+03  0.12700000000E+01 0.  1.
         -4    1    3    3    0  501  0.62542469623E+00  0.20888990182E+02  0.74986261609E+01  0.22239230229E+02  0.12700000000E+01 0.  1.
          2    1    1    2  502    0 -0.54807582099E+01  0.32888644927E+02 -0.53830489971E+03  0.53933650603E+03  0.00000000000E+00 0. -1.
          1    1    1    2  503    0  0.58936659344E+02 -0.16913235879E+01  0.22709538020E+04  0.22717190762E+04  0.00000000000E+00 0. -1.
<mgrwt>
<rscale>  0 0.44334301E+02</rscale>
<asrwt>0</asrwt>
<pdfrwt beam="1">  1        2 0.35278118E+00 0.58950243E+02</pdfrwt>
<pdfrwt beam="2">  1        1 0.11821061E+00 0.33342191E+02</pdfrwt>
<totfact> 0.23301012E+01</totfact>
</mgrwt>
</event>
<event>
 7    1  0.4252091E-004  0.3841281E+02  0.7546771E-02  0.1533575E+00
          2   -1    0    0  503    0  0.00000000000E+00  0.00000000000E+00  0.12708467125E+04  0.12708467125E+04  0.00000000000E+00 0. -1.
          1   -1    0    0  502    0 -0.00000000000E+00 -0.00000000000E+00 -0.46385228412E+02  0.46385228412E+02  0.00000000000E+00 0. -1.
         25    2    1    2    0    0  0.69508275775E+02  0.21236818757E+02  0.24353740760E+03  0.28322906678E+03  0.12500332994E+03 0.  0.
          4    1    3    3  501    0  0.41921572046E+02  0.48220614994E+02  0.38545145207E+02  0.74632345751E+02  0.12700000000E+01 0.  1.
         -4    1    3    3    0  501  0.27586703729E+02 -0.26983796237E+02  0.20499226239E+03  0.20859672103E+03  0.12700000000E+01 0.  1.
          2    1    1    2  502    0 -0.32556909863E+02 -0.13281942825E+02 -0.14374608851E+02  0.37986731429E+02  0.00000000000E+00 0. -1.
          1    1    1    2  503    0 -0.36951365912E+02 -0.79548759329E+01  0.99529868537E+03  0.99601614274E+03  0.00000000000E+00 0. -1.
<mgrwt>
<rscale>  0 0.36751451E+02</rscale>
<asrwt>0</asrwt>
<pdfrwt beam="1">  1        2 0.19551485E+00 0.38412810E+02</pdfrwt>
<pdfrwt beam="2">  1        1 0.71361899E-02 0.35161945E+02</pdfrwt>
<totfact> 0.24432908E+03</totfact>
</mgrwt>
</event>
<event>
 7    1  0.4252091E-004  0.6347701E+03  0.7546771E-02  0.1241320E+00
          1   -1    0    0  502    0 -0.00000000000E+00  0.00000000000E+00  0.14211422970E+04  0.14211422970E+04  0.00000000000E+00 0. -1.
          2   -1    0    0  503    0  0.00000000000E+00 -0.00000000000E+00 -0.28119917365E+04  0.28119917365E+04  0.00000000000E+00 0. -1.
         25    2    1    2    0    0 -0.55336960868E+03  0.27481698923E+03  0.14510862739E+03  0.64685705811E+03  0.12500095402E+03 0.  0.
          4    1    3    3  501    0 -0.21397538024E+03  0.68745023318E+02  0.10409149340E+03  0.24768527102E+03  0.12700000000E+01 0. -1.
         -4    1    3    3    0  501 -0.33939422844E+03  0.20607196591E+03  0.41017133994E+02  0.39917178710E+03  0.12700000000E+01 0. -1.
          2    1    1    2  502    0 -0.10372021452E+02  0.20637157923E+02  0.98547898241E+03  0.98574961115E+03  0.00000000000E+00 0. -1.
          1    1    1    2  503    0  0.56374163013E+03 -0.29545414715E+03 -0.25214370493E+04  0.26005273643E+04  0.00000000000E+00 0. -1.
<mgrwt>
<rscale>  0 0.12108378E+03</rscale>
<asrwt>0</asrwt>
<pdfrwt beam="2">  1        2 0.43261411E+00 0.63477012E+03</pdfrwt>
<pdfrwt beam="1">  1        1 0.21863728E+00 0.23096994E+02</pdfrwt>
<totfact> 0.33821335E+00</totfact>
</mgrwt>
</event>
<event>
 7    1  0.4252091E-004  0.4750142E+02  0.7546771E-02  0.1578853E+00
          2   -1    0    0  503    0  0.00000000000E+00  0.00000000000E+00  0.11046832539E+03  0.11046832539E+03  0.00000000000E+00 0. -1.
         -2   -1    0    0    0  501 -0.00000000000E+00 -0.00000000000E+00 -0.41746290644E+03  0.41746290644E+03  0.00000000000E+00 0.  1.
         25    2    1    2    0    0  0.28821577874E+02  0.14796437139E+01 -0.81271041311E+02  0.15185725442E+03  0.12499108315E+03 0.  0.
          4    1    3    3  502    0  0.69698733256E+02 -0.27887798284E+02 -0.32681130880E+02  0.81885969043E+02  0.12700000000E+01 0.  1.
         -4    1    3    3    0  502 -0.40877155382E+02  0.29367441998E+02 -0.48589910432E+02  0.69971285377E+02  0.12700000000E+01 0.  1.
          1    1    1    2  503    0  0.19099050820E+02 -0.94486350053E+01  0.71653733772E+02  0.74754986517E+02  0.00000000000E+00 0. -1.
         -1    1    1    2    0  501 -0.47920628694E+02  0.79689912914E+01 -0.29737727351E+03  0.30131899090E+03  0.00000000000E+00 0.  1.
<mgrwt>
<rscale>  0 0.31814808E+02</rscale>
<asrwt>0</asrwt>
<pdfrwt beam="1">  1        2 0.16995127E-01 0.21308459E+02</pdfrwt>
<pdfrwt beam="2">  1       -2 0.64225062E-01 0.47501416E+02</pdfrwt>
<totfact> 0.69388847E+02</totfact>
</mgrwt>
</event>
<event>
 7    1  0.4252091E-004  0.9092946E+02  0.7546771E-02  0.1424838E+00
          1   -1    0    0  502    0 -0.00000000000E+00  0.00000000000E+00  0.65549200269E+03  0.65549200269E+03  0.00000000000E+00 0. -1.
          2   -1    0    0  503    0  0.00000000000E+00 -0.00000000000E+00 -0.72216163206E+02  0.72216163206E+02  0.00000000000E+00 0. -1.
         25    2    1    2    0    0 -0.97174576261E+02  0.62229158903E+02  0.11922403643E+03  0.20774270253E+03  0.12500917208E+03 0.  0.
          4    1    3    3  501    0 -0.48957466130E+02  0.23808625492E+02  0.13373181722E+03  0.14439354547E+03  0.12700000000E+01 0. -1.
         -4    1    3    3    0  501 -0.48217110131E+02  0.38420533411E+02 -0.14507780785E+02  0.63349157060E+02  0.12700000000E+01 0. -1.
          2    1    1    2  502    0  0.82082403597E+02 -0.33919750229E+02  0.47712652597E+03  0.48532235908E+03  0.00000000000E+00 0. -1.
          1    1    1    2  503    0  0.15092172664E+02 -0.28309408674E+02 -0.13074722919E+02  0.34643104286E+02  0.00000000000E+00 0. -1.
<mgrwt>
<rscale>  0 0.54010335E+02</rscale>
<asrwt>0</asrwt>
<pdfrwt beam="2">  1        2 0.11110179E-01 0.32081089E+02</pdfrwt>
<pdfrwt beam="1">  1        1 0.10084492E+00 0.90929465E+02</pdfrwt>
<totfact> 0.21588985E+03</totfact>
</mgrwt>
</event>
<event>
 7    1  0.4252091E-004  0.3278482E+02  0.7546771E-02  0.1570048E+00
          1   -1    0    0  502    0 -0.00000000000E+00  0.00000000000E+00  0.63863339121E+03  0.63863339121E+03  0.00000000000E+00 0. -1.
          2   -1    0    0  503    0  0.00000000000E+00 -0.00000000000E+00 -0.55189858060E+03  0.55189858060E+03  0.00000000000E+00 0. -1.
         25    2    1    2    0    0 -0.16000194582E+02  0.31851941707E+02  0.33318536086E+03  0.35764299519E+03  0.12500189958E+03 0.  0.
          4    1    3    3  501    0  0.28690659383E+02  0.44263367964E+02  0.28829062454E+03  0.29307933529E+03  0.12700000000E+01 0.  1.
         -4    1    3    3    0  501 -0.44690853965E+02 -0.12411426257E+02  0.44894736325E+02  0.64563659900E+02  0.12700000000E+01 0.  1.
          2    1    1    2  502    0 -0.16585979072E+02 -0.28078588489E+02  0.29181158175E+03  0.29362816806E+03  0.00000000000E+00 0. -1.
          1    1    1    2  503    0  0.32586173654E+02 -0.37733532186E+01 -0.53826213200E+03  0.53926080857E+03  0.00000000000E+00 0. -1.
<mgrwt>
<rscale>  0 0.32697984E+02</rscale>
<asrwt>0</asrwt>
<pdfrwt beam="2">  1        2 0.84907474E-01 0.32784823E+02</pdfrwt>
<pdfrwt beam="1">  1        1 0.98251291E-01 0.32611376E+02</pdfrwt>
<totfact> 0.27483409E+02</totfact>
</mgrwt>
</event>
<event>
 7    1  0.4252091E-004  0.8261300E+02  0.7546771E-02  0.1370533E+00
          2   -1    0    0  503    0  0.00000000000E+00  0.00000000000E+00  0.11103727037E+04  0.11103727037E+04  0.00000000000E+00 0. -1.
          1   -1    0    0  502    0 -0.00000000000E+00 -0.00000000000E+00 -0.78449784521E+03  0.78449784521E+03  0.00000000000E+00 0. -1.
         25    2    1    2    0    0 -0.81568036824E+02 -0.39858199884E+02 -0.25783358507E+03  0.30057516695E+03  0.12500101067E+03 0.  0.
          4    1    3    3  501    0 -0.10356887745E+03 -0.43565799745E+02 -0.13462690719E+03  0.17535822856E+03  0.12700000000E+01 0. -1.
         -4    1    3    3    0  501  0.22000840631E+02  0.37075998611E+01 -0.12320667788E+03  0.12521693839E+03  0.12700000000E+01 0. -1.
          2    1    1    2  502    0  0.18667434407E+00  0.54368407514E+02 -0.50225554964E+03  0.50518966312E+03  0.00000000000E+00 0. -1.
          1    1    1    2  503    0  0.81381362480E+02 -0.14510207630E+02  0.10859639932E+04  0.10891057188E+04  0.00000000000E+00 0. -1.
<mgrwt>
<rscale>  0 0.67019129E+02</rscale>
<asrwt>0</asrwt>
<pdfrwt beam="1">  1        2 0.17082657E+00 0.82612998E+02</pdfrwt>
<pdfrwt beam="2">  1        1 0.12069198E+00 0.54368728E+02</pdfrwt>
<totfact> 0.84968640E+01</totfact>
</mgrwt>
</event>
<event>
 7    1  0.4252091E-004  0.1377054E+03  0.7546771E-02  0.1227759E+00
          1   -1    0    0  502    0 -0.00000000000E+00  0.00000000000E+00  0.33025870609E+03  0.33025870609E+03  0.00000000000E+00 0. -1.
          2   -1    0    0  503    0  0.00000000000E+00 -0.00000000000E+00 -0.50349244876E+03  0.50349244876E+03  0.00000000000E+00 0. -1.
         25    2    1    2    0    0 -0.61722713995E+02  0.82802345023E+02  0.68818801771E+02  0.17614079709E+03  0.12499452451E+03 0.  0.
          4    1    3    3  501    0  0.14534701677E+01  0.57651541880E+02 -0.22810108142E+02  0.62030047478E+02  0.12700000000E+01 0.  1.
         -4    1    3    3    0  501 -0.63176184163E+02  0.25150803143E+02  0.91628909913E+02  0.11411074961E+03  0.12700000000E+01 0.  1.
          2    1    1    2  502    0  0.10948408807E+03  0.54593790684E+02  0.17635700487E+03  0.21463699748E+03  0.00000000000E+00 0. -1.
          1    1    1    2  503    0 -0.47761374079E+02 -0.13739613571E+03 -0.41840954931E+03  0.44297336028E+03  0.00000000000E+00 0. -1.
<mgrwt>
<rscale>  0 0.12979590E+03</rscale>
<asrwt>0</asrwt>
<pdfrwt beam="2">  1        2 0.77460377E-01 0.13770541E+03</pdfrwt>
<pdfrwt beam="1">  1        1 0.50809032E-01 0.12234070E+03</pdfrwt>
<totfact> 0.66202811E+02</totfact>
</mgrwt>
</event>
<event>
 7    1  0.4252091E-004  0.1371100E+03  0.7546771E-02  0.1331464E+00
          1   -1    0    0  502    0 -0.00000000000E+00  0.00000000000E+00  0.73044793079E+03  0.73044793079E+03  0.00000000000E+00 0. -1.
          2   -1    0    0  503    0  0.00000000000E+00 -0.00000000000E+00 -0.14131948483E+04  0.14131948483E+04  0.00000000000E+00 0. -1.
         25    2    1    2    0    0 -0.54133271636E+02  0.15504164430E+03  0.13703108649E+03  0.24773028885E+03  0.12499781911E+03 0.  0.
          4    1    3    3  501    0 -0.17891447773E+02 -0.52886553053E+01  0.66108905830E+02  0.68702795492E+02  0.12700000000E+01 0.  1.
         -4    1    3    3    0  501 -0.36241823863E+02  0.16033029960E+03  0.70922180658E+02  0.17902749335E+03  0.12700000000E+01 0.  1.
          2    1    1    2  502    0  0.71571397229E+02 -0.11280167809E+03  0.52938239249E+03  0.54597838873E+03  0.00000000000E+00 0. -1.
          1    1    1    2  503    0 -0.17438125593E+02 -0.42239966207E+02 -0.13491603965E+04  0.13499341015E+04  0.00000000000E+00 0. -1.
<mgrwt>
<rscale>  0 0.79155828E+02</rscale>
<asrwt>0</asrwt>
<pdfrwt beam="2">  1        2 0.21741459E+00 0.45697954E+02</pdfrwt>
<pdfrwt beam="1">  1        1 0.11237661E+00 0.13710997E+03</pdfrwt>
<totfact> 0.65252207E+01</totfact>
</mgrwt>
</event>
<event>
 7    1  0.4252091E-004  0.1063795E+03  0.7546771E-02  0.1353245E+00
          1   -1    0    0  502    0 -0.00000000000E+00  0.00000000000E+00  0.33788258129E+02  0.33788258129E+02  0.00000000000E+00 0. -1.
          2   -1    0    0  503    0  0.00000000000E+00 -0.00000000000E+00 -0.23182422392E+04  0.23182422392E+04  0.00000000000E+00 0. -1.
         25    2    1    2    0    0 -0.59660849041E+02  0.11857496020E+03 -0.10957119791E+04  0.11107740784E+04  0.12495948893E+03 0.  0.
          4    1    3    3  501    0  0.25485352353E+02  0.59677899813E+02 -0.23299426508E+03  0.24186544890E+03  0.12700000000E+01 0. -1.
         -4    1    3    3    0  501 -0.85146201395E+02  0.58897060388E+02 -0.86271771406E+03  0.86890862948E+03  0.12700000000E+01 0. -1.
          2    1    1    2  502    0  0.13192100028E+02 -0.10365932160E+03 -0.80415052916E+02  0.13185547843E+03  0.00000000000E+00 0. -1.
          1    1    1    2  503    0  0.46468749013E+02 -0.14915638605E+02 -0.11083269490E+04  0.11094009405E+04  0.00000000000E+00 0. -1.
<mgrwt>
<rscale>  0 0.72053710E+02</rscale>
<asrwt>0</asrwt>
<pdfrwt beam="2">  1        2 0.35665271E+00 0.48803903E+02</pdfrwt>
<pdfrwt beam="1">  1        1 0.51981927E-02 0.10637955E+03</pdfrwt>
<totfact> 0.12353062E+03</totfact>
</mgrwt>
</event>
<event>
 7    1  0.4252091E-004  0.6731016E+02  0.7546771E-02  0.1483298E+00
          2   -1    0    0  503    0  0.00000000000E+00  0.00000000000E+00  0.15373924623E+04  0.15373924623E+04  0.00000000000E+00 0. -1.
         -2   -1    0    0    0  501 -0.00000000000E+00 -0.00000000000E+00 -0.11683950209E+02  0.11683950209E+02  0.00000000000E+00 0.  1.
         25    2    1    2    0    0 -0.75061270109E+02  0.15677389321E+01  0.11984136316E+04  0.12072517776E+04  0.12499987998E+03 0.  0.
          4    1    3    3  502    0 -0.29854898314E+02  0.45085647111E+02  0.93107631856E+03  0.93264610352E+03  0.12700000000E+01 0.  1.
         -4    1    3    3    0  502 -0.45206371795E+02 -0.43517908179E+02  0.26733731303E+03  0.27460567405E+03  0.12700000000E+01 0.  1.
          3    1    1    2  503    0  0.12588415200E+02 -0.25276040919E+02  0.14369887973E+03  0.14644696814E+03  0.00000000000E+00 0. -1.
         -1    1    1    2    0  501  0.62472854910E+02  0.23708301987E+02  0.18359600078E+03  0.19537766680E+03  0.00000000000E+00 0.  1.
<mgrwt>
<rscale>  0 0.43596547E+02</rscale>
<asrwt>0</asrwt>
<pdfrwt beam="1">  1        2 0.23652176E+00 0.28237324E+02</pdfrwt>
<pdfrwt beam="2">  1       -2 0.17975320E-02 0.67310165E+02</pdfrwt>
<totfact> 0.11960698E+04</totfact>
</mgrwt>
</event>
<event>
 7    1  0.4252091E-004  0.7997563E+02  0.7546771E-02  0.1377937E+00
         -1   -1    0    0    0  501 -0.00000000000E+00  0.00000000000E+00  0.39734642433E+03  0.39734642433E+03  0.00000000000E+00 0.  1.
          1   -1    0    0  503    0  0.00000000000E+00 -0.00000000000E+00 -0.37948365079E+03  0.37948365079E+03  0.00000000000E+00 0. -1.
         25    2    1    2    0    0 -0.77951205461E+01  0.87624010648E+02  0.11457816864E+03  0.19102962997E+03  0.12500172659E+03 0.  0.
          4    1    3    3  502    0  0.40107961525E+02 -0.11235091436E+02  0.43167737161E+02  0.59999519072E+02  0.12700000000E+01 0.  1.
         -4    1    3    3    0  502 -0.47903082071E+02  0.98859102084E+02  0.71410431479E+02  0.13103011089E+03  0.12700000000E+01 0.  1.
          2    1    1    2  503    0  0.49633212020E+02 -0.18138234128E+02 -0.33238731378E+03  0.33656169959E+03  0.00000000000E+00 0. -1.
         -2    1    1    2    0  501 -0.41838091474E+02 -0.69485776520E+02  0.23567191867E+03  0.24923874556E+03  0.00000000000E+00 0.  1.
<mgrwt>
<rscale>  0 0.65009264E+02</rscale>
<asrwt>0</asrwt>
<pdfrwt beam="2">  1        1 0.58382100E-01 0.52843649E+02</pdfrwt>
<pdfrwt beam="1">  1       -1 0.61130219E-01 0.79975634E+02</pdfrwt>
<totfact> 0.19072635E+02</totfact>
</mgrwt>
</event>
<event>
 7    1  0.4252091E-004  0.9149965E+02  0.7546771E-02  0.1302619E+00
          2   -1    0    0  503    0  0.00000000000E+00  0.00000000000E+00  0.11974870765E+04  0.11974870765E+04  0.00000000000E+00 0. -1.
          1   -1    0    0  502    0 -0.00000000000E+00 -0.00000000000E+00 -0.45056243693E+03  0.45056243693E+03  0.00000000000E+00 0. -1.
         25    2    1    2    0    0  0.16953826527E+02  0.17603916922E+02  0.56770612609E+02  0.13945360072E+03  0.12500829641E+03 0.  0.
          4    1    3    3  501    0 -0.43362116308E+02 -0.10158262326E+02  0.57869502449E+02  0.73033934838E+02  0.12700000000E+01 0. -1.
         -4    1    3    3    0  501  0.60315942835E+02  0.27762179248E+02 -0.10988898403E+01  0.66419665879E+02  0.12700000000E+01 0. -1.
          2    1    1    2  502    0  0.52683409932E+02 -0.76957449312E+02 -0.40196909233E+03  0.41264650959E+03  0.00000000000E+00 0. -1.
          1    1    1    2  503    0 -0.69637236458E+02  0.59353532390E+02  0.10921231193E+04  0.10959494031E+04  0.00000000000E+00 0. -1.
<mgrwt>
<rscale>  0 0.90096095E+02</rscale>
<asrwt>0</asrwt>
<pdfrwt beam="1">  1        2 0.18422878E+00 0.91499653E+02</pdfrwt>
<pdfrwt beam="2">  1        1 0.69317298E-01 0.88714067E+02</pdfrwt>
<totfact> 0.15563624E+02</totfact>
</mgrwt>
</event>
<event>
 7    1  0.4252091E-004  0.7866637E+02  0.7546771E-02  0.1379073E+00
          2   -1    0    0  503    0  0.00000000000E+00  0.00000000000E+00  0.90859732226E+03  0.90859732226E+03  0.00000000000E+00 0. -1.
          1   -1    0    0  502    0 -0.00000000000E+00 -0.00000000000E+00 -0.14274234161E+04  0.14274234161E+04  0.00000000000E+00 0. -1.
         25    2    1    2    0    0  0.32463916039E+02  0.20281737051E+02  0.12830715378E+03  0.18317303127E+03  0.12499751586E+03 0.  0.
          4    1    3    3  501    0  0.56317066794E+02 -0.36329406215E+02  0.83761519393E+02  0.10728020693E+03  0.12700000000E+01 0.  1.
         -4    1    3    3    0  501 -0.23853150755E+02  0.56611143266E+02  0.44545634391E+02  0.75892824339E+02  0.12700000000E+01 0.  1.
          2    1    1    2  502    0  0.53260711960E+01  0.52959539693E+02 -0.13972267008E+04  0.13982401559E+04  0.00000000000E+00 0. -1.
          1    1    1    2  503    0 -0.37789987235E+02 -0.73241276744E+02  0.75009345324E+03  0.75460755121E+03  0.00000000000E+00 0. -1.
<mgrwt>
<rscale>  0 0.64708192E+02</rscale>
<asrwt>0</asrwt>
<pdfrwt beam="1">  1        2 0.13978421E+00 0.78666373E+02</pdfrwt>
<pdfrwt beam="2">  1        1 0.21960360E+00 0.53226684E+02</pdfrwt>
<totfact> 0.40405801E+01</totfact>
</mgrwt>
</event>
<event>
 7    1  0.4252091E-004  0.5463208E+02  0.7546771E-02  0.1520755E+00
          1   -1    0    0  502    0 -0.00000000000E+00  0.00000000000E+00  0.68070663117E+03  0.68070663117E+03  0.00000000000E+00 0. -1.
          2   -1    0    0  503    0  0.00000000000E+00 -0.00000000000E+00 -0.22369413043E+04  0.22369413043E+04  0.00000000000E+00 0. -1.
         25    2    1    2    0    0  0.12855915023E+02 -0.26997448760E+02 -0.11511584933E+04  0.11583112828E+04  0.12500005725E+03 0.  0.
          4    1    3    3  501    0  0.12295211008E+02  0.87499576975E+01 -0.14105638305E+02  0.20695794390E+02  0.12700000000E+01 0.  1.
         -4    1    3    3    0  501  0.56070401482E+00 -0.35747406458E+02 -0.11370528550E+04  0.11376154884E+04  0.12700000000E+01 0.  1.
          2    1    1    2  502    0 -0.35478840135E+02  0.41576487460E+02  0.67585951613E+03  0.67806595398E+03  0.00000000000E+00 0. -1.
          1    1    1    2  503    0  0.22622925112E+02 -0.14579038700E+02 -0.10809356959E+04  0.10812706987E+04  0.00000000000E+00 0. -1.
<mgrwt>
<rscale>  0 0.38345132E+02</rscale>
<asrwt>0</asrwt>
<pdfrwt beam="2">  1        2 0.34414481E+00 0.26913660E+02</pdfrwt>
<pdfrwt beam="1">  1        1 0.10472410E+00 0.54632076E+02</pdfrwt>
<totfact> 0.31974022E+01</totfact>
</mgrwt>
</event>
<event>
 7    1  0.4252091E-004  0.1238436E+03  0.7546771E-02  0.1348878E+00
          2   -1    0    0  503    0  0.00000000000E+00  0.00000000000E+00  0.61542441715E+03  0.61542441715E+03  0.00000000000E+00 0. -1.
          1   -1    0    0  502    0 -0.00000000000E+00 -0.00000000000E+00 -0.39002750988E+03  0.39002750988E+03  0.00000000000E+00 0. -1.
         25    2    1    2    0    0 -0.53534443204E+02 -0.15323085931E+03 -0.11506979409E+02  0.20519405134E+03  0.12500622095E+03 0.  0.
          4    1    3    3  501    0 -0.86505847800E+02 -0.14590797713E+03 -0.18642405705E+02  0.17065037851E+03  0.12700000000E+01 0. -1.
         -4    1    3    3    0  501  0.32971404596E+02 -0.73228821773E+01  0.71354262952E+01  0.34543672833E+02  0.12700000000E+01 0. -1.
          2    1    1    2  502    0  0.37575297872E+02  0.11275262080E+03 -0.26816329105E+03  0.29331997405E+03  0.00000000000E+00 0. -1.
          1    1    1    2  503    0  0.15959145332E+02  0.40478238512E+02  0.50506717773E+03  0.50693790165E+03  0.00000000000E+00 0. -1.
<mgrwt>
<rscale>  0 0.73406559E+02</rscale>
<asrwt>0</asrwt>
<pdfrwt beam="1">  1        2 0.94680680E-01 0.43510713E+02</pdfrwt>
<pdfrwt beam="2">  1        1 0.60004232E-01 0.12384359E+03</pdfrwt>
<totfact> 0.44134415E+02</totfact>
</mgrwt>
</event>
<event>
 7    1  0.4252091E-004  0.1421461E+03  0.7546771E-02  0.1249890E+00
          2   -1    0    0  503    0  0.00000000000E+00  0.00000000000E+00  0.80854515909E+03  0.80854515909E+03  0.00000000000E+00 0. -1.
          1   -1    0    0  502    0 -0.00000000000E+00 -0.00000000000E+00 -0.16049531169E+03  0.16049531169E+03  0.00000000000E+00 0. -1.
         25    2    1    2    0    0  0.20731996097E+03  0.19214697748E+02  0.48660708304E+03  0.54383971267E+03  0.12499763595E+03 0.  0.
          4    1    3    3  501    0  0.11375877454E+03 -0.44119622237E+02  0.32053784336E+03  0.34297772781E+03  0.12700000000E+01 0. -1.
         -4    1    3    3    0  501  0.93561186433E+02  0.63334319985E+02  0.16606923968E+03  0.20086198486E+03  0.12700000000E+01 0. -1.
          2    1    1    2  502    0 -0.92606158601E+02 -0.19424821058E+02 -0.10123295227E+03  0.13856888146E+03  0.00000000000E+00 0. -1.
          1    1    1    2  503    0 -0.11471380237E+03  0.21012330999E+00  0.26267571662E+03  0.28663187665E+03  0.00000000000E+00 0. -1.
<mgrwt>
<rscale>  0 0.11597447E+03</rscale>
<asrwt>0</asrwt>
<pdfrwt beam="1">  1        2 0.12439156E+00 0.14214613E+03</pdfrwt>
<pdfrwt beam="2">  1        1 0.24691587E-01 0.94621479E+02</pdfrwt>
<totfact> 0.92528017E+02</totfact>
</mgrwt>
</event>
<event>
 7    1  0.4252091E-004  0.7962079E+02  0.7546771E-02  0.1476501E+00
          2   -1    0    0  503    0  0.00000000000E+00  0.00000000000E+00  0.76016789270E+03  0.76016789270E+03  0.00000000000E+00 0. -1.
          1   -1    0    0  502    0 -0.00000000000E+00 -0.00000000000E+00 -0.87375359797E+03  0.87375359797E+03  0.00000000000E+00 0. -1.
         25    2    1    2    0    0  0.82838066919E+02 -0.63473723159E+02 -0.15870129183E+03  0.22742039745E+03  0.12507149271E+03 0.  0.
          4    1    3    3  501    0  0.53423087778E+02  0.25665858689E+01 -0.14402400808E+03  0.15363964812E+03  0.12700000000E+01 0. -1.
         -4    1    3    3    0  501  0.29414979142E+02 -0.66040309028E+02 -0.14677283751E+02  0.73780749337E+02  0.12700000000E+01 0. -1.
          2    1    1    2  502    0 -0.20495034246E+02  0.14395742198E+02 -0.67829256567E+03  0.67875480732E+03  0.00000000000E+00 0. -1.
          1    1    1    2  503    0 -0.62343032673E+02  0.49077980961E+02  0.72340815223E+03  0.72774628590E+03  0.00000000000E+00 0. -1.
<mgrwt>
<rscale>  0 0.44655943E+02</rscale>
<asrwt>0</asrwt>
<pdfrwt beam="1">  1        2 0.11694891E+00 0.79620791E+02</pdfrwt>
<pdfrwt beam="2">  1        1 0.13442363E+00 0.25045635E+02</pdfrwt>
<totfact> 0.12417268E+02</totfact>
</mgrwt>
</event>
<event>
 7    1  0.4252091E-004  0.8662853E+02  0.7546771E-02  0.1344839E+00
         -2   -1    0    0    0  501  0.00000000000E+00  0.00000000000E+00  0.31011053805E+03  0.31011053805E+03  0.00000000000E+00 0.  1.
         -1   -1    0    0    0  502 -0.00000000000E+00 -0.00000000000E+00 -0.24977108356E+03  0.24977108356E+03  0.00000000000E+00 0.  1.
         25    2    1    2    0    0 -0.29502313587E+02  0.36673402910E+02  0.10855592638E+03  0.17211971497E+03  0.12500192854E+03 0.  0.
          4    1    3    3  503    0  0.35746131950E+02  0.27675451790E+02  0.10214462915E+00  0.45225434378E+02  0.12700000000E+01 0.  1.
         -4    1    3    3    0  503 -0.65248445536E+02  0.89979511196E+01  0.10845378175E+03  0.12689428059E+03  0.12700000000E+01 0.  1.
         -2    1    1    2    0  502 -0.21245965091E+02  0.60787776740E+02 -0.19445619875E+03  0.20484081152E+03  0.00000000000E+00 0.  1.
         -1    1    1    2    0  501  0.50748278677E+02 -0.97461179650E+02  0.14623972685E+03  0.18292109511E+03  0.00000000000E+00 0.  1.
<mgrwt>
<rscale>  0 0.74688214E+02</rscale>
<asrwt>0</asrwt>
<pdfrwt beam="1">  1       -2 0.47709314E-01 0.86628534E+02</pdfrwt>
<pdfrwt beam="2">  1       -1 0.38426321E-01 0.64393671E+02</pdfrwt>
<totfact> 0.20696061E+02</totfact>
</mgrwt>
</event>
<event>
 7    1  0.4252091E-004  0.1416060E+03  0.7546771E-02  0.1349090E+00
          1   -1    0    0  502    0 -0.00000000000E+00  0.00000000000E+00  0.21653210313E+03  0.21653210313E+03  0.00000000000E+00 0. -1.
          2   -1    0    0  503    0  0.00000000000E+00 -0.00000000000E+00 -0.13095349037E+04  0.13095349037E+04  0.00000000000E+00 0. -1.
         25    2    1    2    0    0  0.27509784007E+02  0.10582334792E+03 -0.34825482998E+03  0.38582654880E+03  0.12500131989E+03 0.  0.
          4    1    3    3  501    0 -0.94715006873E+01 -0.17014551259E+02 -0.13909330834E+03  0.14045556452E+03  0.12700000000E+01 0. -1.
         -4    1    3    3    0  501  0.36981284694E+02  0.12283789918E+03 -0.20916152164E+03  0.24537098428E+03  0.12700000000E+01 0. -1.
          2    1    1    2  502    0 -0.53238141617E+02 -0.13376671090E+03  0.17109521070E+03  0.22360993670E+03  0.00000000000E+00 0. -1.
          1    1    1    2  503    0  0.25728357610E+02  0.27943362983E+02 -0.91584318126E+03  0.91663052130E+03  0.00000000000E+00 0. -1.
<mgrwt>
<rscale>  0 0.73340003E+02</rscale>
<asrwt>0</asrwt>
<pdfrwt beam="2">  1        2 0.20146691E+00 0.37983943E+02</pdfrwt>
<pdfrwt beam="1">  1        1 0.33312631E-01 0.14160605E+03</pdfrwt>
<totfact> 0.35777617E+02</totfact>
</mgrwt>
</event>
<event>
 7    1  0.4252091E-004  0.7493548E+02  0.7546771E-02  0.1395652E+00
          3   -1    0    0  502    0 -0.00000000000E+00  0.00000000000E+00  0.24956674870E+04  0.24956674870E+04  0.00000000000E+00 0. -1.
          2   -1    0    0  503    0  0.00000000000E+00 -0.00000000000E+00 -0.14423996778E+04  0.14423996778E+04  0.00000000000E+00 0. -1.
         25    2    1    2    0    0 -0.42077694669E+02 -0.85456344789E+01  0.40539515766E+03  0.42639624935E+03  0.12499986937E+03 0.  0.
          4    1    3    3  501    0 -0.92293745082E+01 -0.11316466790E+02  0.38950253809E+03  0.38977824959E+03  0.12700000000E+01 0.  1.
         -4    1    3    3    0  501 -0.32848320161E+02  0.27708323110E+01  0.15892619567E+02  0.36617999751E+02  0.12700000000E+01 0.  1.
          2    1    1    2  502    0 -0.67669296945E+01 -0.48411197195E+02  0.20785012881E+04  0.20790760063E+04  0.00000000000E+00 0. -1.
          1    1    1    2  503    0  0.48844624364E+02  0.56956831674E+02 -0.14306286366E+04  0.14325949092E+04  0.00000000000E+00 0. -1.
<mgrwt>
<rscale>  0 0.60522601E+02</rscale>
<asrwt>0</asrwt>
<pdfrwt beam="2">  1        2 0.22190764E+00 0.74935485E+02</pdfrwt>
<pdfrwt beam="1">  1        3 0.38394884E+00 0.48881851E+02</pdfrwt>
<totfact> 0.19729770E-01</totfact>
</mgrwt>
</event>
<event>
 7    1  0.4252091E-004  0.2233145E+03  0.7546771E-02  0.1213251E+00
          1   -1    0    0  502    0 -0.00000000000E+00  0.00000000000E+00  0.21697059229E+04  0.21697059229E+04  0.00000000000E+00 0. -1.
          2   -1    0    0  503    0  0.00000000000E+00 -0.00000000000E+00 -0.72845081513E+03  0.72845081513E+03  0.00000000000E+00 0. -1.
         25    2    1    2    0    0 -0.24514020796E+02 -0.30671403567E+03  0.47514985773E+03  0.57971342296E+03  0.12500331422E+03 0.  0.
          4    1    3    3  501    0 -0.61751972505E+02 -0.24472097340E+03  0.41461420631E+03  0.48539490511E+03  0.12700000000E+01 0.  1.
         -4    1    3    3    0  501  0.37237951708E+02 -0.61993062263E+02  0.60535651422E+02  0.94318517850E+02  0.12700000000E+01 0.  1.
          2    1    1    2  502    0 -0.16256974852E+01  0.87826517306E+02  0.16230879994E+04  0.16254632552E+04  0.00000000000E+00 0. -1.
          1    1    1    2  503    0  0.26139718281E+02  0.21888751836E+03 -0.65698274933E+03  0.69298005995E+03  0.00000000000E+00 0. -1.
<mgrwt>
<rscale>  0 0.14005819E+03</rscale>
<asrwt>0</asrwt>
<pdfrwt beam="2">  1        2 0.11206936E+00 0.22331454E+03</pdfrwt>
<pdfrwt beam="1">  1        1 0.33380091E+00 0.87841562E+02</pdfrwt>
<totfact> 0.16650688E+01</totfact>
</mgrwt>
</event>
<event>
 7    1  0.4252091E-004  0.6986156E+02  0.7546771E-02  0.1449152E+00
          1   -1    0    0  502    0 -0.00000000000E+00  0.00000000000E+00  0.31100571923E+03  0.31100571923E+03  0.00000000000E+00 0. -1.
          2   -1    0    0  503    0  0.00000000000E+00 -0.00000000000E+00 -0.21965590008E+04  0.21965590008E+04  0.00000000000E+00 0. -1.
         25    2    1    2    0    0 -0.20144617841E+02 -0.29236282202E+02 -0.26640333271E+02  0.13264579401E+03  0.12499853394E+03 0.  0.
          4    1    3    3  501    0  0.14445101978E+02  0.28394422452E+02  0.30719619796E+02  0.44274283032E+02  0.12700000000E+01 0.  1.
         -4    1    3    3    0  501 -0.34589719819E+02 -0.57630704655E+02 -0.57359953067E+02  0.88371510975E+02  0.12700000000E+01 0.  1.
          2    1    1    2  502    0 -0.21947104836E+02 -0.26994568163E+02  0.25624452918E+03  0.25859551592E+03  0.00000000000E+00 0. -1.
          1    1    1    2  503    0  0.42091722677E+02  0.56230850365E+02 -0.21151574774E+04  0.21163234101E+04  0.00000000000E+00 0. -1.
<mgrwt>
<rscale>  0 0.49300322E+02</rscale>
<asrwt>0</asrwt>
<pdfrwt beam="2">  1        2 0.33793215E+00 0.69861558E+02</pdfrwt>
<pdfrwt beam="1">  1        1 0.47847034E-01 0.34790546E+02</pdfrwt>
<totfact> 0.78474649E+01</totfact>
</mgrwt>
</event>
<event>
 7    1  0.4252091E-004  0.6342771E+02  0.7546771E-02  0.1531356E+00
          2   -1    0    0  503    0  0.00000000000E+00  0.00000000000E+00  0.47982927455E+03  0.47982927455E+03  0.00000000000E+00 0. -1.
         -2   -1    0    0    0  501 -0.00000000000E+00 -0.00000000000E+00 -0.37861520258E+03  0.37861520258E+03  0.00000000000E+00 0.  1.
         25    2    1    2    0    0  0.39025093536E+02 -0.17133742738E+02 -0.96758013941E+02  0.16371042282E+03  0.12498986444E+03 0.  0.
          4    1    3    3  502    0 -0.81011985139E+01  0.26140441084E+02  0.17672374888E+02  0.32601806876E+02  0.12700000000E+01 0.  1.
         -4    1    3    3    0  502  0.47126292050E+02 -0.43274183822E+02 -0.11443038883E+03  0.13110861595E+03  0.12700000000E+01 0.  1.
          1    1    1    2  503    0 -0.60330136869E+02  0.20737656909E+02  0.44359689166E+03  0.44816066105E+03  0.00000000000E+00 0. -1.
         -1    1    1    2    0  501  0.21305043333E+02 -0.36039141706E+01 -0.24562480574E+03  0.24657339326E+03  0.00000000000E+00 0.  1.
<mgrwt>
<rscale>  0 0.37020635E+02</rscale>
<asrwt>0</asrwt>
<pdfrwt beam="1">  1        2 0.73819888E-01 0.63427709E+02</pdfrwt>
<pdfrwt beam="2">  1       -2 0.58248493E-01 0.21607709E+02</pdfrwt>
<totfact> 0.18942042E+02</totfact>
</mgrwt>
</event>
<event>
 7    1  0.4252091E-004  0.9018884E+02  0.7546771E-02  0.1344387E+00
          1   -1    0    0  502    0 -0.00000000000E+00  0.00000000000E+00  0.49763176582E+03  0.49763176582E+03  0.00000000000E+00 0. -1.
          2   -1    0    0  503    0  0.00000000000E+00 -0.00000000000E+00 -0.32300757113E+04  0.32300757113E+04  0.00000000000E+00 0. -1.
         25    2    1    2    0    0  0.34627397237E+02 -0.10122028922E+02  0.52462688119E+02  0.14028627371E+03  0.12500557123E+03 0.  0.
          4    1    3    3  501    0  0.49905416632E+02 -0.18887504322E+02  0.86671423680E+02  0.10178819682E+03  0.12700000000E+01 0.  1.
         -4    1    3    3    0  501 -0.15278019395E+02  0.87654753994E+01 -0.34208735561E+02  0.38498076891E+02  0.12700000000E+01 0.  1.
          2    1    1    2  502    0 -0.96638149183E+02  0.13314462838E+02  0.39502072461E+03  0.40688767451E+03  0.00000000000E+00 0. -1.
          1    1    1    2  503    0  0.62010751946E+02 -0.31924339161E+01 -0.31799273582E+04  0.31805335289E+04  0.00000000000E+00 0. -1.
<mgrwt>
<rscale>  0 0.74833710E+02</rscale>
<asrwt>0</asrwt>
<pdfrwt beam="2">  1        2 0.49693473E+00 0.62092874E+02</pdfrwt>
<pdfrwt beam="1">  1        1 0.76558732E-01 0.90188837E+02</pdfrwt>
<totfact> 0.12413379E+01</totfact>
</mgrwt>
</event>
<event>
 7    1  0.4252091E-004  0.1046652E+03  0.7546771E-02  0.1364955E+00
          2   -1    0    0  503    0  0.00000000000E+00  0.00000000000E+00  0.11950497700E+04  0.11950497700E+04  0.00000000000E+00 0. -1.
         -2   -1    0    0    0  501 -0.00000000000E+00 -0.00000000000E+00 -0.31943157328E+02  0.31943157328E+02  0.00000000000E+00 0.  1.
         25    2    1    2    0    0  0.79373625019E+02 -0.10145906009E+03  0.52222883410E+03  0.55221363811E+03  0.12499133459E+03 0.  0.
          4    1    3    3  502    0  0.92524854851E+00  0.23339428171E+02  0.28087287167E+02  0.36552614033E+02  0.12700000000E+01 0. -1.
         -4    1    3    3    0  502  0.78448376470E+02 -0.12479848826E+03  0.49414154693E+03  0.51566102407E+03  0.12700000000E+01 0. -1.
          1    1    1    2  503    0 -0.44032679278E+02  0.90278599916E+01  0.50333216566E+03  0.50533518390E+03  0.00000000000E+00 0. -1.
         -1    1    1    2    0  501 -0.35340945741E+02  0.92431200097E+02  0.13754561292E+03  0.16944410533E+03  0.00000000000E+00 0.  1.
<mgrwt>
<rscale>  0 0.68589760E+02</rscale>
<asrwt>0</asrwt>
<pdfrwt beam="1">  1        2 0.18385378E+00 0.44948627E+02</pdfrwt>
<pdfrwt beam="2">  1       -2 0.49143328E-02 0.10466516E+03</pdfrwt>
<totfact> 0.41735237E+03</totfact>
</mgrwt>
</event>
<event>
 7    1  0.4252091E-004  0.4630385E+02  0.7546771E-02  0.1509292E+00
         -1   -1    0    0    0  501 -0.00000000000E+00  0.00000000000E+00  0.34654018294E+03  0.34654018294E+03  0.00000000000E+00 0.  1.
          1   -1    0    0  503    0  0.00000000000E+00 -0.00000000000E+00 -0.89282494857E+03  0.89282494857E+03  0.00000000000E+00 0. -1.
         25    2    1    2    0    0 -0.32305502988E+02 -0.35711990244E+02 -0.37078225299E+02  0.13899172639E+03  0.12499965378E+03 0.  0.
          4    1    3    3  502    0  0.96277362604E+01  0.43256745364E+02 -0.15889308916E+02  0.47094823100E+02  0.12700000000E+01 0.  1.
         -4    1    3    3    0  502 -0.41933239249E+02 -0.78968735608E+02 -0.21188916382E+02  0.91896903293E+02  0.12700000000E+01 0.  1.
          2    1    1    2  503    0  0.32553676091E+02 -0.10810474828E+02 -0.80259074720E+03  0.80332341911E+03  0.00000000000E+00 0. -1.
         -2    1    1    2    0  501 -0.24817310280E+00  0.46522465072E+02  0.29338420687E+03  0.29704998601E+03  0.00000000000E+00 0.  1.
<mgrwt>
<rscale>  0 0.39853504E+02</rscale>
<asrwt>0</asrwt>
<pdfrwt beam="2">  1        1 0.13735768E+00 0.34301723E+02</pdfrwt>
<pdfrwt beam="1">  1       -1 0.53313875E-01 0.46303848E+02</pdfrwt>
<totfact> 0.81730112E+01</totfact>
</mgrwt>
</event>
<event>
 7    1  0.4252091E-004  0.9039511E+02  0.7546771E-02  0.1436318E+00
         -2   -1    0    0    0  501  0.00000000000E+00  0.00000000000E+00  0.30010771389E+03  0.30010771389E+03  0.00000000000E+00 0.  1.
         -1   -1    0    0    0  502 -0.00000000000E+00 -0.00000000000E+00 -0.20469995217E+03  0.20469995217E+03  0.00000000000E+00 0.  1.
         25    2    1    2    0    0  0.78878432257E+02 -0.70202377065E+02  0.21487080457E+03  0.27008341649E+03  0.12500163353E+03 0.  0.
          4    1    3    3  503    0  0.76046221939E+02 -0.30342941841E+02  0.40813645034E+02  0.91493652850E+02  0.12700000000E+01 0. -1.
         -4    1    3    3    0  503  0.28322103180E+01 -0.39859435224E+02  0.17405715954E+03  0.17858976364E+03  0.12700000000E+01 0. -1.
         -2    1    1    2    0  502 -0.23880077473E+02  0.17461435372E+02 -0.14981057365E+03  0.15270352911E+03  0.00000000000E+00 0.  1.
         -3    1    1    2    0  501 -0.54998354785E+02  0.52740941693E+02  0.30347530789E+02  0.82020720459E+02  0.00000000000E+00 0.  1.
<mgrwt>
<rscale>  0 0.51712356E+02</rscale>
<asrwt>0</asrwt>
<pdfrwt beam="1">  1       -2 0.46170417E-01 0.90395114E+02</pdfrwt>
<pdfrwt beam="2">  1       -1 0.31492300E-01 0.29583100E+02</pdfrwt>
<totfact> 0.30200812E+02</totfact>
</mgrwt>
</event>
<event>
 7    1  0.4252091E-004  0.9174292E+02  0.7546771E-02  0.1349413E+00
         -1   -1    0    0    0  501 -0.00000000000E+00  0.00000000000E+00  0.14797074317E+02  0.14797074317E+02  0.00000000000E+00 0.  1.
          1   -1    0    0  503    0  0.00000000000E+00 -0.00000000000E+00 -0.27736476066E+04  0.27736476066E+04  0.00000000000E+00 0. -1.
         25    2    1    2    0    0 -0.99206995687E+00  0.42372057400E+02 -0.13089424456E+04  0.13155800553E+04  0.12499672133E+03 0.  0.
          4    1    3    3  502    0 -0.23352841540E+02  0.19256741957E+02 -0.70675011862E+02  0.76894391996E+02  0.12700000000E+01 0. -1.
         -4    1    3    3    0  502  0.22360771583E+02  0.23115315443E+02 -0.12382674338E+04  0.12386856633E+04  0.12700000000E+01 0. -1.
          2    1    1    2  503    0  0.70783027733E+01  0.58036944522E+02 -0.12260543885E+04  0.12274476579E+04  0.00000000000E+00 0. -1.
         -2    1    1    2    0  501 -0.60862328164E+01 -0.10040900192E+03 -0.22385369814E+03  0.24541696777E+03  0.00000000000E+00 0.  1.
<mgrwt>
<rscale>  0 0.73238874E+02</rscale>
<asrwt>0</asrwt>
<pdfrwt beam="2">  1        1 0.42671520E+00 0.58466993E+02</pdfrwt>
<pdfrwt beam="1">  1       -1 0.22764720E-02 0.91742920E+02</pdfrwt>
<totfact> 0.66178633E+02</totfact>
</mgrwt>
</event>
<event>
 7    1  0.4252091E-004  0.7020056E+02  0.7546771E-02  0.1442056E+00
          1   -1    0    0  502    0 -0.00000000000E+00  0.00000000000E+00  0.16497265376E+03  0.16497265376E+03  0.00000000000E+00 0. -1.
          2   -1    0    0  503    0  0.00000000000E+00 -0.00000000000E+00 -0.48650204774E+03  0.48650204774E+03  0.00000000000E+00 0. -1.
         25    2    1    2    0    0 -0.44680094503E+00 -0.66062588130E+02  0.60852977733E+02  0.15392816005E+03  0.12500531340E+03 0.  0.
          4    1    3    3  501    0 -0.54538865235E+01 -0.10043609767E+03  0.63679462662E+02  0.11905394348E+03  0.12700000000E+01 0.  1.
         -4    1    3    3    0  501  0.50070855785E+01  0.34373509544E+02 -0.28264849293E+01  0.34874216570E+02  0.12700000000E+01 0.  1.
          2    1    1    2  502    0 -0.36044949157E+02  0.66326874306E+02  0.31689197640E+02  0.81870005875E+02  0.00000000000E+00 0. -1.
          1    1    1    2  503    0  0.36491750102E+02 -0.26428617627E+00 -0.41407156936E+03  0.41567653557E+03  0.00000000000E+00 0. -1.
<mgrwt>
<rscale>  0 0.50614311E+02</rscale>
<asrwt>0</asrwt>
<pdfrwt beam="2">  1        2 0.74846467E-01 0.36492707E+02</pdfrwt>
<pdfrwt beam="1">  1        1 0.25380409E-01 0.70200560E+02</pdfrwt>
<totfact> 0.16243541E+03</totfact>
</mgrwt>
</event>
<event>
 7    1  0.4252091E-004  0.5395900E+02  0.7546771E-02  0.1521476E+00
          2   -1    0    0  503    0  0.00000000000E+00  0.00000000000E+00  0.18654158751E+04  0.18654158751E+04  0.00000000000E+00 0. -1.
         -2   -1    0    0    0  501 -0.00000000000E+00 -0.00000000000E+00 -0.14674163553E+03  0.14674163553E+03  0.00000000000E+00 0.  1.
         25    2    1    2    0    0 -0.62399026559E+02  0.13045629289E+02  0.13781218296E+04  0.13852465583E+04  0.12499769168E+03 0.  0.
          4    1    3    3  502    0 -0.88160966043E+02  0.36090395266E+02  0.72829909908E+03  0.73450395722E+03  0.12700000000E+01 0.  1.
         -4    1    3    3    0  502  0.25761939484E+02 -0.23044765977E+02  0.64982273054E+03  0.65074260103E+03  0.12700000000E+01 0.  1.
          1    1    1    2  503    0  0.41678289411E+02 -0.30540395780E+02  0.48105157027E+03  0.48381857017E+03  0.00000000000E+00 0. -1.
         -1    1    1    2    0  501  0.20720737148E+02  0.17494766491E+02 -0.14049916031E+03  0.14309238222E+03  0.00000000000E+00 0.  1.
<mgrwt>
<rscale>  0 0.38252974E+02</rscale>
<asrwt>0</asrwt>
<pdfrwt beam="1">  1        2 0.28698704E+00 0.53959004E+02</pdfrwt>
<pdfrwt beam="2">  1       -2 0.22575638E-01 0.27118551E+02</pdfrwt>
<totfact> 0.16193829E+02</totfact>
</mgrwt>
</event>
<event>
 7    1  0.4252091E-004  0.1092647E+03  0.7546771E-02  0.1344986E+00
          1   -1    0    0  502    0 -0.00000000000E+00  0.00000000000E+00  0.87668516925E+02  0.87668516925E+02  0.00000000000E+00 0. -1.
          2   -1    0    0  503    0  0.00000000000E+00 -0.00000000000E+00 -0.52176158116E+03  0.52176158116E+03  0.00000000000E+00 0. -1.
         25    2    1    2    0    0  0.85694324281E+02 -0.38375055045E+01 -0.21589687384E+03  0.26380778498E+03  0.12499937447E+03 0.  0.
          4    1    3    3  501    0 -0.11436328113E+02  0.27925733159E+02 -0.66362325226E+01  0.30923917205E+02  0.12700000000E+01 0. -1.
         -4    1    3    3    0  501  0.97130652394E+02 -0.31763238664E+02 -0.20926064131E+03  0.23288386777E+03  0.12700000000E+01 0. -1.
          2    1    1    2  502    0  0.35278042386E+02  0.36814623803E+02  0.35841647955E+02  0.62325600908E+02  0.00000000000E+00 0. -1.
          1    1    1    2  503    0 -0.12097236667E+03 -0.32977118299E+02 -0.25403783835E+03  0.28329671220E+03  0.00000000000E+00 0. -1.
<mgrwt>
<rscale>  0 0.74640969E+02</rscale>
<asrwt>0</asrwt>
<pdfrwt beam="2">  1        2 0.80271014E-01 0.10926469E+03</pdfrwt>
<pdfrwt beam="1">  1        1 0.13487464E-01 0.50988791E+02</pdfrwt>
<totfact> 0.32190235E+03</totfact>
</mgrwt>
</event>
<event>
 7    1  0.4252091E-004  0.1068987E+03  0.7546771E-02  0.1304667E+00
          2   -1    0    0  503    0  0.00000000000E+00  0.00000000000E+00  0.28479756618E+04  0.28479756618E+04  0.00000000000E+00 0. -1.
          1   -1    0    0  502    0 -0.00000000000E+00 -0.00000000000E+00 -0.21395006359E+02  0.21395006359E+02  0.00000000000E+00 0. -1.
         25    2    1    2    0    0 -0.68529465140E+01  0.41596193276E+02  0.41703946094E+03  0.43740988314E+03  0.12501315019E+03 0.  0.
          4    1    3    3  501    0  0.11616807280E+02 -0.26146893460E+02  0.21833626266E+02  0.36012919694E+02  0.12700000000E+01 0.  1.
         -4    1    3    3    0  501 -0.18469753794E+02  0.67743086736E+02  0.39520583467E+03  0.40139696345E+03  0.12700000000E+01 0.  1.
          2    1    1    2  502    0 -0.97196400052E+02 -0.66112713309E+02  0.34162384706E+03  0.36128227734E+03  0.00000000000E+00 0. -1.
          1    1    1    2  503    0  0.10404934657E+03  0.24516520033E+02  0.20679173474E+04  0.20706785077E+04  0.00000000000E+00 0. -1.
<mgrwt>
<rscale>  0 0.89254727E+02</rscale>
<asrwt>0</asrwt>
<pdfrwt beam="1">  1        2 0.43814980E+00 0.10689867E+03</pdfrwt>
<pdfrwt beam="2">  1        1 0.32915417E-02 0.74522967E+02</pdfrwt>
<totfact> 0.10404633E+03</totfact>
</mgrwt>
</event>
<event>
 7    1  0.4252091E-004  0.7445184E+02  0.7546771E-02  0.1398567E+00
          2   -1    0    0  503    0  0.00000000000E+00  0.00000000000E+00  0.17672727072E+04  0.17672727072E+04  0.00000000000E+00 0. -1.
          1   -1    0    0  502    0 -0.00000000000E+00 -0.00000000000E+00 -0.59190151474E+02  0.59190151474E+02  0.00000000000E+00 0. -1.
         25    2    1    2    0    0 -0.44641623569E+02 -0.13153865797E+02  0.12843639993E+03  0.18517585734E+03  0.12501316159E+03 0.  0.
          4    1    3    3  501    0 -0.41151517708E+02 -0.64864018650E+02  0.51829193407E+02  0.92675058750E+02  0.12700000000E+01 0.  1.
         -4    1    3    3    0  501 -0.34901058609E+01  0.51710152853E+02  0.76607206528E+02  0.92500798585E+02  0.12700000000E+01 0.  1.
          2    1    1    2  502    0  0.66142601330E+02  0.56149677645E+02  0.31361174039E+02  0.92255911721E+02  0.00000000000E+00 0. -1.
          1    1    1    2  503    0 -0.21500977761E+02 -0.42995811848E+02  0.15482849818E+04  0.15490310896E+04  0.00000000000E+00 0. -1.
<mgrwt>
<rscale>  0 0.59825247E+02</rscale>
<asrwt>0</asrwt>
<pdfrwt beam="1">  1        2 0.27188807E+00 0.48072153E+02</pdfrwt>
<pdfrwt beam="2">  1        1 0.91061785E-02 0.74451839E+02</pdfrwt>
<totfact> 0.10602468E+03</totfact>
</mgrwt>
</event>
<event>
 7    1  0.4252091E-004  0.1185687E+03  0.7546771E-02  0.1302541E+00
          1   -1    0    0  502    0 -0.00000000000E+00  0.00000000000E+00  0.12328937174E+04  0.12328937174E+04  0.00000000000E+00 0. -1.
          2   -1    0    0  503    0  0.00000000000E+00 -0.00000000000E+00 -0.15907068542E+03  0.15907068542E+03  0.00000000000E+00 0. -1.
         25    2    1    2    0    0 -0.10216020333E+03 -0.50317523282E+02  0.11510130027E+03  0.20453056686E+03  0.12496352733E+03 0.  0.
          4    1    3    3  501    0 -0.83008263486E+02 -0.89208326306E+02  0.64470150211E+02  0.13786410141E+03  0.12700000000E+01 0.  1.
         -4    1    3    3    0  501 -0.19151939843E+02  0.38890803023E+02  0.50631150055E+02  0.66666465449E+02  0.12700000000E+01 0.  1.
          2    1    1    2  502    0  0.11923394285E+03 -0.16031077099E+02  0.10590962053E+04  0.10659073602E+04  0.00000000000E+00 0. -1.
          1    1    1    2  503    0 -0.17073739519E+02  0.66348600381E+02 -0.10037447357E+03  0.12152647571E+03  0.00000000000E+00 0. -1.
<mgrwt>
<rscale>  0 0.90128608E+02</rscale>
<asrwt>0</asrwt>
<pdfrwt beam="2">  1        2 0.24472414E-01 0.68510213E+02</pdfrwt>
<pdfrwt beam="1">  1        1 0.18967595E+00 0.11856869E+03</pdfrwt>
<totfact> 0.33459811E+02</totfact>
</mgrwt>
</event>
<event>
 7    1  0.4252091E-004  0.1056056E+03  0.7546771E-02  0.1341072E+00
          1   -1    0    0  502    0 -0.00000000000E+00  0.00000000000E+00  0.50741709356E+03  0.50741709356E+03  0.00000000000E+00 0. -1.
          2   -1    0    0  503    0  0.00000000000E+00 -0.00000000000E+00 -0.12428097494E+04  0.12428097494E+04  0.00000000000E+00 0. -1.
         25    2    1    2    0    0 -0.18119106551E+02 -0.14622646112E+03 -0.63329539840E+02  0.20333328212E+03  0.12499325201E+03 0.  0.
          4    1    3    3  501    0 -0.47859664356E+02 -0.13294279577E+02  0.67423552462E+01  0.50143370410E+02  0.12700000000E+01 0.  1.
         -4    1    3    3    0  501  0.29740557806E+02 -0.13293218155E+03 -0.70071895086E+02  0.15318991171E+03  0.12700000000E+01 0.  1.
          2    1    1    2  502    0 -0.22008637563E+02  0.49931090204E+02  0.43324778349E+03  0.43667051170E+03  0.00000000000E+00 0. -1.
          1    1    1    2  503    0  0.40127744114E+02  0.96295370919E+02 -0.11053108995E+04  0.11102230491E+04  0.00000000000E+00 0. -1.
<mgrwt>
<rscale>  0 0.75911257E+02</rscale>
<asrwt>0</asrwt>
<pdfrwt beam="2">  1        2 0.19120150E+00 0.10560560E+03</pdfrwt>
<pdfrwt beam="1">  1        1 0.78064169E-01 0.54566417E+02</pdfrwt>
<totfact> 0.12670194E+02</totfact>
</mgrwt>
</event>
<event>
 7    1  0.4252091E-004  0.1688341E+03  0.7546771E-02  0.1206540E+00
          1   -1    0    0  502    0 -0.00000000000E+00  0.00000000000E+00  0.63003547248E+03  0.63003547248E+03  0.00000000000E+00 0. -1.
          2   -1    0    0  503    0  0.00000000000E+00 -0.00000000000E+00 -0.42543144724E+03  0.42543144724E+03  0.00000000000E+00 0. -1.
         25    2    1    2    0    0  0.10622893639E+02  0.84647776840E+02 -0.15257889894E+03  0.21490395038E+03  0.12500118198E+03 0.  0.
          4    1    3    3  501    0 -0.30994105705E+01  0.31064170907E+02  0.17667096987E+02  0.35893290125E+02  0.12700000000E+01 0. -1.
         -4    1    3    3    0  501  0.13722304209E+02  0.53583605932E+02 -0.17024599592E+03  0.17901066026E+03  0.12700000000E+01 0. -1.
          2    1    1    2  502    0  0.97541560811E+02 -0.14693918466E+03  0.56844840145E+03  0.59517985953E+03  0.00000000000E+00 0. -1.
          1    1    1    2  503    0 -0.10816445445E+03  0.62291407820E+02 -0.21126547727E+03  0.24538310981E+03  0.00000000000E+00 0. -1.
<mgrwt>
<rscale>  0 0.14516780E+03</rscale>
<asrwt>0</asrwt>
<pdfrwt beam="2">  1        2 0.65450991E-01 0.12481894E+03</pdfrwt>
<pdfrwt beam="1">  1        1 0.96928535E-01 0.16883406E+03</pdfrwt>
<totfact> 0.34243632E+02</totfact>
</mgrwt>
</event>
<event>
 7    1  0.4252091E-004  0.1847025E+03  0.7546771E-02  0.1307515E+00
          1   -1    0    0  503    0  0.00000000000E+00  0.00000000000E+00  0.10786487332E+04  0.10786487332E+04  0.00000000000E+00 0. -1.
         -1   -1    0    0    0  501 -0.00000000000E+00 -0.00000000000E+00 -0.12862040931E+03  0.12862040931E+03  0.00000000000E+00 0.  1.
         25    2    1    2    0    0 -0.20790434564E+03 -0.52608321745E+02  0.19414066409E+03  0.31512708541E+03  0.12499051986E+03 0.  0.
          4    1    3    3  502    0 -0.19710989421E+03 -0.64660711351E+02  0.20801358474E+03  0.29377641553E+03  0.12700000000E+01 0.  1.
         -4    1    3    3    0  502 -0.10794451436E+02  0.12052389606E+02 -0.13872920652E+02  0.21350669883E+02  0.12700000000E+01 0.  1.
          2    1    1    2  503    0  0.17863672130E+03  0.22451692760E+02  0.80650315333E+03  0.82635494374E+03  0.00000000000E+00 0. -1.
         -2    1    1    2    0  501  0.29267624345E+02  0.30156628985E+02 -0.50615493498E+02  0.65787113393E+02  0.00000000000E+00 0.  1.
<mgrwt>
<rscale>  0 0.88101855E+02</rscale>
<asrwt>0</asrwt>
<pdfrwt beam="1">  1        1 0.16594595E+00 0.18470250E+03</pdfrwt>
<pdfrwt beam="2">  1       -1 0.19787756E-01 0.42023994E+02</pdfrwt>
<totfact> 0.27696764E+02</totfact>
</mgrwt>
</event>
<event>
 7    1  0.4252091E-004  0.1136533E+03  0.7546771E-02  0.1296666E+00
          1   -1    0    0  503    0  0.00000000000E+00  0.00000000000E+00  0.98370125095E+03  0.98370125095E+03  0.00000000000E+00 0. -1.
         -1   -1    0    0    0  501 -0.00000000000E+00 -0.00000000000E+00 -0.41616253995E+03  0.41616253995E+03  0.00000000000E+00 0.  1.
         25    2    1    2    0    0 -0.25002426753E+02 -0.17699359634E+03 -0.55385748909E+02  0.22505328122E+03  0.12501817355E+03 0.  0.
          4    1    3    3  502    0 -0.44378821153E+02 -0.11717748626E+03 -0.89045548745E+02  0.15372301618E+03  0.12700000000E+01 0.  1.
         -4    1    3    3    0  502  0.19376394401E+02 -0.59816110087E+02  0.33659799836E+02  0.71330265042E+02  0.12700000000E+01 0.  1.
          2    1    1    2  503    0 -0.48474104774E+01  0.75296990667E+02  0.88702929796E+03  0.89023261546E+03  0.00000000000E+00 0. -1.
         -2    1    1    2    0  501  0.29849837230E+02  0.10169660568E+03 -0.26410483806E+03  0.28457789421E+03  0.00000000000E+00 0.  1.
<mgrwt>
<rscale>  0 0.92603795E+02</rscale>
<asrwt>0</asrwt>
<pdfrwt beam="1">  1        1 0.15133865E+00 0.75452861E+02</pdfrwt>
<pdfrwt beam="2">  1       -1 0.64025006E-01 0.11365325E+03</pdfrwt>
<totfact> 0.47102274E+01</totfact>
</mgrwt>
</event>
<event>
 7    1  0.4252091E-004  0.2197749E+03  0.7546771E-02  0.1370375E+00
          1   -1    0    0  502    0 -0.00000000000E+00  0.00000000000E+00  0.15513396958E+04  0.15513396958E+04  0.00000000000E+00 0. -1.
          2   -1    0    0  503    0  0.00000000000E+00 -0.00000000000E+00 -0.27285407732E+03  0.27285407732E+03  0.00000000000E+00 0. -1.
         25    2    1    2    0    0 -0.68497448300E+02  0.19833779801E+03  0.17610889253E+03  0.30110851176E+03  0.12498884462E+03 0.  0.
          4    1    3    3  501    0 -0.27417032964E+02  0.72087675778E+02  0.14576094132E+03  0.16491267874E+03  0.12700000000E+01 0. -1.
         -4    1    3    3    0  501 -0.41080415336E+02  0.12625012224E+03  0.30347951218E+02  0.13619583302E+03  0.12700000000E+01 0. -1.
          2    1    1    2  502    0  0.55620237705E+02 -0.21424219986E+03  0.13028760603E+04  0.13215443086E+04  0.00000000000E+00 0. -1.
          1    1    1    2  503    0  0.12877210595E+02  0.15904401849E+02 -0.20049933438E+03  0.20154095275E+03  0.00000000000E+00 0. -1.
<mgrwt>
<rscale>  0 0.67063101E+02</rscale>
<asrwt>0</asrwt>
<pdfrwt beam="2">  1        2 0.41977552E-01 0.20463933E+02</pdfrwt>
<pdfrwt beam="1">  1        1 0.23866764E+00 0.21977493E+03</pdfrwt>
<totfact> 0.10804451E+02</totfact>
</mgrwt>
</event>
<event>
 7    1  0.4252091E-004  0.1377289E+03  0.7546771E-02  0.1260622E+00
          2   -1    0    0  503    0  0.00000000000E+00  0.00000000000E+00  0.28639974105E+04  0.28639974105E+04  0.00000000000E+00 0. -1.
          1   -1    0    0  502    0 -0.00000000000E+00 -0.00000000000E+00 -0.17034112371E+04  0.17034112371E+04  0.00000000000E+00 0. -1.
         25    2    1    2    0    0  0.23656345606E+02 -0.54521468592E+02  0.26815018527E+02  0.14099343988E+03  0.12501156605E+03 0.  0.
          4    1    3    3  501    0  0.12857172273E+02 -0.73508064433E+02 -0.29748933833E+02  0.80345220018E+02  0.12700000000E+01 0.  1.
         -4    1    3    3    0  501  0.10799173333E+02  0.18986595841E+02  0.56563952360E+02  0.60648219866E+02  0.12700000000E+01 0.  1.
          2    1    1    2  502    0 -0.19167167487E+02 -0.85691784738E+02 -0.16433794410E+04  0.16457236856E+04  0.00000000000E+00 0. -1.
          1    1    1    2  503    0 -0.44891781194E+01  0.14021325333E+03  0.27771505958E+04  0.27806915221E+04  0.00000000000E+00 0. -1.
<mgrwt>
<rscale>  0 0.10997213E+03</rscale>
<asrwt>0</asrwt>
<pdfrwt beam="1">  1        2 0.44061499E+00 0.13772889E+03</pdfrwt>
<pdfrwt beam="2">  1        1 0.26206327E+00 0.87809238E+02</pdfrwt>
<totfact> 0.22482290E+00</totfact>
</mgrwt>
</event>
<event>
 7    1  0.4252091E-004  0.8981915E+02  0.7546771E-02  0.1452060E+00
          2   -1    0    0  503    0  0.00000000000E+00  0.00000000000E+00  0.98467570359E+03  0.98467570359E+03  0.00000000000E+00 0. -1.
          1   -1    0    0  502    0 -0.00000000000E+00 -0.00000000000E+00 -0.17074408890E+03  0.17074408890E+03  0.00000000000E+00 0. -1.
         25    2    1    2    0    0  0.65670370648E+02 -0.83584519317E+02 -0.61622363529E+02  0.17527429794E+03  0.12499917752E+03 0.  0.
          4    1    3    3  501    0 -0.30002241303E+02 -0.59478972063E+01 -0.39685126411E+02  0.50120196754E+02  0.12700000000E+01 0.  1.
         -4    1    3    3    0  501  0.95672611952E+02 -0.77636622111E+02 -0.21937237118E+02  0.12515410118E+03  0.12700000000E+01 0.  1.
          2    1    1    2  502    0 -0.54781312395E+02  0.59439073936E+02 -0.20747037706E+02  0.83453192100E+02  0.00000000000E+00 0. -1.
          1    1    1    2  503    0 -0.10889058254E+02  0.24145445381E+02  0.89630101593E+03  0.89669230245E+03  0.00000000000E+00 0. -1.
<mgrwt>
<rscale>  0 0.48775628E+02</rscale>
<asrwt>0</asrwt>
<pdfrwt beam="1">  1        2 0.15148857E+00 0.26487245E+02</pdfrwt>
<pdfrwt beam="2">  1        1 0.26268322E-01 0.89819153E+02</pdfrwt>
<totfact> 0.72124786E+02</totfact>
</mgrwt>
</event>
<event>
 7    1  0.4252091E-004  0.7488078E+02  0.7546771E-02  0.1389622E+00
          2   -1    0    0  503    0  0.00000000000E+00  0.00000000000E+00  0.39390313269E+02  0.39390313269E+02  0.00000000000E+00 0. -1.
          1   -1    0    0  502    0 -0.00000000000E+00 -0.00000000000E+00 -0.76786215098E+03  0.76786215098E+03  0.00000000000E+00 0. -1.
         25    2    1    2    0    0 -0.69453754724E+01 -0.48881884519E+02 -0.40956191613E+03  0.43105002966E+03  0.12500195220E+03 0.  0.
          4    1    3    3  501    0 -0.26496305357E+02 -0.76081445228E+02 -0.37234235483E+03  0.38096047381E+03  0.12700000000E+01 0.  1.
         -4    1    3    3    0  501  0.19550929885E+02  0.27199560709E+02 -0.37219561294E+02  0.50089555848E+02  0.12700000000E+01 0.  1.
          2    1    1    2  502    0 -0.50947266603E+02 -0.63072831794E+01 -0.28456177095E+03  0.28915533418E+03  0.00000000000E+00 0. -1.
          1    1    1    2  503    0  0.57892642076E+02  0.55189167698E+02 -0.34348150628E+02  0.87047100407E+02  0.00000000000E+00 0. -1.
<mgrwt>
<rscale>  0 0.62000766E+02</rscale>
<asrwt>0</asrwt>
<pdfrwt beam="1">  1        2 0.60600482E-02 0.74880781E+02</pdfrwt>
<pdfrwt beam="2">  1        1 0.11813264E+00 0.51336204E+02</pdfrwt>
<totfact> 0.39676552E+03</totfact>
</mgrwt>
</event>
<event>
 7    1  0.4252091E-004  0.7493713E+02  0.7546771E-02  0.1493383E+00
          1   -1    0    0  503    0  0.00000000000E+00  0.00000000000E+00  0.12640434191E+03  0.12640434191E+03  0.00000000000E+00 0. -1.
         -1   -1    0    0    0  501 -0.00000000000E+00 -0.00000000000E+00 -0.77691915181E+03  0.77691915181E+03  0.00000000000E+00 0.  1.
         25    2    1    2    0    0 -0.23579330977E+02  0.72478988064E+02 -0.52834788866E+02  0.15562605150E+03  0.12497505524E+03 0.  0.
          4    1    3    3  502    0 -0.96728169942E+01 -0.15503108863E+02 -0.63330680796E+02  0.65926457535E+02  0.12700000000E+01 0. -1.
         -4    1    3    3    0  502 -0.13906513983E+02  0.87982096927E+02  0.10495891930E+02  0.89699593969E+02  0.12700000000E+01 0. -1.
          2    1    1    2  503    0  0.23500742128E+02  0.25515448989E+01  0.70994507691E+02  0.74826568705E+02  0.00000000000E+00 0. -1.
         -2    1    1    2    0  501  0.78588849261E-01 -0.75030532963E+02 -0.66867452872E+03  0.67287087351E+03  0.00000000000E+00 0.  1.
<mgrwt>
<rscale>  0 0.42088332E+02</rscale>
<asrwt>0</asrwt>
<pdfrwt beam="1">  1        1 0.19446822E-01 0.23638851E+02</pdfrwt>
<pdfrwt beam="2">  1       -1 0.11952602E+00 0.74937132E+02</pdfrwt>
<totfact> 0.17248929E+02</totfact>
</mgrwt>
</event>
<event>
 7    1  0.4252091E-004  0.9717573E+02  0.7546771E-02  0.1364332E+00
          2   -1    0    0  503    0  0.00000000000E+00  0.00000000000E+00  0.11035082677E+04  0.11035082677E+04  0.00000000000E+00 0. -1.
         -2   -1    0    0    0  501 -0.00000000000E+00 -0.00000000000E+00 -0.73586628262E+02  0.73586628262E+02  0.00000000000E+00 0.  1.
         25    2    1    2    0    0  0.55196707082E+02  0.16391606014E+02  0.24138842387E+03  0.27784653620E+03  0.12495985466E+03 0.  0.
          4    1    3    3  502    0  0.95778795185E+02  0.10339874434E+02  0.17587218686E+03  0.20053211619E+03  0.12700000000E+01 0.  1.
         -4    1    3    3    0  502 -0.40582088102E+02  0.60517315800E+01  0.65516237010E+02  0.77314420012E+02  0.12700000000E+01 0.  1.
          1    1    1    2  503    0 -0.10369316656E+03 -0.12338733377E+02  0.82924818618E+03  0.83579726694E+03  0.00000000000E+00 0. -1.
         -1    1    1    2    0  501  0.48496459482E+02 -0.40528726365E+01 -0.40714970567E+02  0.63451092876E+02  0.00000000000E+00 0.  1.
<mgrwt>
<rscale>  0 0.68768502E+02</rscale>
<asrwt>0</asrwt>
<pdfrwt beam="1">  1        2 0.16977049E+00 0.97175729E+02</pdfrwt>
<pdfrwt beam="2">  1       -2 0.11321021E-01 0.48665515E+02</pdfrwt>
<totfact> 0.11815563E+03</totfact>
</mgrwt>
</event>
<event>
 7    1  0.4252091E-004  0.7987056E+02  0.7546771E-02  0.1413738E+00
          1   -1    0    0  502    0 -0.00000000000E+00  0.00000000000E+00  0.22480898276E+04  0.22480898276E+04  0.00000000000E+00 0. -1.
          2   -1    0    0  503    0  0.00000000000E+00 -0.00000000000E+00 -0.13755160923E+04  0.13755160923E+04  0.00000000000E+00 0. -1.
         25    2    1    2    0    0  0.80973770093E+01  0.77260351639E+02 -0.79603057937E+02  0.16732571919E+03  0.12500607994E+03 0.  0.
          4    1    3    3  501    0  0.26649881567E+02 -0.94804487018E+01  0.19452633230E+02  0.34352771863E+02  0.12700000000E+01 0. -1.
         -4    1    3    3    0  501 -0.18552504558E+02  0.86740800341E+02 -0.99055691167E+02  0.13297294733E+03  0.12700000000E+01 0. -1.
          2    1    1    2  502    0 -0.39626987761E+02 -0.35017738847E+01  0.22027639365E+04  0.22031231288E+04  0.00000000000E+00 0. -1.
          1    1    1    2  503    0  0.31529610752E+02 -0.73758577755E+02 -0.12505871432E+04  0.12531570719E+04  0.00000000000E+00 0. -1.
<mgrwt>
<rscale>  0 0.56368107E+02</rscale>
<asrwt>0</asrwt>
<pdfrwt beam="2">  1        2 0.21161786E+00 0.79870559E+02</pdfrwt>
<pdfrwt beam="1">  1        1 0.34585997E+00 0.39781410E+02</pdfrwt>
<totfact> 0.72474298E+00</totfact>
</mgrwt>
</event>
<event>
 7    1  0.4252091E-004  0.5282292E+02  0.7546771E-02  0.1503530E+00
          1   -1    0    0  502    0 -0.00000000000E+00  0.00000000000E+00  0.84414068262E+03  0.84414068262E+03  0.00000000000E+00 0. -1.
          2   -1    0    0  503    0  0.00000000000E+00 -0.00000000000E+00 -0.12013242015E+03  0.12013242015E+03  0.00000000000E+00 0. -1.
         25    2    1    2    0    0  0.76046256799E+02 -0.15537241059E+02  0.38479526249E+02  0.15208075750E+03  0.12499377515E+03 0.  0.
          4    1    3    3  501    0 -0.98279329474E+01 -0.50668622321E+02  0.30882832291E-02  0.51628581847E+02  0.12700000000E+01 0.  1.
         -4    1    3    3    0  501  0.85874189746E+02  0.35131381262E+02  0.38476437966E+02  0.10045217565E+03  0.12700000000E+01 0.  1.
          2    1    1    2  502    0 -0.25685194004E+02  0.17838360780E+02  0.73844430524E+03  0.73910616846E+03  0.00000000000E+00 0. -1.
          1    1    1    2  503    0 -0.50361062795E+02 -0.23011197202E+01 -0.52915569015E+02  0.73086176819E+02  0.00000000000E+00 0. -1.
<mgrwt>
<rscale>  0 0.40643288E+02</rscale>
<asrwt>0</asrwt>
<pdfrwt beam="2">  1        2 0.18481911E-01 0.52822918E+02</pdfrwt>
<pdfrwt beam="1">  1        1 0.12986779E+00 0.31271973E+02</pdfrwt>
<totfact> 0.92340947E+02</totfact>
</mgrwt>
</event>
<event>
 7    1  0.4252091E-004  0.4401300E+02  0.7546771E-02  0.1496903E+00
          2   -1    0    0  503    0  0.00000000000E+00  0.00000000000E+00  0.19376120680E+03  0.19376120680E+03  0.00000000000E+00 0.  1.
         -2   -1    0    0    0  501 -0.00000000000E+00 -0.00000000000E+00 -0.64053881471E+02  0.64053881471E+02  0.00000000000E+00 0. -1.
         25    2    1    2    0    0  0.11533727994E+02 -0.20799865305E+02  0.81845079473E+02  0.15129148721E+03  0.12499934316E+03 0.  0.
          4    1    3    3  502    0 -0.13065163500E+02  0.49903120101E+01 -0.30416204108E+02  0.33501642998E+02  0.12700000000E+01 0. -1.
         -4    1    3    3    0  502  0.24598891493E+02 -0.25790177315E+02  0.11226128358E+03  0.11778984421E+03  0.12700000000E+01 0. -1.
          1    1    1    2  503    0  0.38410449610E+02  0.21489108318E+02  0.14029555378E+02  0.46194943875E+02  0.00000000000E+00 0. -1.
         -1    1    1    2    0  501 -0.49944177603E+02 -0.68924301365E+00  0.33832690473E+02  0.60328657179E+02  0.00000000000E+00 0.  1.
<mgrwt>
<rscale>  0 0.41579071E+02</rscale>
<asrwt>0</asrwt>
<pdfrwt beam="1">  1        2 0.29809416E-01 0.44013003E+02</pdfrwt>
<pdfrwt beam="2">  1       -2 0.98544434E-02 0.39279736E+02</pdfrwt>
<totfact> 0.10008992E+04</totfact>
</mgrwt>
</event>
<event>
 7    1  0.4252091E-004  0.7779048E+02  0.7546771E-02  0.1353268E+00
          2   -1    0    0  503    0  0.00000000000E+00  0.00000000000E+00  0.16150422622E+04  0.16150422622E+04  0.00000000000E+00 0. -1.
         -2   -1    0    0    0  501 -0.00000000000E+00 -0.00000000000E+00 -0.10836324792E+03  0.10836324792E+03  0.00000000000E+00 0.  1.
         25    2    1    2    0    0 -0.16834755261E+02  0.84127777340E+01  0.10441662214E+03  0.16395708108E+03  0.12499963858E+03 0.  0.
          4    1    3    3  502    0  0.23969188610E+01  0.65777874541E+02  0.51915323526E+02  0.83840847539E+02  0.12700000000E+01 0. -1.
         -4    1    3    3    0  502 -0.19231674122E+02 -0.57365096807E+02  0.52501298611E+02  0.80116233543E+02  0.12700000000E+01 0. -1.
          1    1    1    2  503    0  0.78017691337E+02  0.18216734969E+02  0.14653981311E+04  0.14675865536E+04  0.00000000000E+00 0. -1.
         -1    1    1    2    0  501 -0.61182936076E+02 -0.26629512703E+02 -0.63135739013E+02  0.91861875413E+02  0.00000000000E+00 0.  1.
<mgrwt>
<rscale>  0 0.72046648E+02</rscale>
<asrwt>0</asrwt>
<pdfrwt beam="1">  1        2 0.24846802E+00 0.77790479E+02</pdfrwt>
<pdfrwt beam="2">  1       -2 0.16671270E-01 0.66726926E+02</pdfrwt>
<totfact> 0.35802393E+02</totfact>
</mgrwt>
</event>
<event>
 7    1  0.4252091E-004  0.6808287E+02  0.7546771E-02  0.1471914E+00
          2   -1    0    0  503    0  0.00000000000E+00  0.00000000000E+00  0.27916554137E+04  0.27916554137E+04  0.00000000000E+00 0. -1.
         -2   -1    0    0    0  501 -0.00000000000E+00 -0.00000000000E+00 -0.18443097137E+02  0.18443097137E+02  0.00000000000E+00 0.  1.
         25    2    1    2    0    0 -0.46342662565E+02 -0.59135308695E+02  0.19447010935E+04  0.19501619478E+04  0.12499861046E+03 0.  0.
          4    1    3    3  502    0 -0.10720370230E+02  0.97686529611E+01  0.13885407768E+04  0.13886171015E+04  0.12700000000E+01 0. -1.
         -4    1    3    3    0  502 -0.35622292335E+02 -0.68903961656E+02  0.55616031674E+03  0.56154484634E+03  0.12700000000E+01 0. -1.
          1    1    1    2  503    0 -0.13644465150E+02  0.27012054118E+02  0.76883113307E+03  0.76942649660E+03  0.00000000000E+00 0. -1.
         -1    1    1    2    0  501  0.59987127716E+02  0.32123254577E+02  0.59680089963E+02  0.90510066370E+02  0.00000000000E+00 0.  1.
<mgrwt>
<rscale>  0 0.45391208E+02</rscale>
<asrwt>0</asrwt>
<pdfrwt beam="1">  1        2 0.42948511E+00 0.30262559E+02</pdfrwt>
<pdfrwt beam="2">  1       -2 0.28374018E-02 0.68082867E+02</pdfrwt>
<totfact> 0.15251666E+03</totfact>
</mgrwt>
</event>
<event>
 7    1  0.4252091E-004  0.7441878E+02  0.7546771E-02  0.1347107E+00
         -2   -1    0    0    0  501 -0.00000000000E+00  0.00000000000E+00  0.41421253088E+03  0.41421253088E+03  0.00000000000E+00 0.  1.
          2   -1    0    0  503    0  0.00000000000E+00 -0.00000000000E+00 -0.13055649805E+04  0.13055649805E+04  0.00000000000E+00 0. -1.
         25    2    1    2    0    0 -0.42844779503E+02  0.78279698752E+02  0.18901038955E+03  0.24354356469E+03  0.12500061670E+03 0.  0.
          4    1    3    3  502    0 -0.67875099464E+02  0.35579556816E+02  0.17657736821E+03  0.19249445149E+03  0.12700000000E+01 0. -1.
         -4    1    3    3    0  502  0.25030319961E+02  0.42700141937E+02  0.12433021344E+02  0.51049113200E+02  0.12700000000E+01 0. -1.
          1    1    1    2  503    0  0.73976794459E+02 -0.80986714367E+01 -0.12697226217E+04  0.12719016041E+04  0.00000000000E+00 0. -1.
         -1    1    1    2    0  501 -0.31132014956E+02 -0.70181027316E+02  0.18935978255E+03  0.20433234251E+03  0.00000000000E+00 0.  1.
<mgrwt>
<rscale>  0 0.73964705E+02</rscale>
<asrwt>0</asrwt>
<pdfrwt beam="2">  1        2 0.20085615E+00 0.74418779E+02</pdfrwt>
<pdfrwt beam="1">  1       -2 0.63725006E-01 0.73513402E+02</pdfrwt>
<totfact> 0.45653147E+01</totfact>
</mgrwt>
</event>
<event>
 7    1  0.4252091E-004  0.9653195E+02  0.7546771E-02  0.1467721E+00
          1   -1    0    0  503    0  0.00000000000E+00  0.00000000000E+00  0.15560751502E+04  0.15560751502E+04  0.00000000000E+00 0. -1.
         -1   -1    0    0    0  501 -0.00000000000E+00 -0.00000000000E+00 -0.13293149252E+02  0.13293149252E+02  0.00000000000E+00 0.  1.
         25    2    1    2    0    0 -0.63527155110E+02 -0.52875422366E+02  0.60362303909E+03  0.62193198434E+03  0.12492841993E+03 0.  0.
          4    1    3    3  502    0 -0.68960037340E+02  0.21553418901E+02  0.35796534677E+03  0.36518603342E+03  0.12700000000E+01 0.  1.
         -4    1    3    3    0  502  0.54328822302E+01 -0.74428841267E+02  0.24565769231E+03  0.25674595092E+03  0.12700000000E+01 0.  1.
          2    1    1    2  503    0  0.70695194629E+02  0.73669364963E+02  0.72577422525E+03  0.73292101342E+03  0.00000000000E+00 0.  1.
         -2    1    1    2    0  501 -0.71680395189E+01 -0.20793942597E+02  0.21338473660E+03  0.21451530167E+03  0.00000000000E+00 0. -1.
<mgrwt>
<rscale>  0 0.46078147E+02</rscale>
<asrwt>0</asrwt>
<pdfrwt beam="1">  1        1 0.23939603E+00 0.96531946E+02</pdfrwt>
<pdfrwt beam="2">  1       -1 0.20451011E-02 0.21994746E+02</pdfrwt>
<totfact> 0.33639164E+03</totfact>
</mgrwt>
</event>
<event>
 7    1  0.4252091E-004  0.5008351E+02  0.7546771E-02  0.1494036E+00
         -2   -1    0    0    0  501 -0.00000000000E+00  0.00000000000E+00  0.15349867796E+04  0.15349867796E+04  0.00000000000E+00 0.  1.
          2   -1    0    0  503    0  0.00000000000E+00 -0.00000000000E+00 -0.13718733547E+03  0.13718733547E+03  0.00000000000E+00 0. -1.
         25    2    1    2    0    0 -0.64053215728E+02  0.24977054864E+02  0.10033588024E+04  0.10134496549E+04  0.12499859613E+03 0.  0.
          4    1    3    3  502    0 -0.88344349117E+02 -0.18998299482E+02  0.55899846967E+03  0.56625662150E+03  0.12700000000E+01 0. -1.
         -4    1    3    3    0  502  0.24291133389E+02  0.43975354346E+02  0.44436033272E+03  0.44719303343E+03  0.12700000000E+01 0. -1.
          1    1    1    2  503    0  0.16947986135E+02 -0.30862451266E+02 -0.12870251883E+03  0.13343186833E+03  0.00000000000E+00 0. -1.
         -1    1    1    2    0  501  0.47105229594E+02  0.58853964019E+01  0.52314316062E+03  0.52529259184E+03  0.00000000000E+00 0.  1.
<mgrwt>
<rscale>  0 0.41993179E+02</rscale>
<asrwt>0</asrwt>
<pdfrwt beam="2">  1        2 0.21105745E-01 0.35209731E+02</pdfrwt>
<pdfrwt beam="1">  1       -2 0.23615180E+00 0.50083514E+02</pdfrwt>
<totfact> 0.24306062E+01</totfact>
</mgrwt>
</event>
<event>
 7    1  0.4252091E-004  0.1278410E+03  0.7546771E-02  0.1311819E+00
          2   -1    0    0  503    0  0.00000000000E+00  0.00000000000E+00  0.56348014883E+03  0.56348014883E+03  0.00000000000E+00 0. -1.
         -2   -1    0    0    0  501 -0.00000000000E+00 -0.00000000000E+00 -0.88475144335E+02  0.88475144335E+02  0.00000000000E+00 0.  1.
         25    2    1    2    0    0  0.81009444784E+02 -0.13465822569E+03  0.41154249689E+03  0.45791487027E+03  0.12499373492E+03 0.  0.
          4    1    3    3  502    0 -0.24449865972E+02 -0.69841607697E+02  0.19368122596E+03  0.20733951939E+03  0.12700000000E+01 0.  1.
         -4    1    3    3    0  502  0.10545931076E+03 -0.64816617997E+02  0.21786127093E+03  0.25057535088E+03  0.12700000000E+01 0.  1.
          3    1    1    2  503    0 -0.56530936904E+02  0.81648584749E+02  0.86081347247E+02  0.13142388125E+03  0.00000000000E+00 0. -1.
         -3    1    1    2    0  501 -0.24478507880E+02  0.53009640945E+02 -0.22618839646E+02  0.62616541649E+02  0.00000000000E+00 0.  1.
<mgrwt>
<rscale>  0 0.86397039E+02</rscale>
<asrwt>0</asrwt>
<pdfrwt beam="1">  1        2 0.86689251E-01 0.12784102E+03</pdfrwt>
<pdfrwt beam="2">  1       -2 0.13611561E-01 0.58388521E+02</pdfrwt>
<totfact> 0.20471061E+03</totfact>
</mgrwt>
</event>
<event>
 7    1  0.4252091E-004  0.7149871E+02  0.7546771E-02  0.1440841E+00
          2   -1    0    0  503    0  0.00000000000E+00  0.00000000000E+00  0.15338791018E+04  0.15338791018E+04  0.00000000000E+00 0. -1.
         -2   -1    0    0    0  501 -0.00000000000E+00 -0.00000000000E+00 -0.14528169182E+03  0.14528169182E+03  0.00000000000E+00 0.  1.
         25    2    1    2    0    0 -0.85735453156E+02 -0.23656442510E+02  0.80554699719E+02  0.17327634617E+03  0.12500174917E+03 0.  0.
          4    1    3    3  502    0 -0.51380700229E+02 -0.14282784489E+02  0.11308013597E+03  0.12503081356E+03  0.12700000000E+01 0. -1.
         -4    1    3    3    0  502 -0.34354752927E+02 -0.93736580204E+01 -0.32525436253E+02  0.48245532610E+02  0.12700000000E+01 0. -1.
          1    1    1    2  503    0  0.30309139324E+02 -0.19713689928E+02  0.13941817793E+04  0.13946505323E+04  0.00000000000E+00 0. -1.
         -1    1    1    2    0  501  0.55426313832E+02  0.43370132438E+02 -0.86139069070E+02  0.11123391512E+03  0.00000000000E+00 0.  1.
<mgrwt>
<rscale>  0 0.50844117E+02</rscale>
<asrwt>0</asrwt>
<pdfrwt beam="1">  1        2 0.23598139E+00 0.36156237E+02</pdfrwt>
<pdfrwt beam="2">  1       -2 0.22351031E-01 0.71498707E+02</pdfrwt>
<totfact> 0.25980811E+02</totfact>
</mgrwt>
</event>
<event>
 7    1  0.4252091E-004  0.8186036E+02  0.7546771E-02  0.1471691E+00
          1   -1    0    0  503    0  0.00000000000E+00  0.00000000000E+00  0.66502453351E+03  0.66502453351E+03  0.00000000000E+00 0. -1.
         -1   -1    0    0    0  501 -0.00000000000E+00 -0.00000000000E+00 -0.42112233034E+03  0.42112233034E+03  0.00000000000E+00 0.  1.
         25    2    1    2    0    0  0.51502178933E+02  0.76317754930E+02 -0.75816478144E+02  0.17277303518E+03  0.12500203669E+03 0.  0.
          4    1    3    3  502    0  0.51919794513E+02 -0.17693029640E+02 -0.52426146646E+02  0.75886903431E+02  0.12700000000E+01 0. -1.
         -4    1    3    3    0  502 -0.41761558021E+00  0.94010784571E+02 -0.23390331498E+02  0.96886131753E+02  0.12700000000E+01 0. -1.
          2    1    1    2  503    0 -0.26314111244E+02 -0.77353313195E+02  0.61329669584E+03  0.61871544723E+03  0.00000000000E+00 0. -1.
         -2    1    1    2    0  501 -0.25188067689E+02  0.10355582646E+01 -0.29357801452E+03  0.29465838143E+03  0.00000000000E+00 0.  1.
<mgrwt>
<rscale>  0 0.45427372E+02</rscale>
<asrwt>0</asrwt>
<pdfrwt beam="1">  1        1 0.10231147E+00 0.81860357E+02</pdfrwt>
<pdfrwt beam="2">  1       -1 0.64788051E-01 0.25209346E+02</pdfrwt>
<totfact> 0.84029122E+01</totfact>
</mgrwt>
</event>
<event>
 7    1  0.4252091E-004  0.1355214E+03  0.7546771E-02  0.1274087E+00
          1   -1    0    0  503    0  0.00000000000E+00  0.00000000000E+00  0.15647794407E+04  0.15647794407E+04  0.00000000000E+00 0. -1.
         -1   -1    0    0    0  501 -0.00000000000E+00 -0.00000000000E+00 -0.90143884743E+02  0.90143884743E+02  0.00000000000E+00 0.  1.
         25    2    1    2    0    0  0.17006425339E+03  0.93597846335E+02  0.33568960510E+03  0.40743018350E+03  0.12501774406E+03 0.  0.
          4    1    3    3  502    0  0.30533964950E+02  0.22225355020E+01  0.16852041302E+03  0.17128340604E+03  0.12700000000E+01 0.  1.
         -4    1    3    3    0  502  0.13953028844E+03  0.91375310833E+02  0.16716919208E+03  0.23614677746E+03  0.12700000000E+01 0.  1.
          2    1    1    2  503    0 -0.12719939391E+03 -0.28071954574E+02  0.11592958382E+04  0.11665909999E+04  0.00000000000E+00 0. -1.
         -2    1    1    2    0  501 -0.42864859482E+02 -0.65525891760E+02 -0.20349887407E+02  0.80902142041E+02  0.00000000000E+00 0.  1.
<mgrwt>
<rscale>  0 0.10301192E+03</rscale>
<asrwt>0</asrwt>
<pdfrwt beam="1">  1        1 0.24073528E+00 0.13552142E+03</pdfrwt>
<pdfrwt beam="2">  1       -1 0.13868291E-01 0.78300949E+02</pdfrwt>
<totfact> 0.23900888E+02</totfact>
</mgrwt>
</event>
<event>
 7    1  0.4252091E-004  0.9418607E+02  0.7546771E-02  0.1306477E+00
          2   -1    0    0  503    0  0.00000000000E+00  0.00000000000E+00  0.92290266635E+03  0.92290266635E+03  0.00000000000E+00 0. -1.
          1   -1    0    0  502    0 -0.00000000000E+00 -0.00000000000E+00 -0.27141860648E+04  0.27141860648E+04  0.00000000000E+00 0. -1.
         25    2    1    2    0    0  0.96533088939E+02  0.14374927738E+03  0.87230561140E+02  0.23069295400E+03  0.12501030446E+03 0.  0.
          4    1    3    3  501    0  0.70282182727E+02  0.16526890925E+03  0.73529186180E+02  0.19406584370E+03  0.12700000000E+01 0.  1.
         -4    1    3    3    0  501  0.26250906212E+02 -0.21519631868E+02  0.13701374961E+02  0.36627110294E+02  0.12700000000E+01 0.  1.
          2    1    1    2  502    0 -0.66454796270E+02 -0.66183313316E+02 -0.26393544961E+04  0.26410203761E+04  0.00000000000E+00 0. -1.
          1    1    1    2  503    0 -0.30078292670E+02 -0.77565964061E+02  0.76084053653E+03  0.76537540103E+03  0.00000000000E+00 0. -1.
<mgrwt>
<rscale>  0 0.88519389E+02</rscale>
<asrwt>0</asrwt>
<pdfrwt beam="1">  1        2 0.14198503E+00 0.83193644E+02</pdfrwt>
<pdfrwt beam="2">  1        1 0.41756709E+00 0.94186068E+02</pdfrwt>
<totfact> 0.56870510E+00</totfact>
</mgrwt>
</event>
<event>
 7    1  0.4252091E-004  0.2977457E+02  0.7546771E-02  0.1623365E+00
          1   -1    0    0  502    0 -0.00000000000E+00  0.00000000000E+00  0.14793276930E+03  0.14793276930E+03  0.00000000000E+00 0. -1.
          2   -1    0    0  503    0  0.00000000000E+00 -0.00000000000E+00 -0.65902478265E+03  0.65902478265E+03  0.00000000000E+00 0. -1.
         25    2    1    2    0    0  0.17892791678E+02  0.52027004287E+02 -0.18874827388E+03  0.23293683177E+03  0.12492676067E+03 0.  0.
          4    1    3    3  501    0 -0.49329029911E+02  0.30552838741E+02 -0.12505484093E+03  0.13786644003E+03  0.12700000000E+01 0. -1.
         -4    1    3    3    0  501  0.67221821589E+02  0.21474165546E+02 -0.63693432955E+02  0.95070391738E+02  0.12700000000E+01 0. -1.
          2    1    1    2  502    0 -0.57874919971E+01 -0.28998093756E+02  0.12371708858E+03  0.12720181804E+03  0.00000000000E+00 0. -1.
          1    1    1    2  503    0 -0.12105299681E+02 -0.23028910531E+02 -0.44606082804E+03  0.44681890215E+03  0.00000000000E+00 0. -1.
<mgrwt>
<rscale>  0 0.27832288E+02</rscale>
<asrwt>0</asrwt>
<pdfrwt beam="2">  1        2 0.10138843E+00 0.26016706E+02</pdfrwt>
<pdfrwt beam="1">  1        1 0.22758888E-01 0.29774570E+02</pdfrwt>
<totfact> 0.13135717E+03</totfact>
</mgrwt>
</event>
<event>
 7    1  0.4252091E-004  0.4866953E+02  0.7546771E-02  0.1507411E+00
          2   -1    0    0  503    0  0.00000000000E+00  0.00000000000E+00  0.54613892683E+03  0.54613892683E+03  0.00000000000E+00 0. -1.
          1   -1    0    0  502    0 -0.00000000000E+00 -0.00000000000E+00 -0.20016403528E+03  0.20016403528E+03  0.00000000000E+00 0. -1.
         25    2    1    2    0    0  0.38293336667E+02 -0.29902737837E+02  0.25370878255E+03  0.28700532341E+03  0.12507340229E+03 0.  0.
          4    1    3    3  501    0  0.27998850167E+02 -0.79029555419E+02  0.16441772046E+03  0.18456545165E+03  0.12700000000E+01 0. -1.
         -4    1    3    3    0  501  0.10294486501E+02  0.49126817582E+02  0.89291062089E+02  0.10243987176E+03  0.12700000000E+01 0. -1.
          2    1    1    2  502    0 -0.48782862627E+02 -0.14428635234E+01 -0.17925090499E+03  0.18577603851E+03  0.00000000000E+00 0. -1.
          1    1    1    2  503    0  0.10489525960E+02  0.31345601360E+02  0.27151701400E+03  0.27352160020E+03  0.00000000000E+00 0. -1.
<mgrwt>
<rscale>  0 0.40108977E+02</rscale>
<asrwt>0</asrwt>
<pdfrwt beam="1">  1        2 0.84021373E-01 0.33054151E+02</pdfrwt>
<pdfrwt beam="2">  1        1 0.30794467E-01 0.48669532E+02</pdfrwt>
<totfact> 0.11297059E+03</totfact>
</mgrwt>
</event>
<event>
 7    1  0.4252091E-004  0.8588611E+02  0.7546771E-02  0.1448129E+00
          1   -1    0    0  502    0 -0.00000000000E+00  0.00000000000E+00  0.31591413044E+03  0.31591413044E+03  0.00000000000E+00 0. -1.
          2   -1    0    0  503    0  0.00000000000E+00 -0.00000000000E+00 -0.42280179665E+03  0.42280179665E+03  0.00000000000E+00 0. -1.
         25    2    1    2    0    0 -0.54614460419E+02  0.88363210026E+02  0.19701989657E+03  0.25540529185E+03  0.12499690912E+03 0.  0.
          4    1    3    3  501    0  0.15499402932E+02 -0.15660497702E+02  0.28172557080E+00  0.22072039979E+02  0.12700000000E+01 0. -1.
         -4    1    3    3    0  501 -0.70113863351E+02  0.10402370773E+03  0.19673817099E+03  0.23333325187E+03  0.12700000000E+01 0. -1.
          2    1    1    2  502    0  0.44148168610E+02 -0.61839557930E+02  0.72975795263E+02  0.10535017044E+03  0.00000000000E+00 0. -1.
          1    1    1    2  503    0  0.10466291809E+02 -0.26523652096E+02 -0.37688335805E+03  0.37796046481E+03  0.00000000000E+00 0. -1.
<mgrwt>
<rscale>  0 0.49486922E+02</rscale>
<asrwt>0</asrwt>
<pdfrwt beam="2">  1        2 0.65046430E-01 0.28513986E+02</pdfrwt>
<pdfrwt beam="1">  1        1 0.48602174E-01 0.85886113E+02</pdfrwt>
<totfact> 0.85233729E+02</totfact>
</mgrwt>
</event>
<event>
 7    1  0.4252091E-004  0.3447008E+02  0.7546771E-02  0.1556949E+00
          2   -1    0    0  503    0  0.00000000000E+00  0.00000000000E+00  0.24452682126E+03  0.24452682126E+03  0.00000000000E+00 0. -1.
          1   -1    0    0  502    0 -0.00000000000E+00 -0.00000000000E+00 -0.13351846387E+04  0.13351846387E+04  0.00000000000E+00 0. -1.
         25    2    1    2    0    0 -0.45120879308E+02 -0.22206980245E+02 -0.44592237319E+03  0.46583496744E+03  0.12500564090E+03 0.  0.
          4    1    3    3  501    0  0.13402947719E+02  0.44141863504E+02 -0.16199793071E+03  0.16844312267E+03  0.12700000000E+01 0.  1.
         -4    1    3    3    0  501 -0.58523827027E+02 -0.66348843750E+02 -0.28392444248E+03  0.29739184477E+03  0.12700000000E+01 0.  1.
          2    1    1    2  502    0  0.32244837494E+02 -0.97588304404E+01 -0.87771534563E+03  0.87836165232E+03  0.00000000000E+00 0. -1.
          1    1    1    2  503    0  0.12876041814E+02  0.31965810686E+02  0.23297990138E+03  0.23551484020E+03  0.00000000000E+00 0. -1.
<mgrwt>
<rscale>  0 0.34077421E+02</rscale>
<asrwt>0</asrwt>
<pdfrwt beam="1">  1        2 0.37619511E-01 0.34470084E+02</pdfrwt>
<pdfrwt beam="2">  1        1 0.20541302E+00 0.33689231E+02</pdfrwt>
<totfact> 0.20030170E+02</totfact>
</mgrwt>
</event>
<event>
 7    1  0.4252091E-004  0.8292480E+02  0.7546771E-02  0.1370502E+00
          1   -1    0    0  502    0 -0.00000000000E+00  0.00000000000E+00  0.38020868348E+03  0.38020868348E+03  0.00000000000E+00 0. -1.
          2   -1    0    0  503    0  0.00000000000E+00 -0.00000000000E+00 -0.27610666740E+04  0.27610666740E+04  0.00000000000E+00 0. -1.
         25    2    1    2    0    0  0.10361840616E+03 -0.73516792680E+02  0.54294640362E+02  0.18631729816E+03  0.12499893888E+03 0.  0.
          4    1    3    3  501    0  0.33384552142E+02  0.35285408488E+02  0.18008841413E+02  0.51821999603E+02  0.12700000000E+01 0.  1.
         -4    1    3    3    0  501  0.70233854022E+02 -0.10880220117E+03  0.36285798950E+02  0.13449529856E+03  0.12700000000E+01 0.  1.
          2    1    1    2  502    0 -0.74055227796E+02  0.28115313749E+02  0.25358790163E+03  0.26567173633E+03  0.00000000000E+00 0. -1.
          1    1    1    2  503    0 -0.29563178368E+02  0.45401478930E+02 -0.26887405325E+04  0.26892863230E+04  0.00000000000E+00 0. -1.
<mgrwt>
<rscale>  0 0.67027721E+02</rscale>
<asrwt>0</asrwt>
<pdfrwt beam="2">  1        2 0.42477949E+00 0.54178186E+02</pdfrwt>
<pdfrwt beam="1">  1        1 0.58493644E-01 0.82924804E+02</pdfrwt>
<totfact> 0.32626974E+01</totfact>
</mgrwt>
</event>
<event>
 7    1  0.4252091E-004  0.2040549E+03  0.7546771E-02  0.1263224E+00
          2   -1    0    0  503    0  0.00000000000E+00  0.00000000000E+00  0.88098106613E+03  0.88098106613E+03  0.00000000000E+00 0. -1.
          1   -1    0    0  502    0 -0.00000000000E+00 -0.00000000000E+00 -0.44667414237E+03  0.44667414237E+03  0.00000000000E+00 0. -1.
         25    2    1    2    0    0 -0.12041906162E+03 -0.11176950505E+03  0.13752051733E+03  0.24805432276E+03  0.12500352672E+03 0.  0.
          4    1    3    3  501    0  0.10952975073E+01  0.10441612906E+02  0.56739266700E+02  0.57716412245E+02  0.12700000000E+01 0. -1.
         -4    1    3    3    0  501 -0.12151435913E+03 -0.12221111795E+03  0.80781250629E+02  0.19033791052E+03  0.12700000000E+01 0. -1.
          2    1    1    2  502    0  0.17819470553E+03  0.11164794994E+03 -0.36180764962E+03  0.41847747028E+03  0.00000000000E+00 0. -1.
          1    1    1    2  503    0 -0.57775643907E+02  0.12155510584E+00  0.65859405605E+03  0.66112341546E+03  0.00000000000E+00 0. -1.
<mgrwt>
<rscale>  0 0.10857913E+03</rscale>
<asrwt>0</asrwt>
<pdfrwt beam="1">  1        2 0.13553555E+00 0.57775772E+02</pdfrwt>
<pdfrwt beam="2">  1        1 0.68719099E-01 0.20405489E+03</pdfrwt>
<totfact> 0.24107373E+02</totfact>
</mgrwt>
</event>
<event>
 7    1  0.4252091E-004  0.9750156E+02  0.7546771E-02  0.1380113E+00
          2   -1    0    0  503    0  0.00000000000E+00  0.00000000000E+00  0.28332141253E+03  0.28332141253E+03  0.00000000000E+00 0. -1.
          1   -1    0    0  502    0 -0.00000000000E+00 -0.00000000000E+00 -0.23451345732E+04  0.23451345732E+04  0.00000000000E+00 0. -1.
         25    2    1    2    0    0 -0.63633970441E+02 -0.74145943820E+02 -0.21680646875E+03  0.26865599329E+03  0.12499637858E+03 0.  0.
          4    1    3    3  501    0  0.29244006710E+00  0.84747741695E+01 -0.13679867878E+03  0.13706713222E+03  0.12700000000E+01 0. -1.
         -4    1    3    3    0  501 -0.63926410508E+02 -0.82620717990E+02 -0.80007789969E+02  0.13158886107E+03  0.12700000000E+01 0. -1.
          2    1    1    2  502    0  0.26139443922E+02  0.94328674773E+02 -0.20994941571E+04  0.21017746989E+04  0.00000000000E+00 0. -1.
          1    1    1    2  503    0  0.37494526519E+02 -0.20182730953E+02  0.25448746519E+03  0.25802529350E+03  0.00000000000E+00 0. -1.
<mgrwt>
<rscale>  0 0.64434154E+02</rscale>
<asrwt>0</asrwt>
<pdfrwt beam="1">  1        2 0.43587908E-01 0.42581477E+02</pdfrwt>
<pdfrwt beam="2">  1        1 0.36078995E+00 0.97501556E+02</pdfrwt>
<totfact> 0.36001848E+01</totfact>
</mgrwt>
</event>
<event>
 7    1  0.4252091E-004  0.7152393E+02  0.7546771E-02  0.1372423E+00
          1   -1    0    0  502    0 -0.00000000000E+00  0.00000000000E+00  0.15707564274E+03  0.15707564274E+03  0.00000000000E+00 0. -1.
          2   -1    0    0  503    0  0.00000000000E+00 -0.00000000000E+00 -0.90457137629E+03  0.90457137629E+03  0.00000000000E+00 0. -1.
         25    2    1    2    0    0 -0.70655114919E+02  0.47222098969E+02  0.62313622370E+02  0.16349995426E+03  0.12500870216E+03 0.  0.
          4    1    3    3  501    0 -0.68625615757E+02 -0.29094793996E+02  0.26030308057E+02  0.78963105392E+02  0.12700000000E+01 0. -1.
         -4    1    3    3    0  501 -0.20294991620E+01  0.76316892965E+02  0.36283314313E+02  0.84536848866E+02  0.12700000000E+01 0. -1.
          2    1    1    2  502    0  0.57305103930E+02  0.23206753233E+02  0.20204586765E+02  0.65043475141E+02  0.00000000000E+00 0. -1.
          1    1    1    2  503    0  0.13350010989E+02 -0.70428852202E+02 -0.83001394268E+03  0.83310358963E+03  0.00000000000E+00 0. -1.
<mgrwt>
<rscale>  0 0.66498297E+02</rscale>
<asrwt>0</asrwt>
<pdfrwt beam="2">  1        2 0.13916483E+00 0.71523931E+02</pdfrwt>
<pdfrwt beam="1">  1        1 0.24165484E-01 0.61825790E+02</pdfrwt>
<totfact> 0.83818499E+02</totfact>
</mgrwt>
</event>
<event>
 7    1  0.4252091E-004  0.7474891E+02  0.7546771E-02  0.1467138E+00
          1   -1    0    0  502    0 -0.00000000000E+00  0.00000000000E+00  0.18250369077E+04  0.18250369077E+04  0.00000000000E+00 0. -1.
          2   -1    0    0  503    0  0.00000000000E+00 -0.00000000000E+00 -0.20647996912E+03  0.20647996912E+03  0.00000000000E+00 0. -1.
         25    2    1    2    0    0  0.83463751383E+02  0.38077992818E+02  0.78208943998E+02  0.17365975852E+03  0.12499976591E+03 0.  0.
          4    1    3    3  501    0  0.54666396414E+02 -0.42637700170E+02  0.35574692193E+02  0.77933048171E+02  0.12700000000E+01 0.  1.
         -4    1    3    3    0  501  0.28797354969E+02  0.80715692987E+02  0.42634251805E+02  0.95726710351E+02  0.12700000000E+01 0.  1.
          2    1    1    2  502    0 -0.10578798934E+02 -0.26489331877E+02  0.16903987938E+04  0.16906394287E+04  0.00000000000E+00 0. -1.
          1    1    1    2  503    0 -0.72884952449E+02 -0.11588660941E+02 -0.15005079925E+03  0.16721768959E+03  0.00000000000E+00 0. -1.
<mgrwt>
<rscale>  0 0.46174754E+02</rscale>
<asrwt>0</asrwt>
<pdfrwt beam="2">  1        2 0.31766150E-01 0.74748910E+02</pdfrwt>
<pdfrwt beam="1">  1        1 0.28077490E+00 0.28523599E+02</pdfrwt>
<totfact> 0.12513961E+02</totfact>
</mgrwt>
</event>
<event>
 7    1  0.4252091E-004  0.8815617E+02  0.7546771E-02  0.1342804E+00
          2   -1    0    0  503    0  0.00000000000E+00  0.00000000000E+00  0.51114895833E+03  0.51114895833E+03  0.00000000000E+00 0. -1.
          1   -1    0    0  502    0 -0.00000000000E+00 -0.00000000000E+00 -0.21071051579E+03  0.21071051579E+03  0.00000000000E+00 0. -1.
         25    2    1    2    0    0  0.32966534837E+02  0.52629358615E+02  0.10185940446E+03  0.17278912039E+03  0.12499640011E+03 0.  0.
          4    1    3    3  501    0  0.43582490286E+00 -0.26944132677E+02 -0.12486353450E+02  0.29727060930E+02  0.12700000000E+01 0.  1.
         -4    1    3    3    0  501  0.32530709934E+02  0.79573491292E+02  0.11434575791E+03  0.14306205946E+03  0.12700000000E+01 0.  1.
          2    1    1    2  502    0 -0.49549806485E+02  0.41130928032E+02 -0.16294999018E+03  0.17521311556E+03  0.00000000000E+00 0. -1.
          1    1    1    2  503    0  0.16583271649E+02 -0.93760286647E+02  0.36152902827E+03  0.37385723817E+03  0.00000000000E+00 0. -1.
<mgrwt>
<rscale>  0 0.75345654E+02</rscale>
<asrwt>0</asrwt>
<pdfrwt beam="1">  1        2 0.78638301E-01 0.88156170E+02</pdfrwt>
<pdfrwt beam="2">  1        1 0.32417003E-01 0.64396712E+02</pdfrwt>
<totfact> 0.11299180E+03</totfact>
</mgrwt>
</event>
<event>
 7    1  0.4252091E-004  0.6326728E+02  0.7546771E-02  0.1434171E+00
         -2   -1    0    0    0  501 -0.00000000000E+00  0.00000000000E+00  0.19596019383E+02  0.19596019383E+02  0.00000000000E+00 0.  1.
          2   -1    0    0  503    0  0.00000000000E+00 -0.00000000000E+00 -0.24282417790E+04  0.24282417790E+04  0.00000000000E+00 0. -1.
         25    2    1    2    0    0  0.16434332795E+02  0.17256945635E+02 -0.31561834787E+03  0.34030625754E+03  0.12500207177E+03 0.  0.
          4    1    3    3  502    0  0.31359055838E+02  0.64973796049E+02 -0.23106165580E+03  0.24206628480E+03  0.12700000000E+01 0.  1.
         -4    1    3    3    0  502 -0.14924723043E+02 -0.47716850413E+02 -0.84556692070E+02  0.98239972746E+02  0.12700000000E+01 0.  1.
          1    1    1    2  503    0 -0.28031050654E+02 -0.58618065519E+02 -0.20312415332E+04  0.20322804884E+04  0.00000000000E+00 0. -1.
         -1    1    1    2    0  501  0.11596717858E+02  0.41361119884E+02 -0.61785878579E+02  0.75251052450E+02  0.00000000000E+00 0.  1.
<mgrwt>
<rscale>  0 0.52131711E+02</rscale>
<asrwt>0</asrwt>
<pdfrwt beam="2">  1        2 0.37357562E+00 0.63267279E+02</pdfrwt>
<pdfrwt beam="1">  1       -2 0.30147725E-02 0.42956095E+02</pdfrwt>
<totfact> 0.17993287E+03</totfact>
</mgrwt>
</event>
<event>
 7    1  0.4252091E-004  0.2199939E+03  0.7546771E-02  0.1261615E+00
         -2   -1    0    0    0  501 -0.00000000000E+00  0.00000000000E+00  0.19116929909E+04  0.19116929909E+04  0.00000000000E+00 0.  1.
          2   -1    0    0  503    0  0.00000000000E+00 -0.00000000000E+00 -0.34889252180E+03  0.34889252180E+03  0.00000000000E+00 0. -1.
         25    2    1    2    0    0  0.13777379532E+03  0.19968267208E+03  0.12426353048E+04  0.12722506520E+04  0.12499773092E+03 0.  0.
          4    1    3    3  502    0  0.19632291833E+02  0.47906613064E+02  0.91349830511E+02  0.10500892768E+03  0.12700000000E+01 0. -1.
         -4    1    3    3    0  502  0.11814150349E+03  0.15177605902E+03  0.11512854743E+04  0.11672417243E+04  0.12700000000E+01 0. -1.
          1    1    1    2  503    0 -0.30947153317E+01 -0.54352520278E+02 -0.31670726910E+03  0.32135224913E+03  0.00000000000E+00 0. -1.
         -1    1    1    2    0  501 -0.13467907999E+03 -0.14533015181E+03  0.63687243345E+03  0.66698261154E+03  0.00000000000E+00 0.  1.
<mgrwt>
<rscale>  0 0.10943761E+03</rscale>
<asrwt>0</asrwt>
<pdfrwt beam="2">  1        2 0.53675774E-01 0.54440552E+02</pdfrwt>
<pdfrwt beam="1">  1       -2 0.29410661E+00 0.21999393E+03</pdfrwt>
<totfact> 0.37893857E+00</totfact>
</mgrwt>
</event>
<event>
 7    1  0.4252091E-004  0.1405126E+03  0.7546771E-02  0.1220126E+00
          2   -1    0    0  503    0  0.00000000000E+00  0.00000000000E+00  0.36193594849E+04  0.36193594849E+04  0.00000000000E+00 0. -1.
          1   -1    0    0  502    0 -0.00000000000E+00 -0.00000000000E+00 -0.32337766857E+03  0.32337766857E+03  0.00000000000E+00 0. -1.
         25    2    1    2    0    0 -0.11644502956E+03 -0.10343203390E+03  0.78413088594E+03  0.80916168978E+03  0.12499505343E+03 0.  0.
          4    1    3    3  501    0 -0.28588390611E+02  0.65000606752E+01  0.29830264844E+02  0.41845005283E+02  0.12700000000E+01 0. -1.
         -4    1    3    3    0  501 -0.87856638949E+02 -0.10993209458E+03  0.75430062109E+03  0.76731668450E+03  0.12700000000E+01 0. -1.
          2    1    1    2  502    0 -0.77828495955E+01  0.14116189456E+03 -0.29320871698E+03  0.32551283375E+03  0.00000000000E+00 0. -1.
          1    1    1    2  503    0  0.12422787916E+03 -0.37729860657E+02  0.28050596474E+04  0.28080626299E+04  0.00000000000E+00 0. -1.
<mgrwt>
<rscale>  0 0.13506631E+03</rscale>
<asrwt>0</asrwt>
<pdfrwt beam="1">  1        2 0.55682451E+00 0.12983108E+03</pdfrwt>
<pdfrwt beam="2">  1        1 0.49750413E-01 0.14051265E+03</pdfrwt>
<totfact> 0.10543889E+01</totfact>
</mgrwt>
</event>
<event>
 7    1  0.4252091E-004  0.1102717E+03  0.7546771E-02  0.1333405E+00
          1   -1    0    0  502    0 -0.00000000000E+00  0.00000000000E+00  0.16307733497E+04  0.16307733497E+04  0.00000000000E+00 0. -1.
          2   -1    0    0  503    0  0.00000000000E+00 -0.00000000000E+00 -0.55901286421E+02  0.55901286421E+02  0.00000000000E+00 0. -1.
         25    2    1    2    0    0 -0.10675263214E+03  0.48358954518E+02  0.49625076691E+03  0.52499987189E+03  0.12500131549E+03 0.  0.
          4    1    3    3  501    0  0.22314881586E+01 -0.66213213403E+01  0.25049146774E+03  0.25059211828E+03  0.12700000000E+01 0.  1.
         -4    1    3    3    0  501 -0.10898412030E+03  0.54980275858E+02  0.24575929917E+03  0.27440775361E+03  0.12700000000E+01 0.  1.
          2    1    1    2  502    0 -0.40397801974E+01 -0.55715581287E+02  0.10438180815E+04  0.10453117875E+04  0.00000000000E+00 0. -1.
          1    1    1    2  503    0  0.11079241234E+03  0.73566267688E+01  0.34803214870E+02  0.11636297673E+03  0.00000000000E+00 0. -1.
<mgrwt>
<rscale>  0 0.78485536E+02</rscale>
<asrwt>0</asrwt>
<pdfrwt beam="2">  1        2 0.86001992E-02 0.11027168E+03</pdfrwt>
<pdfrwt beam="1">  1        1 0.25088817E+00 0.55861846E+02</pdfrwt>
<totfact> 0.68617592E+02</totfact>
</mgrwt>
</event>
<event>
 7    1  0.4252091E-004  0.9355924E+02  0.7546771E-02  0.1315965E+00
          2   -1    0    0  503    0  0.00000000000E+00  0.00000000000E+00  0.77524381183E+03  0.77524381183E+03  0.00000000000E+00 0. -1.
         -2   -1    0    0    0  501 -0.00000000000E+00 -0.00000000000E+00 -0.63553084572E+03  0.63553084572E+03  0.00000000000E+00 0.  1.
         25    2    1    2    0    0 -0.32748300318E+02  0.10794484949E+03 -0.79052690951E+02  0.18600960477E+03  0.12500281363E+03 0.  0.
          4    1    3    3  502    0 -0.44409884946E+02  0.43331249427E+02 -0.99467266255E+02  0.11723986103E+03  0.12700000000E+01 0. -1.
         -4    1    3    3    0  502  0.11661584628E+02  0.64613600065E+02  0.20414575303E+02  0.68769743741E+02  0.12700000000E+01 0. -1.
          1    1    1    2  503    0 -0.48248631463E+02 -0.59822886947E+02  0.71527702165E+03  0.71939413811E+03  0.00000000000E+00 0. -1.
         -3    1    1    2    0  501  0.80996931781E+02 -0.48121962546E+02 -0.49651136459E+03  0.50537091468E+03  0.00000000000E+00 0.  1.
<mgrwt>
<rscale>  0 0.84796849E+02</rscale>
<asrwt>0</asrwt>
<pdfrwt beam="1">  1        2 0.11926828E+00 0.76855112E+02</pdfrwt>
<pdfrwt beam="2">  1       -2 0.97773976E-01 0.93559237E+02</pdfrwt>
<totfact> 0.36483501E+01</totfact>
</mgrwt>
</event>
<event>
 7    1  0.4252091E-004  0.3198619E+02  0.7546771E-02  0.1587436E+00
          2   -1    0    0  503    0  0.00000000000E+00  0.00000000000E+00  0.31431097343E+03  0.31431097343E+03  0.00000000000E+00 0. -1.
         -2   -1    0    0    0  501 -0.00000000000E+00 -0.00000000000E+00 -0.26704402945E+03  0.26704402945E+03  0.00000000000E+00 0.  1.
         25    2    1    2    0    0 -0.70398442000E+01  0.19043326388E+02 -0.52478435821E+02  0.13708134744E+03  0.12500040761E+03 0.  0.
          4    1    3    3  502    0  0.15756924648E+02  0.68974264444E+02 -0.21089477535E+02  0.73838396466E+02  0.12700000000E+01 0. -1.
         -4    1    3    3    0  502 -0.22796768848E+02 -0.49930938056E+02 -0.31388958287E+02  0.63242950970E+02  0.12700000000E+01 0. -1.
          1    1    1    2  503    0 -0.25618401715E+02 -0.15644691202E+02  0.26960433050E+03  0.27127025987E+03  0.00000000000E+00 0. -1.
         -1    1    1    2    0  501  0.32658245915E+02 -0.33986351865E+01 -0.16985895070E+03  0.17300339557E+03  0.00000000000E+00 0.  1.
<mgrwt>
<rscale>  0 0.30986288E+02</rscale>
<asrwt>0</asrwt>
<pdfrwt beam="1">  1        2 0.48355534E-01 0.30017643E+02</pdfrwt>
<pdfrwt beam="2">  1       -2 0.41083697E-01 0.31986191E+02</pdfrwt>
<totfact> 0.56969572E+02</totfact>
</mgrwt>
</event>
<event>
 7    1  0.4252091E-004  0.3009066E+03  0.7546771E-02  0.1305332E+00
         -1   -1    0    0    0  502 -0.00000000000E+00  0.00000000000E+00  0.56692400202E+03  0.56692400202E+03  0.00000000000E+00 0.  1.
         -2   -1    0    0    0  501  0.00000000000E+00 -0.00000000000E+00 -0.19435571506E+04  0.19435571506E+04  0.00000000000E+00 0.  1.
         25    2    1    2    0    0 -0.68992174179E+02  0.31163786151E+03 -0.10780274073E+04  0.11312130493E+04  0.12498718009E+03 0.  0.
          4    1    3    3  503    0  0.35406491457E+02  0.54694966588E+02 -0.22326591034E+03  0.23258211158E+03  0.12700000000E+01 0. -1.
         -4    1    3    3    0  503 -0.10439866564E+03  0.25694289492E+03 -0.85476149697E+03  0.89863093772E+03  0.12700000000E+01 0. -1.
         -2    1    1    2    0  502  0.47499969738E+02 -0.29645514455E+03  0.49839049074E+03  0.58183758998E+03  0.00000000000E+00 0.  1.
         -1    1    1    2    0  501  0.21492204441E+02 -0.15182716954E+02 -0.79699623201E+03  0.79743051333E+03  0.00000000000E+00 0.  1.
<mgrwt>
<rscale>  0 0.88983561E+02</rscale>
<asrwt>0</asrwt>
<pdfrwt beam="2">  1       -2 0.29900879E+00 0.26314060E+02</pdfrwt>
<pdfrwt beam="1">  1       -1 0.87219078E-01 0.30090659E+03</pdfrwt>
<totfact> 0.49258862E-01</totfact>
</mgrwt>
</event>
<event>
 7    1  0.4252091E-004  0.3844681E+02  0.7546771E-02  0.1540347E+00
          1   -1    0    0  502    0 -0.00000000000E+00  0.00000000000E+00  0.83884573482E+02  0.83884573482E+02  0.00000000000E+00 0. -1.
          2   -1    0    0  503    0  0.00000000000E+00 -0.00000000000E+00 -0.71964400407E+03  0.71964400407E+03  0.00000000000E+00 0. -1.
         25    2    1    2    0    0 -0.51421727190E+02  0.40297503518E+02 -0.43693741362E+03  0.45913891198E+03  0.12500461695E+03 0.  0.
          4    1    3    3  501    0 -0.28183839373E+02 -0.70490245545E+01 -0.38151360288E+03  0.38262025512E+03  0.12700000000E+01 0. -1.
         -4    1    3    3    0  501 -0.23237887817E+02  0.47346528073E+02 -0.55423810742E+02  0.76518656861E+02  0.12700000000E+01 0. -1.
          2    1    1    2  502    0  0.17478018663E+02 -0.28707923406E+02  0.67637010485E+02  0.75527420120E+02  0.00000000000E+00 0. -1.
          1    1    1    2  503    0  0.33943708528E+02 -0.11589580112E+02 -0.26645902745E+03  0.26886224544E+03  0.00000000000E+00 0. -1.
<mgrwt>
<rscale>  0 0.35947098E+02</rscale>
<asrwt>0</asrwt>
<pdfrwt beam="2">  1        2 0.11071446E+00 0.38446811E+02</pdfrwt>
<pdfrwt beam="1">  1        1 0.12905319E-01 0.33609909E+02</pdfrwt>
<totfact> 0.23729825E+03</totfact>
</mgrwt>
</event>
<event>
 7    1  0.4252091E-004  0.1477118E+03  0.7546771E-02  0.1349208E+00
          1   -1    0    0  502    0 -0.00000000000E+00  0.00000000000E+00  0.10590110056E+04  0.10590110056E+04  0.00000000000E+00 0. -1.
          2   -1    0    0  503    0  0.00000000000E+00 -0.00000000000E+00 -0.16906675826E+04  0.16906675826E+04  0.00000000000E+00 0. -1.
         25    2    1    2    0    0 -0.15044677299E+02  0.11096854281E+03  0.39679092961E+03  0.43082579447E+03  0.12500985381E+03 0.  0.
          4    1    3    3  501    0 -0.37810065559E+02  0.94422954342E+02  0.14306444703E+03  0.17554015001E+03  0.12700000000E+01 0.  1.
         -4    1    3    3    0  501  0.22765388260E+02  0.16545588472E+02  0.25372648258E+03  0.25528564445E+03  0.12700000000E+01 0.  1.
          2    1    1    2  502    0  0.10379083278E+01  0.36362221888E+02  0.64141460738E+03  0.64244531829E+03  0.00000000000E+00 0. -1.
          1    1    1    2  503    0  0.14006768972E+02 -0.14733076470E+03 -0.16698621140E+04  0.16764074754E+04  0.00000000000E+00 0. -1.
<mgrwt>
<rscale>  0 0.73302915E+02</rscale>
<asrwt>0</asrwt>
<pdfrwt beam="2">  1        2 0.26010270E+00 0.14771182E+03</pdfrwt>
<pdfrwt beam="1">  1        1 0.16292477E+00 0.36377032E+02</pdfrwt>
<totfact> 0.26055555E+01</totfact>
</mgrwt>
</event>
<event>
 7    1  0.4252091E-004  0.3068487E+03  0.7546771E-02  0.1186653E+00
          1   -1    0    0  502    0 -0.00000000000E+00  0.00000000000E+00  0.19670879399E+03  0.19670879399E+03  0.00000000000E+00 0. -1.
          2   -1    0    0  503    0  0.00000000000E+00 -0.00000000000E+00 -0.25384265110E+04  0.25384265110E+04  0.00000000000E+00 0. -1.
         25    2    1    2    0    0  0.11774889038E+03 -0.27614674305E+03 -0.14969691009E+04  0.15318818452E+04  0.12499469442E+03 0.  0.
          4    1    3    3  501    0 -0.18707096651E+02 -0.33239588997E+02 -0.32584788872E+03  0.32807512131E+03  0.12700000000E+01 0.  1.
         -4    1    3    3    0  501  0.13645598703E+03 -0.24290715405E+03 -0.11711212122E+04  0.12038067238E+04  0.12700000000E+01 0.  1.
          2    1    1    2  502    0 -0.19467127717E+03  0.23918492892E+03  0.43031476334E+02  0.31138086700E+03  0.00000000000E+00 0. -1.
          1    1    1    2  503    0  0.76922386794E+02  0.36961814124E+02 -0.88778009241E+03  0.89187259280E+03  0.00000000000E+00 0. -1.
<mgrwt>
<rscale>  0 0.16182409E+03</rscale>
<asrwt>0</asrwt>
<pdfrwt beam="2">  1        2 0.39052715E+00 0.85341838E+02</pdfrwt>
<pdfrwt beam="1">  1        1 0.30262892E-01 0.30684873E+03</pdfrwt>
<totfact> 0.90933732E+01</totfact>
</mgrwt>
</event>
<event>
 7    1  0.4252091E-004  0.1146700E+03  0.7546771E-02  0.1442511E+00
          1   -1    0    0  502    0 -0.00000000000E+00  0.00000000000E+00  0.23304883026E+02  0.23304883026E+02  0.00000000000E+00 0. -1.
          2   -1    0    0  503    0  0.00000000000E+00 -0.00000000000E+00 -0.21848964757E+04  0.21848964757E+04  0.00000000000E+00 0. -1.
         25    2    1    2    0    0  0.89595726777E+02 -0.52835090519E+02 -0.59646972305E+03  0.61823877070E+03  0.12499642409E+03 0.  0.
          4    1    3    3  501    0  0.22566740079E+02  0.39990990121E+02 -0.12849401868E+03  0.13645828222E+03  0.12700000000E+01 0. -1.
         -4    1    3    3    0  501  0.67028986698E+02 -0.92826080640E+02 -0.46797570436E+03  0.48178048848E+03  0.12700000000E+01 0. -1.
          2    1    1    2  502    0  0.18554069606E+00 -0.22264413556E+02 -0.18796583251E+01  0.22344387478E+02  0.00000000000E+00 0. -1.
          3    1    1    2  503    0 -0.89781267473E+02  0.75099504076E+02 -0.15632422113E+04  0.15676182005E+04  0.00000000000E+00 0. -1.
<mgrwt>
<rscale>  0 0.50528695E+02</rscale>
<asrwt>0</asrwt>
<pdfrwt beam="2">  1        2 0.33613799E+00 0.11467000E+03</pdfrwt>
<pdfrwt beam="1">  1        1 0.35853659E-02 0.22265187E+02</pdfrwt>
<totfact> 0.17620923E+03</totfact>
</mgrwt>
</event>
<event>
 7    1  0.4252091E-004  0.4412574E+02  0.7546771E-02  0.1492024E+00
          1   -1    0    0  502    0 -0.00000000000E+00  0.00000000000E+00  0.82468324066E+03  0.82468324066E+03  0.00000000000E+00 0. -1.
          2   -1    0    0  503    0  0.00000000000E+00 -0.00000000000E+00 -0.12474667510E+04  0.12474667510E+04  0.00000000000E+00 0. -1.
         25    2    1    2    0    0 -0.23386456991E+02  0.30920599458E+02 -0.31868417582E+03  0.34450040996E+03  0.12497167160E+03 0.  0.
          4    1    3    3  501    0  0.37690653752E+02 -0.24485905392E+02 -0.77429162954E+02  0.89537886500E+02  0.12700000000E+01 0.  1.
         -4    1    3    3    0  501 -0.61077110742E+02  0.55406504851E+02 -0.24125501286E+03  0.25496252346E+03  0.12700000000E+01 0.  1.
          2    1    1    2  502    0 -0.21586280178E+02 -0.34297765809E+02  0.81071350057E+03  0.81172574448E+03  0.00000000000E+00 0. -1.
          1    1    1    2  503    0  0.44972737169E+02  0.33771663514E+01 -0.91481283506E+03  0.91592383718E+03  0.00000000000E+00 0. -1.
<mgrwt>
<rscale>  0 0.42287248E+02</rscale>
<asrwt>0</asrwt>
<pdfrwt beam="2">  1        2 0.19191796E+00 0.44125743E+02</pdfrwt>
<pdfrwt beam="1">  1        1 0.12687435E+00 0.40525353E+02</pdfrwt>
<totfact> 0.70606573E+01</totfact>
</mgrwt>
</event>
<event>
 7    1  0.4252091E-004  0.1044676E+03  0.7546771E-02  0.1364108E+00
          1   -1    0    0  502    0 -0.00000000000E+00  0.00000000000E+00  0.15984962227E+04  0.15984962227E+04  0.00000000000E+00 0. -1.
          2   -1    0    0  503    0  0.00000000000E+00 -0.00000000000E+00 -0.17713356481E+04  0.17713356481E+04  0.00000000000E+00 0. -1.
         25    2    1    2    0    0  0.44992729240E+02 -0.13296717735E+03 -0.47463780116E+03  0.51050183072E+03  0.12500584364E+03 0.  0.
          4    1    3    3  501    0  0.47390791774E+02 -0.40611633747E+01 -0.61779248012E+02  0.77978641806E+02  0.12700000000E+01 0. -1.
         -4    1    3    3    0  501 -0.23980625337E+01 -0.12890601397E+03 -0.41285855315E+03  0.43252318891E+03  0.12700000000E+01 0. -1.
          2    1    1    2  502    0  0.43340887422E+01  0.45145784480E+02  0.15782544460E+04  0.15789059575E+04  0.00000000000E+00 0. -1.
          1    1    1    2  503    0 -0.49326817982E+02  0.87821392865E+02 -0.12764560702E+04  0.12804240826E+04  0.00000000000E+00 0. -1.
<mgrwt>
<rscale>  0 0.68832807E+02</rscale>
<asrwt>0</asrwt>
<pdfrwt beam="2">  1        2 0.27251318E+00 0.10446760E+03</pdfrwt>
<pdfrwt beam="1">  1        1 0.24592250E+00 0.45353348E+02</pdfrwt>
<totfact> 0.10890186E+01</totfact>
</mgrwt>
</event>
<event>
 7    1  0.4252091E-004  0.8226013E+02  0.7546771E-02  0.1497169E+00
          1   -1    0    0  502    0 -0.00000000000E+00  0.00000000000E+00  0.64568530821E+03  0.64568530821E+03  0.00000000000E+00 0. -1.
          2   -1    0    0  503    0  0.00000000000E+00 -0.00000000000E+00 -0.21281723694E+04  0.21281723694E+04  0.00000000000E+00 0. -1.
         25    2    1    2    0    0  0.48346117456E+02 -0.42520279771E+02 -0.18074497315E+03  0.22897962887E+03  0.12497041191E+03 0.  0.
          4    1    3    3  501    0  0.36883594740E+02 -0.68634213469E+02 -0.18440902833E+03  0.20019829532E+03  0.12700000000E+01 0. -1.
         -4    1    3    3    0  501  0.11462522717E+02  0.26113933698E+02  0.36640551841E+01  0.28781333545E+02  0.12700000000E+01 0. -1.
          2    1    1    2  502    0  0.20692022474E+02 -0.34515407093E+01  0.62049639268E+03  0.62085090502E+03  0.00000000000E+00 0. -1.
          3    1    1    2  503    0 -0.69038139931E+02  0.45971820481E+02 -0.19222384807E+04  0.19240271437E+04  0.00000000000E+00 0. -1.
<mgrwt>
<rscale>  0 0.41540896E+02</rscale>
<asrwt>0</asrwt>
<pdfrwt beam="2">  1        2 0.32741113E+00 0.82260131E+02</pdfrwt>
<pdfrwt beam="1">  1        1 0.99336202E-01 0.20977915E+02</pdfrwt>
<totfact> 0.34779234E+01</totfact>
</mgrwt>
</event>
<event>
 7    1  0.4252091E-004  0.2573633E+03  0.7546771E-02  0.1138731E+00
          1   -1    0    0  502    0 -0.00000000000E+00  0.00000000000E+00  0.11481579702E+04  0.11481579702E+04  0.00000000000E+00 0. -1.
          2   -1    0    0  503    0  0.00000000000E+00 -0.00000000000E+00 -0.13636491249E+04  0.13636491249E+04  0.00000000000E+00 0. -1.
         25    2    1    2    0    0  0.18623735002E+03  0.17996975459E+03  0.25006753520E+03  0.38109358810E+03  0.12500035048E+03 0.  0.
          4    1    3    3  501    0  0.18737999987E+03  0.11442012649E+03  0.21235828622E+03  0.30545193455E+03  0.12700000000E+01 0.  1.
         -4    1    3    3    0  501 -0.11426498421E+01  0.65549628104E+02  0.37709248988E+02  0.75641653554E+02  0.12700000000E+01 0.  1.
          2    1    1    2  502    0 -0.33413839846E+02 -0.26988216596E+03  0.80404499309E+03  0.84878808846E+03  0.00000000000E+00 0. -1.
          1    1    1    2  503    0 -0.15282351018E+03  0.89912411370E+02 -0.12696036830E+04  0.12819254186E+04  0.00000000000E+00 0. -1.
<mgrwt>
<rscale>  0 0.21361974E+03</rscale>
<asrwt>0</asrwt>
<pdfrwt beam="2">  1        2 0.20979217E+00 0.17731122E+03</pdfrwt>
<pdfrwt beam="1">  1        1 0.17663969E+00 0.25736326E+03</pdfrwt>
<totfact> 0.28762638E+01</totfact>
</mgrwt>
</event>
<event>
 7    1  0.4252091E-004  0.7014016E+02  0.7546771E-02  0.1393571E+00
          1   -1    0    0  502    0 -0.00000000000E+00  0.00000000000E+00  0.80567356847E+03  0.80567356847E+03  0.00000000000E+00 0. -1.
          2   -1    0    0  503    0  0.00000000000E+00 -0.00000000000E+00 -0.16195095469E+03  0.16195095469E+03  0.00000000000E+00 0. -1.
         25    2    1    2    0    0  0.17040799786E+02 -0.55468721108E+02  0.24743244496E+02  0.14001589472E+03  0.12500021899E+03 0.  0.
          4    1    3    3  501    0  0.57105118034E+02  0.63493468044E+01  0.32345576123E+02  0.65948145578E+02  0.12700000000E+01 0.  1.
         -4    1    3    3    0  501 -0.40064318247E+02 -0.61818067913E+02 -0.76023316273E+01  0.74067749144E+02  0.12700000000E+01 0.  1.
          2    1    1    2  502    0  0.35720556568E+02  0.61439540385E+02  0.71465837820E+03  0.71818338384E+03  0.00000000000E+00 0. -1.
          1    1    1    2  503    0 -0.52761356355E+02 -0.59708192769E+01 -0.95679008923E+02  0.10942524460E+03  0.00000000000E+00 0. -1.
<mgrwt>
<rscale>  0 0.61027137E+02</rscale>
<asrwt>0</asrwt>
<pdfrwt beam="2">  1        2 0.24915532E-01 0.53098130E+02</pdfrwt>
<pdfrwt beam="1">  1        1 0.12394978E+00 0.70140163E+02</pdfrwt>
<totfact> 0.68398942E+02</totfact>
</mgrwt>
</event>
<event>
 7    1  0.4252091E-004  0.9443195E+02  0.7546771E-02  0.1355155E+00
          1   -1    0    0  503    0  0.00000000000E+00  0.00000000000E+00  0.37955325484E+03  0.37955325484E+03  0.00000000000E+00 0. -1.
         -1   -1    0    0    0  501 -0.00000000000E+00 -0.00000000000E+00 -0.87611189974E+03  0.87611189974E+03  0.00000000000E+00 0.  1.
         25    2    1    2    0    0  0.43115881453E+02 -0.12995794662E+03 -0.48782240188E+03  0.52186596474E+03  0.12500136899E+03 0.  0.
          4    1    3    3  502    0  0.38472978930E+02 -0.70871104738E+02 -0.43516008808E+03  0.44257067092E+03  0.12700000000E+01 0. -1.
         -4    1    3    3    0  502  0.46429025226E+01 -0.59086841883E+02 -0.52662313800E+02  0.79295293822E+02  0.12700000000E+01 0. -1.
          2    1    1    2  503    0 -0.17679133053E+02  0.51125146587E+02  0.35584129920E+03  0.35992966337E+03  0.00000000000E+00 0. -1.
         -2    1    1    2    0  501 -0.25436748400E+02  0.78832800034E+02 -0.36457754222E+03  0.37386952646E+03  0.00000000000E+00 0.  1.
<mgrwt>
<rscale>  0 0.71472734E+02</rscale>
<asrwt>0</asrwt>
<pdfrwt beam="1">  1        1 0.58392808E-01 0.54095585E+02</pdfrwt>
<pdfrwt beam="2">  1       -1 0.13478645E+00 0.94431951E+02</pdfrwt>
<totfact> 0.35357137E+01</totfact>
</mgrwt>
</event>
<event>
 7    1  0.4252091E-004  0.5587448E+02  0.7546771E-02  0.1522292E+00
          2   -1    0    0  503    0  0.00000000000E+00  0.00000000000E+00  0.80619395249E+03  0.80619395249E+03  0.00000000000E+00 0. -1.
          1   -1    0    0  502    0 -0.00000000000E+00 -0.00000000000E+00 -0.45450771064E+02  0.45450771064E+02  0.00000000000E+00 0. -1.
         25    2    1    2    0    0 -0.16480649990E+02  0.73936668068E+02  0.22254338256E+03  0.26624014517E+03  0.12498005868E+03 0.  0.
          4    1    3    3  501    0 -0.58306200442E+02  0.63462776062E+02  0.81031165587E+02  0.11829961814E+03  0.12700000000E+01 0.  1.
         -4    1    3    3    0  501  0.41825550452E+02  0.10473892006E+02  0.14151221697E+03  0.14794052703E+03  0.12700000000E+01 0.  1.
          2    1    1    2  502    0  0.17621696941E+02 -0.19180941383E+02 -0.14626175040E+02  0.29872356983E+02  0.00000000000E+00 0. -1.
          1    1    1    2  503    0 -0.11410469513E+01 -0.54755726684E+02  0.55282597391E+03  0.55553222140E+03  0.00000000000E+00 0. -1.
<mgrwt>
<rscale>  0 0.38149026E+02</rscale>
<asrwt>0</asrwt>
<pdfrwt beam="1">  1        2 0.12402983E+00 0.55874484E+02</pdfrwt>
<pdfrwt beam="2">  1        1 0.69924269E-02 0.26046741E+02</pdfrwt>
<totfact> 0.43406639E+03</totfact>
</mgrwt>
</event>
<event>
 7    1  0.4252091E-004  0.4264599E+02  0.7546771E-02  0.1505186E+00
          2   -1    0    0  503    0  0.00000000000E+00  0.00000000000E+00  0.19204715934E+02  0.19204715934E+02  0.00000000000E+00 0. -1.
         -2   -1    0    0    0  501 -0.00000000000E+00 -0.00000000000E+00 -0.67852841449E+03  0.67852841449E+03  0.00000000000E+00 0.  1.
         25    2    1    2    0    0 -0.21580963633E+02  0.84542022781E+01 -0.44786680603E+03  0.46556150126E+03  0.12500249592E+03 0.  0.
          4    1    3    3  502    0 -0.68187749524E+02 -0.12355435894E+02 -0.18022028930E+03  0.19308855885E+03  0.12700000000E+01 0. -1.
         -4    1    3    3    0  502  0.46606785890E+02  0.20809638172E+02 -0.26764651673E+03  0.27247294242E+03  0.12700000000E+01 0. -1.
          1    1    1    2  503    0 -0.10508779170E+02  0.36829070212E+02 -0.63600284557E+02  0.74241572236E+02  0.00000000000E+00 0. -1.
         -1    1    1    2    0  501  0.32089742803E+02 -0.45283272490E+02 -0.14785660797E+03  0.15793005693E+03  0.00000000000E+00 0.  1.
<mgrwt>
<rscale>  0 0.40414099E+02</rscale>
<asrwt>0</asrwt>
<pdfrwt beam="1">  1        2 0.29545720E-02 0.38299019E+02</pdfrwt>
<pdfrwt beam="2">  1       -2 0.10438897E+00 0.42645986E+02</pdfrwt>
<totfact> 0.21018273E+03</totfact>
</mgrwt>
</event>
<event>
 7    1  0.4252091E-004  0.1383170E+03  0.7546771E-02  0.1277429E+00
          1   -1    0    0  502    0 -0.00000000000E+00  0.00000000000E+00  0.38836195411E+03  0.38836195411E+03  0.00000000000E+00 0. -1.
          2   -1    0    0  503    0  0.00000000000E+00 -0.00000000000E+00 -0.24421993557E+04  0.24421993557E+04  0.00000000000E+00 0. -1.
         25    2    1    2    0    0  0.14341202910E+03 -0.10419096886E+01 -0.19935134455E+04  0.20025705539E+04  0.12499948059E+03 0.  0.
          4    1    3    3  501    0  0.38453039508E+02  0.55657025999E+02 -0.55261093882E+03  0.55673764323E+03  0.12700000000E+01 0. -1.
         -4    1    3    3    0  501  0.10495898960E+03 -0.56698935688E+02 -0.14409025067E+04  0.14458329106E+04  0.12700000000E+01 0. -1.
          2    1    1    2  502    0 -0.11975690301E+03 -0.69392935819E+02  0.36805313185E+03  0.39321775548E+03  0.00000000000E+00 0. -1.
          1    1    1    2  503    0 -0.23655126097E+02  0.70434845507E+02 -0.42837708797E+03  0.43477300048E+03  0.00000000000E+00 0. -1.
<mgrwt>
<rscale>  0 0.10137596E+03</rscale>
<asrwt>0</asrwt>
<pdfrwt beam="2">  1        2 0.37572298E+00 0.74300959E+02</pdfrwt>
<pdfrwt beam="1">  1        1 0.59747992E-01 0.13831700E+03</pdfrwt>
<totfact> 0.44285185E+01</totfact>
</mgrwt>
</event>
<event>
 7    1  0.4252091E-004  0.2060050E+03  0.7546771E-02  0.1319040E+00
          1   -1    0    0  502    0 -0.00000000000E+00  0.00000000000E+00  0.37792054300E+03  0.37792054300E+03  0.00000000000E+00 0. -1.
          2   -1    0    0  503    0  0.00000000000E+00 -0.00000000000E+00 -0.23329078333E+03  0.23329078333E+03  0.00000000000E+00 0. -1.
         25    2    1    2    0    0  0.19778948116E+03 -0.11325827030E+03 -0.36734962842E+01  0.25996955263E+03  0.12499023591E+03 0.  0.
          4    1    3    3  501    0  0.20566395510E+03 -0.92116219754E+02  0.21217979743E+02  0.22635122251E+03  0.12700000000E+01 0.  1.
         -4    1    3    3    0  501 -0.78744739414E+01 -0.21142050551E+02 -0.24891476028E+02  0.33618330122E+02  0.12700000000E+01 0.  1.
          2    1    1    2  502    0 -0.16383809007E+03  0.11374735457E+03  0.20445132429E+03  0.28562514671E+03  0.00000000000E+00 0. -1.
          1    1    1    2  503    0 -0.33951391082E+02 -0.48908426486E+00 -0.56148068329E+02  0.65616626985E+02  0.00000000000E+00 0. -1.
<mgrwt>
<rscale>  0 0.83635405E+02</rscale>
<asrwt>0</asrwt>
<pdfrwt beam="2">  1        2 0.35890890E-01 0.33954914E+02</pdfrwt>
<pdfrwt beam="1">  1        1 0.58141622E-01 0.20600497E+03</pdfrwt>
<totfact> 0.12327784E+03</totfact>
</mgrwt>
</event>
<event>
 7    1  0.4252091E-004  0.6648845E+02  0.7546771E-02  0.1512266E+00
          1   -1    0    0  502    0 -0.00000000000E+00  0.00000000000E+00  0.11621144876E+04  0.11621144876E+04  0.00000000000E+00 0. -1.
          2   -1    0    0  503    0  0.00000000000E+00 -0.00000000000E+00 -0.14296526259E+03  0.14296526259E+03  0.00000000000E+00 0. -1.
         25    2    1    2    0    0  0.63799332397E+02 -0.61518551931E+02  0.36079443493E+03  0.39198544228E+03  0.12500030255E+03 0.  0.
          4    1    3    3  501    0  0.21895868854E+01 -0.78418451967E+02  0.26851123036E+03  0.27973941736E+03  0.12700000000E+01 0.  1.
         -4    1    3    3    0  501  0.61609745511E+02  0.16899900036E+02  0.92283204576E+02  0.11224602492E+03  0.12700000000E+01 0.  1.
          2    1    1    2  502    0 -0.12864053874E+02  0.19561388706E+02  0.77698880880E+03  0.77734145702E+03  0.00000000000E+00 0. -1.
          1    1    1    2  503    0 -0.50935278523E+02  0.41957163225E+02 -0.11863401868E+03  0.13575285092E+03  0.00000000000E+00 0. -1.
<mgrwt>
<rscale>  0 0.39454302E+02</rscale>
<asrwt>0</asrwt>
<pdfrwt beam="2">  1        2 0.21994656E-01 0.66488452E+02</pdfrwt>
<pdfrwt beam="1">  1        1 0.17878684E+00 0.23412215E+02</pdfrwt>
<totfact> 0.47756337E+02</totfact>
</mgrwt>
</event>
<event>
 7    1  0.4252091E-004  0.8252844E+02  0.7546771E-02  0.1352137E+00
          2   -1    0    0  503    0  0.00000000000E+00  0.00000000000E+00  0.22344706299E+04  0.22344706299E+04  0.00000000000E+00 0. -1.
          1   -1    0    0  502    0 -0.00000000000E+00 -0.00000000000E+00 -0.76514327032E+03  0.76514327032E+03  0.00000000000E+00 0. -1.
         25    2    1    2    0    0 -0.14695971575E+02 -0.55357636063E+02 -0.11519502672E+03  0.17937418660E+03  0.12499906074E+03 0.  0.
          4    1    3    3  501    0 -0.67960808139E+02 -0.43787551818E+02 -0.83852792690E+02  0.11648572822E+03  0.12700000000E+01 0. -1.
         -4    1    3    3    0  501  0.53264836564E+02 -0.11570084245E+02 -0.31342234027E+02  0.62888458380E+02  0.12700000000E+01 0. -1.
          2    1    1    2  502    0  0.76457833953E+02  0.40587220945E+02 -0.61436612400E+03  0.62043441007E+03  0.00000000000E+00 0. -1.
          1    1    1    2  503    0 -0.61761862378E+02  0.14770415118E+02  0.21988885103E+04  0.21998053035E+04  0.00000000000E+00 0. -1.
<mgrwt>
<rscale>  0 0.72393672E+02</rscale>
<asrwt>0</asrwt>
<pdfrwt beam="1">  1        2 0.34376471E+00 0.63503487E+02</pdfrwt>
<pdfrwt beam="2">  1        1 0.11771435E+00 0.82528442E+02</pdfrwt>
<totfact> 0.23773065E+01</totfact>
</mgrwt>
</event>
<event>
 7    1  0.4252091E-004  0.1204814E+03  0.7546771E-02  0.1406382E+00
          2   -1    0    0  503    0  0.00000000000E+00  0.00000000000E+00  0.17168779079E+04  0.17168779079E+04  0.00000000000E+00 0. -1.
         -2   -1    0    0    0  501 -0.00000000000E+00 -0.00000000000E+00 -0.92324219852E+02  0.92324219852E+02  0.00000000000E+00 0.  1.
         25    2    1    2    0    0 -0.98332256355E+02 -0.19470305786E+01  0.37491214261E+03  0.40725538293E+03  0.12499923472E+03 0.  0.
          4    1    3    3  502    0 -0.62692092663E+02 -0.62646308601E+02  0.20610990068E+03  0.22436078651E+03  0.12700000000E+01 0.  1.
         -4    1    3    3    0  502 -0.35640163692E+02  0.60699278022E+02  0.16880224192E+03  0.18289459642E+03  0.12700000000E+01 0.  1.
          1    1    1    2  503    0 -0.23977844165E+02 -0.14322831175E+02  0.12755606042E+04  0.12758663470E+04  0.00000000000E+00 0. -1.
         -1    1    1    2    0  501  0.12231010052E+03  0.16269861754E+02 -0.25919058792E+02  0.12608039776E+03  0.00000000000E+00 0.  1.
<mgrwt>
<rscale>  0 0.58008934E+02</rscale>
<asrwt>0</asrwt>
<pdfrwt beam="1">  1        2 0.26413504E+00 0.27929921E+02</pdfrwt>
<pdfrwt beam="2">  1       -2 0.14203727E-01 0.12048142E+03</pdfrwt>
<totfact> 0.47220836E+02</totfact>
</mgrwt>
</event>
<event>
 7    1  0.4252091E-004  0.8007037E+02  0.7546771E-02  0.1437172E+00
          2   -1    0    0  503    0  0.00000000000E+00  0.00000000000E+00  0.45994560205E+03  0.45994560205E+03  0.00000000000E+00 0. -1.
          1   -1    0    0  502    0 -0.00000000000E+00 -0.00000000000E+00 -0.44612169470E+03  0.44612169470E+03  0.00000000000E+00 0. -1.
         25    2    1    2    0    0 -0.35934159642E+00 -0.49479602403E+02 -0.19813844544E+02  0.13588792786E+03  0.12499832128E+03 0.  0.
          4    1    3    3  501    0 -0.63997064191E+01  0.21921353849E+02 -0.52389580282E+02  0.57164525879E+02  0.12700000000E+01 0.  1.
         -4    1    3    3    0  501  0.60403648226E+01 -0.71400956253E+02  0.32575735738E+02  0.78723401984E+02  0.12700000000E+01 0.  1.
          2    1    1    2  502    0  0.46627566103E+01  0.82383886120E+02 -0.36294694799E+03  0.37220872242E+03  0.00000000000E+00 0. -1.
          1    1    1    2  503    0 -0.43034150138E+01 -0.32904283717E+02  0.39658469988E+03  0.39797064647E+03  0.00000000000E+00 0. -1.
<mgrwt>
<rscale>  0 0.51547021E+02</rscale>
<asrwt>0</asrwt>
<pdfrwt beam="1">  1        2 0.70760863E-01 0.33184503E+02</pdfrwt>
<pdfrwt beam="2">  1        1 0.68634106E-01 0.80070366E+02</pdfrwt>
<totfact> 0.51149057E+02</totfact>
</mgrwt>
</event>
<event>
 7    1  0.4252091E-004  0.6346843E+02  0.7546771E-02  0.1385417E+00
          2   -1    0    0  503    0  0.00000000000E+00  0.00000000000E+00  0.11692244732E+03  0.11692244732E+03  0.00000000000E+00 0. -1.
          1   -1    0    0  502    0 -0.00000000000E+00 -0.00000000000E+00 -0.80871718091E+03  0.80871718091E+03  0.00000000000E+00 0. -1.
         25    2    1    2    0    0 -0.22410293586E+02  0.54693717757E+01 -0.31393828689E+03  0.33870274262E+03  0.12502065669E+03 0.  0.
          4    1    3    3  501    0 -0.45849397224E+02 -0.11077237227E+02 -0.30499467700E+03  0.30862313314E+03  0.12700000000E+01 0. -1.
         -4    1    3    3    0  501  0.23439103638E+02  0.16546609002E+02 -0.89436098880E+01  0.30079609483E+02  0.12700000000E+01 0. -1.
          2    1    1    2  502    0  0.33507341198E+02 -0.67134997801E+02 -0.46975592761E+03  0.47571050164E+03  0.00000000000E+00 0. -1.
          1    1    1    2  503    0 -0.11097047612E+02  0.61665626026E+02  0.91899480912E+02  0.11122638397E+03  0.00000000000E+00 0. -1.
<mgrwt>
<rscale>  0 0.63060984E+02</rscale>
<asrwt>0</asrwt>
<pdfrwt beam="1">  1        2 0.17988069E-01 0.62656156E+02</pdfrwt>
<pdfrwt beam="2">  1        1 0.12441803E+00 0.63468427E+02</pdfrwt>
<totfact> 0.98270461E+02</totfact>
</mgrwt>
</event>
<event>
 7    1  0.4252091E-004  0.8695074E+02  0.7546771E-02  0.1377253E+00
          1   -1    0    0  502    0 -0.00000000000E+00  0.00000000000E+00  0.82956676643E+02  0.82956676643E+02  0.00000000000E+00 0. -1.
          2   -1    0    0  503    0  0.00000000000E+00 -0.00000000000E+00 -0.84712097791E+03  0.84712097791E+03  0.00000000000E+00 0. -1.
         25    2    1    2    0    0 -0.23047284832E+02  0.36097766049E+02 -0.33508657780E+03  0.36019885525E+03  0.12500389854E+03 0.  0.
          4    1    3    3  501    0 -0.65974130260E+00 -0.31404322156E+02 -0.20174119155E+02  0.37353375916E+02  0.12700000000E+01 0.  1.
         -4    1    3    3    0  501 -0.22387543529E+02  0.67502088205E+02 -0.31491245865E+03  0.32284547934E+03  0.12700000000E+01 0.  1.
          2    1    1    2  502    0  0.59901365210E+02 -0.68203384595E+02  0.39329988771E+02  0.98927868879E+02  0.00000000000E+00 0. -1.
          1    1    1    2  503    0 -0.36854080378E+02  0.32105618545E+02 -0.46840771224E+03  0.47095093042E+03  0.00000000000E+00 0. -1.
<mgrwt>
<rscale>  0 0.65191414E+02</rscale>
<asrwt>0</asrwt>
<pdfrwt beam="2">  1        2 0.13032632E+00 0.48877336E+02</pdfrwt>
<pdfrwt beam="1">  1        1 0.12762565E-01 0.86950737E+02</pdfrwt>
<totfact> 0.20932080E+03</totfact>
</mgrwt>
</event>
<event>
 7    1  0.4252091E-004  0.9756313E+02  0.7546771E-02  0.1376704E+00
          2   -1    0    0  503    0  0.00000000000E+00  0.00000000000E+00  0.40545177102E+03  0.40545177102E+03  0.00000000000E+00 0. -1.
          1   -1    0    0  502    0 -0.00000000000E+00 -0.00000000000E+00 -0.45776827285E+03  0.45776827285E+03  0.00000000000E+00 0. -1.
         25    2    1    2    0    0 -0.11174717770E+02  0.12149380145E+03 -0.16310821593E+03  0.23900521774E+03  0.12503433887E+03 0.  0.
          4    1    3    3  501    0  0.18881353841E+02  0.11797519512E+03 -0.17014780390E+03  0.20790993305E+03  0.12700000000E+01 0. -1.
         -4    1    3    3    0  501 -0.30056071611E+02  0.35186063277E+01  0.70395879758E+01  0.31095284691E+02  0.12700000000E+01 0. -1.
          2    1    1    2  502    0 -0.28658892925E+02 -0.33065865907E+02 -0.24836680558E+03  0.25219189865E+03  0.00000000000E+00 0. -1.
          1    1    1    2  503    0  0.39833610695E+02 -0.88427935541E+02  0.35915851967E+03  0.37202292749E+03  0.00000000000E+00 0. -1.
<mgrwt>
<rscale>  0 0.65338191E+02</rscale>
<asrwt>0</asrwt>
<pdfrwt beam="1">  1        2 0.62377195E-01 0.97563125E+02</pdfrwt>
<pdfrwt beam="2">  1        1 0.70425888E-01 0.43757098E+02</pdfrwt>
<totfact> 0.56735535E+02</totfact>
</mgrwt>
</event>
<event>
 7    1  0.4252091E-004  0.1682137E+03  0.7546771E-02  0.1391001E+00
         -2   -1    0    0    0  501 -0.00000000000E+00  0.00000000000E+00  0.46587885300E+03  0.46587885300E+03  0.00000000000E+00 0.  1.
          2   -1    0    0  503    0  0.00000000000E+00 -0.00000000000E+00 -0.42449931865E+03  0.42449931865E+03  0.00000000000E+00 0. -1.
         25    2    1    2    0    0  0.14546758655E+03 -0.98813954147E+02 -0.63864827249E+02  0.22500892077E+03  0.12500112798E+03 0.  0.
          4    1    3    3  502    0  0.14218706911E+03 -0.29350533401E+02 -0.32879233159E+02  0.14886662925E+03  0.12700000000E+01 0. -1.
         -4    1    3    3    0  502  0.32805174425E+01 -0.69463420746E+02 -0.30985594090E+02  0.76142291518E+02  0.12700000000E+01 0. -1.
          1    1    1    2  503    0 -0.19498366598E+02 -0.11428597476E+02 -0.26137033859E+03  0.26234567470E+03  0.00000000000E+00 0. -1.
         -1    1    1    2    0  501 -0.12596921995E+03  0.11024255162E+03  0.36661470019E+03  0.40302357618E+03  0.00000000000E+00 0.  1.
<mgrwt>
<rscale>  0 0.61658545E+02</rscale>
<asrwt>0</asrwt>
<pdfrwt beam="2">  1        2 0.65307587E-01 0.22600866E+02</pdfrwt>
<pdfrwt beam="1">  1       -2 0.71673670E-01 0.16821374E+03</pdfrwt>
<totfact> 0.13980499E+02</totfact>
</mgrwt>
</event>
<event>
 7    1  0.4252091E-004  0.8698999E+02  0.7546771E-02  0.1319249E+00
          2   -1    0    0  503    0  0.00000000000E+00  0.00000000000E+00  0.19304102624E+04  0.19304102624E+04  0.00000000000E+00 0. -1.
         -2   -1    0    0    0  501 -0.00000000000E+00 -0.00000000000E+00 -0.56570440876E+03  0.56570440876E+03  0.00000000000E+00 0.  1.
         25    2    1    2    0    0 -0.35897145625E+02  0.47310486721E+02  0.51731829030E+03  0.53550945602E+03  0.12500110717E+03 0.  0.
          4    1    3    3  502    0 -0.63359058636E+02  0.64265936883E+02  0.24164438046E+03  0.25794980222E+03  0.12700000000E+01 0.  1.
         -4    1    3    3    0  502  0.27461913011E+02 -0.16955450161E+02  0.27567390984E+03  0.27755965381E+03  0.12700000000E+01 0.  1.
          1    1    1    2  503    0 -0.31295765918E+02 -0.91205961096E+02  0.13994354083E+04  0.14027535116E+04  0.00000000000E+00 0. -1.
         -1    1    1    2    0  501  0.67192911543E+02  0.43895474374E+02 -0.55204784495E+03  0.55785170354E+03  0.00000000000E+00 0.  1.
<mgrwt>
<rscale>  0 0.83557373E+02</rscale>
<asrwt>0</asrwt>
<pdfrwt beam="1">  1        2 0.29698619E+00 0.86989994E+02</pdfrwt>
<pdfrwt beam="2">  1       -2 0.87031448E-01 0.80260202E+02</pdfrwt>
<totfact> 0.11187892E+01</totfact>
</mgrwt>
</event>
<event>
 7    1  0.4252091E-004  0.5978123E+02  0.7546771E-02  0.1477862E+00
          1   -1    0    0  503    0  0.00000000000E+00  0.00000000000E+00  0.34482363473E+04  0.34482363473E+04  0.00000000000E+00 0. -1.
         -1   -1    0    0    0  501 -0.00000000000E+00 -0.00000000000E+00 -0.21204258873E+02  0.21204258873E+02  0.00000000000E+00 0.  1.
         25    2    1    2    0    0 -0.37370353620E+02 -0.63418252746E+02  0.77723713410E+03  0.79065820627E+03  0.12499767364E+03 0.  0.
          4    1    3    3  502    0  0.81782521399E+01  0.78378523645E+01  0.29620506321E+01  0.11777197532E+02  0.12700000000E+01 0. -1.
         -4    1    3    3    0  502 -0.45548605760E+02 -0.71256105110E+02  0.77427508347E+03  0.77888100874E+03  0.12700000000E+01 0. -1.
          2    1    1    2  503    0  0.49619502697E+02  0.32735867844E+02  0.26446843451E+04  0.26453523427E+04  0.00000000000E+00 0. -1.
         -2    1    1    2    0  501 -0.12249149077E+02  0.30682384901E+02  0.51106092687E+01  0.33430057186E+02  0.00000000000E+00 0.  1.
<mgrwt>
<rscale>  0 0.44440957E+02</rscale>
<asrwt>0</asrwt>
<pdfrwt beam="1">  1        1 0.53049745E+00 0.59781225E+02</pdfrwt>
<pdfrwt beam="2">  1       -1 0.32621964E-02 0.33037106E+02</pdfrwt>
<totfact> 0.11927360E+02</totfact>
</mgrwt>
</event>
<event>
 7    1  0.4252091E-004  0.6618816E+02  0.7546771E-02  0.1396427E+00
         -1   -1    0    0    0  501 -0.00000000000E+00  0.00000000000E+00  0.11592845496E+03  0.11592845496E+03  0.00000000000E+00 0.  1.
          1   -1    0    0  503    0  0.00000000000E+00 -0.00000000000E+00 -0.72501753933E+03  0.72501753933E+03  0.00000000000E+00 0. -1.
         25    2    1    2    0    0  0.10542876023E+02 -0.63917690151E+02 -0.16578834356E+03  0.21749832466E+03  0.12499249186E+03 0.  0.
          4    1    3    3  502    0 -0.53084649332E+02 -0.17794417089E+02 -0.10163827457E+03  0.11604556446E+03  0.12700000000E+01 0.  1.
         -4    1    3    3    0  502  0.63627525356E+02 -0.46123273061E+02 -0.64150068989E+02  0.10145276020E+03  0.12700000000E+01 0.  1.
          2    1    1    2  503    0  0.47102455230E+02  0.28399115387E+02 -0.51898790247E+03  0.52189423636E+03  0.00000000000E+00 0. -1.
         -2    1    1    2    0  501 -0.57645331253E+02  0.35518574764E+02  0.75687161656E+02  0.10155343327E+03  0.00000000000E+00 0.  1.
<mgrwt>
<rscale>  0 0.60336054E+02</rscale>
<asrwt>0</asrwt>
<pdfrwt beam="2">  1        1 0.11154116E+00 0.55001373E+02</pdfrwt>
<pdfrwt beam="1">  1       -1 0.17835147E-01 0.66188156E+02</pdfrwt>
<totfact> 0.66380310E+02</totfact>
</mgrwt>
</event>
<event>
 7    1  0.4252091E-004  0.2483841E+03  0.7546771E-02  0.1256333E+00
         -1   -1    0    0    0  501 -0.00000000000E+00  0.00000000000E+00  0.50079908558E+03  0.50079908558E+03  0.00000000000E+00 0.  1.
          1   -1    0    0  503    0  0.00000000000E+00 -0.00000000000E+00 -0.57048981632E+03  0.57048981632E+03  0.00000000000E+00 0. -1.
         25    2    1    2    0    0  0.22137683089E+03 -0.19108060749E+03 -0.14038247176E+03  0.34764042622E+03  0.12500851073E+03 0.  0.
          4    1    3    3  502    0  0.23218158172E+03 -0.15576322594E+03 -0.11263449487E+03  0.30142762279E+03  0.12700000000E+01 0. -1.
         -4    1    3    3    0  502 -0.10804750834E+02 -0.35317381543E+02 -0.27747976883E+02  0.46212803428E+02  0.12700000000E+01 0. -1.
          2    1    1    2  503    0 -0.39915850331E+02  0.31408396168E+02 -0.28726838838E+03  0.29172399528E+03  0.00000000000E+00 0. -1.
         -2    1    1    2    0  501 -0.18146098056E+03  0.15967221132E+03  0.35796012940E+03  0.43192448041E+03  0.00000000000E+00 0.  1.
<mgrwt>
<rscale>  0 0.11231992E+03</rscale>
<asrwt>0</asrwt>
<pdfrwt beam="2">  1        1 0.87767664E-01 0.50791362E+02</pdfrwt>
<pdfrwt beam="1">  1       -1 0.77046013E-01 0.24838408E+03</pdfrwt>
<totfact> 0.71134179E+01</totfact>
</mgrwt>
</event>
<event>
 7    1  0.4252091E-004  0.7547939E+02  0.7546771E-02  0.1358570E+00
          2   -1    0    0  503    0  0.00000000000E+00  0.00000000000E+00  0.67053080695E+03  0.67053080695E+03  0.00000000000E+00 0. -1.
          1   -1    0    0  502    0 -0.00000000000E+00 -0.00000000000E+00 -0.12155216474E+04  0.12155216474E+04  0.00000000000E+00 0. -1.
         25    2    1    2    0    0  0.13693670084E+02 -0.40810754870E+02 -0.53786351129E+03  0.55387040362E+03  0.12498893118E+03 0.  0.
          4    1    3    3  501    0  0.69060951002E+02 -0.20640403599E+02 -0.33191857772E+03  0.33965717473E+03  0.12700000000E+01 0.  1.
         -4    1    3    3    0  501 -0.55367280918E+02 -0.20170351270E+02 -0.20594493357E+03  0.21421322889E+03  0.12700000000E+01 0.  1.
          2    1    1    2  502    0  0.60492004828E+02  0.25777927908E+02 -0.66586798077E+03  0.66910683156E+03  0.00000000000E+00 0. -1.
          1    1    1    2  503    0 -0.74185674913E+02  0.15032826962E+02  0.65874065159E+03  0.66307521919E+03  0.00000000000E+00 0. -1.
<mgrwt>
<rscale>  0 0.70449871E+02</rscale>
<asrwt>0</asrwt>
<pdfrwt beam="1">  1        2 0.10315859E+00 0.75479393E+02</pdfrwt>
<pdfrwt beam="2">  1        1 0.18700333E+00 0.65755488E+02</pdfrwt>
<totfact> 0.78367699E+01</totfact>
</mgrwt>
</event>
<event>
 7    1  0.4252091E-004  0.7701896E+02  0.7546771E-02  0.1396818E+00
          1   -1    0    0  502    0 -0.00000000000E+00  0.00000000000E+00  0.17271242874E+04  0.17271242874E+04  0.00000000000E+00 0. -1.
          2   -1    0    0  503    0  0.00000000000E+00 -0.00000000000E+00 -0.11600478542E+03  0.11600478542E+03  0.00000000000E+00 0. -1.
         25    2    1    2    0    0  0.96364330530E+01  0.11602467826E+03  0.73042362810E+02  0.18577709170E+03  0.12499341675E+03 0.  0.
          4    1    3    3  501    0 -0.20883490697E+02  0.36668689735E+02  0.89691268028E+02  0.99130466816E+02  0.12700000000E+01 0.  1.
         -4    1    3    3    0  501  0.30519923750E+02  0.79355988520E+02 -0.16648905218E+02  0.86646624889E+02  0.12700000000E+01 0.  1.
          2    1    1    2  502    0 -0.12706183189E+02 -0.45374497386E+02  0.15762743574E+04  0.15769784849E+04  0.00000000000E+00 0. -1.
          1    1    1    2  503    0  0.30697501362E+01 -0.70650180870E+02 -0.38197218175E+02  0.80373496248E+02  0.00000000000E+00 0. -1.
<mgrwt>
<rscale>  0 0.60242274E+02</rscale>
<asrwt>0</asrwt>
<pdfrwt beam="2">  1        2 0.17846891E-01 0.77018962E+02</pdfrwt>
<pdfrwt beam="1">  1        1 0.26571141E+00 0.47119976E+02</pdfrwt>
<totfact> 0.25237137E+02</totfact>
</mgrwt>
</event>
<event>
 7    1  0.4252091E-004  0.1499725E+03  0.7546771E-02  0.1294158E+00
          2   -1    0    0  503    0  0.00000000000E+00  0.00000000000E+00  0.61315431152E+03  0.61315431152E+03  0.00000000000E+00 0. -1.
          1   -1    0    0  502    0 -0.00000000000E+00 -0.00000000000E+00 -0.91341803817E+02  0.91341803817E+02  0.00000000000E+00 0. -1.
         25    2    1    2    0    0 -0.34132900568E+02  0.12256301566E+03  0.24865828872E+03  0.30601520713E+03  0.12501045851E+03 0.  0.
          4    1    3    3  501    0  0.33499193447E+02  0.26785683889E+02  0.16588823605E+02  0.46005117016E+02  0.12700000000E+01 0.  1.
         -4    1    3    3    0  501 -0.67632094015E+02  0.95777331772E+02  0.23206946512E+03  0.26001009012E+03  0.12700000000E+01 0.  1.
          2    1    1    2  502    0  0.33383470212E+02  0.48072750828E+02 -0.17805546477E+02  0.61175836250E+02  0.00000000000E+00 0. -1.
          1    1    1    2  503    0  0.74943035586E+00 -0.17063576649E+03  0.29095976546E+03  0.33730507195E+03  0.00000000000E+00 0. -1.
<mgrwt>
<rscale>  0 0.93688225E+02</rscale>
<asrwt>0</asrwt>
<pdfrwt beam="1">  1        2 0.94331430E-01 0.14997245E+03</pdfrwt>
<pdfrwt beam="2">  1        1 0.14052586E-01 0.58527305E+02</pdfrwt>
<totfact> 0.25549654E+03</totfact>
</mgrwt>
</event>
<event>
 7    1  0.4252091E-004  0.4955417E+02  0.7546771E-02  0.1487179E+00
          1   -1    0    0  503    0  0.00000000000E+00  0.00000000000E+00  0.61584492974E+03  0.61584492974E+03  0.00000000000E+00 0. -1.
         -1   -1    0    0    0  501 -0.00000000000E+00 -0.00000000000E+00 -0.28975514927E+02  0.28975514927E+02  0.00000000000E+00 0.  1.
         25    2    1    2    0    0 -0.44762061713E+01  0.15072259496E+02  0.13815655416E+03  0.18697394515E+03  0.12499925312E+03 0.  0.
          4    1    3    3  502    0  0.57798877009E+02  0.14827937272E+02  0.91094313520E+02  0.10890530181E+03  0.12700000000E+01 0.  1.
         -4    1    3    3    0  502 -0.62275083180E+02  0.24432222344E+00  0.47062240636E+02  0.78068643335E+02  0.12700000000E+01 0.  1.
          2    1    1    2  503    0  0.81632517811E+01 -0.52215219978E+02  0.29251051275E+03  0.29724647676E+03  0.00000000000E+00 0. -1.
         -2    1    1    2    0  501 -0.36870456098E+01  0.37142960482E+02  0.15620234792E+03  0.16060002277E+03  0.00000000000E+00 0.  1.
<mgrwt>
<rscale>  0 0.43007379E+02</rscale>
<asrwt>0</asrwt>
<pdfrwt beam="1">  1        1 0.94745364E-01 0.49554167E+02</pdfrwt>
<pdfrwt beam="2">  1       -1 0.44577720E-02 0.37325512E+02</pdfrwt>
<totfact> 0.61384319E+03</totfact>
</mgrwt>
</event>
<event>
 7    1  0.4252091E-004  0.1868011E+03  0.7546771E-02  0.1184941E+00
          2   -1    0    0  503    0  0.00000000000E+00  0.00000000000E+00  0.11433121327E+04  0.11433121327E+04  0.00000000000E+00 0. -1.
         -2   -1    0    0    0  501 -0.00000000000E+00 -0.00000000000E+00 -0.55870115263E+03  0.55870115263E+03  0.00000000000E+00 0.  1.
         25    2    1    2    0    0  0.28307818981E+01  0.21929230277E+03  0.77823377392E+02  0.26415634280E+03  0.12499987198E+03 0.  0.
          4    1    3    3  502    0 -0.74130052072E+01  0.93289947086E+02 -0.29699185741E+02  0.98191758346E+02  0.12700000000E+01 0.  1.
         -4    1    3    3    0  502  0.10243787105E+02  0.12600235568E+03  0.10752256313E+03  0.16596458446E+03  0.12700000000E+01 0.  1.
          1    1    1    2  503    0  0.12043333445E+03 -0.76882841869E+02  0.94769495675E+03  0.95840538942E+03  0.00000000000E+00 0. -1.
         -1    1    1    2    0  501 -0.12326411635E+03 -0.14240946090E+03 -0.44090735405E+03  0.47945155312E+03  0.00000000000E+00 0.  1.
<mgrwt>
<rscale>  0 0.16337209E+03</rscale>
<asrwt>0</asrwt>
<pdfrwt beam="1">  1        2 0.17589417E+00 0.14288163E+03</pdfrwt>
<pdfrwt beam="2">  1       -2 0.85954024E-01 0.18680106E+03</pdfrwt>
<totfact> 0.27818817E+01</totfact>
</mgrwt>
</event>
<event>
 7    1  0.4252091E-004  0.4680455E+02  0.7546771E-02  0.1518800E+00
          2   -1    0    0  503    0  0.00000000000E+00  0.00000000000E+00  0.12176539545E+04  0.12176539545E+04  0.00000000000E+00 0. -1.
          1   -1    0    0  502    0 -0.00000000000E+00 -0.00000000000E+00 -0.38290083827E+03  0.38290083827E+03  0.00000000000E+00 0. -1.
         25    2    1    2    0    0 -0.72664851140E+02 -0.26234333040E+02 -0.13854667853E+02  0.14759867956E+03  0.12499999026E+03 0.  0.
          4    1    3    3  501    0  0.28014220804E+02  0.16810440964E+02  0.12442426336E+02  0.34983058268E+02  0.12700000000E+01 0. -1.
         -4    1    3    3    0  501 -0.10067907194E+03 -0.43044774004E+02 -0.26297094189E+02  0.11261562129E+03  0.12700000000E+01 0. -1.
          2    1    1    2  502    0  0.44651022266E+02  0.11126147027E+02 -0.30020058419E+03  0.30370692400E+03  0.00000000000E+00 0. -1.
          1    1    1    2  503    0  0.28013828875E+02  0.15108186013E+02  0.11488083683E+04  0.11492491892E+04  0.00000000000E+00 0. -1.
<mgrwt>
<rscale>  0 0.38596667E+02</rscale>
<asrwt>0</asrwt>
<pdfrwt beam="1">  1        2 0.18733138E+00 0.31828162E+02</pdfrwt>
<pdfrwt beam="2">  1        1 0.58907822E-01 0.46804547E+02</pdfrwt>
<totfact> 0.20089260E+02</totfact>
</mgrwt>
</event>
<event>
 7    1  0.4252091E-004  0.5253972E+02  0.7546771E-02  0.1434534E+00
         -1   -1    0    0    0  501 -0.00000000000E+00  0.00000000000E+00  0.44874495521E+03  0.44874495521E+03  0.00000000000E+00 0.  1.
          1   -1    0    0  503    0  0.00000000000E+00 -0.00000000000E+00 -0.99024899600E+03  0.99024899600E+03  0.00000000000E+00 0. -1.
         25    2    1    2    0    0  0.93539926669E+02  0.19459954542E+02 -0.60600221961E+03  0.62609233260E+03  0.12499804422E+03 0.  0.
          4    1    3    3  502    0  0.80148872752E+02  0.99381803124E+00 -0.15492371289E+03  0.17443565918E+03  0.12700000000E+01 0. -1.
         -4    1    3    3    0  502  0.13391053917E+02  0.18466136511E+02 -0.45107850672E+03  0.45165667342E+03  0.12700000000E+01 0. -1.
          2    1    1    2  503    0 -0.50502062577E+02  0.10517969787E+02 -0.37084229946E+03  0.37441300335E+03  0.00000000000E+00 0. -1.
         -2    1    1    2    0  501 -0.43037864092E+02 -0.29977924329E+02  0.43534047827E+03  0.43848861526E+03  0.00000000000E+00 0.  1.
<mgrwt>
<rscale>  0 0.52060534E+02</rscale>
<asrwt>0</asrwt>
<pdfrwt beam="2">  1        1 0.15234600E+00 0.51585715E+02</pdfrwt>
<pdfrwt beam="1">  1       -1 0.69037686E-01 0.52539724E+02</pdfrwt>
<totfact> 0.41958249E+01</totfact>
</mgrwt>
</event>
<event>
 7    1  0.4252091E-004  0.7562387E+02  0.7546771E-02  0.1471836E+00
          2   -1    0    0  503    0  0.00000000000E+00  0.00000000000E+00  0.34176373216E+03  0.34176373216E+03  0.00000000000E+00 0. -1.
          1   -1    0    0  502    0 -0.00000000000E+00 -0.00000000000E+00 -0.55829746980E+03  0.55829746980E+03  0.00000000000E+00 0. -1.
         25    2    1    2    0    0  0.44574668520E+00 -0.55422472975E+02  0.38221020045E+02  0.14197246539E+03  0.12499394127E+03 0.  0.
          4    1    3    3  501    0  0.32700215708E+02  0.76761005237E+01  0.59182558785E+02  0.68061845339E+02  0.12700000000E+01 0. -1.
         -4    1    3    3    0  501 -0.32254469023E+02 -0.63098573499E+02 -0.20961538740E+02  0.73910620048E+02  0.12700000000E+01 0. -1.
          2    1    1    2  502    0  0.19748951267E+02  0.73733353348E+02 -0.50279438874E+03  0.50855562707E+03  0.00000000000E+00 0. -1.
          1    1    1    2  503    0 -0.20194697952E+02 -0.18310880372E+02  0.24803963106E+03  0.24953310951E+03  0.00000000000E+00 0. -1.
<mgrwt>
<rscale>  0 0.45403919E+02</rscale>
<asrwt>0</asrwt>
<pdfrwt beam="1">  1        2 0.52579036E-01 0.27260120E+02</pdfrwt>
<pdfrwt beam="2">  1        1 0.85891918E-01 0.75623874E+02</pdfrwt>
<totfact> 0.51780944E+02</totfact>
</mgrwt>
</event>
<event>
 7    1  0.4252091E-004  0.4927108E+02  0.7546771E-02  0.1577105E+00
          1   -1    0    0  503    0  0.00000000000E+00  0.00000000000E+00  0.13320797576E+04  0.13320797576E+04  0.00000000000E+00 0. -1.
         -1   -1    0    0    0  501 -0.00000000000E+00 -0.00000000000E+00 -0.11329944059E+03  0.11329944059E+03  0.00000000000E+00 0.  1.
         25    2    1    2    0    0 -0.14629714809E+02  0.24773378364E+02  0.44483803454E+03  0.46296171928E+03  0.12499971086E+03 0.  0.
          4    1    3    3  502    0 -0.32276992576E+02 -0.35985100154E+02  0.31310580201E+03  0.31681790959E+03  0.12700000000E+01 0.  1.
         -4    1    3    3    0  502  0.17647277767E+02  0.60758478517E+02  0.13173223253E+03  0.14614380970E+03  0.12700000000E+01 0.  1.
          2    1    1    2  503    0 -0.10519724555E+02  0.17904970417E+02  0.87216385749E+03  0.87241105385E+03  0.00000000000E+00 0. -1.
         -2    1    1    2    0  501  0.25149439364E+02 -0.42678348781E+02 -0.98221575019E+02  0.11000642506E+03  0.00000000000E+00 0.  1.
<mgrwt>
<rscale>  0 0.31987403E+02</rscale>
<asrwt>0</asrwt>
<pdfrwt beam="1">  1        1 0.20493534E+00 0.20766622E+02</pdfrwt>
<pdfrwt beam="2">  1       -1 0.17430684E-01 0.49271083E+02</pdfrwt>
<totfact> 0.27649804E+02</totfact>
</mgrwt>
</event>
<event>
 7    1  0.4252091E-004  0.9532728E+02  0.7546771E-02  0.1444360E+00
          1   -1    0    0  502    0 -0.00000000000E+00  0.00000000000E+00  0.16947909588E+03  0.16947909588E+03  0.00000000000E+00 0. -1.
          2   -1    0    0  503    0  0.00000000000E+00 -0.00000000000E+00 -0.21716091431E+03  0.21716091431E+03  0.00000000000E+00 0. -1.
         25    2    1    2    0    0 -0.10975220886E+02  0.98624463079E+02 -0.89043557727E+02  0.18275743475E+03  0.12499713833E+03 0.  0.
          4    1    3    3  501    0  0.47003131241E+02  0.16558940466E+02 -0.21284163475E+01  0.49896251482E+02  0.12700000000E+01 0. -1.
         -4    1    3    3    0  501 -0.57978352127E+02  0.82065522614E+02 -0.86915141379E+02  0.13286118326E+03  0.12700000000E+01 0. -1.
          2    1    1    2  502    0  0.35341089819E+02 -0.88418238377E+02  0.10090678803E+03  0.13874061185E+03  0.00000000000E+00 0. -1.
          1    1    1    2  503    0 -0.24365868933E+02 -0.10206224702E+02 -0.59545048738E+02  0.65141963593E+02  0.00000000000E+00 0. -1.
<mgrwt>
<rscale>  0 0.50182359E+02</rscale>
<asrwt>0</asrwt>
<pdfrwt beam="2">  1        2 0.33409371E-01 0.26417089E+02</pdfrwt>
<pdfrwt beam="1">  1        1 0.26073707E-01 0.95327275E+02</pdfrwt>
<totfact> 0.35507118E+03</totfact>
</mgrwt>
</event>
<event>
 7    1  0.4252091E-004  0.8062212E+02  0.7546771E-02  0.1381324E+00
         -2   -1    0    0    0  501 -0.00000000000E+00  0.00000000000E+00  0.70518855011E+02  0.70518855011E+02  0.00000000000E+00 0.  1.
          2   -1    0    0  503    0  0.00000000000E+00 -0.00000000000E+00 -0.11248836025E+04  0.11248836025E+04  0.00000000000E+00 0. -1.
         25    2    1    2    0    0 -0.30463276484E+01 -0.83053948739E+02 -0.18878672574E+03  0.24118407343E+03  0.12498836326E+03 0.  0.
          4    1    3    3  502    0  0.62593278948E+01 -0.11102524661E+03 -0.10735666601E+03  0.15457312576E+03  0.12700000000E+01 0.  1.
         -4    1    3    3    0  502 -0.93056555432E+01  0.27971297868E+02 -0.81430059734E+02  0.86610947679E+02  0.12700000000E+01 0.  1.
          1    1    1    2  503    0  0.48931469679E+02  0.14344722186E+02 -0.86998580663E+03  0.87147883710E+03  0.00000000000E+00 0. -1.
         -1    1    1    2    0  501 -0.45885142031E+02  0.68709226553E+02  0.44077848432E+01  0.82739547013E+02  0.00000000000E+00 0.  1.
<mgrwt>
<rscale>  0 0.64116964E+02</rscale>
<asrwt>0</asrwt>
<pdfrwt beam="2">  1        2 0.17305901E+00 0.50990781E+02</pdfrwt>
<pdfrwt beam="1">  1       -2 0.10849055E-01 0.80622123E+02</pdfrwt>
<totfact> 0.13238874E+03</totfact>
</mgrwt>
</event>
<event>
 7    1  0.4252091E-004  0.7290287E+02  0.7546771E-02  0.1355445E+00
         -1   -1    0    0    0  501 -0.00000000000E+00  0.00000000000E+00  0.27073824708E+04  0.27073824708E+04  0.00000000000E+00 0.  1.
          1   -1    0    0  503    0  0.00000000000E+00 -0.00000000000E+00 -0.82654466118E+03  0.82654466118E+03  0.00000000000E+00 0. -1.
         25    2    1    2    0    0 -0.17105043193E+02  0.47864682108E+02 -0.17215936594E+03  0.21871107460E+03  0.12494829562E+03 0.  0.
          4    1    3    3  502    0 -0.22671720730E+02  0.89427324141E+02 -0.12814999820E+03  0.15790911361E+03  0.12700000000E+01 0. -1.
         -4    1    3    3    0  502  0.55666775373E+01 -0.41562642033E+02 -0.44009367739E+02  0.60801960991E+02  0.12700000000E+01 0. -1.
          2    1    1    2  503    0 -0.55711542960E+02 -0.42214970634E+02 -0.62867529373E+03  0.63254921130E+03  0.00000000000E+00 0. -1.
         -2    1    1    2    0  501  0.72816586153E+02 -0.56497114745E+01  0.26816724693E+04  0.26826668461E+04  0.00000000000E+00 0.  1.
<mgrwt>
<rscale>  0 0.71385170E+02</rscale>
<asrwt>0</asrwt>
<pdfrwt beam="2">  1        1 0.12716072E+00 0.69899068E+02</pdfrwt>
<pdfrwt beam="1">  1       -1 0.41652038E+00 0.72902867E+02</pdfrwt>
<totfact> 0.20125507E-01</totfact>
</mgrwt>
</event>
<event>
 7    1  0.4252091E-004  0.5921528E+02  0.7546771E-02  0.1412911E+00
         -1   -1    0    0    0  502 -0.00000000000E+00  0.00000000000E+00  0.18070180501E+03  0.18070180501E+03  0.00000000000E+00 0.  1.
         -2   -1    0    0    0  501  0.00000000000E+00 -0.00000000000E+00 -0.41379146622E+03  0.41379146622E+03  0.00000000000E+00 0.  1.
         25    2    1    2    0    0  0.22631117801E+02  0.95179143957E+01 -0.22432741768E+03  0.25797489220E+03  0.12500198596E+03 0.  0.
          4    1    3    3  503    0  0.80995584132E+01  0.53384677850E+02 -0.38102726341E+02  0.66098088703E+02  0.12700000000E+01 0. -1.
         -4    1    3    3    0  503  0.14531559388E+02 -0.43866763454E+02 -0.18622469134E+03  0.19187680350E+03  0.12700000000E+01 0. -1.
         -2    1    1    2    0  502  0.43333045321E+02  0.32227316718E+02  0.15009627484E+03  0.15951565591E+03  0.00000000000E+00 0.  1.
         -1    1    1    2    0  501 -0.65964163123E+02 -0.41745231113E+02 -0.15885851836E+03  0.17700272313E+03  0.00000000000E+00 0.  1.
<mgrwt>
<rscale>  0 0.56549257E+02</rscale>
<asrwt>0</asrwt>
<pdfrwt beam="2">  1       -2 0.63660225E-01 0.59215279E+02</pdfrwt>
<pdfrwt beam="1">  1       -1 0.27800278E-01 0.54003266E+02</pdfrwt>
<totfact> 0.19876038E+02</totfact>
</mgrwt>
</event>
<event>
 7    1  0.4252091E-004  0.8494128E+02  0.7546771E-02  0.1413350E+00
         -2   -1    0    0    0  501 -0.00000000000E+00  0.00000000000E+00  0.17253783292E+03  0.17253783292E+03  0.00000000000E+00 0.  1.
          2   -1    0    0  503    0  0.00000000000E+00 -0.00000000000E+00 -0.21077825547E+04  0.21077825547E+04  0.00000000000E+00 0. -1.
         25    2    1    2    0    0  0.49218595191E+02 -0.37844126459E+02  0.32939136251E+01  0.13961063494E+03  0.12500252598E+03 0.  0.
          4    1    3    3  502    0 -0.32971940164E+02 -0.20729220089E+02  0.32470319014E+02  0.50722617446E+02  0.12700000000E+01 0. -1.
         -4    1    3    3    0  502  0.82190535355E+02 -0.17114906371E+02 -0.29176405389E+02  0.88888017491E+02  0.12700000000E+01 0. -1.
          1    1    1    2  503    0 -0.41437315626E+02  0.74547668782E+02 -0.20352185319E+04  0.20370048794E+04  0.00000000000E+00 0. -1.
         -1    1    1    2    0  501 -0.77812795649E+01 -0.36703542323E+02  0.96679896568E+02  0.10370487323E+03  0.00000000000E+00 0.  1.
<mgrwt>
<rscale>  0 0.56452971E+02</rscale>
<asrwt>0</asrwt>
<pdfrwt beam="2">  1        2 0.32427421E+00 0.84941280E+02</pdfrwt>
<pdfrwt beam="1">  1       -2 0.26544284E-01 0.37519306E+02</pdfrwt>
<totfact> 0.90370220E+01</totfact>
</mgrwt>
</event>
<event>
 7    1  0.4252091E-004  0.9503409E+02  0.7546771E-02  0.1370299E+00
          1   -1    0    0  502    0 -0.00000000000E+00  0.00000000000E+00  0.43806394669E+03  0.43806394669E+03  0.00000000000E+00 0. -1.
          2   -1    0    0  503    0  0.00000000000E+00 -0.00000000000E+00 -0.64723272791E+03  0.64723272791E+03  0.00000000000E+00 0. -1.
         25    2    1    2    0    0 -0.12848627249E+03 -0.55060407273E+02 -0.34611581733E+02  0.19069172180E+03  0.12500000203E+03 0.  0.
          4    1    3    3  501    0 -0.18312952971E+02 -0.54364621287E+02  0.28122552273E+02  0.63901229570E+02  0.12700000000E+01 0.  1.
         -4    1    3    3    0  501 -0.11017331952E+03 -0.69578598563E+00 -0.62734134006E+02  0.12679049223E+03  0.12700000000E+01 0.  1.
          2    1    1    2  502    0  0.45040966902E+02  0.14619594188E+02  0.35441604541E+03  0.35756559465E+03  0.00000000000E+00 0. -1.
          1    1    1    2  503    0  0.83445305585E+02  0.40440813085E+02 -0.52897324490E+03  0.53703935815E+03  0.00000000000E+00 0. -1.
<mgrwt>
<rscale>  0 0.67084010E+02</rscale>
<asrwt>0</asrwt>
<pdfrwt beam="2">  1        2 0.99574266E-01 0.95034091E+02</pdfrwt>
<pdfrwt beam="1">  1        1 0.67394453E-01 0.47354210E+02</pdfrwt>
<totfact> 0.35909240E+02</totfact>
</mgrwt>
</event>
<event>
 7    1  0.4252091E-004  0.1274307E+03  0.7546771E-02  0.1276655E+00
          1   -1    0    0  502    0 -0.00000000000E+00  0.00000000000E+00  0.18266216274E+03  0.18266216274E+03  0.00000000000E+00 0. -1.
          2   -1    0    0  503    0  0.00000000000E+00 -0.00000000000E+00 -0.19151417683E+04  0.19151417683E+04  0.00000000000E+00 0. -1.
         25    2    1    2    0    0 -0.12261430509E+02 -0.14062990737E+03 -0.12586115971E+04  0.12726561827E+04  0.12499397423E+03 0.  0.
          4    1    3    3  501    0 -0.63613385210E+02 -0.43024801811E+02 -0.44102859525E+03  0.44766687512E+03  0.12700000000E+01 0.  1.
         -4    1    3    3    0  501  0.51351954702E+02 -0.97605105558E+02 -0.81758300181E+03  0.82498930759E+03  0.12700000000E+01 0.  1.
          2    1    1    2  502    0 -0.68794419435E+02  0.43225463883E+02  0.15962111204E+03  0.17910893970E+03  0.00000000000E+00 0. -1.
          3    1    1    2  503    0  0.81055849944E+02  0.97404443486E+02 -0.63348912058E+03  0.64603880867E+03  0.00000000000E+00 0. -1.
<mgrwt>
<rscale>  0 0.10175161E+03</rscale>
<asrwt>0</asrwt>
<pdfrwt beam="2">  1        2 0.29463718E+00 0.12743068E+03</pdfrwt>
<pdfrwt beam="1">  1        1 0.28101872E-01 0.81247233E+02</pdfrwt>
<totfact> 0.19495231E+02</totfact>
</mgrwt>
</event>
<event>
 7    1  0.4252091E-004  0.1146775E+03  0.7546771E-02  0.1432001E+00
          2   -1    0    0  503    0  0.00000000000E+00  0.00000000000E+00  0.37497703958E+03  0.37497703958E+03  0.00000000000E+00 0. -1.
         -2   -1    0    0    0  501 -0.00000000000E+00 -0.00000000000E+00 -0.61190827897E+03  0.61190827897E+03  0.00000000000E+00 0.  1.
         25    2    1    2    0    0  0.30277890099E+02  0.11934230859E+03  0.27188903298E+03  0.32358531743E+03  0.12499789660E+03 0.  0.
          4    1    3    3  502    0  0.55712780265E+02  0.12995694198E+03  0.25398961272E+03  0.29069753512E+03  0.12700000000E+01 0.  1.
         -4    1    3    3    0  502 -0.25434890166E+02 -0.10614633393E+02  0.17899420255E+02  0.32887782310E+02  0.12700000000E+01 0.  1.
          1    1    1    2  503    0 -0.23569806008E+02 -0.49797932398E+01  0.69596458021E+02  0.73647817788E+02  0.00000000000E+00 0. -1.
         -1    1    1    2    0  501 -0.67080840909E+01 -0.11436251535E+03 -0.57841673039E+03  0.58965218332E+03  0.00000000000E+00 0.  1.
<mgrwt>
<rscale>  0 0.52560398E+02</rscale>
<asrwt>0</asrwt>
<pdfrwt beam="1">  1        2 0.57688776E-01 0.24090124E+02</pdfrwt>
<pdfrwt beam="2">  1       -2 0.94139735E-01 0.11467751E+03</pdfrwt>
<totfact> 0.87439337E+01</totfact>
</mgrwt>
</event>
<event>
 7    1  0.4252091E-004  0.8041500E+02  0.7546771E-02  0.1403355E+00
          1   -1    0    0  502    0 -0.00000000000E+00  0.00000000000E+00  0.64775150723E+03  0.64775150723E+03  0.00000000000E+00 0. -1.
          2   -1    0    0  503    0  0.00000000000E+00 -0.00000000000E+00 -0.20638303782E+04  0.20638303782E+04  0.00000000000E+00 0. -1.
         25    2    1    2    0    0 -0.21304082935E+02  0.34015485514E+02 -0.61027122984E+02  0.14477584842E+03  0.12499927736E+03 0.  0.
          4    1    3    3  501    0  0.10219088717E+02 -0.35043182366E+02  0.12967707824E+02  0.38758595830E+02  0.12700000000E+01 0. -1.
         -4    1    3    3    0  501 -0.31523171652E+02  0.69058667880E+02 -0.73994830808E+02  0.10601725259E+03  0.12700000000E+01 0. -1.
          2    1    1    2  502    0  0.55866175726E+02 -0.59351678585E+02  0.60290028785E+03  0.60838508236E+03  0.00000000000E+00 0. -1.
          1    1    1    2  503    0 -0.34562092792E+02  0.25336193072E+02 -0.19579520359E+04  0.19584209547E+04  0.00000000000E+00 0. -1.
<mgrwt>
<rscale>  0 0.58703495E+02</rscale>
<asrwt>0</asrwt>
<pdfrwt beam="2">  1        2 0.31751236E+00 0.42853949E+02</pdfrwt>
<pdfrwt beam="1">  1        1 0.99654080E-01 0.80415000E+02</pdfrwt>
<totfact> 0.38357426E+01</totfact>
</mgrwt>
</event>
<event>
 7    1  0.4252091E-004  0.6337231E+02  0.7546771E-02  0.1442721E+00
         -1   -1    0    0    0  501 -0.00000000000E+00  0.00000000000E+00  0.39938327509E+03  0.39938327509E+03  0.00000000000E+00 0.  1.
          1   -1    0    0  503    0  0.00000000000E+00 -0.00000000000E+00 -0.10618191050E+03  0.10618191050E+03  0.00000000000E+00 0. -1.
         25    2    1    2    0    0 -0.39122868634E+02 -0.92903256236E+02  0.66486790910E+02  0.17380721084E+03  0.12500735701E+03 0.  0.
          4    1    3    3  502    0  0.40896622294E+02 -0.62408593594E+02  0.36434724195E+02  0.83044977552E+02  0.12700000000E+01 0.  1.
         -4    1    3    3    0  502 -0.80019490927E+02 -0.30494662642E+02  0.30052066715E+02  0.90762233290E+02  0.12700000000E+01 0.  1.
          2    1    1    2  503    0  0.11390773042E+02  0.38578425786E+02 -0.40849430825E+02  0.57329928008E+02  0.00000000000E+00 0. -1.
         -2    1    1    2    0  501  0.27732095592E+02  0.54324830450E+02  0.26756400450E+03  0.27442804674E+03  0.00000000000E+00 0.  1.
<mgrwt>
<rscale>  0 0.50489074E+02</rscale>
<asrwt>0</asrwt>
<pdfrwt beam="2">  1        1 0.16335679E-01 0.40224926E+02</pdfrwt>
<pdfrwt beam="1">  1       -1 0.61443580E-01 0.63372314E+02</pdfrwt>
<totfact> 0.87421159E+02</totfact>
</mgrwt>
</event>
<event>
 7    1  0.4252091E-004  0.5667859E+02  0.7546771E-02  0.1440297E+00
          2   -1    0    0  503    0  0.00000000000E+00  0.00000000000E+00  0.60409986742E+03  0.60409986742E+03  0.00000000000E+00 0. -1.
         -2   -1    0    0    0  501 -0.00000000000E+00 -0.00000000000E+00 -0.79739245421E+02  0.79739245421E+02  0.00000000000E+00 0.  1.
         25    2    1    2    0    0 -0.30120179094E+02 -0.16751575839E+02  0.22993401819E+03  0.26398002756E+03  0.12501184645E+03 0.  0.
          4    1    3    3  502    0 -0.44527454969E+02 -0.55037198226E+02  0.20297988059E+03  0.21497495728E+03  0.12700000000E+01 0.  1.
         -4    1    3    3    0  502  0.14407275875E+02  0.38285622387E+02  0.26954137597E+02  0.49005070281E+02  0.12700000000E+01 0.  1.
          1    1    1    2  503    0  0.20259657291E+02 -0.41070888808E+02  0.34155682914E+03  0.34461331830E+03  0.00000000000E+00 0. -1.
         -1    1    1    2    0  501  0.98605218032E+01  0.57822464647E+02 -0.47130225326E+02  0.75245766973E+02  0.00000000000E+00 0.  1.
<mgrwt>
<rscale>  0 0.50947537E+02</rscale>
<asrwt>0</asrwt>
<pdfrwt beam="1">  1        2 0.92938438E-01 0.45795978E+02</pdfrwt>
<pdfrwt beam="2">  1       -2 0.12267577E-01 0.56678591E+02</pdfrwt>
<totfact> 0.22757476E+03</totfact>
</mgrwt>
</event>
<event>
 7    1  0.4252091E-004  0.5422210E+02  0.7546771E-02  0.1521960E+00
         -2   -1    0    0    0  501 -0.00000000000E+00  0.00000000000E+00  0.18017458466E+03  0.18017458466E+03  0.00000000000E+00 0.  1.
          2   -1    0    0  503    0  0.00000000000E+00 -0.00000000000E+00 -0.84878180267E+03  0.84878180267E+03  0.00000000000E+00 0. -1.
         25    2    1    2    0    0 -0.58185938151E+01  0.78937672712E+02 -0.20561052462E+03  0.25328536311E+03  0.12495109094E+03 0.  0.
          4    1    3    3  502    0 -0.57143726370E+02  0.50926828422E+01 -0.69259518273E+02  0.89943508122E+02  0.12700000000E+01 0. -1.
         -4    1    3    3    0  502  0.51325132555E+02  0.73844989870E+02 -0.13635100634E+03  0.16334185499E+03  0.12700000000E+01 0. -1.
          1    1    1    2  503    0  0.91824891075E+01 -0.52248809802E+02 -0.61703009732E+03  0.61930638397E+03  0.00000000000E+00 0. -1.
         -1    1    1    2    0  501 -0.33638952924E+01 -0.26688862910E+02  0.15403340393E+03  0.15636464025E+03  0.00000000000E+00 0.  1.
<mgrwt>
<rscale>  0 0.38191302E+02</rscale>
<asrwt>0</asrwt>
<pdfrwt beam="2">  1        2 0.13058182E+00 0.54222096E+02</pdfrwt>
<pdfrwt beam="1">  1       -2 0.27719167E-01 0.26900022E+02</pdfrwt>
<totfact> 0.39065135E+02</totfact>
</mgrwt>
</event>
<event>
 7    1  0.4252091E-004  0.4802843E+02  0.7546771E-02  0.1478058E+00
         -2   -1    0    0    0  501 -0.00000000000E+00  0.00000000000E+00  0.94611190505E+02  0.94611190505E+02  0.00000000000E+00 0.  1.
          2   -1    0    0  503    0  0.00000000000E+00 -0.00000000000E+00 -0.19390459311E+04  0.19390459311E+04  0.00000000000E+00 0. -1.
         25    2    1    2    0    0 -0.59966779032E+02  0.54800724483E+02 -0.13874044585E+04  0.13953915263E+04  0.12500898415E+03 0.  0.
          4    1    3    3  502    0 -0.86566307349E+02  0.64120377149E+02 -0.78888391202E+03  0.79620637267E+03  0.12700000000E+01 0.  1.
         -4    1    3    3    0  502  0.26599528317E+02 -0.93196526662E+01 -0.59852054652E+03  0.59918515364E+03  0.12700000000E+01 0.  1.
          1    1    1    2  503    0  0.39412278682E+02 -0.11531262935E+02 -0.54048336669E+03  0.54204111229E+03  0.00000000000E+00 0. -1.
         -1    1    1    2    0  501  0.20554500350E+02 -0.43269461549E+02  0.83453084661E+02  0.96224482990E+02  0.00000000000E+00 0.  1.
<mgrwt>
<rscale>  0 0.44410201E+02</rscale>
<asrwt>0</asrwt>
<pdfrwt beam="2">  1        2 0.29831476E+00 0.41064556E+02</pdfrwt>
<pdfrwt beam="1">  1       -2 0.14555568E-01 0.48028425E+02</pdfrwt>
<totfact> 0.32351926E+02</totfact>
</mgrwt>
</event>
<event>
 7    1  0.4252091E-004  0.5206226E+02  0.7546771E-02  0.1450296E+00
          2   -1    0    0  503    0  0.00000000000E+00  0.00000000000E+00  0.37265560749E+03  0.37265560749E+03  0.00000000000E+00 0. -1.
          1   -1    0    0  502    0 -0.00000000000E+00 -0.00000000000E+00 -0.14128943751E+04  0.14128943751E+04  0.00000000000E+00 0. -1.
         25    2    1    2    0    0  0.52361399982E+01  0.15662359318E+02 -0.34279553017E+03  0.36525131104E+03  0.12500807195E+03 0.  0.
          4    1    3    3  501    0  0.14081735083E+02 -0.46062090968E+02 -0.24177386475E+03  0.24652834739E+03  0.12700000000E+01 0. -1.
         -4    1    3    3    0  501 -0.88455950848E+01  0.61724450286E+02 -0.10102166541E+03  0.11872296365E+03  0.12700000000E+01 0. -1.
          2    1    1    2  502    0  0.29920983040E+02 -0.45779133689E+02 -0.10566785354E+04  0.10580928700E+04  0.00000000000E+00 0. -1.
          1    1    1    2  503    0 -0.35157123038E+02  0.30116774372E+02  0.35923529796E+03  0.36220580158E+03  0.00000000000E+00 0. -1.
<mgrwt>
<rscale>  0 0.49092964E+02</rscale>
<asrwt>0</asrwt>
<pdfrwt beam="1">  1        2 0.57331631E-01 0.46293017E+02</pdfrwt>
<pdfrwt beam="2">  1        1 0.21736837E+00 0.52062262E+02</pdfrwt>
<totfact> 0.11243825E+02</totfact>
</mgrwt>
</event>
<event>
 7    1  0.4252091E-004  0.6421055E+02  0.7546771E-02  0.1527724E+00
          1   -1    0    0  502    0 -0.00000000000E+00  0.00000000000E+00  0.15634093219E+04  0.15634093219E+04  0.00000000000E+00 0. -1.
          2   -1    0    0  503    0  0.00000000000E+00 -0.00000000000E+00 -0.29491258774E+04  0.29491258774E+04  0.00000000000E+00 0. -1.
         25    2    1    2    0    0 -0.82087241537E+02 -0.19382869966E+02 -0.22558186272E+03  0.27134037629E+03  0.12499764856E+03 0.  0.
          4    1    3    3  501    0 -0.42112347336E+02  0.52117352343E+02 -0.80695935142E+02  0.10489573424E+03  0.12700000000E+01 0.  1.
         -4    1    3    3    0  501 -0.39974894201E+02 -0.71500222309E+02 -0.14488592758E+03  0.16644464205E+03  0.12700000000E+01 0.  1.
          2    1    1    2  502    0  0.21793154870E+02 -0.17355933041E+01  0.15400746608E+04  0.15402298253E+04  0.00000000000E+00 0. -1.
          1    1    1    2  503    0  0.60294086667E+02  0.21118463270E+02 -0.27002093535E+04  0.27009649977E+04  0.00000000000E+00 0. -1.
<mgrwt>
<rscale>  0 0.37467067E+02</rscale>
<asrwt>0</asrwt>
<pdfrwt beam="2">  1        2 0.45371167E+00 0.64210549E+02</pdfrwt>
<pdfrwt beam="1">  1        1 0.24052451E+00 0.21862156E+02</pdfrwt>
<totfact> 0.32445973E+00</totfact>
</mgrwt>
</event>
<event>
 7    1  0.4252091E-004  0.1113421E+03  0.7546771E-02  0.1349139E+00
          2   -1    0    0  503    0  0.00000000000E+00  0.00000000000E+00  0.24307283340E+04  0.24307283340E+04  0.00000000000E+00 0. -1.
          1   -1    0    0  502    0 -0.00000000000E+00 -0.00000000000E+00 -0.41953506748E+02  0.41953506748E+02  0.00000000000E+00 0. -1.
         25    2    1    2    0    0  0.70991715245E+02  0.17118342029E+02  0.94468331310E+03  0.95571334255E+03  0.12501427842E+03 0.  0.
          4    1    3    3  501    0  0.94123623593E+02  0.16356573275E+02  0.90281921888E+03  0.90786064398E+03  0.12700000000E+01 0.  1.
         -4    1    3    3    0  501 -0.23131908348E+02  0.76176875337E+00  0.41864094218E+02  0.47852698567E+02  0.12700000000E+01 0.  1.
          2    1    1    2  502    0 -0.11525788013E+03  0.21751251213E+01  0.56219230588E+02  0.12825643059E+03  0.00000000000E+00 0. -1.
          1    1    1    2  503    0  0.44266164883E+02 -0.19293467150E+02  0.13878722836E+04  0.13887120676E+04  0.00000000000E+00 0. -1.
<mgrwt>
<rscale>  0 0.73324524E+02</rscale>
<asrwt>0</asrwt>
<pdfrwt beam="1">  1        2 0.37395809E+00 0.48288003E+02</pdfrwt>
<pdfrwt beam="2">  1        1 0.64543876E-02 0.11134206E+03</pdfrwt>
<totfact> 0.81402710E+02</totfact>
</mgrwt>
</event>
<event>
 7    1  0.4252091E-004  0.2438182E+03  0.7546771E-02  0.1318830E+00
          1   -1    0    0  502    0 -0.00000000000E+00  0.00000000000E+00  0.82063006419E+03  0.82063006419E+03  0.00000000000E+00 0. -1.
          2   -1    0    0  503    0  0.00000000000E+00 -0.00000000000E+00 -0.13984229810E+04  0.13984229810E+04  0.00000000000E+00 0. -1.
         25    2    1    2    0    0 -0.21885735029E+03 -0.71020655336E+02 -0.64557181926E+02  0.26968905708E+03  0.12498833748E+03 0.  0.
          4    1    3    3  501    0 -0.30899590445E+02 -0.66685424647E+02 -0.24257050308E+02  0.77406381776E+02  0.12700000000E+01 0. -1.
         -4    1    3    3    0  501 -0.18795775985E+03 -0.43352306892E+01 -0.40300131617E+02  0.19228267530E+03  0.12700000000E+01 0. -1.
          2    1    1    2  502    0  0.22478388504E+03  0.99145908857E+02  0.69687444038E+03  0.73891250624E+03  0.00000000000E+00 0. -1.
          1    1    1    2  503    0 -0.59265347491E+01 -0.28125253521E+02 -0.12101101752E+04  0.12104514818E+04  0.00000000000E+00 0. -1.
<mgrwt>
<rscale>  0 0.83714029E+02</rscale>
<asrwt>0</asrwt>
<pdfrwt beam="2">  1        2 0.21514200E+00 0.28742890E+02</pdfrwt>
<pdfrwt beam="1">  1        1 0.12625078E+00 0.24381817E+03</pdfrwt>
<totfact> 0.56406335E+01</totfact>
</mgrwt>
</event>
<event>
 7    1  0.4252091E-004  0.1050497E+03  0.7546771E-02  0.1377043E+00
          2   -1    0    0  503    0  0.00000000000E+00  0.00000000000E+00  0.71814316216E+03  0.71814316216E+03  0.00000000000E+00 0. -1.
          1   -1    0    0  502    0 -0.00000000000E+00 -0.00000000000E+00 -0.32835000185E+03  0.32835000185E+03  0.00000000000E+00 0. -1.
         25    2    1    2    0    0  0.54506906338E+02 -0.12358305389E+03 -0.68060705888E+02  0.19621643790E+03  0.12499942707E+03 0.  0.
          4    1    3    3  501    0  0.22737375529E+02 -0.65459487609E+01 -0.71053736284E+02  0.74900494198E+02  0.12700000000E+01 0.  1.
         -4    1    3    3    0  501  0.31769530809E+02 -0.11703710513E+03  0.29930303964E+01  0.12131594370E+03  0.12700000000E+01 0.  1.
          2    1    1    2  502    0 -0.24487864926E+02  0.96358171022E+02 -0.18293583885E+03  0.20820680533E+03  0.00000000000E+00 0. -1.
          1    1    1    2  503    0 -0.30019041412E+02  0.27224882869E+02  0.64078970504E+03  0.64206992079E+03  0.00000000000E+00 0. -1.
<mgrwt>
<rscale>  0 0.65247380E+02</rscale>
<asrwt>0</asrwt>
<pdfrwt beam="1">  1        2 0.11048356E+00 0.40525758E+02</pdfrwt>
<pdfrwt beam="2">  1        1 0.50515385E-01 0.10504974E+03</pdfrwt>
<totfact> 0.46218552E+02</totfact>
</mgrwt>
</event>
<event>
 7    1  0.4252091E-004  0.1009636E+03  0.7546771E-02  0.1319790E+00
         -2   -1    0    0    0  501  0.00000000000E+00  0.00000000000E+00  0.35213960367E+03  0.35213960367E+03  0.00000000000E+00 0.  1.
         -1   -1    0    0    0  502 -0.00000000000E+00 -0.00000000000E+00 -0.33896895213E+03  0.33896895213E+03  0.00000000000E+00 0.  1.
         25    2    1    2    0    0 -0.10150564597E+03 -0.43597519169E+02  0.23209002888E+03  0.28582575776E+03  0.12500576967E+03 0.  0.
          4    1    3    3  503    0 -0.31682373064E+02 -0.79951827860E+02  0.98545414927E+02  0.13080091454E+03  0.12700000000E+01 0.  1.
         -4    1    3    3    0  503 -0.69823272905E+02  0.36354308691E+02  0.13354461395E+03  0.15502484322E+03  0.12700000000E+01 0.  1.
         -2    1    1    2    0  502  0.49391357647E+02  0.88542650792E+02 -0.28947876677E+03  0.30672017154E+03  0.00000000000E+00 0.  1.
         -1    1    1    2    0  501  0.52114288322E+02 -0.44945131623E+02  0.70559389441E+02  0.98562626498E+02  0.00000000000E+00 0.  1.
<mgrwt>
<rscale>  0 0.83355562E+02</rscale>
<asrwt>0</asrwt>
<pdfrwt beam="1">  1       -2 0.54175324E-01 0.68818340E+02</pdfrwt>
<pdfrwt beam="2">  1       -1 0.52149069E-01 0.10096363E+03</pdfrwt>
<totfact> 0.94092851E+01</totfact>
</mgrwt>
</event>
<event>
 7    1  0.4252091E-004  0.6734807E+02  0.7546771E-02  0.1393393E+00
          2   -1    0    0  503    0  0.00000000000E+00  0.00000000000E+00  0.16125575623E+02  0.16125575623E+02  0.00000000000E+00 0. -1.
          1   -1    0    0  502    0 -0.00000000000E+00 -0.00000000000E+00 -0.20776599997E+04  0.20776599997E+04  0.00000000000E+00 0. -1.
         25    2    1    2    0    0 -0.11418789007E+02 -0.48636626356E+02 -0.78045346769E+03  0.79197618782E+03  0.12499102635E+03 0.  0.
          4    1    3    3  501    0  0.21784656794E+02  0.36882675679E+02 -0.25108985638E+03  0.25472069393E+03  0.12700000000E+01 0. -1.
         -4    1    3    3    0  501 -0.33203445802E+02 -0.85519302036E+02 -0.52936361131E+03  0.53725549389E+03  0.12700000000E+01 0. -1.
          2    1    1    2  502    0  0.65023675793E+02  0.34734254661E+02 -0.12073453876E+04  0.12095939120E+04  0.00000000000E+00 0. -1.
          1    1    1    2  503    0 -0.53604886786E+02  0.13902371695E+02 -0.73735568711E+02  0.92215475486E+02  0.00000000000E+00 0. -1.
<mgrwt>
<rscale>  0 0.61070648E+02</rscale>
<asrwt>0</asrwt>
<pdfrwt beam="1">  1        2 0.24808556E-02 0.55378334E+02</pdfrwt>
<pdfrwt beam="2">  1        1 0.31964028E+00 0.67348072E+02</pdfrwt>
<totfact> 0.16409525E+03</totfact>
</mgrwt>
</event>
<event>
 7    1  0.4252091E-004  0.1127670E+03  0.7546771E-02  0.1260799E+00
          2   -1    0    0  503    0  0.00000000000E+00  0.00000000000E+00  0.69189330174E+03  0.69189330174E+03  0.00000000000E+00 0. -1.
          1   -1    0    0  502    0 -0.00000000000E+00 -0.00000000000E+00 -0.12301629142E+03  0.12301629142E+03  0.00000000000E+00 0. -1.
         25    2    1    2    0    0  0.22468516719E+00 -0.13546765319E+03  0.21065663244E+03  0.27991410182E+03  0.12499660820E+03 0.  0.
          4    1    3    3  501    0  0.26473924753E+02 -0.15106047867E+03  0.18221905856E+03  0.23817123065E+03  0.12700000000E+01 0. -1.
         -4    1    3    3    0  501 -0.26249239586E+02  0.15592825478E+02  0.28437573884E+02  0.41742871171E+02  0.12700000000E+01 0. -1.
          2    1    1    2  502    0  0.88624238282E+02  0.60063611185E+02 -0.44361249241E+02  0.11588707190E+03  0.00000000000E+00 0. -1.
          1    1    1    2  503    0 -0.88848923450E+02  0.75404042006E+02  0.40258162713E+03  0.41910841944E+03  0.00000000000E+00 0. -1.
<mgrwt>
<rscale>  0 0.10987660E+03</rscale>
<asrwt>0</asrwt>
<pdfrwt beam="1">  1        2 0.10644512E+00 0.11276705E+03</pdfrwt>
<pdfrwt beam="2">  1        1 0.18925584E-01 0.10706023E+03</pdfrwt>
<totfact> 0.15776618E+03</totfact>
</mgrwt>
</event>
<event>
 7    1  0.4252091E-004  0.5392282E+02  0.7546771E-02  0.1454696E+00
          2   -1    0    0  503    0  0.00000000000E+00  0.00000000000E+00  0.26036869946E+04  0.26036869946E+04  0.00000000000E+00 0. -1.
          1   -1    0    0  502    0 -0.00000000000E+00 -0.00000000000E+00 -0.47053360624E+03  0.47053360624E+03  0.00000000000E+00 0. -1.
         25    2    1    2    0    0 -0.37893660749E+02 -0.78248801022E+02  0.10957209579E+02  0.15265444516E+03  0.12499805918E+03 0.  0.
          4    1    3    3  501    0 -0.63612291483E+02  0.32675757617E+01 -0.10370610568E+02  0.64547371306E+02  0.12700000000E+01 0. -1.
         -4    1    3    3    0  501  0.25718630733E+02 -0.81516376784E+02  0.21327820147E+02  0.88107073853E+02  0.12700000000E+01 0. -1.
          2    1    1    2  502    0 -0.29263546816E+01  0.43176005280E+02 -0.39822550866E+03  0.40056995236E+03  0.00000000000E+00 0. -1.
          1    1    1    2  503    0  0.40820015431E+02  0.35072795742E+02  0.25204216874E+04  0.25209962033E+04  0.00000000000E+00 0. -1.
<mgrwt>
<rscale>  0 0.48306452E+02</rscale>
<asrwt>0</asrwt>
<pdfrwt beam="1">  1        2 0.40056722E+00 0.53922819E+02</pdfrwt>
<pdfrwt beam="2">  1        1 0.72389787E-01 0.43275062E+02</pdfrwt>
<totfact> 0.30665756E+01</totfact>
</mgrwt>
</event>
<event>
 7    1  0.4252091E-004  0.4874667E+02  0.7546771E-02  0.1469532E+00
          1   -1    0    0  503    0  0.00000000000E+00  0.00000000000E+00  0.42688219090E+03  0.42688219090E+03  0.00000000000E+00 0. -1.
         -1   -1    0    0    0  501 -0.00000000000E+00 -0.00000000000E+00 -0.32851735183E+02  0.32851735183E+02  0.00000000000E+00 0.  1.
         25    2    1    2    0    0 -0.22921391594E+02 -0.37032380929E+02  0.19011326370E+03  0.23165505398E+03  0.12499689424E+03 0.  0.
          4    1    3    3  502    0  0.23874577368E+02 -0.30572106395E+02  0.32924153406E+01  0.38949994001E+02  0.12700000000E+01 0. -1.
         -4    1    3    3    0  502 -0.46795968963E+02 -0.64602745345E+01  0.18682084836E+03  0.19270505998E+03  0.12700000000E+01 0. -1.
          2    1    1    2  503    0 -0.29182535498E+02  0.39046355235E+02  0.80655629175E+02  0.94242075279E+02  0.00000000000E+00 0.  1.
         -2    1    1    2    0  501  0.52103927092E+02 -0.20139743060E+01  0.12326156284E+03  0.13383679683E+03  0.00000000000E+00 0. -1.
<mgrwt>
<rscale>  0 0.45779735E+02</rscale>
<asrwt>0</asrwt>
<pdfrwt beam="1">  1        1 0.65674179E-01 0.48746674E+02</pdfrwt>
<pdfrwt beam="2">  1       -1 0.50541134E-02 0.42993378E+02</pdfrwt>
<totfact> 0.82963545E+03</totfact>
</mgrwt>
</event>
<event>
 7    1  0.4252091E-004  0.5762418E+02  0.7546771E-02  0.1436832E+00
          2   -1    0    0  503    0  0.00000000000E+00  0.00000000000E+00  0.26350304034E+04  0.26350304034E+04  0.00000000000E+00 0. -1.
         -2   -1    0    0    0  501 -0.00000000000E+00 -0.00000000000E+00 -0.56018755174E+02  0.56018755174E+02  0.00000000000E+00 0.  1.
         25    2    1    2    0    0 -0.35878296733E+02 -0.69640004897E+02  0.13038072174E+03  0.19686257880E+03  0.12497503700E+03 0.  0.
          4    1    3    3  502    0 -0.53230652551E+02  0.15548531415E+01  0.10768338228E+03  0.12013843540E+03  0.12700000000E+01 0.  1.
         -4    1    3    3    0  502  0.17352355818E+02 -0.71194858038E+02  0.22697339457E+02  0.76724143410E+02  0.12700000000E+01 0.  1.
          1    1    1    2  503    0  0.51321527485E+02  0.26067433453E+02  0.24472610463E+04  0.24479379157E+04  0.00000000000E+00 0. -1.
         -1    1    1    2    0  501 -0.15443230752E+02  0.43572571444E+02  0.13698801837E+01  0.46248664089E+02  0.00000000000E+00 0.  1.
<mgrwt>
<rscale>  0 0.51612713E+02</rscale>
<asrwt>0</asrwt>
<pdfrwt beam="1">  1        2 0.40538920E+00 0.57624183E+02</pdfrwt>
<pdfrwt beam="2">  1       -2 0.86182721E-02 0.46228372E+02</pdfrwt>
<totfact> 0.31082545E+02</totfact>
</mgrwt>
</event>
<event>
 7    1  0.4252091E-004  0.7174751E+02  0.7546771E-02  0.1432124E+00
          2   -1    0    0  503    0  0.00000000000E+00  0.00000000000E+00  0.83151378313E+03  0.83151378313E+03  0.00000000000E+00 0. -1.
          1   -1    0    0  502    0 -0.00000000000E+00 -0.00000000000E+00 -0.10628051155E+04  0.10628051155E+04  0.00000000000E+00 0. -1.
         25    2    1    2    0    0 -0.83748282181E+02 -0.35682557916E+01 -0.16533284801E+03  0.22358105718E+03  0.12500812487E+03 0.  0.
          4    1    3    3  501    0 -0.66321511414E+01 -0.18041096677E+02  0.16610697239E+02  0.25436091697E+02  0.12700000000E+01 0.  1.
         -4    1    3    3    0  501 -0.77116131039E+02  0.14472840885E+02 -0.18194354524E+03  0.19814496548E+03  0.12700000000E+01 0.  1.
          2    1    1    2  502    0  0.62196286380E+02  0.35432916560E+02 -0.86641027651E+03  0.86936220118E+03  0.00000000000E+00 0. -1.
          1    1    1    2  503    0  0.21551995801E+02 -0.31864660768E+02  0.80045179218E+03  0.80137564022E+03  0.00000000000E+00 0. -1.
<mgrwt>
<rscale>  0 0.52536059E+02</rscale>
<asrwt>0</asrwt>
<pdfrwt beam="1">  1        2 0.12792520E+00 0.38468755E+02</pdfrwt>
<pdfrwt beam="2">  1        1 0.16350848E+00 0.71747512E+02</pdfrwt>
<totfact> 0.78690728E+01</totfact>
</mgrwt>
</event>
<event>
 7    1  0.4252091E-004  0.9293955E+02  0.7546771E-02  0.1369300E+00
          2   -1    0    0  503    0  0.00000000000E+00  0.00000000000E+00  0.17394133455E+04  0.17394133455E+04  0.00000000000E+00 0. -1.
          1   -1    0    0  502    0 -0.00000000000E+00 -0.00000000000E+00 -0.97804549017E+03  0.97804549017E+03  0.00000000000E+00 0. -1.
         25    2    1    2    0    0 -0.23612190325E+02  0.13959233953E+03  0.76761755328E+03  0.79051245487E+03  0.12501870422E+03 0.  0.
          4    1    3    3  501    0  0.27891738883E+02  0.14351887117E+02  0.35180800295E+03  0.35320590256E+03  0.12700000000E+01 0. -1.
         -4    1    3    3    0  501 -0.51503929208E+02  0.12524045242E+03  0.41580955033E+03  0.43730655231E+03  0.12700000000E+01 0. -1.
          2    1    1    2  502    0  0.17219891019E+02 -0.91188838486E+02 -0.96374723474E+03  0.96820486540E+03  0.00000000000E+00 0. -1.
          1    1    1    2  503    0  0.63922993058E+01 -0.48403501049E+02  0.95749753677E+03  0.95874151539E+03  0.00000000000E+00 0. -1.
<mgrwt>
<rscale>  0 0.67362148E+02</rscale>
<asrwt>0</asrwt>
<pdfrwt beam="1">  1        2 0.26760205E+00 0.48823769E+02</pdfrwt>
<pdfrwt beam="2">  1        1 0.15046854E+00 0.92939547E+02</pdfrwt>
<totfact> 0.29234718E+01</totfact>
</mgrwt>
</event>
<event>
 7    1  0.4252091E-004  0.6108561E+02  0.7546771E-02  0.1525133E+00
          2   -1    0    0  503    0  0.00000000000E+00  0.00000000000E+00  0.15873882776E+04  0.15873882776E+04  0.00000000000E+00 0. -1.
          1   -1    0    0  502    0 -0.00000000000E+00 -0.00000000000E+00 -0.11034223352E+02  0.11034223352E+02  0.00000000000E+00 0. -1.
         25    2    1    2    0    0 -0.64321355924E+02 -0.17267006846E+02  0.10376273814E+04  0.10472489549E+04  0.12499761766E+03 0.  0.
          4    1    3    3  501    0 -0.33884416006E+02  0.50970182313E+01  0.61681162162E+02  0.70571324974E+02  0.12700000000E+01 0.  1.
         -4    1    3    3    0  501 -0.30436939918E+02 -0.22364025077E+02  0.97594621926E+03  0.97667762988E+03  0.12700000000E+01 0.  1.
          2    1    1    2  502    0  0.60524388590E+02 -0.58012739585E+01  0.15155369834E+03  0.16329537616E+03  0.00000000000E+00 0. -1.
          1    1    1    2  503    0  0.37969673336E+01  0.23068280805E+02  0.38717297445E+03  0.38787816990E+03  0.00000000000E+00 0. -1.
<mgrwt>
<rscale>  0 0.37790220E+02</rscale>
<asrwt>0</asrwt>
<pdfrwt beam="1">  1        2 0.24421340E+00 0.23378677E+02</pdfrwt>
<pdfrwt beam="2">  1        1 0.16975741E-02 0.61085608E+02</pdfrwt>
<totfact> 0.12998213E+04</totfact>
</mgrwt>
</event>
<event>
 7    1  0.4252091E-004  0.5148843E+02  0.7546771E-02  0.1463759E+00
          1   -1    0    0  502    0 -0.00000000000E+00  0.00000000000E+00  0.79295283871E+03  0.79295283871E+03  0.00000000000E+00 0. -1.
          2   -1    0    0  503    0  0.00000000000E+00 -0.00000000000E+00 -0.34216452650E+03  0.34216452650E+03  0.00000000000E+00 0. -1.
         25    2    1    2    0    0  0.21377944635E+02 -0.86582258227E+02 -0.13021439087E+03  0.20133129396E+03  0.12499999353E+03 0.  0.
          4    1    3    3  501    0 -0.36405085099E+02  0.18218995829E+01 -0.39059190630E+01  0.36681311902E+02  0.12700000000E+01 0.  1.
         -4    1    3    3    0  501  0.57783029734E+02 -0.88404157810E+02 -0.12630847180E+03  0.16464998206E+03  0.12700000000E+01 0.  1.
          2    1    1    2  502    0 -0.25752824709E+02  0.44377710893E+02  0.75395814127E+03  0.75570197036E+03  0.00000000000E+00 0. -1.
          1    1    1    2  503    0  0.43748800745E+01  0.42204547334E+02 -0.17295543819E+03  0.17808410089E+03  0.00000000000E+00 0. -1.
<mgrwt>
<rscale>  0 0.46740664E+02</rscale>
<asrwt>0</asrwt>
<pdfrwt beam="2">  1        2 0.52640697E-01 0.42430689E+02</pdfrwt>
<pdfrwt beam="1">  1        1 0.12199274E+00 0.51488432E+02</pdfrwt>
<totfact> 0.32668944E+02</totfact>
</mgrwt>
</event>
<event>
 7    1  0.4252091E-004  0.7397757E+02  0.7546771E-02  0.1429435E+00
         -2   -1    0    0    0  501 -0.00000000000E+00  0.00000000000E+00  0.75317716747E+01  0.75317716747E+01  0.00000000000E+00 0.  1.
          2   -1    0    0  503    0  0.00000000000E+00 -0.00000000000E+00 -0.30766151276E+04  0.30766151276E+04  0.00000000000E+00 0. -1.
         25    2    1    2    0    0  0.25469733054E+02  0.48067381026E+02 -0.16922029041E+04  0.16976845983E+04  0.12499258554E+03 0.  0.
          4    1    3    3  502    0  0.24182642557E+02 -0.10909438990E+02 -0.77892824800E+02  0.82296543763E+02  0.12700000000E+01 0.  1.
         -4    1    3    3    0  502  0.12870904972E+01  0.58976820016E+02 -0.16143100793E+04  0.16153880546E+04  0.12700000000E+01 0.  1.
          1    1    1    2  503    0 -0.13565287321E+02 -0.84235185793E+02 -0.12724422621E+04  0.12752995310E+04  0.00000000000E+00 0. -1.
         -1    1    1    2    0  501 -0.11904445733E+02  0.36167804767E+02 -0.10443818982E+03  0.11116276995E+03  0.00000000000E+00 0.  1.
<mgrwt>
<rscale>  0 0.53073656E+02</rscale>
<asrwt>0</asrwt>
<pdfrwt beam="2">  1        2 0.47332477E+00 0.73977572E+02</pdfrwt>
<pdfrwt beam="1">  1       -2 0.11587357E-02 0.38076580E+02</pdfrwt>
<totfact> 0.29309686E+03</totfact>
</mgrwt>
</event>
<event>
 7    1  0.4252091E-004  0.2845566E+03  0.7546771E-02  0.1209852E+00
         -2   -1    0    0    0  501 -0.00000000000E+00  0.00000000000E+00  0.10298888388E+04  0.10298888388E+04  0.00000000000E+00 0.  1.
          2   -1    0    0  503    0  0.00000000000E+00 -0.00000000000E+00 -0.98416064445E+03  0.98416064445E+03  0.00000000000E+00 0. -1.
         25    2    1    2    0    0 -0.30518536858E+02  0.23001236225E+03  0.18911876990E+02  0.26423289463E+03  0.12499718249E+03 0.  0.
          4    1    3    3  502    0 -0.23554772885E+02 -0.30491172490E+01  0.19976988344E+02  0.31061510024E+02  0.12700000000E+01 0.  1.
         -4    1    3    3    0  502 -0.69637639736E+01  0.23306147950E+03 -0.10651113539E+01  0.23317138460E+03  0.12700000000E+01 0.  1.
          1    1    1    2  503    0  0.28851160287E+02  0.65395529076E+02 -0.83537159537E+03  0.83842391844E+03  0.00000000000E+00 0. -1.
         -1    1    1    2    0  501  0.16673765715E+01 -0.29540789133E+03  0.86218791271E+03  0.91139267017E+03  0.00000000000E+00 0.  1.
<mgrwt>
<rscale>  0 0.14261577E+03</rscale>
<asrwt>0</asrwt>
<pdfrwt beam="2">  1        2 0.15140933E+00 0.71477022E+02</pdfrwt>
<pdfrwt beam="1">  1       -2 0.15844444E+00 0.28455659E+03</pdfrwt>
<totfact> 0.79912517E+00</totfact>
</mgrwt>
</event>
<event>
 7    1  0.4252091E-004  0.1501593E+03  0.7546771E-02  0.1324324E+00
          1   -1    0    0  502    0 -0.00000000000E+00  0.00000000000E+00  0.11839369236E+03  0.11839369236E+03  0.00000000000E+00 0. -1.
          2   -1    0    0  503    0  0.00000000000E+00 -0.00000000000E+00 -0.14495398751E+04  0.14495398751E+04  0.00000000000E+00 0. -1.
         25    2    1    2    0    0  0.10924005096E+03 -0.11551604718E+03 -0.22042124710E+03  0.29914360096E+03  0.12499608768E+03 0.  0.
          4    1    3    3  501    0  0.60305968883E+02 -0.58930576375E+02 -0.20647892232E+03  0.22303538055E+03  0.12700000000E+01 0.  1.
         -4    1    3    3    0  501  0.48934082073E+02 -0.56585470805E+02 -0.13942324786E+02  0.76108220417E+02  0.12700000000E+01 0.  1.
          2    1    1    2  502    0 -0.40769318427E+02 -0.17687405180E+02  0.67646641585E+02  0.80938555366E+02  0.00000000000E+00 0. -1.
          1    1    1    2  503    0 -0.68470732529E+02  0.13320345236E+03 -0.11783715772E+04  0.11878514111E+04  0.00000000000E+00 0. -1.
<mgrwt>
<rscale>  0 0.81689630E+02</rscale>
<asrwt>0</asrwt>
<pdfrwt beam="2">  1        2 0.22300614E+00 0.15015933E+03</pdfrwt>
<pdfrwt beam="1">  1        1 0.18214414E-01 0.44440765E+02</pdfrwt>
<totfact> 0.55655933E+02</totfact>
</mgrwt>
</event>
<event>
 7    1  0.4252091E-004  0.1231061E+03  0.7546771E-02  0.1315819E+00
          1   -1    0    0  502    0 -0.00000000000E+00  0.00000000000E+00  0.49930921642E+03  0.49930921642E+03  0.00000000000E+00 0. -1.
          2   -1    0    0  503    0  0.00000000000E+00 -0.00000000000E+00 -0.38248913952E+03  0.38248913952E+03  0.00000000000E+00 0. -1.
         25    2    1    2    0    0  0.98344439692E+02 -0.65013947166E+02  0.28602102831E+03  0.33366374879E+03  0.12500010591E+03 0.  0.
          4    1    3    3  501    0  0.19428295403E+02  0.34367996556E+02  0.10832247698E+03  0.11529956535E+03  0.12700000000E+01 0. -1.
         -4    1    3    3    0  501  0.78916144289E+02 -0.99381943722E+02  0.17769855132E+03  0.21836418344E+03  0.12700000000E+01 0. -1.
          2    1    1    2  502    0 -0.39002892922E+02 -0.43581596233E+02  0.17386116635E+03  0.18343469234E+03  0.00000000000E+00 0. -1.
          1    1    1    2  503    0 -0.59341546770E+02  0.10859554340E+03 -0.34306211777E+03  0.36469991481E+03  0.00000000000E+00 0. -1.
<mgrwt>
<rscale>  0 0.84852539E+02</rscale>
<asrwt>0</asrwt>
<pdfrwt beam="2">  1        2 0.58844483E-01 0.12310615E+03</pdfrwt>
<pdfrwt beam="1">  1        1 0.76816802E-01 0.58485735E+02</pdfrwt>
<totfact> 0.53808500E+02</totfact>
</mgrwt>
</event>
<event>
 7    1  0.4252091E-004  0.5795163E+02  0.7546771E-02  0.1416560E+00
          1   -1    0    0  502    0 -0.00000000000E+00  0.00000000000E+00  0.20567538336E+04  0.20567538336E+04  0.00000000000E+00 0. -1.
          2   -1    0    0  503    0  0.00000000000E+00 -0.00000000000E+00 -0.85509657228E+03  0.85509657228E+03  0.00000000000E+00 0. -1.
         25    2    1    2    0    0 -0.89856267162E+02  0.42172592798E+02 -0.10239199347E+03  0.18963182756E+03  0.12499373330E+03 0.  0.
          4    1    3    3  501    0 -0.86305661636E+02 -0.18874740492E+01 -0.11485736055E+03  0.14368735491E+03  0.12700000000E+01 0.  1.
         -4    1    3    3    0  501 -0.35506055268E+01  0.44060066847E+02  0.12465367080E+02  0.45944472645E+02  0.12700000000E+01 0.  1.
          2    1    1    2  502    0  0.36291883743E+02 -0.45066211293E+02  0.20117028158E+04  0.20125347906E+04  0.00000000000E+00 0. -1.
          1    1    1    2  503    0  0.53564383420E+02  0.28936184951E+01 -0.70765356100E+03  0.70968378774E+03  0.00000000000E+00 0. -1.
<mgrwt>
<rscale>  0 0.55755444E+02</rscale>
<asrwt>0</asrwt>
<pdfrwt beam="2">  1        2 0.13155332E+00 0.53642485E+02</pdfrwt>
<pdfrwt beam="1">  1        1 0.31642367E+00 0.57951632E+02</pdfrwt>
<totfact> 0.17930022E+01</totfact>
</mgrwt>
</event>
<event>
 7    1  0.4252091E-004  0.2359163E+03  0.7546771E-02  0.1287730E+00
          2   -1    0    0  503    0  0.00000000000E+00  0.00000000000E+00  0.18895610169E+04  0.18895610169E+04  0.00000000000E+00 0. -1.
          1   -1    0    0  502    0 -0.00000000000E+00 -0.00000000000E+00 -0.11434885893E+03  0.11434885893E+03  0.00000000000E+00 0. -1.
         25    2    1    2    0    0 -0.14225229241E+03  0.15926136461E+03  0.15612224778E+04  0.15807088228E+04  0.12499944148E+03 0.  0.
          4    1    3    3  501    0 -0.74669939753E+02  0.11931544457E+01  0.41537868685E+03  0.42204038896E+03  0.12700000000E+01 0.  1.
         -4    1    3    3    0  501 -0.67582352655E+02  0.15806821016E+03  0.11458437910E+04  0.11586684339E+04  0.12700000000E+01 0.  1.
          2    1    1    2  502    0  0.13273562364E+03 -0.19760905811E+03  0.35853223960E+02  0.24073541347E+03  0.00000000000E+00 0. -1.
          1    1    1    2  503    0  0.95166687693E+01  0.38347693502E+02  0.17813645619E+03  0.18246563952E+03  0.00000000000E+00 0. -1.
<mgrwt>
<rscale>  0 0.96546713E+02</rscale>
<asrwt>0</asrwt>
<pdfrwt beam="1">  1        2 0.29070167E+00 0.39510917E+02</pdfrwt>
<pdfrwt beam="2">  1        1 0.17592134E-01 0.23591626E+03</pdfrwt>
<totfact> 0.42321662E+02</totfact>
</mgrwt>
</event>
<event>
 7    1  0.4252091E-004  0.7152444E+02  0.7546771E-02  0.1366733E+00
          2   -1    0    0  503    0  0.00000000000E+00  0.00000000000E+00  0.18261246831E+04  0.18261246831E+04  0.00000000000E+00 0. -1.
          1   -1    0    0  502    0 -0.00000000000E+00 -0.00000000000E+00 -0.13040369846E+04  0.13040369846E+04  0.00000000000E+00 0. -1.
         25    2    1    2    0    0 -0.87188190662E+02  0.50598330109E+02  0.97666133980E+03  0.98977570432E+03  0.12500640222E+03 0.  0.
          4    1    3    3  501    0  0.24566400849E+02 -0.12541200236E+02  0.28245420216E+03  0.28380059720E+03  0.12700000000E+01 0.  1.
         -4    1    3    3    0  501 -0.11175459151E+03  0.63139530345E+02  0.69420713764E+03  0.70597510712E+03  0.12700000000E+01 0.  1.
          2    1    1    2  502    0  0.19048786286E+02 -0.61946085283E+02 -0.12952529943E+04  0.12968733527E+04  0.00000000000E+00 0. -1.
          1    1    1    2  503    0  0.68139404376E+02  0.11347755174E+02  0.84067935296E+03  0.84351261074E+03  0.00000000000E+00 0. -1.
<mgrwt>
<rscale>  0 0.68083838E+02</rscale>
<asrwt>0</asrwt>
<pdfrwt beam="1">  1        2 0.28094226E+00 0.71524435E+02</pdfrwt>
<pdfrwt beam="2">  1        1 0.20062108E+00 0.64808747E+02</pdfrwt>
<totfact> 0.15692017E+01</totfact>
</mgrwt>
</event>
<event>
 7    1  0.4252091E-004  0.3507172E+03  0.7546771E-02  0.1226500E+00
          2   -1    0    0  503    0  0.00000000000E+00  0.00000000000E+00  0.28465894829E+04  0.28465894829E+04  0.00000000000E+00 0. -1.
         -2   -1    0    0    0  501 -0.00000000000E+00 -0.00000000000E+00 -0.18066950472E+04  0.18066950472E+04  0.00000000000E+00 0.  1.
         25    2    1    2    0    0 -0.30298864146E+03 -0.12920927528E+03  0.44610926152E+03  0.56845017557E+03  0.12499990089E+03 0.  0.
          4    1    3    3  502    0 -0.16386614267E+03 -0.46417555010E+02  0.13349469213E+03  0.21640043404E+03  0.12700000000E+01 0. -1.
         -4    1    3    3    0  502 -0.13912249878E+03 -0.82791720266E+02  0.31261456939E+03  0.35204974152E+03  0.12700000000E+01 0. -1.
          1    1    1    2  503    0 -0.35288257064E+02  0.33514991122E+02  0.23213513363E+04  0.23218614391E+04  0.00000000000E+00 0. -1.
         -1    1    1    2    0  501  0.33827689852E+03  0.95694284154E+02 -0.17275661622E+04  0.17629729155E+04  0.00000000000E+00 0.  1.
<mgrwt>
<rscale>  0 0.13064645E+03</rscale>
<asrwt>0</asrwt>
<pdfrwt beam="1">  1        2 0.43793685E+00 0.48667399E+02</pdfrwt>
<pdfrwt beam="2">  1       -2 0.27795308E+00 0.35071722E+03</pdfrwt>
<totfact> 0.16238449E-01</totfact>
</mgrwt>
</event>
<event>
 7    1  0.4252091E-004  0.7369014E+02  0.7546771E-02  0.1451233E+00
         -2   -1    0    0    0  501 -0.00000000000E+00  0.00000000000E+00  0.55691394721E+02  0.55691394721E+02  0.00000000000E+00 0.  1.
          2   -1    0    0  503    0  0.00000000000E+00 -0.00000000000E+00 -0.14729439995E+04  0.14729439995E+04  0.00000000000E+00 0. -1.
         25    2    1    2    0    0  0.10963762127E+01 -0.78867142415E+02 -0.23239401317E+03  0.27541173823E+03  0.12499367987E+03 0.  0.
          4    1    3    3  502    0 -0.24432909013E+02 -0.99887195985E+02 -0.11896503426E+03  0.15725365255E+03  0.12700000000E+01 0.  1.
         -4    1    3    3    0  502  0.25529285226E+02  0.21020053569E+02 -0.11342897891E+03  0.11815808568E+03  0.12700000000E+01 0.  1.
          1    1    1    2  503    0 -0.30504445177E+02  0.11159103424E+02 -0.11787010401E+04  0.11791485015E+04  0.00000000000E+00 0. -1.
         -1    1    1    2    0  501  0.29408068964E+02  0.67708038991E+02 -0.61575515075E+01  0.74075154436E+02  0.00000000000E+00 0.  1.
<mgrwt>
<rscale>  0 0.48924075E+02</rscale>
<asrwt>0</asrwt>
<pdfrwt beam="2">  1        2 0.22660670E+00 0.32481483E+02</pdfrwt>
<pdfrwt beam="1">  1       -2 0.85679093E-02 0.73690141E+02</pdfrwt>
<totfact> 0.13035709E+03</totfact>
</mgrwt>
</event>
<event>
 7    1  0.4252091E-004  0.6096471E+02  0.7546771E-02  0.1394936E+00
          2   -1    0    0  503    0  0.00000000000E+00  0.00000000000E+00  0.27832127818E+03  0.27832127818E+03  0.00000000000E+00 0. -1.
         -2   -1    0    0    0  501 -0.00000000000E+00 -0.00000000000E+00 -0.13356020923E+04  0.13356020923E+04  0.00000000000E+00 0.  1.
         25    2    1    2    0    0  0.12239546291E+01 -0.76965518461E+01 -0.31514565410E+03  0.33910574323E+03  0.12496074111E+03 0.  0.
          4    1    3    3  502    0 -0.58720685579E+00  0.22868722330E+02 -0.44427881571E+00  0.22915792732E+02  0.12700000000E+01 0. -1.
         -4    1    3    3    0  502  0.18111614849E+01 -0.30565274176E+02 -0.31470137528E+03  0.31618995050E+03  0.12700000000E+01 0. -1.
          1    1    1    2  503    0 -0.61509818029E+02  0.35603084904E+01  0.26185739384E+03  0.26900823076E+03  0.00000000000E+00 0. -1.
         -1    1    1    2    0  501  0.60285863400E+02  0.41362433557E+01 -0.10039925539E+04  0.10058093965E+04  0.00000000000E+00 0.  1.
<mgrwt>
<rscale>  0 0.60695557E+02</rscale>
<asrwt>0</asrwt>
<pdfrwt beam="1">  1        2 0.42818658E-01 0.60964711E+02</pdfrwt>
<pdfrwt beam="2">  1       -2 0.20547724E+00 0.60427592E+02</pdfrwt>
<totfact> 0.17497396E+01</totfact>
</mgrwt>
</event>
<event>
 7    1  0.4252091E-004  0.5889841E+02  0.7546771E-02  0.1410329E+00
          2   -1    0    0  503    0  0.00000000000E+00  0.00000000000E+00  0.84962503420E+03  0.84962503420E+03  0.00000000000E+00 0. -1.
          1   -1    0    0  502    0 -0.00000000000E+00 -0.00000000000E+00 -0.26753005437E+03  0.26753005437E+03  0.00000000000E+00 0. -1.
         25    2    1    2    0    0 -0.65927515922E+02 -0.64482961713E+02 -0.42567331255E+02  0.16106655953E+03  0.12500387675E+03 0.  0.
          4    1    3    3  501    0 -0.50030410768E+02 -0.33422790712E+02 -0.86234063583E+02  0.10515727061E+03  0.12700000000E+01 0. -1.
         -4    1    3    3    0  501 -0.15897105155E+02 -0.31060171001E+02  0.43666732328E+02  0.55909288916E+02  0.12700000000E+01 0. -1.
          2    1    1    2  502    0  0.11153044687E+02  0.56206766213E+02 -0.15975319005E+03  0.16971939401E+03  0.00000000000E+00 0. -1.
          1    1    1    2  503    0  0.54774471235E+02  0.82761955001E+01  0.78441550113E+03  0.78636913503E+03  0.00000000000E+00 0. -1.
<mgrwt>
<rscale>  0 0.57120464E+02</rscale>
<asrwt>0</asrwt>
<pdfrwt beam="1">  1        2 0.13071154E+00 0.55396192E+02</pdfrwt>
<pdfrwt beam="2">  1        1 0.41158470E-01 0.58898407E+02</pdfrwt>
<totfact> 0.48059902E+02</totfact>
</mgrwt>
</event>
<event>
 7    1  0.4252091E-004  0.9236278E+02  0.7546771E-02  0.1368584E+00
          2   -1    0    0  503    0  0.00000000000E+00  0.00000000000E+00  0.18640192828E+04  0.18640192828E+04  0.00000000000E+00 0. -1.
         -2   -1    0    0    0  501 -0.00000000000E+00 -0.00000000000E+00 -0.66442208448E+02  0.66442208448E+02  0.00000000000E+00 0.  1.
         25    2    1    2    0    0  0.69674214254E+02  0.40288755372E+02  0.94816172891E+03  0.95974664863E+03  0.12500114180E+03 0.  0.
          4    1    3    3  502    0  0.31454004705E+02  0.36104783847E+02  0.10175354779E+03  0.11246469320E+03  0.12700000000E+01 0.  1.
         -4    1    3    3    0  502  0.38220209549E+02  0.41839715252E+01  0.84640818112E+03  0.84728195544E+03  0.12700000000E+01 0.  1.
          1    1    1    2  503    0 -0.10176274822E+03 -0.27016653067E+01  0.89661502069E+03  0.90237544916E+03  0.00000000000E+00 0. -1.
         -1    1    1    2    0  501  0.32088533964E+02 -0.37587090065E+02 -0.47199675260E+02  0.68339393443E+02  0.00000000000E+00 0.  1.
<mgrwt>
<rscale>  0 0.67562470E+02</rscale>
<asrwt>0</asrwt>
<pdfrwt beam="1">  1        2 0.28677216E+00 0.92362782E+02</pdfrwt>
<pdfrwt beam="2">  1       -2 0.10221880E-01 0.49421284E+02</pdfrwt>
<totfact> 0.55979926E+02</totfact>
</mgrwt>
</event>
<event>
 7    1  0.4252091E-004  0.3764190E+02  0.7546771E-02  0.1582162E+00
          2   -1    0    0  503    0  0.00000000000E+00  0.00000000000E+00  0.59185016638E+02  0.59185016638E+02  0.00000000000E+00 0. -1.
         -2   -1    0    0    0  501 -0.00000000000E+00 -0.00000000000E+00 -0.10289329926E+04  0.10289329926E+04  0.00000000000E+00 0.  1.
         25    2    1    2    0    0 -0.14882414979E+02  0.44461044347E+02 -0.11316615047E+03  0.17500071996E+03  0.12498161319E+03 0.  0.
          4    1    3    3  502    0 -0.48429074337E+02  0.42222821782E+02 -0.82121769770E+01  0.64785759786E+02  0.12700000000E+01 0. -1.
         -4    1    3    3    0  502  0.33546659358E+02  0.22382225643E+01 -0.10495397349E+03  0.11021496018E+03  0.12700000000E+01 0. -1.
          1    1    1    2  503    0  0.29790785710E+02 -0.22738378666E+02  0.15559142860E+02  0.40578463550E+02  0.00000000000E+00 0. -1.
         -1    1    1    2    0  501 -0.14908370731E+02 -0.21722665681E+02 -0.87214096834E+03  0.87253882571E+03  0.00000000000E+00 0.  1.
<mgrwt>
<rscale>  0 0.31491731E+02</rscale>
<asrwt>0</asrwt>
<pdfrwt beam="1">  1        2 0.91053884E-02 0.37641895E+02</pdfrwt>
<pdfrwt beam="2">  1       -2 0.15829736E+00 0.26346418E+02</pdfrwt>
<totfact> 0.19567063E+02</totfact>
</mgrwt>
</event>
<event>
 7    1  0.4252091E-004  0.5297809E+02  0.7546771E-02  0.1560514E+00
          1   -1    0    0  502    0 -0.00000000000E+00  0.00000000000E+00  0.78280944726E+03  0.78280944726E+03  0.00000000000E+00 0. -1.
          2   -1    0    0  503    0  0.00000000000E+00 -0.00000000000E+00 -0.18549827483E+04  0.18549827483E+04  0.00000000000E+00 0. -1.
         25    2    1    2    0    0 -0.16686904748E+02 -0.33214800434E+02 -0.51471263370E+03  0.53097591547E+03  0.12499860703E+03 0.  0.
          4    1    3    3  501    0 -0.15597640913E+02 -0.78621383603E+01 -0.19920071986E+01  0.17626134412E+02  0.12700000000E+01 0.  1.
         -4    1    3    3    0  501 -0.10892638355E+01 -0.25352662074E+02 -0.51272062650E+03  0.51334978106E+03  0.12700000000E+01 0.  1.
          2    1    1    2  502    0  0.73596095370E+01 -0.20125928018E+02  0.77397915709E+03  0.77427575995E+03  0.00000000000E+00 0. -1.
          1    1    1    2  503    0  0.93272952112E+01  0.53340728452E+02 -0.13314398244E+04  0.13325405201E+04  0.00000000000E+00 0. -1.
<mgrwt>
<rscale>  0 0.33694003E+02</rscale>
<asrwt>0</asrwt>
<pdfrwt beam="2">  1        2 0.28538196E+00 0.52978092E+02</pdfrwt>
<pdfrwt beam="1">  1        1 0.12043222E+00 0.21429345E+02</pdfrwt>
<totfact> 0.38698824E+01</totfact>
</mgrwt>
</event>
<event>
 7    1  0.4252091E-004  0.1183302E+03  0.7546771E-02  0.1284249E+00
          2   -1    0    0  503    0  0.00000000000E+00  0.00000000000E+00  0.76444539181E+03  0.76444539181E+03  0.00000000000E+00 0. -1.
          1   -1    0    0  502    0 -0.00000000000E+00 -0.00000000000E+00 -0.12829198360E+03  0.12829198360E+03  0.00000000000E+00 0. -1.
         25    2    1    2    0    0 -0.61085945314E+02 -0.86267028286E+02 -0.11091129889E+02  0.16406885685E+03  0.12498833442E+03 0.  0.
          4    1    3    3  501    0 -0.76405561362E+02 -0.10123864436E+03  0.17796393667E+02  0.12808355650E+03  0.12700000000E+01 0.  1.
         -4    1    3    3    0  501  0.15319616049E+02  0.14971616072E+02 -0.28887523555E+02  0.35985300344E+02  0.12700000000E+01 0.  1.
          2    1    1    2  502    0  0.14066093044E+03  0.69123956556E+02  0.12597172570E+03  0.20107832902E+03  0.00000000000E+00 0. -1.
          1    1    1    2  503    0 -0.79574985128E+02  0.17143071731E+02  0.52127281240E+03  0.52759018955E+03  0.00000000000E+00 0. -1.
<mgrwt>
<rscale>  0 0.98143547E+02</rscale>
<asrwt>0</asrwt>
<pdfrwt beam="1">  1        2 0.11760698E+00 0.81400634E+02</pdfrwt>
<pdfrwt beam="2">  1        1 0.19737229E-01 0.11833023E+03</pdfrwt>
<totfact> 0.13478919E+03</totfact>
</mgrwt>
</event>
<event>
 7    1  0.4252091E-004  0.8314219E+02  0.7546771E-02  0.1362086E+00
          2   -1    0    0  503    0  0.00000000000E+00  0.00000000000E+00  0.16369947918E+03  0.16369947918E+03  0.00000000000E+00 0. -1.
          1   -1    0    0  502    0 -0.00000000000E+00 -0.00000000000E+00 -0.19239438067E+04  0.19239438067E+04  0.00000000000E+00 0. -1.
         25    2    1    2    0    0 -0.12017161664E+03  0.54175118236E+02 -0.23187592861E+03  0.29456462394E+03  0.12500284207E+03 0.  0.
          4    1    3    3  501    0 -0.72643372311E+00 -0.31189793184E+02 -0.66206369483E+02  0.73199912329E+02  0.12700000000E+01 0. -1.
         -4    1    3    3    0  501 -0.11944518292E+03  0.85364911420E+02 -0.16566955913E+03  0.22136471161E+03  0.12700000000E+01 0. -1.
          2    1    1    2  502    0  0.80915761140E+02 -0.11535618868E+02 -0.16533202706E+04  0.16553393453E+04  0.00000000000E+00 0. -1.
          1    1    1    2  503    0  0.39255855502E+02 -0.42639499368E+02  0.12495187172E+03  0.13773931662E+03  0.00000000000E+00 0. -1.
<mgrwt>
<rscale>  0 0.69417355E+02</rscale>
<asrwt>0</asrwt>
<pdfrwt beam="1">  1        2 0.25184534E-01 0.57958167E+02</pdfrwt>
<pdfrwt beam="2">  1        1 0.29599137E+00 0.83142195E+02</pdfrwt>
<totfact> 0.12068876E+02</totfact>
</mgrwt>
</event>
<event>
 7    1  0.4252091E-004  0.9562013E+02  0.7546771E-02  0.1429492E+00
          1   -1    0    0  503    0  0.00000000000E+00  0.00000000000E+00  0.52721599157E+03  0.52721599157E+03  0.00000000000E+00 0. -1.
         -1   -1    0    0    0  501 -0.00000000000E+00 -0.00000000000E+00 -0.51107704602E+02  0.51107704602E+02  0.00000000000E+00 0.  1.
         25    2    1    2    0    0  0.72580162329E+02  0.95354833942E+02  0.19046898929E+03  0.25743261448E+03  0.12503075940E+03 0.  0.
          4    1    3    3  502    0  0.39899753655E+02  0.11732021249E+03  0.10169955597E+03  0.16031355272E+03  0.12700000000E+01 0.  1.
         -4    1    3    3    0  502  0.32680408674E+02 -0.21965378546E+02  0.88769433315E+02  0.97119061759E+02  0.12700000000E+01 0.  1.
          2    1    1    2  503    0 -0.54751546116E+02 -0.71920080773E+02  0.27517660869E+03  0.28964184054E+03  0.00000000000E+00 0. -1.
         -2    1    1    2    0  501 -0.17828616213E+02 -0.23434753169E+02  0.10462688997E+02  0.31249241162E+02  0.00000000000E+00 0.  1.
<mgrwt>
<rscale>  0 0.53062211E+02</rscale>
<asrwt>0</asrwt>
<pdfrwt beam="1">  1        1 0.81110149E-01 0.95620127E+02</pdfrwt>
<pdfrwt beam="2">  1       -1 0.78627241E-02 0.29445665E+02</pdfrwt>
<totfact> 0.31910486E+03</totfact>
</mgrwt>
</event>
<event>
 7    1  0.4252091E-004  0.9004324E+02  0.7546771E-02  0.1396903E+00
          2   -1    0    0  503    0  0.00000000000E+00  0.00000000000E+00  0.52421738829E+03  0.52421738829E+03  0.00000000000E+00 0. -1.
          1   -1    0    0  502    0 -0.00000000000E+00 -0.00000000000E+00 -0.50584840565E+03  0.50584840565E+03  0.00000000000E+00 0. -1.
         25    2    1    2    0    0 -0.76616960941E+02  0.23561034095E+02 -0.67169774609E+02  0.16297952895E+03  0.12500106881E+03 0.  0.
          4    1    3    3  501    0 -0.14882966707E+02  0.22984537965E+02  0.34477096625E+02  0.44046279924E+02  0.12700000000E+01 0.  1.
         -4    1    3    3    0  501 -0.61733994234E+02  0.57649613032E+00 -0.10164687123E+03  0.11893324903E+03  0.12700000000E+01 0.  1.
          2    1    1    2  502    0  0.67282668746E+02 -0.62741354609E+02 -0.38448599451E+03  0.39533898753E+03  0.00000000000E+00 0. -1.
          1    1    1    2  503    0  0.93342921954E+01  0.39180320514E+02  0.47002475176E+03  0.47174727746E+03  0.00000000000E+00 0. -1.
<mgrwt>
<rscale>  0 0.60221757E+02</rscale>
<asrwt>0</asrwt>
<pdfrwt beam="1">  1        2 0.80648829E-01 0.40276873E+02</pdfrwt>
<pdfrwt beam="2">  1        1 0.77822831E-01 0.90043237E+02</pdfrwt>
<totfact> 0.37930314E+02</totfact>
</mgrwt>
</event>
<event>
 7    1  0.4252091E-004  0.1482910E+03  0.7546771E-02  0.1339323E+00
          1   -1    0    0  502    0 -0.00000000000E+00  0.00000000000E+00  0.38044010283E+03  0.38044010283E+03  0.00000000000E+00 0. -1.
          2   -1    0    0  503    0  0.00000000000E+00 -0.00000000000E+00 -0.12875528802E+04  0.12875528802E+04  0.00000000000E+00 0. -1.
         25    2    1    2    0    0 -0.69224292126E+02  0.15316155106E+03 -0.25834997476E+03  0.33259544150E+03  0.12499821961E+03 0.  0.
          4    1    3    3  501    0  0.31478127998E+02  0.45982998639E+02 -0.11205959163E+03  0.12515699614E+03  0.12700000000E+01 0.  1.
         -4    1    3    3    0  501 -0.10070242012E+03  0.10717855242E+03 -0.14629038313E+03  0.20743844536E+03  0.12700000000E+01 0.  1.
          2    1    1    2  502    0  0.37984225504E+02 -0.10664044397E+02  0.33679684407E+03  0.33909974551E+03  0.00000000000E+00 0. -1.
          1    1    1    2  503    0  0.31240066622E+02 -0.14249750666E+03 -0.98555964664E+03  0.99629779597E+03  0.00000000000E+00 0. -1.
<mgrwt>
<rscale>  0 0.76488532E+02</rscale>
<asrwt>0</asrwt>
<pdfrwt beam="2">  1        2 0.19808506E+00 0.14829102E+03</pdfrwt>
<pdfrwt beam="1">  1        1 0.58529246E-01 0.39452797E+02</pdfrwt>
<totfact> 0.16751177E+02</totfact>
</mgrwt>
</event>
<event>
 7    1  0.4252091E-004  0.1093571E+03  0.7546771E-02  0.1420021E+00
          1   -1    0    0  502    0 -0.00000000000E+00  0.00000000000E+00  0.98398522670E+03  0.98398522670E+03  0.00000000000E+00 0. -1.
          2   -1    0    0  503    0  0.00000000000E+00 -0.00000000000E+00 -0.19917266554E+04  0.19917266554E+04  0.00000000000E+00 0. -1.
         25    2    1    2    0    0  0.78737025366E+02 -0.31763984479E+02 -0.18454956640E+02  0.15223301200E+03  0.12500333854E+03 0.  0.
          4    1    3    3  501    0 -0.26855570267E+02  0.10377360091E+02 -0.25272576975E+02  0.38330500959E+02  0.12700000000E+01 0.  1.
         -4    1    3    3    0  501  0.10559259563E+03 -0.42141344570E+02  0.68176203350E+01  0.11390251104E+03  0.12700000000E+01 0.  1.
          2    1    1    2  502    0  0.17468794202E+02 -0.21469195055E+02  0.91530145320E+03  0.91571984545E+03  0.00000000000E+00 0. -1.
          1    1    1    2  503    0 -0.96205819568E+02  0.53233179534E+02 -0.19045879253E+04  0.19077590247E+04  0.00000000000E+00 0. -1.
<mgrwt>
<rscale>  0 0.55016485E+02</rscale>
<asrwt>0</asrwt>
<pdfrwt beam="2">  1        2 0.30641949E+00 0.10935714E+03</pdfrwt>
<pdfrwt beam="1">  1        1 0.15138234E+00 0.27678242E+02</pdfrwt>
<totfact> 0.21613296E+01</totfact>
</mgrwt>
</event>
<event>
 7    1  0.4252091E-004  0.1049473E+03  0.7546771E-02  0.1305131E+00
          2   -1    0    0  503    0  0.00000000000E+00  0.00000000000E+00  0.12813880858E+04  0.12813880858E+04  0.00000000000E+00 0. -1.
          1   -1    0    0  502    0 -0.00000000000E+00 -0.00000000000E+00 -0.32362642418E+03  0.32362642418E+03  0.00000000000E+00 0. -1.
         25    2    1    2    0    0 -0.76107086293E+02  0.78821705271E+02  0.16117309096E+03  0.23153595181E+03  0.12500792744E+03 0.  0.
          4    1    3    3  501    0 -0.69314231658E+02  0.11227334187E+03  0.12442103633E+03  0.18136144350E+03  0.12700000000E+01 0.  1.
         -4    1    3    3    0  501 -0.67928546352E+01 -0.33451636595E+02  0.36752054626E+02  0.50174508310E+02  0.12700000000E+01 0.  1.
          2    1    1    2  502    0  0.70407077895E+02  0.27498900035E+02 -0.28082356436E+03  0.29081819135E+03  0.00000000000E+00 0. -1.
          1    1    1    2  503    0  0.57000083987E+01 -0.10632060531E+03  0.10774121350E+04  0.10826603668E+04  0.00000000000E+00 0. -1.
<mgrwt>
<rscale>  0 0.89065226E+02</rscale>
<asrwt>0</asrwt>
<pdfrwt beam="1">  1        2 0.19713663E+00 0.10494726E+03</pdfrwt>
<pdfrwt beam="2">  1        1 0.49788681E-01 0.75586680E+02</pdfrwt>
<totfact> 0.20946196E+02</totfact>
</mgrwt>
</event>
<event>
 7    1  0.4252091E-004  0.5670673E+02  0.7546771E-02  0.1480872E+00
          2   -1    0    0  503    0  0.00000000000E+00  0.00000000000E+00  0.42651820552E+03  0.42651820552E+03  0.00000000000E+00 0. -1.
         -2   -1    0    0    0  501 -0.00000000000E+00 -0.00000000000E+00 -0.22715701315E+03  0.22715701315E+03  0.00000000000E+00 0.  1.
         25    2    1    2    0    0  0.87613590651E+02  0.20117499955E+02 -0.64386648452E+02  0.16689026940E+03  0.12500346575E+03 0.  0.
          4    1    3    3  502    0  0.76135073089E+02  0.51161849934E+02  0.30182340313E+01  0.91786746753E+02  0.12700000000E+01 0. -1.
         -4    1    3    3    0  502  0.11478517562E+02 -0.31044349979E+02 -0.67404882483E+02  0.75103522644E+02  0.12700000000E+01 0. -1.
          1    1    1    2  503    0 -0.53764207267E+02 -0.16033084785E+02  0.37049821284E+03  0.37472199763E+03  0.00000000000E+00 0. -1.
         -1    1    1    2    0  501 -0.33849383384E+02 -0.40844151703E+01 -0.10675037203E+03  0.11206295164E+03  0.00000000000E+00 0.  1.
<mgrwt>
<rscale>  0 0.43970571E+02</rscale>
<asrwt>0</asrwt>
<pdfrwt beam="1">  1        2 0.65618186E-01 0.56706730E+02</pdfrwt>
<pdfrwt beam="2">  1       -2 0.34947233E-01 0.34094915E+02</pdfrwt>
<totfact> 0.56277082E+02</totfact>
</mgrwt>
</event>
<event>
 7    1  0.4252091E-004  0.8580967E+02  0.7546771E-02  0.1463485E+00
          1   -1    0    0  503    0  0.00000000000E+00  0.00000000000E+00  0.35224126151E+02  0.35224126151E+02  0.00000000000E+00 0. -1.
         -1   -1    0    0    0  501 -0.00000000000E+00 -0.00000000000E+00 -0.11828143066E+04  0.11828143066E+04  0.00000000000E+00 0.  1.
         25    2    1    2    0    0 -0.21038426192E+02  0.83143612612E+02 -0.15364742843E+03  0.21584057603E+03  0.12499658517E+03 0.  0.
          4    1    3    3  502    0 -0.86488977004E+01  0.10728584079E+03 -0.71263966495E+02  0.12909384527E+03  0.12700000000E+01 0.  1.
         -4    1    3    3    0  502 -0.12389528491E+02 -0.24142228177E+02 -0.82383461939E+02  0.86746730766E+02  0.12700000000E+01 0.  1.
          2    1    1    2  503    0 -0.38810496298E+01 -0.88601215725E+02 -0.51531776850E+03  0.52289352693E+03  0.00000000000E+00 0. -1.
         -2    1    1    2    0  501  0.24919475821E+02  0.54576031136E+01 -0.47862498346E+03  0.47930432974E+03  0.00000000000E+00 0.  1.
<mgrwt>
<rscale>  0 0.46786901E+02</rscale>
<asrwt>0</asrwt>
<pdfrwt beam="1">  1        1 0.54190961E-02 0.85809670E+02</pdfrwt>
<pdfrwt beam="2">  1       -1 0.18197144E+00 0.25510110E+02</pdfrwt>
<totfact> 0.36422320E+02</totfact>
</mgrwt>
</event>
<event>
 7    1  0.4252091E-004  0.9623556E+02  0.7546771E-02  0.1413310E+00
          2   -1    0    0  503    0  0.00000000000E+00  0.00000000000E+00  0.24048496296E+04  0.24048496296E+04  0.00000000000E+00 0. -1.
          1   -1    0    0  502    0 -0.00000000000E+00 -0.00000000000E+00 -0.17774723902E+03  0.17774723902E+03  0.00000000000E+00 0. -1.
         25    2    1    2    0    0  0.90622240011E+02  0.91455558395E+02  0.77500605650E+02  0.19547344273E+03  0.12500805330E+03 0.  0.
          4    1    3    3  501    0  0.71154049018E+02  0.12177825062E+03  0.48342053477E+02  0.14910200552E+03  0.12700000000E+01 0. -1.
         -4    1    3    3    0  501  0.19468190994E+02 -0.30322692222E+02  0.29158552173E+02  0.46371437210E+02  0.12700000000E+01 0. -1.
          2    1    1    2  502    0 -0.24461700951E+02 -0.22337636881E+02 -0.11542104774E+03  0.12008065246E+03  0.00000000000E+00 0. -1.
          1    1    1    2  503    0 -0.66160539060E+02 -0.69117921514E+02  0.22650228327E+04  0.22670427735E+04  0.00000000000E+00 0. -1.
<mgrwt>
<rscale>  0 0.56461651E+02</rscale>
<asrwt>0</asrwt>
<pdfrwt beam="1">  1        2 0.36997684E+00 0.96235562E+02</pdfrwt>
<pdfrwt beam="2">  1        1 0.27345731E-01 0.33126196E+02</pdfrwt>
<totfact> 0.11383242E+02</totfact>
</mgrwt>
</event>
<event>
 7    1  0.4252091E-004  0.1064758E+03  0.7546771E-02  0.1381598E+00
          1   -1    0    0  502    0 -0.00000000000E+00  0.00000000000E+00  0.68641713757E+03  0.68641713757E+03  0.00000000000E+00 0. -1.
          2   -1    0    0  503    0  0.00000000000E+00 -0.00000000000E+00 -0.50369000593E+03  0.50369000593E+03  0.00000000000E+00 0. -1.
         25    2    1    2    0    0  0.77561411988E+02 -0.49873640331E+02 -0.20801442964E+03  0.25961023027E+03  0.12499726435E+03 0.  0.
          4    1    3    3  501    0  0.79763015008E+02 -0.44150335358E+02 -0.22432110232E+03  0.24214243849E+03  0.12700000000E+01 0.  1.
         -4    1    3    3    0  501 -0.22016030198E+01 -0.57233049726E+01  0.16306672679E+02  0.17467791776E+02  0.12700000000E+01 0.  1.
          2    1    1    2  502    0 -0.10448992017E+03  0.22325150308E+02  0.65489251076E+03  0.66355162301E+03  0.00000000000E+00 0. -1.
          1    1    1    2  503    0  0.26928508182E+02  0.27548490023E+02 -0.26415094948E+03  0.26694529021E+03  0.00000000000E+00 0. -1.
<mgrwt>
<rscale>  0 0.64045500E+02</rscale>
<asrwt>0</asrwt>
<pdfrwt beam="2">  1        2 0.77490770E-01 0.38523549E+02</pdfrwt>
<pdfrwt beam="1">  1        1 0.10560264E+00 0.10647581E+03</pdfrwt>
<totfact> 0.26140578E+02</totfact>
</mgrwt>
</event>
<event>
 7    1  0.4252091E-004  0.3579752E+03  0.7546771E-02  0.1184231E+00
          1   -1    0    0  502    0 -0.00000000000E+00  0.00000000000E+00  0.12156343300E+04  0.12156343300E+04  0.00000000000E+00 0. -1.
          2   -1    0    0  503    0  0.00000000000E+00 -0.00000000000E+00 -0.78667840925E+03  0.78667840925E+03  0.00000000000E+00 0. -1.
         25    2    1    2    0    0  0.21507945092E+03 -0.32891626594E+03  0.34120243448E+03  0.53524743805E+03  0.12500255370E+03 0.  0.
          4    1    3    3  501    0  0.18153540505E+03 -0.21526732686E+03  0.17648085203E+03  0.33232849612E+03  0.12700000000E+01 0. -1.
         -4    1    3    3    0  501  0.33544045868E+02 -0.11364893908E+03  0.16472158245E+03  0.20291894193E+03  0.12700000000E+01 0. -1.
          2    1    1    2  502    0 -0.23220035561E+03  0.25574042500E+03  0.73676267183E+03  0.81371948774E+03  0.00000000000E+00 0. -1.
          1    1    1    2  503    0  0.17120904691E+02  0.73175840942E+02 -0.64900918555E+03  0.65334581348E+03  0.00000000000E+00 0. -1.
<mgrwt>
<rscale>  0 0.16402002E+03</rscale>
<asrwt>0</asrwt>
<pdfrwt beam="2">  1        2 0.12102745E+00 0.75152040E+02</pdfrwt>
<pdfrwt beam="1">  1        1 0.18702067E+00 0.35797523E+03</pdfrwt>
<totfact> 0.57222543E+01</totfact>
</mgrwt>
</event>
<event>
 7    1  0.4252091E-004  0.2507940E+02  0.7546771E-02  0.1682703E+00
          1   -1    0    0  503    0  0.00000000000E+00  0.00000000000E+00  0.10256011821E+04  0.10256011821E+04  0.00000000000E+00 0. -1.
         -1   -1    0    0    0  501 -0.00000000000E+00 -0.00000000000E+00 -0.95668364875E+02  0.95668364875E+02  0.00000000000E+00 0.  1.
         25    2    1    2    0    0 -0.27347759749E+02 -0.98480978618E+00  0.19016147634E+03  0.22921043012E+03  0.12500865721E+03 0.  0.
          4    1    3    3  502    0  0.34651763871E+02  0.34745123435E+02  0.41740237641E+02  0.64434685382E+02  0.12700000000E+01 0.  1.
         -4    1    3    3    0  502 -0.61999523620E+02 -0.35729933221E+02  0.14842123870E+03  0.16477574474E+03  0.12700000000E+01 0.  1.
          2    1    1    2  503    0  0.16980561490E+02 -0.18554332129E+02  0.81411054926E+03  0.81449898043E+03  0.00000000000E+00 0. -1.
         -2    1    1    2    0  501  0.10367198259E+02  0.19539141915E+02 -0.74339208354E+02  0.77560136444E+02  0.00000000000E+00 0.  1.
<mgrwt>
<rscale>  0 0.23552816E+02</rscale>
<asrwt>0</asrwt>
<pdfrwt beam="1">  1        1 0.15778479E+00 0.25079403E+02</pdfrwt>
<pdfrwt beam="2">  1       -1 0.14718211E-01 0.22119152E+02</pdfrwt>
<totfact> 0.52007817E+02</totfact>
</mgrwt>
</event>
<event>
 7    1  0.4252091E-004  0.2756621E+03  0.7546771E-02  0.1298983E+00
          1   -1    0    0  502    0 -0.00000000000E+00  0.00000000000E+00  0.13403816352E+04  0.13403816352E+04  0.00000000000E+00 0. -1.
          2   -1    0    0  503    0  0.00000000000E+00 -0.00000000000E+00 -0.40914256236E+03  0.40914256236E+03  0.00000000000E+00 0. -1.
         25    2    1    2    0    0  0.25589371443E+03 -0.99304258022E+02  0.99365735613E+02  0.31755106275E+03  0.12498879666E+03 0.  0.
          4    1    3    3  501    0  0.16713593223E+03 -0.91281962596E+02  0.90434926620E+01  0.19065732139E+03  0.12700000000E+01 0. -1.
         -4    1    3    3    0  501  0.88757782202E+02 -0.80222954262E+01  0.90322242951E+02  0.12689374136E+03  0.12700000000E+01 0. -1.
          2    1    1    2  502    0  0.11243346451E+02  0.28297129267E+02  0.10680005876E+04  0.10684345537E+04  0.00000000000E+00 0. -1.
          1    1    1    2  503    0 -0.26713706088E+03  0.71007128756E+02 -0.23612725035E+03  0.36353858116E+03  0.00000000000E+00 0. -1.
<mgrwt>
<rscale>  0 0.91616752E+02</rscale>
<asrwt>0</asrwt>
<pdfrwt beam="2">  1        2 0.62945010E-01 0.27566208E+03</pdfrwt>
<pdfrwt beam="1">  1        1 0.20621256E+00 0.30448980E+02</pdfrwt>
<totfact> 0.11835430E+02</totfact>
</mgrwt>
</event>
<event>
 7    1  0.4252091E-004  0.5771245E+02  0.7546771E-02  0.1515066E+00
          1   -1    0    0  502    0 -0.00000000000E+00  0.00000000000E+00  0.42500839372E+03  0.42500839372E+03  0.00000000000E+00 0. -1.
          2   -1    0    0  503    0  0.00000000000E+00 -0.00000000000E+00 -0.15947414706E+04  0.15947414706E+04  0.00000000000E+00 0. -1.
         25    2    1    2    0    0 -0.46811800311E+02 -0.59141860776E+02  0.55914986150E+02  0.15633012772E+03  0.12499407511E+03 0.  0.
          4    1    3    3  501    0 -0.13438518716E+02  0.32685068564E+02 -0.11989877414E+02  0.37340026147E+02  0.12700000000E+01 0.  1.
         -4    1    3    3    0  501 -0.33373281596E+02 -0.91826929340E+02  0.67904863564E+02  0.11899010157E+03  0.12700000000E+01 0.  1.
          2    1    1    2  502    0  0.46662246865E+02  0.32674411980E+02  0.31622735153E+03  0.32131716471E+03  0.00000000000E+00 0. -1.
          1    1    1    2  503    0  0.14955344626E+00  0.26467448796E+02 -0.15418754145E+04  0.15421025719E+04  0.00000000000E+00 0. -1.
<mgrwt>
<rscale>  0 0.39083574E+02</rscale>
<asrwt>0</asrwt>
<pdfrwt beam="2">  1        2 0.24534484E+00 0.26467871E+02</pdfrwt>
<pdfrwt beam="1">  1        1 0.65385906E-01 0.57712452E+02</pdfrwt>
<totfact> 0.11750309E+02</totfact>
</mgrwt>
</event>
<event>
 7    1  0.4252091E-004  0.1109731E+03  0.7546771E-02  0.1325321E+00
          2   -1    0    0  503    0  0.00000000000E+00  0.00000000000E+00  0.62358371861E+03  0.62358371861E+03  0.00000000000E+00 0. -1.
         -2   -1    0    0    0  501 -0.00000000000E+00 -0.00000000000E+00 -0.19389904639E+03  0.19389904639E+03  0.00000000000E+00 0.  1.
         25    2    1    2    0    0 -0.68194338828E+02  0.55145307780E+02 -0.58688769371E+02  0.16358856405E+03  0.12500149527E+03 0.  0.
          4    1    3    3  502    0 -0.14385388291E+02  0.77133159049E+02 -0.69053882215E+02  0.10452997259E+03  0.12700000000E+01 0.  1.
         -4    1    3    3    0  502 -0.53808950537E+02 -0.21987851268E+02  0.10365112844E+02  0.59058591463E+02  0.12700000000E+01 0.  1.
          1    1    1    2  503    0 -0.13833021032E+02  0.57976813783E+02  0.50914897492E+03  0.51262592801E+03  0.00000000000E+00 0. -1.
         -1    1    1    2    0  501  0.82027359861E+02 -0.11312212156E+03 -0.20775533330E+02  0.14126827293E+03  0.00000000000E+00 0.  1.
<mgrwt>
<rscale>  0 0.81329381E+02</rscale>
<asrwt>0</asrwt>
<pdfrwt beam="1">  1        2 0.95935956E-01 0.59604223E+02</pdfrwt>
<pdfrwt beam="2">  1       -2 0.29830623E-01 0.11097315E+03</pdfrwt>
<totfact> 0.51235718E+02</totfact>
</mgrwt>
</event>
<event>
 7    1  0.4252091E-004  0.9468967E+02  0.7546771E-02  0.1461966E+00
          2   -1    0    0  503    0  0.00000000000E+00  0.00000000000E+00  0.18137794465E+03  0.18137794465E+03  0.00000000000E+00 0. -1.
          1   -1    0    0  502    0 -0.00000000000E+00 -0.00000000000E+00 -0.32593133925E+03  0.32593133925E+03  0.00000000000E+00 0. -1.
         25    2    1    2    0    0 -0.51742695329E+02 -0.97637780090E+02  0.36045542820E+02  0.17069932328E+03  0.12501413997E+03 0.  0.
          4    1    3    3  501    0 -0.40209769836E+02  0.62765150520E+01  0.50799844824E+02  0.65103435897E+02  0.12700000000E+01 0.  1.
         -4    1    3    3    0  501 -0.11532925493E+02 -0.10391429514E+03 -0.14754302005E+02  0.10559588739E+03  0.12700000000E+01 0.  1.
          2    1    1    2  502    0  0.17220715614E+02  0.15803644241E+02 -0.23254513433E+03  0.23371681095E+03  0.00000000000E+00 0. -1.
          1    1    1    2  503    0  0.34521979715E+02  0.81834135849E+02  0.51946196913E+02  0.10289314966E+03  0.00000000000E+00 0. -1.
<mgrwt>
<rscale>  0 0.47044703E+02</rscale>
<asrwt>0</asrwt>
<pdfrwt beam="1">  1        2 0.27904299E-01 0.94689670E+02</pdfrwt>
<pdfrwt beam="2">  1        1 0.50143283E-01 0.23373237E+02</pdfrwt>
<totfact> 0.19907301E+03</totfact>
</mgrwt>
</event>
<event>
 7    1  0.4252091E-004  0.8913415E+02  0.7546771E-02  0.1407208E+00
         -2   -1    0    0    0  501 -0.00000000000E+00  0.00000000000E+00  0.32101755114E+03  0.32101755114E+03  0.00000000000E+00 0.  1.
          2   -1    0    0  503    0  0.00000000000E+00 -0.00000000000E+00 -0.18743221789E+03  0.18743221789E+03  0.00000000000E+00 0. -1.
         25    2    1    2    0    0  0.66045328265E+02 -0.14482325651E+02  0.17934732072E+03  0.22882450836E+03  0.12499388398E+03 0.  0.
          4    1    3    3  502    0  0.69727406676E+02 -0.45385106000E+02  0.17931243909E+03  0.19767721872E+03  0.12700000000E+01 0. -1.
         -4    1    3    3    0  502 -0.36820784113E+01  0.30902780348E+02  0.34881627004E-01  0.31147289632E+02  0.12700000000E+01 0. -1.
          1    1    1    2  503    0 -0.89587395175E+02 -0.14718558208E+02 -0.14637688307E+03  0.17224612979E+03  0.00000000000E+00 0. -1.
         -1    1    1    2    0  501  0.23542066910E+02  0.29200883860E+02  0.10061489560E+03  0.10737913088E+03  0.00000000000E+00 0.  1.
<mgrwt>
<rscale>  0 0.57821515E+02</rscale>
<asrwt>0</asrwt>
<pdfrwt beam="2">  1        2 0.28835726E-01 0.89134154E+02</pdfrwt>
<pdfrwt beam="1">  1       -2 0.49387315E-01 0.37508939E+02</pdfrwt>
<totfact> 0.70438610E+02</totfact>
</mgrwt>
</event>
<event>
 7    1  0.4252091E-004  0.6285481E+02  0.7546771E-02  0.1394507E+00
          2   -1    0    0  503    0  0.00000000000E+00  0.00000000000E+00  0.37005159571E+03  0.37005159571E+03  0.00000000000E+00 0. -1.
          1   -1    0    0  502    0 -0.00000000000E+00 -0.00000000000E+00 -0.95260196462E+03  0.95260196462E+03  0.00000000000E+00 0. -1.
         25    2    1    2    0    0 -0.50799235665E+02  0.97933753141E+01  0.15343189692E+03  0.20453782781E+03  0.12497161066E+03 0.  0.
          4    1    3    3  501    0 -0.59041273083E+02  0.45457097604E+02  0.15032085873E+03  0.16778019287E+03  0.12700000000E+01 0. -1.
         -4    1    3    3    0  501  0.82420374177E+01 -0.35663722290E+02  0.31110381952E+01  0.36757634948E+02  0.12700000000E+01 0. -1.
          2    1    1    2  502    0  0.19926790741E+02 -0.59850151719E+02 -0.92141932864E+03  0.92357603739E+03  0.00000000000E+00 0. -1.
          1    1    1    2  503    0  0.30872444924E+02  0.50056776405E+02  0.18543706281E+03  0.19453969513E+03  0.00000000000E+00 0. -1.
<mgrwt>
<rscale>  0 0.60799534E+02</rscale>
<asrwt>0</asrwt>
<pdfrwt beam="1">  1        2 0.56931016E-01 0.58811468E+02</pdfrwt>
<pdfrwt beam="2">  1        1 0.14655415E+00 0.62854806E+02</pdfrwt>
<totfact> 0.22632092E+02</totfact>
</mgrwt>
</event>
<event>
 7    1  0.4252091E-004  0.1293609E+03  0.7546771E-02  0.1380980E+00
          2   -1    0    0  503    0  0.00000000000E+00  0.00000000000E+00  0.65301256415E+03  0.65301256415E+03  0.00000000000E+00 0. -1.
         -2   -1    0    0    0  501 -0.00000000000E+00 -0.00000000000E+00 -0.17028233963E+03  0.17028233963E+03  0.00000000000E+00 0.  1.
         25    2    1    2    0    0 -0.13337794324E+03 -0.26858835602E+02  0.12921797322E+03  0.22546352237E+03  0.12500177008E+03 0.  0.
          4    1    3    3  502    0 -0.13942535540E+03 -0.41322790149E+02  0.14343617594E+03  0.20426099036E+03  0.12700000000E+01 0. -1.
         -4    1    3    3    0  502  0.60474121589E+01  0.14463954546E+02 -0.14218202722E+02  0.21202532009E+02  0.12700000000E+01 0. -1.
          1    1    1    2  503    0  0.12863038724E+03 -0.46540010064E+01  0.46468449732E+03  0.48218162376E+03  0.00000000000E+00 0. -1.
         -1    1    1    2    0  501  0.47475559966E+01  0.31512836609E+02 -0.11117224601E+03  0.11564975764E+03  0.00000000000E+00 0.  1.
<mgrwt>
<rscale>  0 0.64206931E+02</rscale>
<asrwt>0</asrwt>
<pdfrwt beam="1">  1        2 0.10046347E+00 0.12936085E+03</pdfrwt>
<pdfrwt beam="2">  1       -2 0.26197283E-01 0.31868451E+02</pdfrwt>
<totfact> 0.57449789E+02</totfact>
</mgrwt>
</event>
<event>
 7    1  0.4252091E-004  0.1155070E+03  0.7546771E-02  0.1416336E+00
          1   -1    0    0  503    0  0.00000000000E+00  0.00000000000E+00  0.34789890276E+03  0.34789890276E+03  0.00000000000E+00 0. -1.
         -1   -1    0    0    0  501 -0.00000000000E+00 -0.00000000000E+00 -0.69713610407E+03  0.69713610407E+03  0.00000000000E+00 0.  1.
         25    2    1    2    0    0  0.12194623814E+03 -0.80576327909E+01  0.16295308845E+02  0.17557374222E+03  0.12499916570E+03 0.  0.
          4    1    3    3  502    0  0.17195400881E+02  0.47612522899E+02  0.25288068265E+02  0.56601532178E+02  0.12700000000E+01 0. -1.
         -4    1    3    3    0  502  0.10475083726E+03 -0.55670155690E+02 -0.89927594197E+01  0.11897221004E+03  0.12700000000E+01 0. -1.
          2    1    1    2  503    0 -0.11017427914E+03  0.32311600378E+02  0.23856847217E+03  0.26475899837E+03  0.00000000000E+00 0. -1.
         -2    1    1    2    0  501 -0.11771959000E+02 -0.24253967587E+02 -0.60410098232E+03  0.60470226625E+03  0.00000000000E+00 0.  1.
<mgrwt>
<rscale>  0 0.55803697E+02</rscale>
<asrwt>0</asrwt>
<pdfrwt beam="1">  1        1 0.53522908E-01 0.11550701E+03</pdfrwt>
<pdfrwt beam="2">  1       -1 0.10725171E+00 0.26959858E+02</pdfrwt>
<totfact> 0.70594708E+01</totfact>
</mgrwt>
</event>
<event>
 7    1  0.4252091E-004  0.1008951E+03  0.7546771E-02  0.1351683E+00
          2   -1    0    0  503    0  0.00000000000E+00  0.00000000000E+00  0.69642644091E+03  0.69642644091E+03  0.00000000000E+00 0. -1.
         -2   -1    0    0    0  501 -0.00000000000E+00 -0.00000000000E+00 -0.11739979294E+04  0.11739979294E+04  0.00000000000E+00 0.  1.
         25    2    1    2    0    0  0.11925880188E+03  0.40239542951E+02 -0.18980353344E+02  0.17839958712E+03  0.12499710488E+03 0.  0.
          4    1    3    3  502    0  0.21210234724E+01  0.51986708004E+02 -0.30134862809E+02  0.60140164667E+02  0.12700000000E+01 0. -1.
         -4    1    3    3    0  502  0.11713777841E+03 -0.11747165053E+02  0.11154509464E+02  0.11825942245E+03  0.12700000000E+01 0. -1.
          3    1    1    2  503    0 -0.19146166842E+02 -0.48502280959E+02  0.61326193908E+03  0.61547481906E+03  0.00000000000E+00 0. -1.
         -1    1    1    2    0  501 -0.10011263504E+03  0.82627380079E+01 -0.10718530743E+04  0.10765499642E+04  0.00000000000E+00 0.  1.
<mgrwt>
<rscale>  0 0.72533584E+02</rscale>
<asrwt>0</asrwt>
<pdfrwt beam="1">  1        2 0.10714253E+00 0.52144482E+02</pdfrwt>
<pdfrwt beam="2">  1       -2 0.18061507E+00 0.10089506E+03</pdfrwt>
<totfact> 0.92021590E+00</totfact>
</mgrwt>
</event>
<event>
 7    1  0.4252091E-004  0.3474871E+02  0.7546771E-02  0.1558220E+00
          2   -1    0    0  503    0  0.00000000000E+00  0.00000000000E+00  0.76611923129E+03  0.76611923129E+03  0.00000000000E+00 0. -1.
          1   -1    0    0  502    0 -0.00000000000E+00 -0.00000000000E+00 -0.20344973592E+03  0.20344973592E+03  0.00000000000E+00 0. -1.
         25    2    1    2    0    0 -0.63704680806E+01  0.34317087583E+02 -0.51646262554E+01  0.12988214997E+03  0.12499781659E+03 0.  0.
          4    1    3    3  501    0 -0.45235031389E+02 -0.12541359558E+02 -0.38265525227E+02  0.60575218409E+02  0.12700000000E+01 0. -1.
         -4    1    3    3    0  501  0.38864563309E+02  0.46858447141E+02  0.33100898971E+02  0.69306931561E+02  0.12700000000E+01 0. -1.
          2    1    1    2  502    0 -0.25322134715E+02 -0.24595376075E+02 -0.13323612136E+03  0.13783325820E+03  0.00000000000E+00 0. -1.
          3    1    1    2  503    0  0.31692602796E+02 -0.97217115078E+01  0.70107024298E+03  0.70185355904E+03  0.00000000000E+00 0. -1.
<mgrwt>
<rscale>  0 0.33940024E+02</rscale>
<asrwt>0</asrwt>
<pdfrwt beam="1">  1        2 0.11786450E+00 0.33150155E+02</pdfrwt>
<pdfrwt beam="2">  1        1 0.31299960E-01 0.34748713E+02</pdfrwt>
<totfact> 0.76024891E+02</totfact>
</mgrwt>
</event>
<event>
 7    1  0.4252091E-004  0.1352351E+03  0.7546771E-02  0.1293296E+00
          2   -1    0    0  503    0  0.00000000000E+00  0.00000000000E+00  0.21205693566E+03  0.21205693566E+03  0.00000000000E+00 0. -1.
          1   -1    0    0  502    0 -0.00000000000E+00 -0.00000000000E+00 -0.15709312744E+04  0.15709312744E+04  0.00000000000E+00 0. -1.
         25    2    1    2    0    0  0.54341964690E+01 -0.93974915271E+02 -0.23212580831E+03  0.27994221143E+03  0.12499774264E+03 0.  0.
          4    1    3    3  501    0 -0.71424023418E+01 -0.68325617431E+02 -0.24051913315E+03  0.25014090073E+03  0.12700000000E+01 0. -1.
         -4    1    3    3    0  501  0.12576598811E+02 -0.25649297840E+02  0.83933248422E+01  0.29801310697E+02  0.12700000000E+01 0. -1.
          2    1    1    2  502    0  0.44999934098E+02  0.13565534738E+03 -0.13051876309E+04  0.13129897635E+04  0.00000000000E+00 0. -1.
          1    1    1    2  503    0 -0.50434130567E+02 -0.41680432106E+02  0.17843910043E+03  0.19005623512E+03  0.00000000000E+00 0. -1.
<mgrwt>
<rscale>  0 0.94064885E+02</rscale>
<asrwt>0</asrwt>
<pdfrwt beam="1">  1        2 0.32624143E-01 0.65428281E+02</pdfrwt>
<pdfrwt beam="2">  1        1 0.24168174E+00 0.13523514E+03</pdfrwt>
<totfact> 0.14594966E+02</totfact>
</mgrwt>
</event>
<event>
 7    1  0.4252091E-004  0.2041975E+02  0.7546771E-02  0.1799576E+00
          1   -1    0    0  503    0  0.00000000000E+00  0.00000000000E+00  0.99780359483E+03  0.99780359483E+03  0.00000000000E+00 0. -1.
         -1   -1    0    0    0  501 -0.00000000000E+00 -0.00000000000E+00 -0.16837577347E+02  0.16837577347E+02  0.00000000000E+00 0.  1.
         25    2    1    2    0    0 -0.17159213208E+01  0.53032520753E+01  0.94178127332E+03  0.95005437870E+03  0.12498114590E+03 0.  0.
          4    1    3    3  502    0  0.22338093264E+01  0.43475436949E+02  0.12497326504E+03  0.13234437426E+03  0.12700000000E+01 0. -1.
         -4    1    3    3    0  502 -0.39497306472E+01 -0.38172184874E+02  0.81680800828E+03  0.81771000444E+03  0.12700000000E+01 0. -1.
          2    1    1    2  503    0  0.20437972724E+02 -0.13455005525E+02  0.36568623887E+02  0.44000138133E+02  0.00000000000E+00 0. -1.
         -2    1    1    2    0  501 -0.18722051403E+02  0.81517534493E+01  0.26161202712E+01  0.20586655345E+02  0.00000000000E+00 0.  1.
<mgrwt>
<rscale>  0 0.17524161E+02</rscale>
<asrwt>0</asrwt>
<pdfrwt beam="1">  1        1 0.15350820E+00 0.15039175E+02</pdfrwt>
<pdfrwt beam="2">  1       -1 0.25903973E-02 0.20419753E+02</pdfrwt>
<totfact> 0.64594634E+03</totfact>
</mgrwt>
</event>
<event>
 7    1  0.4252091E-004  0.2459118E+03  0.7546771E-02  0.1219747E+00
          2   -1    0    0  503    0  0.00000000000E+00  0.00000000000E+00  0.32495046262E+04  0.32495046262E+04  0.00000000000E+00 0. -1.
          1   -1    0    0  502    0 -0.00000000000E+00 -0.00000000000E+00 -0.77522874890E+03  0.77522874890E+03  0.00000000000E+00 0. -1.
         25    2    1    2    0    0 -0.70349681588E+02  0.28724343865E+03  0.69254044764E+03  0.76334414158E+03  0.12499654442E+03 0.  0.
          4    1    3    3  501    0 -0.48622814771E+02  0.15510165237E+03  0.52069412536E+03  0.54547656757E+03  0.12700000000E+01 0. -1.
         -4    1    3    3    0  501 -0.21726866818E+02  0.13214178628E+03  0.17184632228E+03  0.21786757400E+03  0.12700000000E+01 0. -1.
          2    1    1    2  502    0  0.93485677176E+01 -0.24450919971E+03 -0.71902547660E+03  0.75951944047E+03  0.00000000000E+00 0. -1.
          1    1    1    2  503    0  0.61001113871E+02 -0.42734238935E+02  0.25007609063E+04  0.25018697931E+04  0.00000000000E+00 0. -1.
<mgrwt>
<rscale>  0 0.13533529E+03</rscale>
<asrwt>0</asrwt>
<pdfrwt beam="1">  1        2 0.49992378E+00 0.74480542E+02</pdfrwt>
<pdfrwt beam="2">  1        1 0.11926596E+00 0.24591176E+03</pdfrwt>
<totfact> 0.61104484E+00</totfact>
</mgrwt>
</event>
<event>
 7    1  0.4252091E-004  0.8817673E+02  0.7546771E-02  0.1311475E+00
         -2   -1    0    0    0  501 -0.00000000000E+00  0.00000000000E+00  0.15489818716E+04  0.15489818716E+04  0.00000000000E+00 0.  1.
          2   -1    0    0  503    0  0.00000000000E+00 -0.00000000000E+00 -0.39063440794E+03  0.39063440794E+03  0.00000000000E+00 0. -1.
         25    2    1    2    0    0  0.10680575938E+02  0.26360326113E+02 -0.68819537321E+02  0.14549905994E+03  0.12499962493E+03 0.  0.
          4    1    3    3  502    0  0.57780751923E+02 -0.17812766024E+02 -0.17360693958E+02  0.62919921494E+02  0.12700000000E+01 0.  1.
         -4    1    3    3    0  502 -0.47100175984E+02  0.44173092137E+02 -0.51458843364E+02  0.82579138449E+02  0.12700000000E+01 0.  1.
          1    1    1    2  503    0 -0.79163153831E+02  0.30727030065E+02 -0.27576484932E+03  0.28854325052E+03  0.00000000000E+00 0. -1.
         -1    1    1    2    0  501  0.68482577892E+02 -0.57087356178E+02  0.15029318503E+04  0.15055739691E+04  0.00000000000E+00 0.  1.
<mgrwt>
<rscale>  0 0.86531694E+02</rscale>
<asrwt>0</asrwt>
<pdfrwt beam="2">  1        2 0.60097602E-01 0.84917344E+02</pdfrwt>
<pdfrwt beam="1">  1       -2 0.23830490E+00 0.88176734E+02</pdfrwt>
<totfact> 0.76973774E+00</totfact>
</mgrwt>
</event>
<event>
 7    1  0.4252091E-004  0.1170696E+03  0.7546771E-02  0.1410741E+00
          2   -1    0    0  503    0  0.00000000000E+00  0.00000000000E+00  0.93565116331E+03  0.93565116331E+03  0.00000000000E+00 0. -1.
         -2   -1    0    0    0  501 -0.00000000000E+00 -0.00000000000E+00 -0.70409502939E+03  0.70409502939E+03  0.00000000000E+00 0.  1.
         25    2    1    2    0    0 -0.65318883605E+01 -0.12809641109E+03  0.32173360326E+03  0.36822278619E+03  0.12499661078E+03 0.  0.
          4    1    3    3  502    0  0.17821458861E+02 -0.81449285049E+02  0.63854943626E+02  0.10502693539E+03  0.12700000000E+01 0.  1.
         -4    1    3    3    0  502 -0.24353347222E+02 -0.46647126046E+02  0.25787865963E+03  0.26319585081E+03  0.12700000000E+01 0.  1.
          1    1    1    2  503    0 -0.23360595593E+02  0.15035321616E+02  0.58531928605E+03  0.58597819494E+03  0.00000000000E+00 0. -1.
         -1    1    1    2    0  501  0.29892483953E+02  0.11306108948E+03 -0.67549675539E+03  0.68554521156E+03  0.00000000000E+00 0.  1.
<mgrwt>
<rscale>  0 0.57028922E+02</rscale>
<asrwt>0</asrwt>
<pdfrwt beam="1">  1        2 0.14394633E+00 0.27780899E+02</pdfrwt>
<pdfrwt beam="2">  1       -2 0.10832231E+00 0.11706957E+03</pdfrwt>
<totfact> 0.23793144E+01</totfact>
</mgrwt>
</event>
<event>
 7    1  0.4252091E-004  0.8983509E+02  0.7546771E-02  0.1419641E+00
         -2   -1    0    0    0  501 -0.00000000000E+00  0.00000000000E+00  0.81531999774E+03  0.81531999774E+03  0.00000000000E+00 0.  1.
          2   -1    0    0  503    0  0.00000000000E+00 -0.00000000000E+00 -0.30935113994E+04  0.30935113994E+04  0.00000000000E+00 0. -1.
         25    2    1    2    0    0 -0.10824314157E+03 -0.11223308817E+01 -0.95323435655E+03  0.96747026978E+03  0.12500058826E+03 0.  0.
          4    1    3    3  502    0 -0.14802519662E+01  0.90627600376E+01 -0.11243795976E+01  0.93381954821E+01  0.12700000000E+01 0.  1.
         -4    1    3    3    0  502 -0.10676288960E+03 -0.10185090919E+02 -0.95210997696E+03  0.95813207430E+03  0.12700000000E+01 0.  1.
          1    1    1    2  503    0  0.84822371917E+02 -0.23236321005E+02 -0.21318988329E+04  0.21337121162E+04  0.00000000000E+00 0. -1.
         -1    1    1    2    0  501  0.23420769653E+02  0.24358651886E+02  0.80694178775E+03  0.80764901114E+03  0.00000000000E+00 0.  1.
<mgrwt>
<rscale>  0 0.55096979E+02</rscale>
<asrwt>0</asrwt>
<pdfrwt beam="2">  1        2 0.47592482E+00 0.89835095E+02</pdfrwt>
<pdfrwt beam="1">  1       -2 0.12543385E+00 0.33791661E+02</pdfrwt>
<totfact> 0.11955485E+00</totfact>
</mgrwt>
</event>
<event>
 7    1  0.4252091E-004  0.1532182E+03  0.7546771E-02  0.1296425E+00
         -2   -1    0    0    0  501 -0.00000000000E+00  0.00000000000E+00  0.26406697772E+03  0.26406697772E+03  0.00000000000E+00 0.  1.
          2   -1    0    0  503    0  0.00000000000E+00 -0.00000000000E+00 -0.66005734999E+03  0.66005734999E+03  0.00000000000E+00 0. -1.
         25    2    1    2    0    0 -0.61597849808E+02  0.10745311302E+03 -0.15213482394E+03  0.23262280801E+03  0.12501159767E+03 0.  0.
          4    1    3    3  502    0  0.29624975737E+01  0.85267015056E+02 -0.13898828170E+03  0.16309075878E+03  0.12700000000E+01 0.  1.
         -4    1    3    3    0  502 -0.64560347382E+02  0.22186097964E+02 -0.13146542236E+02  0.69532049227E+02  0.12700000000E+01 0.  1.
          1    1    1    2  503    0  0.41622845780E+02 -0.15987021312E+03 -0.44920999485E+03  0.47862361602E+03  0.00000000000E+00 0. -1.
         -1    1    1    2    0  501  0.19975004028E+02  0.52417100100E+02  0.20535444653E+03  0.21287790368E+03  0.00000000000E+00 0.  1.
<mgrwt>
<rscale>  0 0.92707308E+02</rscale>
<asrwt>0</asrwt>
<pdfrwt beam="2">  1        2 0.10154728E+00 0.15321822E+03</pdfrwt>
<pdfrwt beam="1">  1       -2 0.40625689E-01 0.56094146E+02</pdfrwt>
<totfact> 0.26359255E+02</totfact>
</mgrwt>
</event>
<event>
 7    1  0.4252091E-004  0.1450705E+03  0.7546771E-02  0.1349141E+00
          1   -1    0    0  502    0 -0.00000000000E+00  0.00000000000E+00  0.65064705888E+03  0.65064705888E+03  0.00000000000E+00 0. -1.
          2   -1    0    0  503    0  0.00000000000E+00 -0.00000000000E+00 -0.17057218216E+04  0.17057218216E+04  0.00000000000E+00 0. -1.
         25    2    1    2    0    0  0.11806816656E+03  0.13306490761E+03 -0.35211321831E+02  0.22024857246E+03  0.12499293938E+03 0.  0.
          4    1    3    3  501    0  0.70090371355E+02  0.14821422392E+03 -0.10799377489E+02  0.16431176398E+03  0.12700000000E+01 0.  1.
         -4    1    3    3    0  501  0.47977795202E+02 -0.15149316304E+02 -0.24411944342E+02  0.55936808485E+02  0.12700000000E+01 0.  1.
          2    1    1    2  502    0 -0.86599425735E+02 -0.11348890150E+03  0.54877762210E+03  0.56704150625E+03  0.00000000000E+00 0. -1.
          1    1    1    2  503    0 -0.31468740821E+02 -0.19576006117E+02 -0.15686410630E+04  0.15690788018E+04  0.00000000000E+00 0. -1.
<mgrwt>
<rscale>  0 0.73324118E+02</rscale>
<asrwt>0</asrwt>
<pdfrwt beam="2">  1        2 0.26241874E+00 0.37060783E+02</pdfrwt>
<pdfrwt beam="1">  1        1 0.10009955E+00 0.14507050E+03</pdfrwt>
<totfact> 0.56376940E+01</totfact>
</mgrwt>
</event>
<event>
 7    1  0.4252091E-004  0.1514306E+03  0.7546771E-02  0.1255780E+00
          1   -1    0    0  502    0 -0.00000000000E+00  0.00000000000E+00  0.52141794035E+03  0.52141794035E+03  0.00000000000E+00 0. -1.
          2   -1    0    0  503    0  0.00000000000E+00 -0.00000000000E+00 -0.34138864272E+04  0.34138864272E+04  0.00000000000E+00 0. -1.
         25    2    1    2    0    0  0.12099878468E+02 -0.19372019994E+03 -0.36293923302E+03  0.43016519281E+03  0.12507311189E+03 0.  0.
          4    1    3    3  501    0  0.54337960656E+02 -0.16516913251E+03 -0.31684936428E+03  0.36142577225E+03  0.12700000000E+01 0.  1.
         -4    1    3    3    0  501 -0.42238082188E+02 -0.28551067436E+02 -0.46089868735E+02  0.68739420558E+02  0.12700000000E+01 0.  1.
          2    1    1    2  502    0  0.57502388331E+02  0.60913506951E+02  0.48232998105E+03  0.48954998786E+03  0.00000000000E+00 0. -1.
          1    1    1    2  503    0 -0.69602266799E+02  0.13280669299E+03 -0.30118592349E+04  0.30155891869E+04  0.00000000000E+00 0. -1.
<mgrwt>
<rscale>  0 0.11262747E+03</rscale>
<asrwt>0</asrwt>
<pdfrwt beam="2">  1        2 0.52521330E+00 0.15143055E+03</pdfrwt>
<pdfrwt beam="1">  1        1 0.80218145E-01 0.83767416E+02</pdfrwt>
<totfact> 0.77049401E+00</totfact>
</mgrwt>
</event>
<event>
 7    1  0.4252091E-004  0.6185876E+02  0.7546771E-02  0.1544245E+00
          2   -1    0    0  503    0  0.00000000000E+00  0.00000000000E+00  0.89784427581E+02  0.89784427581E+02  0.00000000000E+00 0. -1.
          1   -1    0    0  502    0 -0.00000000000E+00 -0.00000000000E+00 -0.59351194386E+03  0.59351194386E+03  0.00000000000E+00 0. -1.
         25    2    1    2    0    0 -0.60805721981E+02 -0.53738801488E+02 -0.63863640488E+02  0.16213243785E+03  0.12499267265E+03 0.  0.
          4    1    3    3  501    0 -0.92902596631E+02 -0.51048695356E+02 -0.20296837610E+02  0.10793718671E+03  0.12700000000E+01 0. -1.
         -4    1    3    3    0  501  0.32096874650E+02 -0.26901061314E+01 -0.43566802878E+02  0.54195251142E+02  0.12700000000E+01 0. -1.
          2    1    1    2  502    0  0.43673252715E+02  0.42724258115E+02 -0.47588091188E+03  0.47978678340E+03  0.00000000000E+00 0. -1.
          1    1    1    2  503    0  0.17132469267E+02  0.11014543372E+02  0.36017036090E+02  0.41377150186E+02  0.00000000000E+00 0. -1.
<mgrwt>
<rscale>  0 0.35495328E+02</rscale>
<asrwt>0</asrwt>
<pdfrwt beam="1">  1        2 0.13812989E-01 0.20367662E+02</pdfrwt>
<pdfrwt beam="2">  1        1 0.91309527E-01 0.61858758E+02</pdfrwt>
<totfact> 0.18848893E+03</totfact>
</mgrwt>
</event>
<event>
 7    1  0.4252091E-004  0.3378576E+02  0.7546771E-02  0.1643426E+00
          2   -1    0    0  503    0  0.00000000000E+00  0.00000000000E+00  0.11373196834E+03  0.11373196834E+03  0.00000000000E+00 0. -1.
          1   -1    0    0  502    0 -0.00000000000E+00 -0.00000000000E+00 -0.14685326804E+03  0.14685326804E+03  0.00000000000E+00 0. -1.
         25    2    1    2    0    0  0.32777978079E+02  0.24215980453E+02  0.52902575687E+02  0.14173089936E+03  0.12501262242E+03 0.  0.
          4    1    3    3  501    0 -0.31994927280E+02  0.64843564028E+01 -0.23317908114E+02  0.40138011764E+02  0.12700000000E+01 0.  1.
         -4    1    3    3    0  501  0.64772905358E+02  0.17731624050E+02  0.76220483801E+02  0.10159288760E+03  0.12700000000E+01 0.  1.
          2    1    1    2  502    0 -0.19665917206E+02  0.55108600104E+01 -0.83839025141E+02  0.86290787540E+02  0.00000000000E+00 0. -1.
          1    1    1    2  503    0 -0.13112060873E+02 -0.29726840463E+02 -0.21848502488E+01  0.32563549482E+02  0.00000000000E+00 0. -1.
<mgrwt>
<rscale>  0 0.26268275E+02</rscale>
<asrwt>0</asrwt>
<pdfrwt beam="1">  1        2 0.17497226E-01 0.33785761E+02</pdfrwt>
<pdfrwt beam="2">  1        1 0.22592810E-01 0.20423464E+02</pdfrwt>
<totfact> 0.79493250E+03</totfact>
</mgrwt>
</event>
<event>
 7    1  0.4252091E-004  0.1437061E+03  0.7546771E-02  0.1280320E+00
          1   -1    0    0  503    0  0.00000000000E+00  0.00000000000E+00  0.15847482808E+04  0.15847482808E+04  0.00000000000E+00 0. -1.
         -1   -1    0    0    0  501 -0.00000000000E+00 -0.00000000000E+00 -0.87232957231E+02  0.87232957231E+02  0.00000000000E+00 0.  1.
         25    2    1    2    0    0 -0.13410336032E+03 -0.57880712811E+02  0.30843448412E+03  0.36344437996E+03  0.12500439261E+03 0.  0.
          4    1    3    3  502    0 -0.79061272112E+02 -0.95758141326E+02  0.18028697787E+03  0.21891850919E+03  0.12700000000E+01 0.  1.
         -4    1    3    3    0  502 -0.55042088204E+02  0.37877428516E+02  0.12814750625E+03  0.14452587077E+03  0.12700000000E+01 0.  1.
          2    1    1    2  503    0  0.91743074287E+02  0.11306835299E+03  0.12226507667E+04  0.12312904375E+04  0.00000000000E+00 0. -1.
         -2    1    1    2    0  501  0.42360286029E+02 -0.55187640181E+02 -0.33569927320E+02  0.77246420510E+02  0.00000000000E+00 0.  1.
<mgrwt>
<rscale>  0 0.99988605E+02</rscale>
<asrwt>0</asrwt>
<pdfrwt beam="1">  1        1 0.24380741E+00 0.14370611E+03</pdfrwt>
<pdfrwt beam="2">  1       -1 0.13420456E-01 0.69570608E+02</pdfrwt>
<totfact> 0.24097927E+02</totfact>
</mgrwt>
</event>
<event>
 7    1  0.4252091E-004  0.9317171E+02  0.7546771E-02  0.1410342E+00
          2   -1    0    0  503    0  0.00000000000E+00  0.00000000000E+00  0.11164916718E+03  0.11164916718E+03  0.00000000000E+00 0. -1.
          1   -1    0    0  502    0 -0.00000000000E+00 -0.00000000000E+00 -0.26752981755E+04  0.26752981755E+04  0.00000000000E+00 0. -1.
         25    2    1    2    0    0 -0.93333843793E+01 -0.90595046489E+02 -0.27242650757E+02  0.15704017639E+03  0.12499952187E+03 0.  0.
          4    1    3    3  501    0  0.52946854305E+02 -0.13761708583E+02 -0.18404744632E+02  0.57733019398E+02  0.12700000000E+01 0. -1.
         -4    1    3    3    0  501 -0.62280238684E+02 -0.76833337905E+02 -0.88379061251E+01  0.99307156987E+02  0.12700000000E+01 0. -1.
          2    1    1    2  502    0  0.34925656892E+02 -0.25002587310E+01 -0.25330581772E+04  0.25333001760E+04  0.00000000000E+00 0. -1.
          1    1    1    2  503    0 -0.25592272513E+02  0.93095305220E+02 -0.33481804146E+01  0.96606990319E+02  0.00000000000E+00 0. -1.
<mgrwt>
<rscale>  0 0.57117517E+02</rscale>
<asrwt>0</asrwt>
<pdfrwt beam="1">  1        2 0.17176794E-01 0.93171706E+02</pdfrwt>
<pdfrwt beam="2">  1        1 0.41158436E+00 0.35015037E+02</pdfrwt>
<totfact> 0.72561281E+01</totfact>
</mgrwt>
</event>
<event>
 7    1  0.4252091E-004  0.5411803E+02  0.7546771E-02  0.1450816E+00
          1   -1    0    0  503    0  0.00000000000E+00  0.00000000000E+00  0.11124668953E+04  0.11124668953E+04  0.00000000000E+00 0. -1.
         -1   -1    0    0    0  501 -0.00000000000E+00 -0.00000000000E+00 -0.12573058821E+03  0.12573058821E+03  0.00000000000E+00 0.  1.
         25    2    1    2    0    0 -0.29224520275E+02 -0.35455698578E+02  0.19626879809E+03  0.23719018644E+03  0.12500625702E+03 0.  0.
          4    1    3    3  502    0 -0.46484321477E+02  0.12782539404E+02  0.17530809535E+03  0.18182058918E+03  0.12700000000E+01 0.  1.
         -4    1    3    3    0  502  0.17259801202E+02 -0.48238237982E+02  0.20960702741E+02  0.55369597258E+02  0.12700000000E+01 0.  1.
          2    1    1    2  503    0 -0.25719339026E+02  0.36148537359E+02  0.88797530546E+03  0.88908286692E+03  0.00000000000E+00 0. -1.
         -2    1    1    2    0  501  0.54943859302E+02 -0.69283878071E+00 -0.97507796441E+02  0.11192443016E+03  0.00000000000E+00 0.  1.
<mgrwt>
<rscale>  0 0.48999128E+02</rscale>
<asrwt>0</asrwt>
<pdfrwt beam="1">  1        1 0.17114875E+00 0.44364413E+02</pdfrwt>
<pdfrwt beam="2">  1       -1 0.19343168E-01 0.54118029E+02</pdfrwt>
<totfact> 0.30461721E+02</totfact>
</mgrwt>
</event>
<event>
 7    1  0.4252091E-004  0.1079407E+03  0.7546771E-02  0.1318248E+00
         -1   -1    0    0    0  501 -0.00000000000E+00  0.00000000000E+00  0.33713202214E+03  0.33713202214E+03  0.00000000000E+00 0.  1.
          1   -1    0    0  503    0  0.00000000000E+00 -0.00000000000E+00 -0.31027008495E+03  0.31027008495E+03  0.00000000000E+00 0. -1.
         25    2    1    2    0    0  0.91135547679E+02 -0.75402062463E+00 -0.82389136587E+02  0.17523770702E+03  0.12495610244E+03 0.  0.
          4    1    3    3  502    0  0.31465326769E+02  0.90330542446E+01  0.32030116984E+02  0.45817072710E+02  0.12700000000E+01 0.  1.
         -4    1    3    3    0  502  0.59670220910E+02 -0.97870748692E+01 -0.11441925357E+03  0.12942063431E+03  0.12700000000E+01 0.  1.
          2    1    1    2  503    0 -0.11387791756E+01  0.65254521693E+02 -0.16444358148E+03  0.17692128450E+03  0.00000000000E+00 0. -1.
         -2    1    1    2    0  501 -0.89996768503E+02 -0.64500501068E+02  0.27369465525E+03  0.29524311557E+03  0.00000000000E+00 0.  1.
<mgrwt>
<rscale>  0 0.83932642E+02</rscale>
<asrwt>0</asrwt>
<pdfrwt beam="2">  1        1 0.47733859E-01 0.65264458E+02</pdfrwt>
<pdfrwt beam="1">  1       -1 0.51866465E-01 0.10794066E+03</pdfrwt>
<totfact> 0.32857540E+02</totfact>
</mgrwt>
</event>
<event>
 7    1  0.4252091E-004  0.3695392E+02  0.7546771E-02  0.1718615E+00
          2   -1    0    0  503    0  0.00000000000E+00  0.00000000000E+00  0.25222962408E+04  0.25222962408E+04  0.00000000000E+00 0. -1.
          1   -1    0    0  502    0 -0.00000000000E+00 -0.00000000000E+00 -0.16577133617E+02  0.16577133617E+02  0.00000000000E+00 0. -1.
         25    2    1    2    0    0 -0.33056862168E+01 -0.74988374387E+01  0.24807760644E+03  0.27791318634E+03  0.12500432073E+03 0.  0.
          4    1    3    3  501    0 -0.31810321912E+02  0.31619703204E+02  0.28717598422E+02  0.53273028541E+02  0.12700000000E+01 0.  1.
         -4    1    3    3    0  501  0.28504635695E+02 -0.39118540643E+02  0.21936000802E+03  0.22464015780E+03  0.12700000000E+01 0.  1.
          2    1    1    2  502    0 -0.82350756395E+01 -0.36024653570E+02  0.24105809182E+03  0.24387413919E+03  0.00000000000E+00 0. -1.
          1    1    1    2  503    0  0.11540761856E+02  0.43523491008E+02  0.20165834089E+04  0.20170860488E+04  0.00000000000E+00 0. -1.
<mgrwt>
<rscale>  0 0.21412509E+02</rscale>
<asrwt>0</asrwt>
<pdfrwt beam="1">  1        2 0.38804527E+00 0.36953919E+02</pdfrwt>
<pdfrwt beam="2">  1        1 0.25503303E-02 0.12407224E+02</pdfrwt>
<totfact> 0.19248799E+03</totfact>
</mgrwt>
</event>
<event>
 7    1  0.4252091E-004  0.5407646E+02  0.7546771E-02  0.1479959E+00
          1   -1    0    0  502    0 -0.00000000000E+00  0.00000000000E+00  0.20340456904E+04  0.20340456904E+04  0.00000000000E+00 0. -1.
          2   -1    0    0  503    0  0.00000000000E+00 -0.00000000000E+00 -0.63954868738E+03  0.63954868738E+03  0.00000000000E+00 0. -1.
         25    2    1    2    0    0  0.17502817657E+02  0.33676191004E+02  0.10906770728E+04  0.10984713509E+04  0.12498958816E+03 0.  0.
          4    1    3    3  501    0  0.61950782535E+01  0.61649062185E+02  0.10164344797E+04  0.10183219777E+04  0.12700000000E+01 0.  1.
         -4    1    3    3    0  501  0.11307739403E+02 -0.27972871181E+02  0.74242593110E+02  0.80149373199E+02  0.12700000000E+01 0.  1.
          2    1    1    2  502    0  0.81748628176E+01 -0.58886319574E+02  0.93802039837E+03  0.93990249217E+03  0.00000000000E+00 0. -1.
          3    1    1    2  503    0 -0.25677680475E+02  0.25210128570E+02 -0.63420046818E+03  0.63522053469E+03  0.00000000000E+00 0. -1.
<mgrwt>
<rscale>  0 0.44112599E+02</rscale>
<asrwt>0</asrwt>
<pdfrwt beam="2">  1        2 0.98392107E-01 0.35984634E+02</pdfrwt>
<pdfrwt beam="1">  1        1 0.31293010E+00 0.54076455E+02</pdfrwt>
<totfact> 0.26436182E+01</totfact>
</mgrwt>
</event>
<event>
 7    1  0.4252091E-004  0.7710137E+02  0.7546771E-02  0.1470420E+00
          1   -1    0    0  502    0 -0.00000000000E+00  0.00000000000E+00  0.61733215828E+03  0.61733215828E+03  0.00000000000E+00 0. -1.
          2   -1    0    0  503    0  0.00000000000E+00 -0.00000000000E+00 -0.59188538813E+03  0.59188538813E+03  0.00000000000E+00 0. -1.
         25    2    1    2    0    0  0.12895904725E+02  0.60593252826E+02  0.32145716168E+03  0.35042728641E+03  0.12500691828E+03 0.  0.
          4    1    3    3  501    0  0.42372150024E+02 -0.18408543871E+02  0.60184182004E+02  0.75881633144E+02  0.12700000000E+01 0. -1.
         -4    1    3    3    0  501 -0.29476245299E+02  0.79001796697E+02  0.26127297968E+03  0.27454565326E+03  0.12700000000E+01 0. -1.
          2    1    1    2  502    0  0.26349256897E+02  0.59366681903E+01  0.27814953688E+03  0.27945785413E+03  0.00000000000E+00 0. -1.
          3    1    1    2  503    0 -0.39245161622E+02 -0.66529921016E+02 -0.57415992841E+03  0.57933240588E+03  0.00000000000E+00 0. -1.
<mgrwt>
<rscale>  0 0.45634305E+02</rscale>
<asrwt>0</asrwt>
<pdfrwt beam="2">  1        2 0.91059291E-01 0.77101367E+02</pdfrwt>
<pdfrwt beam="1">  1        1 0.94974178E-01 0.27009764E+02</pdfrwt>
<totfact> 0.26385533E+02</totfact>
</mgrwt>
</event>
<event>
 7    1  0.4252091E-004  0.9953351E+02  0.7546771E-02  0.1362970E+00
          2   -1    0    0  503    0  0.00000000000E+00  0.00000000000E+00  0.11267539370E+04  0.11267539370E+04  0.00000000000E+00 0. -1.
          1   -1    0    0  502    0 -0.00000000000E+00 -0.00000000000E+00 -0.37942118940E+03  0.37942118940E+03  0.00000000000E+00 0. -1.
         25    2    1    2    0    0  0.19952676005E+02  0.13568187442E+03  0.34550747343E+03  0.39218014236E+03  0.12498867764E+03 0.  0.
          4    1    3    3  501    0 -0.11587521771E+02  0.13652800636E+03  0.19458533451E+03  0.23798998401E+03  0.12700000000E+01 0.  1.
         -4    1    3    3    0  501  0.31540197776E+02 -0.84613194182E+00  0.15092213892E+03  0.15419015835E+03  0.12700000000E+01 0.  1.
          2    1    1    2  502    0  0.10331780729E+02 -0.98368571113E+02 -0.34843270395E+03  0.36219949014E+03  0.00000000000E+00 0. -1.
          1    1    1    2  503    0 -0.30284456734E+02 -0.37313303309E+02  0.75025797811E+03  0.75179549390E+03  0.00000000000E+00 0. -1.
<mgrwt>
<rscale>  0 0.69160942E+02</rscale>
<asrwt>0</asrwt>
<pdfrwt beam="1">  1        2 0.17334676E+00 0.48056539E+02</pdfrwt>
<pdfrwt beam="2">  1        1 0.58372491E-01 0.99533507E+02</pdfrwt>
<totfact> 0.21904585E+02</totfact>
</mgrwt>
</event>
<event>
 7    1  0.4252091E-004  0.7967102E+02  0.7546771E-02  0.1335037E+00
         -2   -1    0    0    0  501 -0.00000000000E+00  0.00000000000E+00  0.13698907286E+03  0.13698907286E+03  0.00000000000E+00 0.  1.
          2   -1    0    0  503    0  0.00000000000E+00 -0.00000000000E+00 -0.11731209909E+04  0.11731209909E+04  0.00000000000E+00 0. -1.
         25    2    1    2    0    0  0.51429851663E+01  0.10388254532E+03 -0.35761736750E+03  0.39285211682E+03  0.12499828254E+03 0.  0.
          4    1    3    3  502    0  0.37880418949E+02  0.16466718211E+02 -0.27132938984E+02  0.49435697895E+02  0.12700000000E+01 0. -1.
         -4    1    3    3    0  502 -0.32737433783E+02  0.87415827105E+02 -0.33048442851E+03  0.34341641893E+03  0.12700000000E+01 0. -1.
          1    1    1    2  503    0 -0.61025144625E+02 -0.52045677065E+02 -0.78345895371E+03  0.78755365083E+03  0.00000000000E+00 0. -1.
         -1    1    1    2    0  501  0.55882159459E+02 -0.51836868251E+02  0.10494440321E+03  0.12970429607E+03  0.00000000000E+00 0.  1.
<mgrwt>
<rscale>  0 0.77927709E+02</rscale>
<asrwt>0</asrwt>
<pdfrwt beam="2">  1        2 0.18048014E+00 0.79671018E+02</pdfrwt>
<pdfrwt beam="1">  1       -2 0.21075243E-01 0.76222547E+02</pdfrwt>
<totfact> 0.41348395E+02</totfact>
</mgrwt>
</event>
<event>
 7    1  0.4252091E-004  0.3508958E+02  0.7546771E-02  0.1580733E+00
          1   -1    0    0  502    0 -0.00000000000E+00  0.00000000000E+00  0.38320330834E+03  0.38320330834E+03  0.00000000000E+00 0. -1.
          2   -1    0    0  503    0  0.00000000000E+00 -0.00000000000E+00 -0.29456104325E+03  0.29456104325E+03  0.00000000000E+00 0. -1.
         25    2    1    2    0    0  0.93404900149E+01 -0.27405955728E+02 -0.14325950459E+03  0.19232024867E+03  0.12500184491E+03 0.  0.
          4    1    3    3  501    0 -0.57183448999E+02 -0.25495808632E+01 -0.65996134690E+02  0.87370188829E+02  0.12700000000E+01 0. -1.
         -4    1    3    3    0  501  0.66523939014E+02 -0.24856374865E+02 -0.77263369896E+02  0.10495005984E+03  0.12700000000E+01 0. -1.
          2    1    1    2  502    0  0.24894451850E+02  0.13901105820E+02  0.35541894916E+03  0.35656079972E+03  0.00000000000E+00 0. -1.
          1    1    1    2  503    0 -0.34234941864E+02  0.13504849908E+02 -0.12351717948E+03  0.12888330319E+03  0.00000000000E+00 0. -1.
<mgrwt>
<rscale>  0 0.31630666E+02</rscale>
<asrwt>0</asrwt>
<pdfrwt beam="2">  1        2 0.45317084E-01 0.35089584E+02</pdfrwt>
<pdfrwt beam="1">  1        1 0.58954355E-01 0.28512707E+02</pdfrwt>
<totfact> 0.97560659E+02</totfact>
</mgrwt>
</event>
<event>
 7    1  0.4252091E-004  0.1469767E+03  0.7546771E-02  0.1419008E+00
          2   -1    0    0  503    0  0.00000000000E+00  0.00000000000E+00  0.19275065862E+03  0.19275065862E+03  0.00000000000E+00 0. -1.
         -2   -1    0    0    0  501 -0.00000000000E+00 -0.00000000000E+00 -0.18695891456E+03  0.18695891456E+03  0.00000000000E+00 0.  1.
         25    2    1    2    0    0 -0.15122252850E+03  0.19825394756E+01 -0.37371398162E+02  0.19973254502E+03  0.12499713817E+03 0.  0.
          4    1    3    3  502    0 -0.12976851359E+03 -0.50398795312E+02 -0.20985619288E+02  0.14079032213E+03  0.12700000000E+01 0.  1.
         -4    1    3    3    0  502 -0.21454014904E+02  0.52381334788E+02 -0.16385778874E+02  0.58942222888E+02  0.12700000000E+01 0.  1.
          1    1    1    2  503    0  0.92524926892E+01  0.18578609114E+02  0.29232133946E+02  0.35850955254E+02  0.00000000000E+00 0. -1.
         -1    1    1    2    0  501  0.14197003581E+03 -0.20561148589E+02  0.13931008274E+02  0.14412607290E+03  0.00000000000E+00 0.  1.
<mgrwt>
<rscale>  0 0.55231442E+02</rscale>
<asrwt>0</asrwt>
<pdfrwt beam="1">  1        2 0.29653948E-01 0.20755080E+02</pdfrwt>
<pdfrwt beam="2">  1       -2 0.28762910E-01 0.14697665E+03</pdfrwt>
<totfact> 0.18098267E+03</totfact>
</mgrwt>
</event>
<event>
 7    1  0.4252091E-004  0.8763009E+02  0.7546771E-02  0.1489503E+00
         -2   -1    0    0    0  501  0.00000000000E+00  0.00000000000E+00  0.73112415560E+03  0.73112415560E+03  0.00000000000E+00 0.  1.
         -1   -1    0    0    0  502 -0.00000000000E+00 -0.00000000000E+00 -0.82030904249E+02  0.82030904249E+02  0.00000000000E+00 0.  1.
         25    2    1    2    0    0 -0.64055914755E+02 -0.68116329881E+02  0.34532349758E+03  0.37896404098E+03  0.12498972664E+03 0.  0.
          4    1    3    3  503    0  0.25877349854E+02 -0.55304182583E+02  0.97887556591E+02  0.11537667217E+03  0.12700000000E+01 0.  1.
         -4    1    3    3    0  503 -0.89933264609E+02 -0.12812147297E+02  0.24743594099E+03  0.26358736881E+03  0.12700000000E+01 0.  1.
         -2    1    1    2    0  502  0.44507749715E+02  0.75127544923E+02 -0.35517585985E+02  0.94268694194E+02  0.00000000000E+00 0.  1.
         -1    1    1    2    0  501  0.19548165039E+02 -0.70112150419E+01  0.33928733976E+03  0.33992232467E+03  0.00000000000E+00 0.  1.
<mgrwt>
<rscale>  0 0.42659763E+02</rscale>
<asrwt>0</asrwt>
<pdfrwt beam="1">  1       -2 0.11248063E+00 0.20767472E+02</pdfrwt>
<pdfrwt beam="2">  1       -1 0.12620140E-01 0.87630089E+02</pdfrwt>
<totfact> 0.20784383E+02</totfact>
</mgrwt>
</event>
<event>
 7    1  0.4252091E-004  0.1181616E+03  0.7546771E-02  0.1401884E+00
          1   -1    0    0  502    0 -0.00000000000E+00  0.00000000000E+00  0.97653628817E+03  0.97653628817E+03  0.00000000000E+00 0. -1.
          2   -1    0    0  503    0  0.00000000000E+00 -0.00000000000E+00 -0.13216424497E+04  0.13216424497E+04  0.00000000000E+00 0. -1.
         25    2    1    2    0    0  0.14357900847E+03 -0.21276878415E+02 -0.17074271961E+03  0.25660173190E+03  0.12499494105E+03 0.  0.
          4    1    3    3  501    0  0.75080285474E+02  0.14411241157E+02 -0.16164823038E+03  0.17881973164E+03  0.12700000000E+01 0.  1.
         -4    1    3    3    0  501  0.68498722993E+02 -0.35688119571E+02 -0.90944892240E+01  0.77782000260E+02  0.12700000000E+01 0.  1.
          2    1    1    2  502    0 -0.29486207676E+02 -0.10369084088E+01  0.93032275806E+03  0.93079049511E+03  0.00000000000E+00 0. -1.
          1    1    1    2  503    0 -0.11409280079E+03  0.22313786823E+02 -0.11046862000E+04  0.11107865108E+04  0.00000000000E+00 0. -1.
<mgrwt>
<rscale>  0 0.59044830E+02</rscale>
<asrwt>0</asrwt>
<pdfrwt beam="2">  1        2 0.20332961E+00 0.11816163E+03</pdfrwt>
<pdfrwt beam="1">  1        1 0.15023635E+00 0.29504434E+02</pdfrwt>
<totfact> 0.47703906E+01</totfact>
</mgrwt>
</event>
<event>
 7    1  0.4252091E-004  0.4472879E+02  0.7546771E-02  0.1492619E+00
          2   -1    0    0  503    0  0.00000000000E+00  0.00000000000E+00  0.12982914911E+03  0.12982914911E+03  0.00000000000E+00 0. -1.
         -2   -1    0    0    0  501 -0.00000000000E+00 -0.00000000000E+00 -0.46437607856E+03  0.46437607856E+03  0.00000000000E+00 0.  1.
         25    2    1    2    0    0 -0.43819496787E+01  0.37379305986E+02 -0.18739198827E+03  0.22838175902E+03  0.12500422628E+03 0.  0.
          4    1    3    3  502    0 -0.18278726885E+02  0.58904073863E+02 -0.29426892426E+02  0.68347323810E+02  0.12700000000E+01 0. -1.
         -4    1    3    3    0  502  0.13896777206E+02 -0.21524767877E+02 -0.15796509584E+03  0.16003443521E+03  0.12700000000E+01 0. -1.
          1    1    1    2  503    0  0.39376242956E+02 -0.58881462676E+01  0.10344371672E+03  0.11084115348E+03  0.00000000000E+00 0. -1.
         -1    1    1    2    0  501 -0.34994293278E+02 -0.31491159718E+02 -0.25059865791E+03  0.25498231517E+03  0.00000000000E+00 0.  1.
<mgrwt>
<rscale>  0 0.42199931E+02</rscale>
<asrwt>0</asrwt>
<pdfrwt beam="1">  1        2 0.19973715E-01 0.39814052E+02</pdfrwt>
<pdfrwt beam="2">  1       -2 0.71442474E-01 0.44728785E+02</pdfrwt>
<totfact> 0.48570476E+02</totfact>
</mgrwt>
</event>
<event>
 7    1  0.4252091E-004  0.1592658E+03  0.7546771E-02  0.1240798E+00
          2   -1    0    0  503    0  0.00000000000E+00  0.00000000000E+00  0.12116527563E+04  0.12116527563E+04  0.00000000000E+00 0. -1.
          1   -1    0    0  502    0 -0.00000000000E+00 -0.00000000000E+00 -0.11745344622E+03  0.11745344622E+03  0.00000000000E+00 0. -1.
         25    2    1    2    0    0 -0.93986969650E+02 -0.26074388255E+02  0.49873654059E+03  0.52332965469E+03  0.12498946504E+03 0.  0.
          4    1    3    3  501    0 -0.34664336583E+02 -0.19563802612E+01  0.19518276154E+02  0.39849964347E+02  0.12700000000E+01 0.  1.
         -4    1    3    3    0  501 -0.59322633067E+02 -0.24118007993E+02  0.47921826444E+03  0.48347969034E+03  0.12700000000E+01 0.  1.
          2    1    1    2  502    0  0.16597938540E+03 -0.32074968571E+02 -0.31551779165E+02  0.17196940063E+03  0.00000000000E+00 0. -1.
          1    1    1    2  503    0 -0.71992415746E+02  0.58149356826E+02  0.62701454869E+03  0.63380714724E+03  0.00000000000E+00 0. -1.
<mgrwt>
<rscale>  0 0.12140420E+03</rscale>
<asrwt>0</asrwt>
<pdfrwt beam="1">  1        2 0.18640811E+00 0.92543264E+02</pdfrwt>
<pdfrwt beam="2">  1        1 0.18069762E-01 0.15926584E+03</pdfrwt>
<totfact> 0.81965448E+02</totfact>
</mgrwt>
</event>
<event>
 7    1  0.4252091E-004  0.2446994E+03  0.7546771E-02  0.1275447E+00
          2   -1    0    0  503    0  0.00000000000E+00  0.00000000000E+00  0.27520403578E+04  0.27520403578E+04  0.00000000000E+00 0. -1.
          1   -1    0    0  502    0 -0.00000000000E+00 -0.00000000000E+00 -0.16940193125E+04  0.16940193125E+04  0.00000000000E+00 0. -1.
         25    2    1    2    0    0 -0.17616901683E+03  0.11788215174E+03 -0.74737212537E+02  0.25718369552E+03  0.12500431238E+03 0.  0.
          4    1    3    3  501    0 -0.78710605756E+02  0.97886948916E+02  0.10658879769E+02  0.12606521663E+03  0.12700000000E+01 0.  1.
         -4    1    3    3    0  501 -0.97458411071E+02  0.19995202823E+02 -0.85396092305E+02  0.13111847889E+03  0.12700000000E+01 0.  1.
          2    1    1    2  502    0 -0.11200661003E+02  0.41311467498E+02 -0.15220777094E+04  0.15226794297E+04  0.00000000000E+00 0. -1.
          1    1    1    2  503    0  0.18736967783E+03 -0.15919361924E+03  0.26548359672E+04  0.26661965451E+04  0.00000000000E+00 0. -1.
<mgrwt>
<rscale>  0 0.10234186E+03</rscale>
<asrwt>0</asrwt>
<pdfrwt beam="1">  1        2 0.42339082E+00 0.24469944E+03</pdfrwt>
<pdfrwt beam="2">  1        1 0.26061836E+00 0.42802946E+02</pdfrwt>
<totfact> 0.26380539E+00</totfact>
</mgrwt>
</event>
<event>
 7    1  0.4252091E-004  0.3700729E+02  0.7546771E-02  0.1621370E+00
          2   -1    0    0  503    0  0.00000000000E+00  0.00000000000E+00  0.14525920600E+03  0.14525920600E+03  0.00000000000E+00 0. -1.
         -2   -1    0    0    0  501 -0.00000000000E+00 -0.00000000000E+00 -0.12557040751E+03  0.12557040751E+03  0.00000000000E+00 0.  1.
         25    2    1    2    0    0 -0.43672785843E+01  0.17531353596E+02  0.10191374273E+02  0.12670770119E+03  0.12499822379E+03 0.  0.
          4    1    3    3  502    0 -0.47717819208E+02 -0.27073017974E+02 -0.18884165501E+02  0.58035878376E+02  0.12700000000E+01 0.  1.
         -4    1    3    3    0  502  0.43350540624E+02  0.44604371571E+02  0.29075539774E+02  0.68671822815E+02  0.12700000000E+01 0.  1.
          1    1    1    2  503    0  0.16204989369E+02 -0.35091400385E+02  0.70031611464E+02  0.79990216063E+02  0.00000000000E+00 0. -1.
         -1    1    1    2    0  501 -0.11837710785E+02  0.17560046789E+02 -0.60534187239E+02  0.64131696255E+02  0.00000000000E+00 0.  1.
<mgrwt>
<rscale>  0 0.27995035E+02</rscale>
<asrwt>0</asrwt>
<pdfrwt beam="1">  1        2 0.22347570E-01 0.37007289E+02</pdfrwt>
<pdfrwt beam="2">  1       -2 0.19318524E-01 0.21177503E+02</pdfrwt>
<totfact> 0.45074909E+03</totfact>
</mgrwt>
</event>
<event>
 7    1  0.4252091E-004  0.7845496E+02  0.7546771E-02  0.1396674E+00
          2   -1    0    0  503    0  0.00000000000E+00  0.00000000000E+00  0.19017718239E+04  0.19017718239E+04  0.00000000000E+00 0. -1.
          1   -1    0    0  502    0 -0.00000000000E+00 -0.00000000000E+00 -0.82210656825E+02  0.82210656825E+02  0.00000000000E+00 0. -1.
         25    2    1    2    0    0  0.42134494104E+01  0.51274635342E+02  0.93567642027E+03  0.94538923431E+03  0.12499439793E+03 0.  0.
          4    1    3    3  501    0  0.27625838005E+02  0.35761319987E+02  0.89384824530E+03  0.89499070244E+03  0.12700000000E+01 0.  1.
         -4    1    3    3    0  501 -0.23412388595E+02  0.15513315356E+02  0.41828174967E+02  0.50398531865E+02  0.12700000000E+01 0.  1.
          2    1    1    2  502    0 -0.49250617132E+02 -0.62059664153E+02 -0.56347156517E+02  0.97221536967E+02  0.00000000000E+00 0. -1.
          1    1    1    2  503    0  0.45037167721E+02  0.10785028811E+02  0.94023190336E+03  0.94137170948E+03  0.00000000000E+00 0. -1.
<mgrwt>
<rscale>  0 0.60276770E+02</rscale>
<asrwt>0</asrwt>
<pdfrwt beam="1">  1        2 0.29258025E+00 0.46310510E+02</pdfrwt>
<pdfrwt beam="2">  1        1 0.12647795E-01 0.78454956E+02</pdfrwt>
<totfact> 0.60027663E+02</totfact>
</mgrwt>
</event>
<event>
 7    1  0.4252091E-004  0.6648049E+02  0.7546771E-02  0.1402135E+00
         -2   -1    0    0    0  501 -0.00000000000E+00  0.00000000000E+00  0.28437797121E+03  0.28437797121E+03  0.00000000000E+00 0.  1.
          2   -1    0    0  503    0  0.00000000000E+00 -0.00000000000E+00 -0.82545589752E+03  0.82545589752E+03  0.00000000000E+00 0. -1.
         25    2    1    2    0    0 -0.80615830101E+02  0.29915719653E+02 -0.61504379365E+03  0.63348123773E+03  0.12500299239E+03 0.  0.
          4    1    3    3  502    0  0.11068165164E+02  0.50130744232E+02 -0.13711247927E+03  0.14641393605E+03  0.12700000000E+01 0.  1.
         -4    1    3    3    0  502 -0.91683995265E+02 -0.20215024579E+02 -0.47793131437E+03  0.48706730168E+03  0.12700000000E+01 0.  1.
          1    1    1    2  503    0  0.45222639373E+02  0.26345555640E+02 -0.19365415596E+03  0.20060186324E+03  0.00000000000E+00 0. -1.
         -3    1    1    2    0  501  0.35393190728E+02 -0.56261275293E+02  0.26762002330E+03  0.27575076775E+03  0.00000000000E+00 0.  1.
<mgrwt>
<rscale>  0 0.58986422E+02</rscale>
<asrwt>0</asrwt>
<pdfrwt beam="2">  1        2 0.12699322E+00 0.52337132E+02</pdfrwt>
<pdfrwt beam="1">  1       -2 0.43750457E-01 0.66480486E+02</pdfrwt>
<totfact> 0.18267062E+02</totfact>
</mgrwt>
</event>
<event>
 7    1  0.4252091E-004  0.8594756E+02  0.7546771E-02  0.1412180E+00
          1   -1    0    0  502    0 -0.00000000000E+00  0.00000000000E+00  0.21699166257E+03  0.21699166257E+03  0.00000000000E+00 0. -1.
          2   -1    0    0  503    0  0.00000000000E+00 -0.00000000000E+00 -0.20896253615E+03  0.20896253615E+03  0.00000000000E+00 0. -1.
         25    2    1    2    0    0  0.71405865279E+01  0.78888162222E+02 -0.79204092981E+02  0.16783243245E+03  0.12498042616E+03 0.  0.
          4    1    3    3  501    0  0.11350600012E+02 -0.32892395798E+02 -0.28568795036E+02  0.45039258118E+02  0.12700000000E+01 0. -1.
         -4    1    3    3    0  501 -0.42100134844E+01  0.11178055802E+03 -0.50635297945E+02  0.12279317433E+03  0.12700000000E+01 0. -1.
          2    1    1    2  502    0  0.37356913651E+02  0.21497552879E+01  0.14457030365E+03  0.14933429995E+03  0.00000000000E+00 0. -1.
          1    1    1    2  503    0 -0.44497500179E+02 -0.81037917510E+02 -0.57337084249E+02  0.10878746631E+03  0.00000000000E+00 0. -1.
<mgrwt>
<rscale>  0 0.56710206E+02</rscale>
<asrwt>0</asrwt>
<pdfrwt beam="2">  1        2 0.32148082E-01 0.85947558E+02</pdfrwt>
<pdfrwt beam="1">  1        1 0.33383333E-01 0.37418718E+02</pdfrwt>
<totfact> 0.27656229E+03</totfact>
</mgrwt>
</event>
<event>
 7    1  0.4252091E-004  0.5317426E+02  0.7546771E-02  0.1546109E+00
         -2   -1    0    0    0  501 -0.00000000000E+00  0.00000000000E+00  0.20226370563E+03  0.20226370563E+03  0.00000000000E+00 0.  1.
          2   -1    0    0  503    0  0.00000000000E+00 -0.00000000000E+00 -0.39349150399E+03  0.39349150399E+03  0.00000000000E+00 0. -1.
         25    2    1    2    0    0 -0.56303745732E+02  0.17157265201E+02 -0.75890024212E+02  0.15763630660E+03  0.12500170340E+03 0.  0.
          4    1    3    3  502    0  0.38245339832E+01 -0.23652799025E+02  0.24109624862E+02  0.34014245147E+02  0.12700000000E+01 0. -1.
         -4    1    3    3    0  502 -0.60128279715E+02  0.40810064226E+02 -0.99999649074E+02  0.12362206146E+03  0.12700000000E+01 0. -1.
          1    1    1    2  503    0  0.35065248813E+01 -0.23146241664E+02 -0.27183800231E+03  0.27284417480E+03  0.00000000000E+00 0. -1.
         -1    1    1    2    0  501  0.52797220850E+02  0.59889764633E+01  0.15650022817E+03  0.16527472822E+03  0.00000000000E+00 0.  1.
<mgrwt>
<rscale>  0 0.35282116E+02</rscale>
<asrwt>0</asrwt>
<pdfrwt beam="2">  1        2 0.60537154E-01 0.23410344E+02</pdfrwt>
<pdfrwt beam="1">  1       -2 0.31117493E-01 0.53174259E+02</pdfrwt>
<totfact> 0.76032897E+02</totfact>
</mgrwt>
</event>
<event>
 7    1  0.4252091E-004  0.1681767E+03  0.7546771E-02  0.1260052E+00
          1   -1    0    0  503    0  0.00000000000E+00  0.00000000000E+00  0.29072066663E+04  0.29072066663E+04  0.00000000000E+00 0. -1.
         -3   -1    0    0    0  501 -0.00000000000E+00 -0.00000000000E+00 -0.24081441859E+03  0.24081441859E+03  0.00000000000E+00 0.  1.
         25    2    1    2    0    0  0.15342856499E+02  0.21938728710E+03  0.13899515552E+03  0.28863823290E+03  0.12500476490E+03 0.  0.
          4    1    3    3  502    0  0.34448090237E+02  0.17930987634E+03  0.15690409446E+03  0.24074719195E+03  0.12700000000E+01 0.  1.
         -4    1    3    3    0  502 -0.19105233738E+02  0.40077410756E+02 -0.17908938941E+02  0.47891040948E+02  0.12700000000E+01 0.  1.
          2    1    1    2  503    0 -0.53337997142E+02 -0.15785852193E+03  0.26828046707E+04  0.26879741733E+04  0.00000000000E+00 0. -1.
         -2    1    1    2    0  501  0.37995140643E+02 -0.61528765171E+02 -0.15540757857E+03  0.17140867869E+03  0.00000000000E+00 0.  1.
<mgrwt>
<rscale>  0 0.11027988E+03</rscale>
<asrwt>0</asrwt>
<pdfrwt beam="1">  1        1 0.44726254E+00 0.16817671E+03</pdfrwt>
<pdfrwt beam="2">  1       -3 0.37048374E-01 0.72314726E+02</pdfrwt>
<totfact> 0.33352072E+00</totfact>
</mgrwt>
</event>
<event>
 7    1  0.4252091E-004  0.7687126E+02  0.7546771E-02  0.1444453E+00
         -2   -1    0    0    0  501 -0.00000000000E+00  0.00000000000E+00  0.23673440358E+03  0.23673440358E+03  0.00000000000E+00 0.  1.
          2   -1    0    0  503    0  0.00000000000E+00 -0.00000000000E+00 -0.27316000437E+03  0.27316000437E+03  0.00000000000E+00 0. -1.
         25    2    1    2    0    0 -0.52543400625E+02  0.50151175543E+01 -0.14975094709E+03  0.20207019009E+03  0.12498421985E+03 0.  0.
          4    1    3    3  502    0 -0.49181157057E+02 -0.55941973213E+02 -0.78202585201E+02  0.10800716554E+03  0.12700000000E+01 0.  1.
         -4    1    3    3    0  502 -0.33622435680E+01  0.60957090768E+02 -0.71548361894E+02  0.94063024544E+02  0.12700000000E+01 0.  1.
          1    1    1    2  503    0 -0.23356675764E+02 -0.22938623203E+02 -0.86945532388E+02  0.92904468888E+02  0.00000000000E+00 0. -1.
         -1    1    1    2    0  501  0.75900076388E+02  0.17923505648E+02  0.20027087869E+03  0.21491974898E+03  0.00000000000E+00 0.  1.
<mgrwt>
<rscale>  0 0.50165115E+02</rscale>
<asrwt>0</asrwt>
<pdfrwt beam="2">  1        2 0.42024616E-01 0.32737054E+02</pdfrwt>
<pdfrwt beam="1">  1       -2 0.36420678E-01 0.76871264E+02</pdfrwt>
<totfact> 0.83350128E+02</totfact>
</mgrwt>
</event>
<event>
 7    1  0.4252091E-004  0.1683047E+03  0.7546771E-02  0.1206412E+00
          2   -1    0    0  503    0  0.00000000000E+00  0.00000000000E+00  0.12750553278E+04  0.12750553278E+04  0.00000000000E+00 0. -1.
         -2   -1    0    0    0  501 -0.00000000000E+00 -0.00000000000E+00 -0.75843473888E+03  0.75843473888E+03  0.00000000000E+00 0.  1.
         25    2    1    2    0    0 -0.18611850599E+03 -0.12877021748E+03 -0.25157335386E+03  0.36077687564E+03  0.12509570114E+03 0.  0.
          4    1    3    3  502    0 -0.15104897837E+03 -0.14883957141E+03 -0.17815893883E+03  0.27696792643E+03  0.12700000000E+01 0. -1.
         -4    1    3    3    0  502 -0.35069527623E+02  0.20069353929E+02 -0.73414415029E+02  0.83808949217E+02  0.12700000000E+01 0. -1.
          1    1    1    2  503    0  0.12398357483E+03 -0.18684204026E+02  0.12029393437E+04  0.12094561137E+04  0.00000000000E+00 0. -1.
         -1    1    1    2    0  501  0.62134931163E+02  0.14745442151E+03 -0.43474540093E+03  0.46325707736E+03  0.00000000000E+00 0.  1.
<mgrwt>
<rscale>  0 0.14526747E+03</rscale>
<asrwt>0</asrwt>
<pdfrwt beam="1">  1        2 0.19616236E+00 0.12538352E+03</pdfrwt>
<pdfrwt beam="2">  1       -2 0.11668227E+00 0.16830471E+03</pdfrwt>
<totfact> 0.11732555E+01</totfact>
</mgrwt>
</event>
<event>
 7    1  0.4252091E-004  0.7226699E+02  0.7546771E-02  0.1517881E+00
          1   -1    0    0  502    0 -0.00000000000E+00  0.00000000000E+00  0.79023954272E+03  0.79023954272E+03  0.00000000000E+00 0. -1.
          2   -1    0    0  503    0  0.00000000000E+00 -0.00000000000E+00 -0.13828862563E+03  0.13828862563E+03  0.00000000000E+00 0. -1.
         25    2    1    2    0    0 -0.57063512455E+02 -0.55688313262E+02  0.32530296280E+02  0.15178933866E+03  0.12499740184E+03 0.  0.
          4    1    3    3  501    0 -0.22433380256E+02  0.39591121018E+02  0.71269466861E+00  0.45528389460E+02  0.12700000000E+01 0. -1.
         -4    1    3    3    0  501 -0.34630132199E+02 -0.95279434280E+02  0.31817601611E+02  0.10626094920E+03  0.12700000000E+01 0. -1.
          2    1    1    2  502    0  0.37230080657E+02  0.61757404424E+02  0.69481319707E+03  0.69854522740E+03  0.00000000000E+00 0. -1.
          1    1    1    2  503    0  0.19833431798E+02 -0.60690911621E+01 -0.75392576258E+02  0.78193602291E+02  0.00000000000E+00 0. -1.
<mgrwt>
<rscale>  0 0.38715716E+02</rscale>
<asrwt>0</asrwt>
<pdfrwt beam="2">  1        2 0.21275174E-01 0.20741236E+02</pdfrwt>
<pdfrwt beam="1">  1        1 0.12157531E+00 0.72266987E+02</pdfrwt>
<totfact> 0.79431687E+02</totfact>
</mgrwt>
</event>
<event>
 7    1  0.4252091E-004  0.9660086E+02  0.7546771E-02  0.1402398E+00
         -2   -1    0    0    0  501  0.00000000000E+00  0.00000000000E+00  0.32174829822E+03  0.32174829822E+03  0.00000000000E+00 0.  1.
         -1   -1    0    0    0  502 -0.00000000000E+00 -0.00000000000E+00 -0.49504503159E+03  0.49504503159E+03  0.00000000000E+00 0.  1.
         25    2    1    2    0    0 -0.32516359372E+02  0.78368033294E+02 -0.12961463488E+03  0.19906622290E+03  0.12501418022E+03 0.  0.
          4    1    3    3  503    0  0.46310377202E+02  0.25481801487E+02 -0.27342418694E+02  0.59524734386E+02  0.12700000000E+01 0.  1.
         -4    1    3    3    0  503 -0.78826736575E+02  0.52886231807E+02 -0.10227221618E+03  0.13954148851E+03  0.12700000000E+01 0.  1.
         -2    1    1    2    0  502  0.68118591344E+02 -0.73424907706E+02 -0.32193872460E+03  0.33715857093E+03  0.00000000000E+00 0.  1.
         -1    1    1    2    0  501 -0.35602231971E+02 -0.49431255882E+01  0.27825662610E+03  0.28056853598E+03  0.00000000000E+00 0.  1.
<mgrwt>
<rscale>  0 0.58925355E+02</rscale>
<asrwt>0</asrwt>
<pdfrwt beam="1">  1       -2 0.49499738E-01 0.35943753E+02</pdfrwt>
<pdfrwt beam="2">  1       -1 0.76160774E-01 0.96600859E+02</pdfrwt>
<totfact> 0.54276553E+01</totfact>
</mgrwt>
</event>
<event>
 7    1  0.4252091E-004  0.1032614E+03  0.7546771E-02  0.1344039E+00
         -2   -1    0    0    0  501 -0.00000000000E+00  0.00000000000E+00  0.18840066008E+04  0.18840066008E+04  0.00000000000E+00 0.  1.
          2   -1    0    0  503    0  0.00000000000E+00 -0.00000000000E+00 -0.35980358452E+02  0.35980358452E+02  0.00000000000E+00 0. -1.
         25    2    1    2    0    0  0.79246679559E+02 -0.12158129437E+03  0.10440485503E+04  0.10614726188E+04  0.12499879083E+03 0.  0.
          4    1    3    3  502    0  0.12023284367E+02 -0.66823685384E+02  0.79237974317E+03  0.79528437341E+03  0.12700000000E+01 0.  1.
         -4    1    3    3    0  502  0.67223395192E+02 -0.54757608983E+02  0.25166880716E+03  0.26618824542E+03  0.12700000000E+01 0.  1.
          1    1    1    2  503    0 -0.32416142400E+02  0.43680262023E+02  0.52676580081E+01  0.54649060371E+02  0.00000000000E+00 0. -1.
         -1    1    1    2    0  501 -0.46830537160E+02  0.77901032344E+02  0.79871003401E+03  0.80386528006E+03  0.00000000000E+00 0.  1.
<mgrwt>
<rscale>  0 0.74945722E+02</rscale>
<asrwt>0</asrwt>
<pdfrwt beam="2">  1        2 0.55354412E-02 0.54394591E+02</pdfrwt>
<pdfrwt beam="1">  1       -2 0.28984709E+00 0.10326139E+03</pdfrwt>
<totfact> 0.55883460E+01</totfact>
</mgrwt>
</event>
<event>
 7    1  0.4252091E-004  0.1832624E+03  0.7546771E-02  0.1263768E+00
          2   -1    0    0  503    0  0.00000000000E+00  0.00000000000E+00  0.88660901373E+03  0.88660901373E+03  0.00000000000E+00 0. -1.
          1   -1    0    0  502    0 -0.00000000000E+00 -0.00000000000E+00 -0.26100924096E+04  0.26100924096E+04  0.00000000000E+00 0. -1.
         25    2    1    2    0    0 -0.15100035631E+03 -0.19210978660E+03 -0.16756307768E+03  0.32157756750E+03  0.12500987641E+03 0.  0.
          4    1    3    3  501    0 -0.65102244561E+01 -0.24499948626E+02 -0.79413082032E+02  0.83370744287E+02  0.12700000000E+01 0. -1.
         -4    1    3    3    0  501 -0.14449013186E+03 -0.16760983798E+03 -0.88149995653E+02  0.23820682321E+03  0.12700000000E+01 0. -1.
          2    1    1    2  502    0  0.44109055971E+02  0.46358026714E+02 -0.23549939840E+04  0.23558631837E+04  0.00000000000E+00 0. -1.
          1    1    1    2  503    0  0.10689130034E+03  0.14575175989E+03  0.79907366581E+03  0.81926067218E+03  0.00000000000E+00 0. -1.
<mgrwt>
<rscale>  0 0.10829080E+03</rscale>
<asrwt>0</asrwt>
<pdfrwt beam="1">  1        2 0.13640139E+00 0.18326240E+03</pdfrwt>
<pdfrwt beam="2">  1        1 0.40155268E+00 0.63989651E+02</pdfrwt>
<totfact> 0.71989547E+00</totfact>
</mgrwt>
</event>
<event>
 7    1  0.4252091E-004  0.3786368E+02  0.7546771E-02  0.1620932E+00
          2   -1    0    0  503    0  0.00000000000E+00  0.00000000000E+00  0.42313689282E+03  0.42313689282E+03  0.00000000000E+00 0. -1.
          1   -1    0    0  502    0 -0.00000000000E+00 -0.00000000000E+00 -0.37570978720E+03  0.37570978720E+03  0.00000000000E+00 0. -1.
         25    2    1    2    0    0 -0.21883642188E+02  0.34639230532E+02 -0.29638327099E+03  0.32426197323E+03  0.12499605542E+03 0.  0.
          4    1    3    3  501    0 -0.34025467371E+02  0.25919878869E+02 -0.19591457422E+02  0.47063899693E+02  0.12700000000E+01 0.  1.
         -4    1    3    3    0  501  0.12141825183E+02  0.87193516638E+01 -0.27679181357E+03  0.27719807354E+03  0.12700000000E+01 0.  1.
          2    1    1    2  502    0  0.20502594522E+02  0.32061592597E+01 -0.62838420620E+02  0.66176301992E+02  0.00000000000E+00 0. -1.
          3    1    1    2  503    0  0.13810476665E+01 -0.37845389792E+02  0.40664879723E+03  0.40840840480E+03  0.00000000000E+00 0. -1.
<mgrwt>
<rscale>  0 0.28031023E+02</rscale>
<asrwt>0</asrwt>
<pdfrwt beam="1">  1        2 0.65097983E-01 0.37863680E+02</pdfrwt>
<pdfrwt beam="2">  1        1 0.57801506E-01 0.20751767E+02</pdfrwt>
<totfact> 0.69355205E+02</totfact>
</mgrwt>
</event>
<event>
 7    1  0.4252091E-004  0.1239402E+03  0.7546771E-02  0.1324324E+00
          2   -1    0    0  503    0  0.00000000000E+00  0.00000000000E+00  0.54896544615E+03  0.54896544615E+03  0.00000000000E+00 0. -1.
          1   -1    0    0  502    0 -0.00000000000E+00 -0.00000000000E+00 -0.39780443418E+03  0.39780443418E+03  0.00000000000E+00 0. -1.
         25    2    1    2    0    0 -0.66553244473E+02  0.12570676247E+03 -0.23010801846E+02  0.19074832645E+03  0.12499561018E+03 0.  0.
          4    1    3    3  501    0 -0.78512507620E+02  0.80109709620E+02  0.33571702168E+02  0.11709163725E+03  0.12700000000E+01 0.  1.
         -4    1    3    3    0  501  0.11959263147E+02  0.45597052851E+02 -0.56582504014E+02  0.73656689202E+02  0.12700000000E+01 0.  1.
          2    1    1    2  502    0  0.53752010991E+02 -0.31101403952E+01 -0.28014907753E+03  0.28527610713E+03  0.00000000000E+00 0. -1.
          1    1    1    2  503    0  0.12801233482E+02 -0.12259662208E+03  0.45432089135E+03  0.47074544675E+03  0.00000000000E+00 0. -1.
<mgrwt>
<rscale>  0 0.81689519E+02</rscale>
<asrwt>0</asrwt>
<pdfrwt beam="1">  1        2 0.84456223E-01 0.12394020E+03</pdfrwt>
<pdfrwt beam="2">  1        1 0.61200682E-01 0.53841914E+02</pdfrwt>
<totfact> 0.48257143E+02</totfact>
</mgrwt>
</event>
<event>
 7    1  0.4252091E-004  0.3580210E+03  0.7546771E-02  0.1176974E+00
          2   -1    0    0  503    0  0.00000000000E+00  0.00000000000E+00  0.21565508291E+04  0.21565508291E+04  0.00000000000E+00 0. -1.
          1   -1    0    0  502    0 -0.00000000000E+00 -0.00000000000E+00 -0.14091410671E+03  0.14091410671E+03  0.00000000000E+00 0. -1.
         25    2    1    2    0    0 -0.30292121229E+03 -0.42548147984E+02  0.10339379893E+04  0.10854601500E+04  0.12499746317E+03 0.  0.
          4    1    3    3  501    0 -0.24557082642E+03  0.14683520479E+02  0.70509456602E+03  0.74678015272E+03  0.12700000000E+01 0.  1.
         -4    1    3    3    0  501 -0.57350385867E+02 -0.57231668462E+02  0.32884342324E+03  0.33867999726E+03  0.12700000000E+01 0.  1.
          2    1    1    2  502    0  0.36004541673E+03  0.10070868817E+03  0.19607271489E+03  0.42216045706E+03  0.00000000000E+00 0. -1.
          1    1    1    2  503    0 -0.57124204439E+02 -0.58160540183E+02  0.78562601820E+03  0.78984432874E+03  0.00000000000E+00 0. -1.
<mgrwt>
<rscale>  0 0.17084075E+03</rscale>
<asrwt>0</asrwt>
<pdfrwt beam="1">  1        2 0.33177703E+00 0.81521918E+02</pdfrwt>
<pdfrwt beam="2">  1        1 0.21679095E-01 0.35802103E+03</pdfrwt>
<totfact> 0.22116380E+02</totfact>
</mgrwt>
</event>
<event>
 7    1  0.4252091E-004  0.1082568E+03  0.7546771E-02  0.1360439E+00
         -2   -1    0    0    0  501 -0.00000000000E+00  0.00000000000E+00  0.55126679780E+02  0.55126679780E+02  0.00000000000E+00 0.  1.
          2   -1    0    0  503    0  0.00000000000E+00 -0.00000000000E+00 -0.27570210564E+04  0.27570210564E+04  0.00000000000E+00 0. -1.
         25    2    1    2    0    0 -0.63112679769E+02  0.26632695218E+02 -0.18161169098E+04  0.18217018734E+04  0.12499829878E+03 0.  0.
          4    1    3    3  502    0  0.96078813472E+01  0.60717558163E+02 -0.87990690508E+03  0.88205255385E+03  0.12700000000E+01 0. -1.
         -4    1    3    3    0  502 -0.72720561116E+02 -0.34084862945E+02 -0.93621000471E+03  0.93964931954E+03  0.12700000000E+01 0. -1.
          1    1    1    2  503    0 -0.26343719991E+02  0.36645140785E+02 -0.87953681738E+03  0.88069397128E+03  0.00000000000E+00 0. -1.
         -1    1    1    2    0  501  0.89456399760E+02 -0.63277836003E+02 -0.62406494687E+01  0.10975189152E+03  0.00000000000E+00 0.  1.
<mgrwt>
<rscale>  0 0.69898488E+02</rscale>
<asrwt>0</asrwt>
<pdfrwt beam="2">  1        2 0.42415697E+00 0.45131562E+02</pdfrwt>
<pdfrwt beam="1">  1       -2 0.84810301E-02 0.10825680E+03</pdfrwt>
<totfact> 0.30601383E+02</totfact>
</mgrwt>
</event>
<event>
 7    1  0.4252091E-004  0.6826458E+02  0.7546771E-02  0.1416939E+00
          1   -1    0    0  502    0 -0.00000000000E+00  0.00000000000E+00  0.62067602306E+03  0.62067602306E+03  0.00000000000E+00 0. -1.
          2   -1    0    0  503    0  0.00000000000E+00 -0.00000000000E+00 -0.95451662457E+03  0.95451662457E+03  0.00000000000E+00 0. -1.
         25    2    1    2    0    0 -0.22057621415E+02 -0.10926693998E+02  0.45611623479E+03  0.47357451985E+03  0.12499949961E+03 0.  0.
          4    1    3    3  501    0 -0.35516890826E+02  0.32540598039E+02  0.71183601869E+02  0.85959630814E+02  0.12700000000E+01 0. -1.
         -4    1    3    3    0  501  0.13459269411E+02 -0.43467292036E+02  0.38493263292E+03  0.38761488903E+03  0.12700000000E+01 0. -1.
          2    1    1    2  502    0 -0.27721504130E+02 -0.35960378874E+02  0.15125614490E+03  0.15792419704E+03  0.00000000000E+00 0. -1.
          1    1    1    2  503    0  0.49779125545E+02  0.46887072872E+02 -0.94121298120E+03  0.94369393074E+03  0.00000000000E+00 0. -1.
<mgrwt>
<rscale>  0 0.55673745E+02</rscale>
<asrwt>0</asrwt>
<pdfrwt beam="2">  1        2 0.14684871E+00 0.68264583E+02</pdfrwt>
<pdfrwt beam="1">  1        1 0.95488619E-01 0.45405183E+02</pdfrwt>
<totfact> 0.14642997E+02</totfact>
</mgrwt>
</event>
<event>
 7    1  0.4252091E-004  0.6986384E+02  0.7546771E-02  0.1503227E+00
         -1   -1    0    0    0  501 -0.00000000000E+00  0.00000000000E+00  0.14511185602E+03  0.14511185602E+03  0.00000000000E+00 0.  1.
          1   -1    0    0  503    0  0.00000000000E+00 -0.00000000000E+00 -0.13453382831E+03  0.13453382831E+03  0.00000000000E+00 0. -1.
         25    2    1    2    0    0 -0.45631387123E+02 -0.23171466592E+02  0.44467540690E+02  0.14218855262E+03  0.12498432688E+03 0.  0.
          4    1    3    3  502    0  0.25598238183E+02  0.76168640335E+00  0.60175717093E+02  0.65410853777E+02  0.12700000000E+01 0. -1.
         -4    1    3    3    0  502 -0.71229625306E+02 -0.23933152995E+02 -0.15708176402E+02  0.76777698841E+02  0.12700000000E+01 0. -1.
          2    1    1    2  503    0  0.59958019950E+02  0.42042589907E+02 -0.65298096411E+02  0.98114142290E+02  0.00000000000E+00 0. -1.
         -2    1    1    2    0  501 -0.14326632827E+02 -0.18871123316E+02  0.31408583426E+02  0.39342989416E+02  0.00000000000E+00 0.  1.
<mgrwt>
<rscale>  0 0.40685424E+02</rscale>
<asrwt>0</asrwt>
<pdfrwt beam="2">  1        1 0.20697512E-01 0.69863836E+02</pdfrwt>
<pdfrwt beam="1">  1       -1 0.22324901E-01 0.23693284E+02</pdfrwt>
<totfact> 0.35975127E+03</totfact>
</mgrwt>
</event>
<event>
 7    1  0.4252091E-004  0.2590839E+02  0.7546771E-02  0.1680433E+00
          1   -1    0    0  502    0 -0.00000000000E+00  0.00000000000E+00  0.92732785864E+03  0.92732785864E+03  0.00000000000E+00 0. -1.
          2   -1    0    0  503    0  0.00000000000E+00 -0.00000000000E+00 -0.10397192251E+04  0.10397192251E+04  0.00000000000E+00 0. -1.
         25    2    1    2    0    0  0.17166527592E+02  0.43018560536E+02  0.32705659292E+03  0.35318098704E+03  0.12500203366E+03 0.  0.
          4    1    3    3  501    0  0.14911527310E+02  0.81531019164E+02  0.14449593120E+03  0.16658435631E+03  0.12700000000E+01 0.  1.
         -4    1    3    3    0  501  0.22550002819E+01 -0.38512458628E+02  0.18256066172E+03  0.18659663074E+03  0.12700000000E+01 0.  1.
          2    1    1    2  502    0 -0.27518703098E+01 -0.21501598635E+02  0.58684559180E+03  0.58724580897E+03  0.00000000000E+00 0. -1.
          1    1    1    2  503    0 -0.14414657282E+02 -0.21516961901E+02 -0.10262935512E+04  0.10266202878E+04  0.00000000000E+00 0. -1.
<mgrwt>
<rscale>  0 0.23698430E+02</rscale>
<asrwt>0</asrwt>
<pdfrwt beam="2">  1        2 0.15995680E+00 0.25908385E+02</pdfrwt>
<pdfrwt beam="1">  1        1 0.14266582E+00 0.21676982E+02</pdfrwt>
<totfact> 0.82165590E+01</totfact>
</mgrwt>
</event>
<event>
 7    1  0.4252091E-004  0.1196679E+03  0.7546771E-02  0.1409956E+00
          2   -1    0    0  503    0  0.00000000000E+00  0.00000000000E+00  0.17685064721E+04  0.17685064721E+04  0.00000000000E+00 0. -1.
          1   -1    0    0  502    0 -0.00000000000E+00 -0.00000000000E+00 -0.25430200197E+03  0.25430200197E+03  0.00000000000E+00 0. -1.
         25    2    1    2    0    0 -0.11298229975E+03  0.33779058043E+01  0.66585399888E+03  0.68684985162E+03  0.12499904219E+03 0.  0.
          4    1    3    3  501    0 -0.62377885033E+02 -0.26818013018E+02  0.12049110076E+03  0.13831097074E+03  0.12700000000E+01 0.  1.
         -4    1    3    3    0  501 -0.50604414713E+02  0.30195918822E+02  0.54536289812E+03  0.54853888089E+03  0.12700000000E+01 0.  1.
          2    1    1    2  502    0  0.11753185925E+03  0.23585435749E+02 -0.22888487883E+03  0.25837627305E+03  0.00000000000E+00 0. -1.
          1    1    1    2  503    0 -0.45495594992E+01 -0.26963341554E+02  0.10772353500E+04  0.10775823494E+04  0.00000000000E+00 0. -1.
<mgrwt>
<rscale>  0 0.57203624E+02</rscale>
<asrwt>0</asrwt>
<pdfrwt beam="1">  1        2 0.27207791E+00 0.27344474E+02</pdfrwt>
<pdfrwt beam="2">  1        1 0.39123386E-01 0.11966785E+03</pdfrwt>
<totfact> 0.18148410E+02</totfact>
</mgrwt>
</event>
<event>
 7    1  0.4252091E-004  0.1615231E+03  0.7546771E-02  0.1265421E+00
          1   -1    0    0  503    0  0.00000000000E+00  0.00000000000E+00  0.10691882279E+04  0.10691882279E+04  0.00000000000E+00 0. -1.
         -1   -1    0    0    0  501 -0.00000000000E+00 -0.00000000000E+00 -0.13993574958E+03  0.13993574958E+03  0.00000000000E+00 0.  1.
         25    2    1    2    0    0  0.13303116886E+03  0.70590492125E+01  0.45243626509E+02  0.18820058360E+03  0.12500140744E+03 0.  0.
          4    1    3    3  502    0  0.65908425812E+02 -0.42436437805E+02  0.65736986133E+02  0.10231195479E+03  0.12700000000E+01 0. -1.
         -4    1    3    3    0  502  0.67122743051E+02  0.49495487018E+02 -0.20493359624E+02  0.85888628808E+02  0.12700000000E+01 0. -1.
          2    1    1    2  503    0  0.60535485357E+02  0.37937211253E+02  0.80323759228E+03  0.80640833741E+03  0.00000000000E+00 0. -1.
         -2    1    1    2    0  501 -0.19356665422E+03 -0.44996260466E+02  0.80771259509E+02  0.21451505645E+03  0.00000000000E+00 0.  1.
<mgrwt>
<rscale>  0 0.10742126E+03</rscale>
<asrwt>0</asrwt>
<pdfrwt beam="1">  1        1 0.16449049E+00 0.71440724E+02</pdfrwt>
<pdfrwt beam="2">  1       -1 0.21528578E-01 0.16152309E+03</pdfrwt>
<totfact> 0.27608334E+02</totfact>
</mgrwt>
</event>
<event>
 7    1  0.4252091E-004  0.7234801E+02  0.7546771E-02  0.1462774E+00
          2   -1    0    0  503    0  0.00000000000E+00  0.00000000000E+00  0.20523889562E+04  0.20523889562E+04  0.00000000000E+00 0. -1.
          1   -1    0    0  502    0 -0.00000000000E+00 -0.00000000000E+00 -0.46010924301E+04  0.46010924301E+04  0.00000000000E+00 0. -1.
         25    2    1    2    0    0 -0.88639805009E+02  0.51894454580E+02  0.26751149581E+03  0.31263062971E+03  0.12500184315E+03 0.  0.
          4    1    3    3  501    0  0.31820233841E+02  0.17240978222E+02  0.53310079221E+02  0.64446536434E+02  0.12700000000E+01 0. -1.
         -4    1    3    3    0  501 -0.12046003885E+03  0.34653476357E+02  0.21420141659E+03  0.24818409327E+03  0.12700000000E+01 0. -1.
          2    1    1    2  502    0  0.61967291828E+02 -0.37282244410E+02 -0.45781160561E+04  0.45786872064E+04  0.00000000000E+00 0. -1.
          1    1    1    2  503    0  0.26672513181E+02 -0.14612210170E+02  0.17619010864E+04  0.17621635503E+04  0.00000000000E+00 0. -1.
<mgrwt>
<rscale>  0 0.46907431E+02</rscale>
<asrwt>0</asrwt>
<pdfrwt beam="1">  1        2 0.31575215E+00 0.30412820E+02</pdfrwt>
<pdfrwt beam="2">  1        1 0.70786037E+00 0.72348011E+02</pdfrwt>
<totfact> 0.59728986E-02</totfact>
</mgrwt>
</event>
<event>
 7    1  0.4252091E-004  0.9155798E+02  0.7546771E-02  0.1313547E+00
          1   -1    0    0  502    0 -0.00000000000E+00  0.00000000000E+00  0.23876221840E+04  0.23876221840E+04  0.00000000000E+00 0. -1.
          2   -1    0    0  503    0  0.00000000000E+00 -0.00000000000E+00 -0.17248183322E+04  0.17248183322E+04  0.00000000000E+00 0. -1.
         25    2    1    2    0    0 -0.55052413895E+02  0.28280107252E+01  0.73603606257E+03  0.74860574381E+03  0.12499083306E+03 0.  0.
          4    1    3    3  501    0 -0.53189470108E+02  0.17166445745E+02  0.73115969199E+03  0.73329388016E+03  0.12700000000E+01 0. -1.
         -4    1    3    3    0  501 -0.18629437873E+01 -0.14338435020E+02  0.48763705707E+01  0.15311863646E+02  0.12700000000E+01 0. -1.
          2    1    1    2  502    0  0.66632527385E+02 -0.82252290443E+02  0.16426595711E+04  0.16460667664E+04  0.00000000000E+00 0. -1.
          1    1    1    2  503    0 -0.11580113490E+02  0.79424279717E+02 -0.17158917818E+04  0.17177680059E+04  0.00000000000E+00 0. -1.
<mgrwt>
<rscale>  0 0.85725215E+02</rscale>
<asrwt>0</asrwt>
<pdfrwt beam="2">  1        2 0.26535667E+00 0.80264035E+02</pdfrwt>
<pdfrwt beam="1">  1        1 0.36732649E+00 0.91557976E+02</pdfrwt>
<totfact> 0.34819488E+00</totfact>
</mgrwt>
</event>
<event>
 7    1  0.4252091E-004  0.9244990E+02  0.7546771E-02  0.1430761E+00
          1   -1    0    0  502    0 -0.00000000000E+00  0.00000000000E+00  0.11828063865E+04  0.11828063865E+04  0.00000000000E+00 0. -1.
          2   -1    0    0  503    0  0.00000000000E+00 -0.00000000000E+00 -0.36863992745E+03  0.36863992745E+03  0.00000000000E+00 0. -1.
         25    2    1    2    0    0  0.64253561323E+02  0.67807646445E+02  0.25860788094E+03  0.30204113319E+03  0.12499765196E+03 0.  0.
          4    1    3    3  501    0  0.89637970257E+02  0.84730907587E+02  0.22527857906E+03  0.25683913934E+03  0.12700000000E+01 0.  1.
         -4    1    3    3    0  501 -0.25384408933E+02 -0.16923261142E+02  0.33329301883E+02  0.45201993856E+02  0.12700000000E+01 0.  1.
          2    1    1    2  502    0 -0.25446553875E+02  0.16196271604E+02  0.89605317160E+03  0.89656072446E+03  0.00000000000E+00 0. -1.
          1    1    1    2  503    0 -0.38807007448E+02 -0.84003918049E+02 -0.34049459353E+03  0.35284445624E+03  0.00000000000E+00 0. -1.
<mgrwt>
<rscale>  0 0.52807455E+02</rscale>
<asrwt>0</asrwt>
<pdfrwt beam="2">  1        2 0.56713835E-01 0.92449901E+02</pdfrwt>
<pdfrwt beam="1">  1        1 0.18197021E+00 0.30163659E+02</pdfrwt>
<totfact> 0.16743558E+02</totfact>
</mgrwt>
</event>
<event>
 7    1  0.4252091E-004  0.8547653E+02  0.7546771E-02  0.1327141E+00
          2   -1    0    0  503    0  0.00000000000E+00  0.00000000000E+00  0.60910267084E+03  0.60910267084E+03  0.00000000000E+00 0. -1.
          1   -1    0    0  502    0 -0.00000000000E+00 -0.00000000000E+00 -0.84875628176E+02  0.84875628176E+02  0.00000000000E+00 0. -1.
         25    2    1    2    0    0  0.23672913646E+02  0.14862069403E+03  0.23870523684E+03  0.30863354647E+03  0.12500383345E+03 0.  0.
          4    1    3    3  501    0 -0.13217749902E+00 -0.16046015231E+02  0.69455859674E+02  0.71296713941E+02  0.12700000000E+01 0. -1.
         -4    1    3    3    0  501  0.23805091145E+02  0.16466670926E+03  0.16924937716E+03  0.23733683252E+03  0.12700000000E+01 0. -1.
          2    1    1    2  502    0 -0.28052891363E+02 -0.72599897551E+02 -0.11536910890E+02  0.78681701501E+02  0.00000000000E+00 0. -1.
          1    1    1    2  503    0  0.43799777172E+01 -0.76020796477E+02  0.29705871672E+03  0.30666305105E+03  0.00000000000E+00 0. -1.
<mgrwt>
<rscale>  0 0.80676950E+02</rscale>
<asrwt>0</asrwt>
<pdfrwt beam="1">  1        2 0.93708100E-01 0.76146869E+02</pdfrwt>
<pdfrwt beam="2">  1        1 0.13057789E-01 0.85476531E+02</pdfrwt>
<totfact> 0.29325453E+03</totfact>
</mgrwt>
</event>
<event>
 7    1  0.4252091E-004  0.5163544E+02  0.7546771E-02  0.1521489E+00
          1   -1    0    0  503    0  0.00000000000E+00  0.00000000000E+00  0.30796165116E+03  0.30796165116E+03  0.00000000000E+00 0. -1.
         -1   -1    0    0    0  501 -0.00000000000E+00 -0.00000000000E+00 -0.27933192157E+03  0.27933192157E+03  0.00000000000E+00 0.  1.
         25    2    1    2    0    0  0.49946451205E+02  0.46470653383E+02  0.19090042096E+03  0.23817277844E+03  0.12501652713E+03 0.  0.
          4    1    3    3  502    0  0.54098619576E+02 -0.29604045621E+02  0.11570091300E+03  0.13111588129E+03  0.12700000000E+01 0. -1.
         -4    1    3    3    0  502 -0.41521683708E+01  0.76074699004E+02  0.75199507953E+02  0.10705689715E+03  0.12700000000E+01 0. -1.
          2    1    1    2  503    0 -0.44265652443E+02 -0.18709502032E+02  0.86386604274E+02  0.98854129153E+02  0.00000000000E+00 0. -1.
         -2    1    1    2    0  501 -0.56807987625E+01 -0.27761151351E+02 -0.24865729564E+03  0.25026666513E+03  0.00000000000E+00 0.  1.
<mgrwt>
<rscale>  0 0.38251323E+02</rscale>
<asrwt>0</asrwt>
<pdfrwt beam="1">  1        1 0.47378716E-01 0.51635437E+02</pdfrwt>
<pdfrwt beam="2">  1       -1 0.42974142E-01 0.28336425E+02</pdfrwt>
<totfact> 0.46033726E+02</totfact>
</mgrwt>
</event>
<event>
 7    1  0.4252091E-004  0.7605654E+02  0.7546771E-02  0.1366733E+00
          1   -1    0    0  502    0 -0.00000000000E+00  0.00000000000E+00  0.72484052595E+03  0.72484052595E+03  0.00000000000E+00 0. -1.
          2   -1    0    0  503    0  0.00000000000E+00 -0.00000000000E+00 -0.17857919164E+04  0.17857919164E+04  0.00000000000E+00 0. -1.
         25    2    1    2    0    0 -0.11477030035E+03 -0.57839062152E+02  0.29739373278E+03  0.34725599549E+03  0.12500446055E+03 0.  0.
          4    1    3    3  501    0 -0.28888182084E+02 -0.65651941616E+02  0.21991221607E+03  0.23131731491E+03  0.12700000000E+01 0.  1.
         -4    1    3    3    0  501 -0.85882118266E+02  0.78128794636E+01  0.77481516711E+02  0.11593868058E+03  0.12700000000E+01 0.  1.
          2    1    1    2  502    0  0.55966759379E+02  0.41817343577E+02  0.39895185039E+03  0.40502289726E+03  0.00000000000E+00 0. -1.
          1    1    1    2  503    0  0.58803540970E+02  0.16021718576E+02 -0.17572969736E+04  0.17583535496E+04  0.00000000000E+00 0. -1.
<mgrwt>
<rscale>  0 0.68083971E+02</rscale>
<asrwt>0</asrwt>
<pdfrwt beam="2">  1        2 0.27473721E+00 0.60947124E+02</pdfrwt>
<pdfrwt beam="1">  1        1 0.11151393E+00 0.76056536E+02</pdfrwt>
<totfact> 0.43180061E+01</totfact>
</mgrwt>
</event>
<event>
 7    1  0.4252091E-004  0.2781616E+03  0.7546771E-02  0.1185136E+00
          2   -1    0    0  503    0  0.00000000000E+00  0.00000000000E+00  0.25281700564E+03  0.25281700564E+03  0.00000000000E+00 0. -1.
          1   -1    0    0  502    0 -0.00000000000E+00 -0.00000000000E+00 -0.24482009579E+04  0.24482009579E+04  0.00000000000E+00 0. -1.
         25    2    1    2    0    0  0.72850070514E+02  0.35235077811E+03 -0.68021711662E+03  0.77960221890E+03  0.12500436133E+03 0.  0.
          4    1    3    3  501    0  0.60621342810E+02  0.59860525370E+02 -0.19679780969E+03  0.21445097459E+03  0.12700000000E+01 0.  1.
         -4    1    3    3    0  501  0.12228727704E+02  0.29249025274E+03 -0.48341930693E+03  0.56515124431E+03  0.12700000000E+01 0.  1.
          2    1    1    2  502    0 -0.42655364294E+02 -0.85718184924E+02 -0.16276450583E+04  0.16304586849E+04  0.00000000000E+00 0. -1.
          1    1    1    2  503    0 -0.30194706220E+02 -0.26663259319E+03  0.11247822268E+03  0.29095705974E+03  0.00000000000E+00 0. -1.
<mgrwt>
<rscale>  0 0.16319484E+03</rscale>
<asrwt>0</asrwt>
<pdfrwt beam="1">  1        2 0.38894925E-01 0.27816157E+03</pdfrwt>
<pdfrwt beam="2">  1        1 0.37664629E+00 0.95744908E+02</pdfrwt>
<totfact> 0.35648777E+01</totfact>
</mgrwt>
</event>
<event>
 7    1  0.4252091E-004  0.2141047E+03  0.7546771E-02  0.1280228E+00
          1   -1    0    0  503    0  0.00000000000E+00  0.00000000000E+00  0.15589884490E+04  0.15589884490E+04  0.00000000000E+00 0. -1.
         -1   -1    0    0    0  501 -0.00000000000E+00 -0.00000000000E+00 -0.29972314636E+03  0.29972314636E+03  0.00000000000E+00 0.  1.
         25    2    1    2    0    0 -0.14558737280E+03 -0.12583524466E+03 -0.19141163020E+02  0.23026345972E+03  0.12499873935E+03 0.  0.
          4    1    3    3  502    0 -0.40316346223E+02  0.61320775096E+01  0.34181529686E+02  0.53225933707E+02  0.12700000000E+01 0. -1.
         -4    1    3    3    0  502 -0.10527102658E+03 -0.13196732217E+03 -0.53322692706E+02  0.17703752601E+03  0.12700000000E+01 0. -1.
          2    1    1    2  503    0  0.18789982511E+03  0.10598774872E+03  0.14421341701E+04  0.14581806170E+04  0.00000000000E+00 0. -1.
         -2    1    1    2    0  501 -0.42312452302E+02  0.19847495937E+02 -0.16372770444E+03  0.17026751867E+03  0.00000000000E+00 0.  1.
<mgrwt>
<rscale>  0 0.10003214E+03</rscale>
<asrwt>0</asrwt>
<pdfrwt beam="1">  1        1 0.23984437E+00 0.21410474E+03</pdfrwt>
<pdfrwt beam="2">  1       -1 0.46111254E-01 0.46736139E+02</pdfrwt>
<totfact> 0.32514748E+01</totfact>
</mgrwt>
</event>
<event>
 7    1  0.4252091E-004  0.7947543E+02  0.7546771E-02  0.1356028E+00
          1   -1    0    0  502    0 -0.00000000000E+00  0.00000000000E+00  0.10401668846E+04  0.10401668846E+04  0.00000000000E+00 0. -1.
          2   -1    0    0  503    0  0.00000000000E+00 -0.00000000000E+00 -0.11154640818E+03  0.11154640818E+03  0.00000000000E+00 0. -1.
         25    2    1    2    0    0 -0.25522471396E+02 -0.59650657328E+02  0.39367953992E+03  0.41810909381E+03  0.12498814628E+03 0.  0.
          4    1    3    3  501    0 -0.75685424938E+01 -0.97200268913E+02  0.30355732625E+03  0.31883199076E+03  0.12700000000E+01 0.  1.
         -4    1    3    3    0  501 -0.17953928902E+02  0.37549611585E+02  0.90122213672E+02  0.99277103052E+02  0.12700000000E+01 0.  1.
          2    1    1    2  502    0  0.82151298326E+02  0.30256591251E+02  0.62062790719E+03  0.62677212471E+03  0.00000000000E+00 0. -1.
          1    1    1    2  503    0 -0.56628826930E+02  0.29394066077E+02 -0.85686970646E+02  0.10683207430E+03  0.00000000000E+00 0. -1.
<mgrwt>
<rscale>  0 0.71209400E+02</rscale>
<asrwt>0</asrwt>
<pdfrwt beam="2">  1        2 0.17160987E-01 0.63803097E+02</pdfrwt>
<pdfrwt beam="1">  1        1 0.16002567E+00 0.79475432E+02</pdfrwt>
<totfact> 0.68933023E+02</totfact>
</mgrwt>
</event>
<event>
 7    1  0.4252091E-004  0.1012083E+03  0.7546771E-02  0.1345977E+00
          1   -1    0    0  502    0 -0.00000000000E+00  0.00000000000E+00  0.13674046867E+03  0.13674046867E+03  0.00000000000E+00 0. -1.
          2   -1    0    0  503    0  0.00000000000E+00 -0.00000000000E+00 -0.12667611723E+04  0.12667611723E+04  0.00000000000E+00 0. -1.
         25    2    1    2    0    0 -0.15326330470E+03  0.22509463251E+01 -0.10063913885E+04  0.10256451465E+04  0.12501852805E+03 0.  0.
          4    1    3    3  501    0  0.22217652287E+02 -0.10418075774E+00 -0.10664604473E+03  0.10894322688E+03  0.12700000000E+01 0.  1.
         -4    1    3    3    0  501 -0.17548095699E+03  0.23551270828E+01 -0.89974534376E+03  0.91670191961E+03  0.12700000000E+01 0.  1.
          2    1    1    2  502    0  0.99502514741E+02 -0.11679458039E+02  0.10362682282E+03  0.14413770703E+03  0.00000000000E+00 0. -1.
          1    1    1    2  503    0  0.53760789958E+02  0.94285117142E+01 -0.22725613797E+03  0.23371878747E+03  0.00000000000E+00 0. -1.
<mgrwt>
<rscale>  0 0.74324155E+02</rscale>
<asrwt>0</asrwt>
<pdfrwt beam="2">  1        2 0.19488633E+00 0.54581310E+02</pdfrwt>
<pdfrwt beam="1">  1        1 0.21036996E-01 0.10120827E+03</pdfrwt>
<totfact> 0.64525792E+02</totfact>
</mgrwt>
</event>
<event>
 7    1  0.4252091E-004  0.8222775E+02  0.7546771E-02  0.1453784E+00
          2   -1    0    0  503    0  0.00000000000E+00  0.00000000000E+00  0.83464071077E+03  0.83464071077E+03  0.00000000000E+00 0. -1.
         -2   -1    0    0    0  501 -0.00000000000E+00 -0.00000000000E+00 -0.47148617936E+02  0.47148617936E+02  0.00000000000E+00 0.  1.
         25    2    1    2    0    0  0.44140626039E+02  0.62202885185E+02  0.31903026165E+03  0.35103200890E+03  0.12500227849E+03 0.  0.
          4    1    3    3  502    0  0.16987183434E+02  0.94874731558E+02  0.16349805816E+03  0.18979727872E+03  0.12700000000E+01 0. -1.
         -4    1    3    3    0  502  0.27153442606E+02 -0.32671846373E+02  0.15553220349E+03  0.16123473018E+03  0.12700000000E+01 0. -1.
          1    1    1    2  503    0 -0.22855946101E+02 -0.81259095263E+02  0.48857828673E+03  0.49581667691E+03  0.00000000000E+00 0. -1.
         -1    1    1    2    0  501 -0.21284679938E+02  0.19056210078E+02 -0.20116455548E+02  0.34940642902E+02  0.00000000000E+00 0.  1.
<mgrwt>
<rscale>  0 0.48468016E+02</rscale>
<asrwt>0</asrwt>
<pdfrwt beam="1">  1        2 0.12840625E+00 0.82227746E+02</pdfrwt>
<pdfrwt beam="2">  1       -2 0.72536342E-02 0.28568807E+02</pdfrwt>
<totfact> 0.32005394E+03</totfact>
</mgrwt>
</event>
<event>
 7    1  0.4252091E-004  0.5102917E+02  0.7546771E-02  0.1505347E+00
          2   -1    0    0  503    0  0.00000000000E+00  0.00000000000E+00  0.25157515302E+04  0.25157515302E+04  0.00000000000E+00 0. -1.
          1   -1    0    0  502    0 -0.00000000000E+00 -0.00000000000E+00 -0.19775675858E+03  0.19775675858E+03  0.00000000000E+00 0. -1.
         25    2    1    2    0    0 -0.62719299893E+02 -0.24258865739E+02  0.39333063111E+03  0.41815763614E+03  0.12499848058E+03 0.  0.
          4    1    3    3  501    0 -0.82478967918E+02  0.26101819343E+02  0.26870534267E+03  0.28229108948E+03  0.12700000000E+01 0. -1.
         -4    1    3    3    0  501  0.19759668025E+02 -0.50360685082E+02  0.12462528844E+03  0.13586654666E+03  0.12700000000E+01 0. -1.
          2    1    1    2  502    0  0.50670282188E+02 -0.53558062268E+01 -0.18171781695E+03  0.18872606379E+03  0.00000000000E+00 0. -1.
          1    1    1    2  503    0  0.12049017704E+02  0.29614671966E+02  0.21063819574E+04  0.21066245888E+04  0.00000000000E+00 0. -1.
<mgrwt>
<rscale>  0 0.40391876E+02</rscale>
<asrwt>0</asrwt>
<pdfrwt beam="1">  1        2 0.38703867E+00 0.31971982E+02</pdfrwt>
<pdfrwt beam="2">  1        1 0.30424118E-01 0.51029168E+02</pdfrwt>
<totfact> 0.10442076E+02</totfact>
</mgrwt>
</event>
<event>
 7    1  0.4252091E-004  0.2764835E+03  0.7546771E-02  0.1194157E+00
          2   -1    0    0  503    0  0.00000000000E+00  0.00000000000E+00  0.30972560717E+04  0.30972560717E+04  0.00000000000E+00 0. -1.
         -2   -1    0    0    0  501 -0.00000000000E+00 -0.00000000000E+00 -0.26489785577E+03  0.26489785577E+03  0.00000000000E+00 0.  1.
         25    2    1    2    0    0  0.30631387220E+03 -0.14151386299E+03  0.91330428828E+03  0.98162847666E+03  0.12496151997E+03 0.  0.
          4    1    3    3  502    0  0.23304159039E+03 -0.15850774664E+03  0.66728413387E+03  0.72436373240E+03  0.12700000000E+01 0. -1.
         -4    1    3    3    0  502  0.73272281815E+02  0.16993883654E+02  0.24602015441E+03  0.25726474426E+03  0.12700000000E+01 0. -1.
          1    1    1    2  503    0 -0.85518550348E+02 -0.16960256203E+02  0.20685200509E+04  0.20703565571E+04  0.00000000000E+00 0. -1.
         -1    1    1    2    0  501 -0.22079532185E+03  0.15847411919E+03 -0.14946612324E+03  0.31016889367E+03  0.00000000000E+00 0.  1.
<mgrwt>
<rscale>  0 0.15525776E+03</rscale>
<asrwt>0</asrwt>
<pdfrwt beam="1">  1        2 0.47650091E+00 0.87184131E+02</pdfrwt>
<pdfrwt beam="2">  1       -2 0.40753518E-01 0.27648348E+03</pdfrwt>
<totfact> 0.12702271E+01</totfact>
</mgrwt>
</event>
<event>
 7    1  0.4252091E-004  0.1462436E+03  0.7546771E-02  0.1289847E+00
          2   -1    0    0  503    0  0.00000000000E+00  0.00000000000E+00  0.12837249618E+04  0.12837249618E+04  0.00000000000E+00 0. -1.
          1   -1    0    0  502    0 -0.00000000000E+00 -0.00000000000E+00 -0.90644801136E+03  0.90644801136E+03  0.00000000000E+00 0. -1.
         25    2    1    2    0    0  0.12651048803E+03  0.15840797376E+03  0.58785592857E+03  0.63426870489E+03  0.12499683002E+03 0.  0.
          4    1    3    3  501    0  0.15041187211E+03  0.12932858446E+03  0.45926012357E+03  0.50027101458E+03  0.12700000000E+01 0.  1.
         -4    1    3    3    0  501 -0.23901384089E+02  0.29079389301E+02  0.12859580501E+03  0.13399769031E+03  0.12700000000E+01 0.  1.
          2    1    1    2  502    0 -0.10680892601E+03 -0.99110846885E+02 -0.87575805280E+03  0.88779686510E+03  0.00000000000E+00 0. -1.
          1    1    1    2  503    0 -0.19701562020E+02 -0.59297126879E+02  0.66517907463E+03  0.66810740313E+03  0.00000000000E+00 0. -1.
<mgrwt>
<rscale>  0 0.95592592E+02</rscale>
<asrwt>0</asrwt>
<pdfrwt beam="1">  1        2 0.19749615E+00 0.62484404E+02</pdfrwt>
<pdfrwt beam="2">  1        1 0.13945354E+00 0.14624359E+03</pdfrwt>
<totfact> 0.53205593E+01</totfact>
</mgrwt>
</event>
<event>
 7    1  0.4252091E-004  0.2363870E+03  0.7546771E-02  0.1244126E+00
          2   -1    0    0  503    0  0.00000000000E+00  0.00000000000E+00  0.11516107590E+04  0.11516107590E+04  0.00000000000E+00 0. -1.
         -2   -1    0    0    0  501 -0.00000000000E+00 -0.00000000000E+00 -0.13880242313E+04  0.13880242313E+04  0.00000000000E+00 0.  1.
         25    2    1    2    0    0  0.53803683583E+02  0.27518557475E+03  0.91254709763E+01  0.30713176327E+03  0.12499883548E+03 0.  0.
          4    1    3    3  502    0  0.56213393719E+02  0.15665889430E+03  0.61603883175E+02  0.17747846663E+03  0.12700000000E+01 0. -1.
         -4    1    3    3    0  502 -0.24097101360E+01  0.11852668045E+03 -0.52478412199E+02  0.12965329664E+03  0.12700000000E+01 0. -1.
          1    1    1    2  503    0 -0.43348049059E+02 -0.41899427831E+02  0.98154606664E+03  0.98339579842E+03  0.00000000000E+00 0. -1.
         -1    1    1    2    0  501 -0.10455634524E+02 -0.23328614692E+03 -0.12270850099E+04  0.12491074286E+04  0.00000000000E+00 0.  1.
<mgrwt>
<rscale>  0 0.11937859E+03</rscale>
<asrwt>0</asrwt>
<pdfrwt beam="1">  1        2 0.17717089E+00 0.60287772E+02</pdfrwt>
<pdfrwt beam="2">  1       -2 0.21354219E+00 0.23638704E+03</pdfrwt>
<totfact> 0.28412333E+00</totfact>
</mgrwt>
</event>
<event>
 7    1  0.4252091E-004  0.1256222E+03  0.7546771E-02  0.1353502E+00
          1   -1    0    0  502    0 -0.00000000000E+00  0.00000000000E+00  0.23924843327E+03  0.23924843327E+03  0.00000000000E+00 0. -1.
          2   -1    0    0  503    0  0.00000000000E+00 -0.00000000000E+00 -0.53773921584E+03  0.53773921584E+03  0.00000000000E+00 0. -1.
         25    2    1    2    0    0 -0.71864252478E+02 -0.90125643851E+02 -0.26405695458E+03  0.31406952512E+03  0.12500595539E+03 0.  0.
          4    1    3    3  501    0 -0.44204302054E+02  0.24276018509E+02 -0.58955390290E+02  0.77593146211E+02  0.12700000000E+01 0.  1.
         -4    1    3    3    0  501 -0.27659950423E+02 -0.11440166236E+03 -0.20510156429E+03  0.23647637891E+03  0.12700000000E+01 0.  1.
          2    1    1    2  502    0  0.10677392719E+03  0.68172987694E+02  0.19350207074E+03  0.23128181762E+03  0.00000000000E+00 0. -1.
          1    1    1    2  503    0 -0.34909674716E+02  0.21952656157E+02 -0.22793589872E+03  0.23163630637E+03  0.00000000000E+00 0. -1.
<mgrwt>
<rscale>  0 0.71975398E+02</rscale>
<asrwt>0</asrwt>
<pdfrwt beam="2">  1        2 0.82729110E-01 0.41238386E+02</pdfrwt>
<pdfrwt beam="1">  1        1 0.36807451E-01 0.12562223E+03</pdfrwt>
<totfact> 0.93467648E+02</totfact>
</mgrwt>
</event>
<event>
 7    1  0.4252091E-004  0.1808369E+03  0.7546771E-02  0.1379299E+00
          1   -1    0    0  502    0 -0.00000000000E+00  0.00000000000E+00  0.10127131362E+04  0.10127131362E+04  0.00000000000E+00 0. -1.
          2   -1    0    0  503    0  0.00000000000E+00 -0.00000000000E+00 -0.23799352720E+04  0.23799352720E+04  0.00000000000E+00 0. -1.
         25    2    1    2    0    0 -0.11673549209E+03  0.16525149287E+03  0.15046103985E+03  0.28142572922E+03  0.12500674200E+03 0.  0.
          4    1    3    3  501    0 -0.11706527009E+02  0.11344638673E+03  0.41238979467E+02  0.12128228133E+03  0.12700000000E+01 0. -1.
         -4    1    3    3    0  501 -0.10502896508E+03  0.51805106142E+02  0.10922206038E+03  0.16014344789E+03  0.12700000000E+01 0. -1.
          2    1    1    2  502    0  0.68382857950E+01 -0.22076772946E+02  0.79308235394E+03  0.79341903568E+03  0.00000000000E+00 0. -1.
          1    1    1    2  503    0  0.10989720630E+03 -0.14317471993E+03 -0.23107655295E+04  0.23178036433E+04  0.00000000000E+00 0. -1.
<mgrwt>
<rscale>  0 0.64648521E+02</rscale>
<asrwt>0</asrwt>
<pdfrwt beam="2">  1        2 0.36614388E+00 0.18083695E+03</pdfrwt>
<pdfrwt beam="1">  1        1 0.15580202E+00 0.23111600E+02</pdfrwt>
<totfact> 0.12440560E+01</totfact>
</mgrwt>
</event>
<event>
 7    1  0.4252091E-004  0.1230541E+03  0.7546771E-02  0.1364758E+00
         -1   -1    0    0    0  501 -0.00000000000E+00  0.00000000000E+00  0.56254476916E+03  0.56254476916E+03  0.00000000000E+00 0.  1.
          1   -1    0    0  503    0  0.00000000000E+00 -0.00000000000E+00 -0.10494226581E+04  0.10494226581E+04  0.00000000000E+00 0. -1.
         25    2    1    2    0    0 -0.16226121066E+01 -0.12448653533E+03 -0.51595389156E+03  0.54528349478E+03  0.12500456440E+03 0.  0.
          4    1    3    3  502    0  0.38465800452E+02 -0.12829818709E+03 -0.35694387239E+03  0.38124871613E+03  0.12700000000E+01 0. -1.
         -4    1    3    3    0  502 -0.40088412558E+02  0.38116517677E+01 -0.15901001917E+03  0.16403477865E+03  0.12700000000E+01 0. -1.
          2    1    1    2  503    0  0.39351067853E+02  0.11792574511E+03 -0.51066840669E+03  0.52558273326E+03  0.00000000000E+00 0. -1.
         -2    1    1    2    0  501 -0.37728455747E+02  0.65607902172E+01  0.53974440935E+03  0.54110119919E+03  0.00000000000E+00 0.  1.
<mgrwt>
<rscale>  0 0.68646284E+02</rscale>
<asrwt>0</asrwt>
<pdfrwt beam="2">  1        1 0.16144964E+00 0.12305406E+03</pdfrwt>
<pdfrwt beam="1">  1       -1 0.86545351E-01 0.38294652E+02</pdfrwt>
<totfact> 0.23230455E+01</totfact>
</mgrwt>
</event>
<event>
 7    1  0.4252091E-004  0.1750109E+03  0.7546771E-02  0.1247544E+00
          2   -1    0    0  503    0  0.00000000000E+00  0.00000000000E+00  0.19077864672E+04  0.19077864672E+04  0.00000000000E+00 0. -1.
         -2   -1    0    0    0  501 -0.00000000000E+00 -0.00000000000E+00 -0.15361686036E+03  0.15361686036E+03  0.00000000000E+00 0.  1.
         25    2    1    2    0    0 -0.19521126670E+03 -0.85771899200E+02  0.14800500716E+03  0.28808826182E+03  0.12500042847E+03 0.  0.
          4    1    3    3  502    0 -0.21230170027E+03 -0.82775969566E+02  0.12720778367E+03  0.26097376535E+03  0.12700000000E+01 0. -1.
         -4    1    3    3    0  502  0.17090433571E+02 -0.29959296339E+01  0.20797223494E+02  0.27114496474E+02  0.12700000000E+01 0. -1.
          1    1    1    2  503    0  0.17304317182E+03  0.10281110634E+02  0.16656714694E+04  0.16746674549E+04  0.00000000000E+00 0. -1.
         -1    1    1    2    0  501  0.22168094873E+02  0.75490788566E+02 -0.59506869689E+02  0.98647610862E+02  0.00000000000E+00 0.  1.
<mgrwt>
<rscale>  0 0.11734381E+03</rscale>
<asrwt>0</asrwt>
<pdfrwt beam="1">  1        2 0.29350559E+00 0.17501089E+03</pdfrwt>
<pdfrwt beam="2">  1       -2 0.23633364E-01 0.78678355E+02</pdfrwt>
<totfact> 0.13269443E+02</totfact>
</mgrwt>
</event>
<event>
 7    1  0.4252091E-004  0.8563718E+02  0.7546771E-02  0.1325528E+00
          1   -1    0    0  502    0 -0.00000000000E+00  0.00000000000E+00  0.11303617530E+04  0.11303617530E+04  0.00000000000E+00 0. -1.
          2   -1    0    0  503    0  0.00000000000E+00 -0.00000000000E+00 -0.44400941256E+03  0.44400941256E+03  0.00000000000E+00 0. -1.
         25    2    1    2    0    0  0.15983135962E+03  0.25845168489E+02 -0.93203486355E+02  0.22476738064E+03  0.12497779515E+03 0.  0.
          4    1    3    3  501    0  0.12761762900E+03  0.25866951861E+01 -0.12129694281E+03  0.17608949843E+03  0.12700000000E+01 0.  1.
         -4    1    3    3    0  501  0.32213730625E+02  0.23258473303E+02  0.28093456453E+02  0.48677882212E+02  0.12700000000E+01 0.  1.
          2    1    1    2  502    0 -0.83883429537E+02 -0.12588236731E+02  0.10576371366E+04  0.10610330844E+04  0.00000000000E+00 0. -1.
          1    1    1    2  503    0 -0.75947930086E+02 -0.13256931757E+02 -0.27808130982E+03  0.28857070051E+03  0.00000000000E+00 0. -1.
<mgrwt>
<rscale>  0 0.81254581E+02</rscale>
<asrwt>0</asrwt>
<pdfrwt beam="2">  1        2 0.68309141E-01 0.77096267E+02</pdfrwt>
<pdfrwt beam="1">  1        1 0.17390181E+00 0.85637180E+02</pdfrwt>
<totfact> 0.13735891E+02</totfact>
</mgrwt>
</event>
<event>
 7    1  0.4252091E-004  0.4618669E+02  0.7546771E-02  0.1484327E+00
         -2   -1    0    0    0  501 -0.00000000000E+00  0.00000000000E+00  0.81312146340E+02  0.81312146340E+02  0.00000000000E+00 0.  1.
          2   -1    0    0  503    0  0.00000000000E+00 -0.00000000000E+00 -0.50830304476E+03  0.50830304476E+03  0.00000000000E+00 0. -1.
         25    2    1    2    0    0  0.43056691045E+02 -0.15476420304E+02 -0.20764061151E+03  0.24664607805E+03  0.12500506405E+03 0.  0.
          4    1    3    3  502    0 -0.28330064820E+02 -0.46197972044E+02 -0.69508916528E+02  0.88147306088E+02  0.12700000000E+01 0.  1.
         -4    1    3    3    0  502  0.71386755865E+02  0.30721551741E+02 -0.13813169499E+03  0.15849877196E+03  0.12700000000E+01 0.  1.
          1    1    1    2  503    0 -0.15293744568E+02  0.45449157365E+02 -0.27207465851E+03  0.27626824705E+03  0.00000000000E+00 0. -1.
         -1    1    1    2    0  501 -0.27762946477E+02 -0.29972737061E+02  0.52724371600E+02  0.66700865996E+02  0.00000000000E+00 0.  1.
<mgrwt>
<rscale>  0 0.43439219E+02</rscale>
<asrwt>0</asrwt>
<pdfrwt beam="2">  1        2 0.78200469E-01 0.46186690E+02</pdfrwt>
<pdfrwt beam="1">  1       -2 0.12509561E-01 0.40855185E+02</pdfrwt>
<totfact> 0.25909964E+03</totfact>
</mgrwt>
</event>
<event>
 7    1  0.4252091E-004  0.2202408E+03  0.7546771E-02  0.1228785E+00
          2   -1    0    0  503    0  0.00000000000E+00  0.00000000000E+00  0.23197519421E+04  0.23197519421E+04  0.00000000000E+00 0. -1.
          1   -1    0    0  502    0 -0.00000000000E+00 -0.00000000000E+00 -0.69415396061E+03  0.69415396061E+03  0.00000000000E+00 0. -1.
         25    2    1    2    0    0  0.24226107435E+03 -0.15293870614E+03  0.15654303214E+03  0.34959021883E+03  0.12500769662E+03 0.  0.
          4    1    3    3  501    0  0.25008568102E+03 -0.16319977513E+03  0.15521344880E+03  0.33655585278E+03  0.12700000000E+01 0.  1.
         -4    1    3    3    0  501 -0.78246066773E+01  0.10261068991E+02  0.13295833427E+01  0.13034366052E+02  0.12700000000E+01 0.  1.
          2    1    1    2  502    0 -0.16924212632E+03  0.13302750193E+03 -0.57752359679E+03  0.61633815267E+03  0.00000000000E+00 0. -1.
          1    1    1    2  503    0 -0.73018948028E+02  0.19911204203E+02  0.20465785461E+04  0.20479775312E+04  0.00000000000E+00 0. -1.
<mgrwt>
<rscale>  0 0.12910821E+03</rscale>
<asrwt>0</asrwt>
<pdfrwt beam="1">  1        2 0.35688491E+00 0.75685024E+02</pdfrwt>
<pdfrwt beam="2">  1        1 0.10679292E+00 0.22024078E+03</pdfrwt>
<totfact> 0.23229586E+01</totfact>
</mgrwt>
</event>
<event>
 7    1  0.4252091E-004  0.3734293E+02  0.7546771E-02  0.1568943E+00
         -2   -1    0    0    0  501  0.00000000000E+00  0.00000000000E+00  0.18892603763E+03  0.18892603763E+03  0.00000000000E+00 0.  1.
         -1   -1    0    0    0  502 -0.00000000000E+00 -0.00000000000E+00 -0.62800651348E+03  0.62800651348E+03  0.00000000000E+00 0.  1.
         25    2    1    2    0    0  0.30018344678E+02  0.18737682301E+02 -0.30975079852E+03  0.33588927142E+03  0.12499537478E+03 0.  0.
          4    1    3    3  503    0  0.30873410508E+01  0.62541128370E+02 -0.86520467243E+02  0.10680977748E+03  0.12700000000E+01 0.  1.
         -4    1    3    3    0  503  0.26931003627E+02 -0.43803446069E+02 -0.22323033127E+03  0.22907949394E+03  0.12700000000E+01 0.  1.
         -2    1    1    2    0  502 -0.37347720624E+02  0.91444855980E+01 -0.30278083818E+03  0.30521256498E+03  0.00000000000E+00 0.  1.
         -1    1    1    2    0  501  0.73293759459E+01 -0.27882167899E+02  0.17345116084E+03  0.17583071471E+03  0.00000000000E+00 0.  1.
<mgrwt>
<rscale>  0 0.32811200E+02</rscale>
<asrwt>0</asrwt>
<pdfrwt beam="1">  1       -2 0.29065544E-01 0.28829413E+02</pdfrwt>
<pdfrwt beam="2">  1       -1 0.96616387E-01 0.37342933E+02</pdfrwt>
<totfact> 0.89817589E+01</totfact>
</mgrwt>
</event>
<event>
 7    1  0.4252091E-004  0.1710208E+03  0.7546771E-02  0.1224504E+00
          2   -1    0    0  503    0  0.00000000000E+00  0.00000000000E+00  0.27693464460E+04  0.27693464460E+04  0.00000000000E+00 0. -1.
         -2   -1    0    0    0  501 -0.00000000000E+00 -0.00000000000E+00 -0.46197526212E+03  0.46197526212E+03  0.00000000000E+00 0.  1.
         25    2    1    2    0    0 -0.18020062158E+03  0.11769549067E+03  0.53388611017E+03  0.58905389970E+03  0.12500250230E+03 0.  0.
          4    1    3    3  502    0 -0.50578201379E+02  0.80875330588E+02  0.11718782266E+03  0.15110781658E+03  0.12700000000E+01 0. -1.
         -4    1    3    3    0  502 -0.12962242020E+03  0.36820160080E+02  0.41669828751E+03  0.43794608312E+03  0.12700000000E+01 0. -1.
          1    1    1    2  503    0  0.10577328413E+02 -0.10134646186E+03  0.21899334038E+04  0.21923027387E+04  0.00000000000E+00 0. -1.
         -1    1    1    2    0  501  0.16962329316E+03 -0.16349028808E+02 -0.41644833007E+03  0.44996506969E+03  0.00000000000E+00 0.  1.
<mgrwt>
<rscale>  0 0.13200945E+03</rscale>
<asrwt>0</asrwt>
<pdfrwt beam="1">  1        2 0.42605329E+00 0.10189693E+03</pdfrwt>
<pdfrwt beam="2">  1       -2 0.71073119E-01 0.17102080E+03</pdfrwt>
<totfact> 0.61610960E+00</totfact>
</mgrwt>
</event>
<event>
 7    1  0.4252091E-004  0.3936146E+02  0.7546771E-02  0.1561502E+00
          1   -1    0    0  502    0 -0.00000000000E+00  0.00000000000E+00  0.17319070675E+04  0.17319070675E+04  0.00000000000E+00 0. -1.
          2   -1    0    0  503    0  0.00000000000E+00 -0.00000000000E+00 -0.16201740428E+02  0.16201740428E+02  0.00000000000E+00 0. -1.
         25    2    1    2    0    0 -0.11516499399E+02  0.24520659947E+02  0.68125790644E+03  0.69315705272E+03  0.12498188719E+03 0.  0.
          4    1    3    3  501    0 -0.10778090079E+02  0.48644765233E+01  0.28240843132E+00  0.11896344486E+02  0.12700000000E+01 0. -1.
         -4    1    3    3    0  501 -0.73840931992E+00  0.19656183423E+02  0.68097549801E+03  0.68126070824E+03  0.12700000000E+01 0. -1.
          2    1    1    2  502    0  0.25206551509E+02  0.13644773559E+02  0.10035890627E+04  0.10039982853E+04  0.00000000000E+00 0. -1.
          1    1    1    2  503    0 -0.13690052110E+02 -0.38165433506E+02  0.30858357895E+02  0.50953469886E+02  0.00000000000E+00 0. -1.
<mgrwt>
<rscale>  0 0.33588769E+02</rscale>
<asrwt>0</asrwt>
<pdfrwt beam="2">  1        2 0.24925768E-02 0.39361455E+02</pdfrwt>
<pdfrwt beam="1">  1        1 0.26644710E+00 0.28662695E+02</pdfrwt>
<totfact> 0.28202032E+03</totfact>
</mgrwt>
</event>
<event>
 7    1  0.4252091E-004  0.4970381E+02  0.7546771E-02  0.1491969E+00
         -2   -1    0    0    0  501  0.00000000000E+00  0.00000000000E+00  0.13497814334E+03  0.13497814334E+03  0.00000000000E+00 0.  1.
         -1   -1    0    0    0  502 -0.00000000000E+00 -0.00000000000E+00 -0.55950384032E+03  0.55950384032E+03  0.00000000000E+00 0.  1.
         25    2    1    2    0    0  0.21593188132E+02  0.63444605978E-01 -0.40995271088E+02  0.13330250275E+03  0.12499070041E+03 0.  0.
          4    1    3    3  503    0 -0.38819121351E+02  0.29455276942E+02  0.89733230336E+01  0.49564815631E+02  0.12700000000E+01 0.  1.
         -4    1    3    3    0  503  0.60412309483E+02 -0.29391832336E+02 -0.49968594122E+02  0.83737687117E+02  0.12700000000E+01 0.  1.
         -2    1    1    2    0  502 -0.40338388251E+02  0.30660748802E+02 -0.46728253051E+03  0.47002152122E+03  0.00000000000E+00 0.  1.
         -1    1    1    2    0  501  0.18745200119E+02 -0.30724193408E+02  0.83752104615E+02  0.91157959693E+02  0.00000000000E+00 0.  1.
<mgrwt>
<rscale>  0 0.42295322E+02</rscale>
<asrwt>0</asrwt>
<pdfrwt beam="1">  1       -2 0.20765868E-01 0.35991090E+02</pdfrwt>
<pdfrwt beam="2">  1       -1 0.86077515E-01 0.49703807E+02</pdfrwt>
<totfact> 0.20068962E+02</totfact>
</mgrwt>
</event>
<event>
 7    1  0.4252091E-004  0.5754108E+02  0.7546771E-02  0.1544333E+00
          2   -1    0    0  503    0  0.00000000000E+00  0.00000000000E+00  0.25531577866E+03  0.25531577866E+03  0.00000000000E+00 0. -1.
          1   -1    0    0  502    0 -0.00000000000E+00 -0.00000000000E+00 -0.90954013580E+02  0.90954013580E+02  0.00000000000E+00 0. -1.
         25    2    1    2    0    0  0.32767453592E+02 -0.50404299801E+02  0.59200696622E+02  0.15081104175E+03  0.12499979351E+03 0.  0.
          4    1    3    3  501    0  0.15452173035E+02  0.41725563675E+02  0.24743848536E+02  0.50928020341E+02  0.12700000000E+01 0. -1.
         -4    1    3    3    0  501  0.17315280556E+02 -0.92129863476E+02  0.34456848086E+02  0.99883021404E+02  0.12700000000E+01 0. -1.
          2    1    1    2  502    0  0.14073414216E+02  0.16758022158E+02 -0.36472120290E+02  0.42533608509E+02  0.00000000000E+00 0. -1.
          1    1    1    2  503    0 -0.46840867808E+02  0.33646277644E+02  0.14163318875E+03  0.15292514198E+03  0.00000000000E+00 0. -1.
<mgrwt>
<rscale>  0 0.35485298E+02</rscale>
<asrwt>0</asrwt>
<pdfrwt beam="1">  1        2 0.39279350E-01 0.57541078E+02</pdfrwt>
<pdfrwt beam="2">  1        1 0.13992925E-01 0.21883608E+02</pdfrwt>
<totfact> 0.61369154E+03</totfact>
</mgrwt>
</event>
<event>
 7    1  0.4252091E-004  0.7903527E+02  0.7546771E-02  0.1400360E+00
          1   -1    0    0  502    0 -0.00000000000E+00  0.00000000000E+00  0.44628890135E+03  0.44628890135E+03  0.00000000000E+00 0. -1.
          2   -1    0    0  503    0  0.00000000000E+00 -0.00000000000E+00 -0.24789718905E+03  0.24789718905E+03  0.00000000000E+00 0. -1.
         25    2    1    2    0    0  0.78229108698E+02  0.89972037163E+02  0.24018268278E+02  0.17440644978E+03  0.12500388632E+03 0.  0.
          4    1    3    3  501    0  0.98773368057E+02  0.37629784116E+02 -0.13839407991E+02  0.10660825955E+03  0.12700000000E+01 0. -1.
         -4    1    3    3    0  501 -0.20544259359E+02  0.52342253047E+02  0.37857676270E+02  0.67798190235E+02  0.12700000000E+01 0. -1.
          2    1    1    2  502    0 -0.34785503106E+02 -0.27985277300E+02  0.33723995601E+03  0.34018229657E+03  0.00000000000E+00 0. -1.
          1    1    1    2  503    0 -0.43443605592E+02 -0.61986759863E+02 -0.16286651198E+03  0.17959734405E+03  0.00000000000E+00 0. -1.
<mgrwt>
<rscale>  0 0.59401659E+02</rscale>
<asrwt>0</asrwt>
<pdfrwt beam="2">  1        2 0.38138029E-01 0.79035272E+02</pdfrwt>
<pdfrwt beam="1">  1        1 0.68659831E-01 0.44645347E+02</pdfrwt>
<totfact> 0.97784136E+02</totfact>
</mgrwt>
</event>
<event>
 7    1  0.4252091E-004  0.5337278E+02  0.7546771E-02  0.1445280E+00
         -2   -1    0    0    0  501 -0.00000000000E+00  0.00000000000E+00  0.84163741179E+02  0.84163741179E+02  0.00000000000E+00 0.  1.
          2   -1    0    0  503    0  0.00000000000E+00 -0.00000000000E+00 -0.12737729337E+04  0.12737729337E+04  0.00000000000E+00 0. -1.
         25    2    1    2    0    0 -0.42532711302E+00 -0.97980193949E+02 -0.26290216186E+03  0.30713007899E+03  0.12494414513E+03 0.  0.
          4    1    3    3  502    0 -0.24421836306E+01 -0.10081509159E+03 -0.27582620916E+03  0.29368581428E+03  0.12700000000E+01 0. -1.
         -4    1    3    3    0  502  0.20168565176E+01  0.28348976369E+01  0.12924047303E+02  0.13444264707E+02  0.12700000000E+01 0. -1.
          1    1    1    2  503    0  0.68134192353E+01  0.51555840045E+02 -0.97911942440E+03  0.98049950258E+03  0.00000000000E+00 0. -1.
         -1    1    1    2    0  501 -0.63880921223E+01  0.46424353904E+02  0.52412393718E+02  0.70307093324E+02  0.00000000000E+00 0.  1.
<mgrwt>
<rscale>  0 0.50011443E+02</rscale>
<asrwt>0</asrwt>
<pdfrwt beam="2">  1        2 0.19596507E+00 0.53372777E+02</pdfrwt>
<pdfrwt beam="1">  1       -2 0.12948268E-01 0.46861801E+02</pdfrwt>
<totfact> 0.80464693E+02</totfact>
</mgrwt>
</event>
<event>
 7    1  0.4252091E-004  0.6097780E+02  0.7546771E-02  0.1537101E+00
         -2   -1    0    0    0  501 -0.00000000000E+00  0.00000000000E+00  0.11193562687E+03  0.11193562687E+03  0.00000000000E+00 0.  1.
          2   -1    0    0  503    0  0.00000000000E+00 -0.00000000000E+00 -0.19111940966E+04  0.19111940966E+04  0.00000000000E+00 0. -1.
         25    2    1    2    0    0  0.70676288241E+02  0.37647389895E+02 -0.33191989305E+02  0.15212205986E+03  0.12500779679E+03 0.  0.
          4    1    3    3  502    0  0.46443338180E+02  0.54702581985E+02  0.33446374274E+02  0.79180988812E+02  0.12700000000E+01 0.  1.
         -4    1    3    3    0  502  0.24232950061E+02 -0.17055192090E+02 -0.66638363579E+02  0.72941071053E+02  0.12700000000E+01 0.  1.
          1    1    1    2  503    0 -0.57181054256E+02 -0.20725036840E+02 -0.18157738848E+04  0.18167922283E+04  0.00000000000E+00 0. -1.
         -1    1    1    2    0  501 -0.13495233985E+02 -0.16922353055E+02  0.49707404381E+02  0.54215435288E+02  0.00000000000E+00 0.  1.
<mgrwt>
<rscale>  0 0.36329577E+02</rscale>
<asrwt>0</asrwt>
<pdfrwt beam="2">  1        2 0.29402986E+00 0.60977797E+02</pdfrwt>
<pdfrwt beam="1">  1       -2 0.17220866E-01 0.21644569E+02</pdfrwt>
<totfact> 0.23115770E+02</totfact>
</mgrwt>
</event>
<event>
 7    1  0.4252091E-004  0.1121644E+03  0.7546771E-02  0.1262560E+00
          1   -1    0    0  502    0 -0.00000000000E+00  0.00000000000E+00  0.11910477723E+03  0.11910477723E+03  0.00000000000E+00 0. -1.
          2   -1    0    0  503    0  0.00000000000E+00 -0.00000000000E+00 -0.31580053485E+04  0.31580053485E+04  0.00000000000E+00 0. -1.
         25    2    1    2    0    0  0.16739387153E+03 -0.12831965465E+03 -0.53036625575E+03  0.58429876318E+03  0.12502014806E+03 0.  0.
          4    1    3    3  501    0  0.36878507362E+02 -0.37960661562E+02 -0.29936072783E+03  0.30400574731E+03  0.12700000000E+01 0. -1.
         -4    1    3    3    0  501  0.13051536417E+03 -0.90358993084E+02 -0.23100552792E+03  0.28029301587E+03  0.12700000000E+01 0. -1.
          2    1    1    2  502    0 -0.91925119413E+02  0.54179482683E+02  0.59787302509E+02  0.12231175522E+03  0.00000000000E+00 0. -1.
          1    1    1    2  503    0 -0.75468752114E+02  0.74140171963E+02 -0.25683216181E+04  0.25704996074E+04  0.00000000000E+00 0. -1.
<mgrwt>
<rscale>  0 0.10893248E+03</rscale>
<asrwt>0</asrwt>
<pdfrwt beam="2">  1        2 0.48584700E+00 0.10579366E+03</pdfrwt>
<pdfrwt beam="1">  1        1 0.18323811E-01 0.11216444E+03</pdfrwt>
<totfact> 0.73654253E+01</totfact>
</mgrwt>
</event>
<event>
 7    1  0.4252091E-004  0.1124694E+03  0.7546771E-02  0.1458463E+00
          2   -1    0    0  503    0  0.00000000000E+00  0.00000000000E+00  0.17156450146E+04  0.17156450146E+04  0.00000000000E+00 0.  1.
         -2   -1    0    0    0  501 -0.00000000000E+00 -0.00000000000E+00 -0.21825944521E+02  0.21825944521E+02  0.00000000000E+00 0. -1.
         25    2    1    2    0    0 -0.63784151162E+02  0.93097435635E+02  0.13976707439E+04  0.14077797823E+04  0.12499942735E+03 0.  0.
          4    1    3    3  502    0  0.37658162152E+02  0.34009194846E+02  0.38789102721E+03  0.39119793507E+03  0.12700000000E+01 0. -1.
         -4    1    3    3    0  502 -0.10144231331E+03  0.59088240789E+02  0.10097797167E+04  0.10165818473E+04  0.12700000000E+01 0. -1.
          1    1    1    2  503    0  0.46075524654E+02 -0.10278524497E+03  0.18399439708E+03  0.21573525144E+03  0.00000000000E+00 0. -1.
         -1    1    1    2    0  501  0.17708626508E+02  0.96878093303E+01  0.11215392917E+03  0.11395592538E+03  0.00000000000E+00 0.  1.
<mgrwt>
<rscale>  0 0.47646991E+02</rscale>
<asrwt>0</asrwt>
<pdfrwt beam="1">  1        2 0.26394528E+00 0.11246937E+03</pdfrwt>
<pdfrwt beam="2">  1       -2 0.33578390E-02 0.20185369E+02</pdfrwt>
<totfact> 0.29437721E+03</totfact>
</mgrwt>
</event>
<event>
 7    1  0.4252091E-004  0.1184465E+03  0.7546771E-02  0.1354411E+00
         -2   -1    0    0    0  501 -0.00000000000E+00  0.00000000000E+00  0.29436514669E+03  0.29436514669E+03  0.00000000000E+00 0.  1.
          2   -1    0    0  503    0  0.00000000000E+00 -0.00000000000E+00 -0.58638442296E+03  0.58638442296E+03  0.00000000000E+00 0. -1.
         25    2    1    2    0    0 -0.67965651859E+02  0.50870750593E+02 -0.24210464734E+02  0.15303078032E+03  0.12500044009E+03 0.  0.
          4    1    3    3  502    0 -0.87350308862E+02  0.70178521817E+02  0.60447689768E+01  0.11221966635E+03  0.12700000000E+01 0. -1.
         -4    1    3    3    0  502  0.19384657003E+02 -0.19307771224E+02 -0.30255233710E+02  0.40811113972E+02  0.12700000000E+01 0. -1.
          1    1    1    2  503    0  0.80584499442E+02 -0.92396520134E+02 -0.48806465737E+03  0.50322767040E+03  0.00000000000E+00 0. -1.
         -1    1    1    2    0  501 -0.12618847583E+02  0.41525769541E+02  0.22025584584E+03  0.22449111893E+03  0.00000000000E+00 0.  1.
<mgrwt>
<rscale>  0 0.71698437E+02</rscale>
<asrwt>0</asrwt>
<pdfrwt beam="2">  1        2 0.90212987E-01 0.11844648E+03</pdfrwt>
<pdfrwt beam="1">  1       -2 0.45286946E-01 0.43400747E+02</pdfrwt>
<totfact> 0.24691205E+02</totfact>
</mgrwt>
</event>
<event>
 7    1  0.4252091E-004  0.1084525E+03  0.7546771E-02  0.1407251E+00
          1   -1    0    0  502    0 -0.00000000000E+00  0.00000000000E+00  0.71189566674E+03  0.71189566674E+03  0.00000000000E+00 0. -1.
          2   -1    0    0  503    0  0.00000000000E+00 -0.00000000000E+00 -0.17087575093E+04  0.17087575093E+04  0.00000000000E+00 0. -1.
         25    2    1    2    0    0 -0.10481739763E+03 -0.84138666529E+02 -0.10589440028E+04  0.10747344805E+04  0.12500320231E+03 0.  0.
          4    1    3    3  501    0 -0.10532714143E+03 -0.11305248225E+03 -0.87941933216E+03  0.89289117206E+03  0.12700000000E+01 0.  1.
         -4    1    3    3    0  501  0.50974379509E+00  0.28913815722E+02 -0.17952467061E+03  0.18184330847E+03  0.12700000000E+01 0.  1.
          2    1    1    2  502    0  0.92942888896E+02  0.55701188886E+02  0.69945654911E+03  0.70779973660E+03  0.00000000000E+00 0. -1.
          1    1    1    2  503    0  0.11874508737E+02  0.28437477643E+02 -0.63737438893E+03  0.63811895894E+03  0.00000000000E+00 0. -1.
<mgrwt>
<rscale>  0 0.57811709E+02</rscale>
<asrwt>0</asrwt>
<pdfrwt beam="2">  1        2 0.26288577E+00 0.30817107E+02</pdfrwt>
<pdfrwt beam="1">  1        1 0.10952241E+00 0.10845254E+03</pdfrwt>
<totfact> 0.51039150E+01</totfact>
</mgrwt>
</event>
<event>
 7    1  0.4252091E-004  0.9926045E+02  0.7546771E-02  0.1338245E+00
          2   -1    0    0  503    0  0.00000000000E+00  0.00000000000E+00  0.20360060388E+02  0.20360060388E+02  0.00000000000E+00 0. -1.
          1   -1    0    0  502    0 -0.00000000000E+00 -0.00000000000E+00 -0.16234097889E+04  0.16234097889E+04  0.00000000000E+00 0. -1.
         25    2    1    2    0    0  0.53261425103E+02 -0.11369087316E+02 -0.10736366391E+04  0.10822601204E+04  0.12500119928E+03 0.  0.
          4    1    3    3  501    0  0.19579102291E+02 -0.49852665560E+02 -0.89056678248E+03  0.89217679664E+03  0.12700000000E+01 0.  1.
         -4    1    3    3    0  501  0.33682322813E+02  0.38483578245E+02 -0.18306985661E+03  0.19008332374E+03  0.12700000000E+01 0.  1.
          2    1    1    2  502    0  0.41408671198E+02 -0.42719026592E+02 -0.31925992590E+03  0.32475605240E+03  0.00000000000E+00 0. -1.
          1    1    1    2  503    0 -0.94670096301E+02  0.54088113907E+02 -0.21015316349E+03  0.23675367647E+03  0.00000000000E+00 0. -1.
<mgrwt>
<rscale>  0 0.76846919E+02</rscale>
<asrwt>0</asrwt>
<pdfrwt beam="1">  1        2 0.31323174E-02 0.99260450E+02</pdfrwt>
<pdfrwt beam="2">  1        1 0.24975532E+00 0.59494481E+02</pdfrwt>
<totfact> 0.25087537E+03</totfact>
</mgrwt>
</event>
<event>
 7    1  0.4252091E-004  0.9790510E+02  0.7546771E-02  0.1429491E+00
          2   -1    0    0  503    0  0.00000000000E+00  0.00000000000E+00  0.98438623688E+02  0.98438623688E+02  0.00000000000E+00 0. -1.
          1   -1    0    0  502    0 -0.00000000000E+00 -0.00000000000E+00 -0.17354637607E+04  0.17354637607E+04  0.00000000000E+00 0. -1.
         25    2    1    2    0    0 -0.12866160155E+01 -0.12302047121E+03 -0.52499596063E+03  0.55351708267E+03  0.12499884167E+03 0.  0.
          4    1    3    3  501    0  0.79342597697E+01  0.23285122080E+02 -0.41251217946E+02  0.48046074454E+02  0.12700000000E+01 0. -1.
         -4    1    3    3    0  501 -0.92208757852E+01 -0.14630559329E+03 -0.48374474268E+03  0.50547100822E+03  0.12700000000E+01 0. -1.
          2    1    1    2  502    0  0.48840372255E+01  0.94487909563E+02 -0.11918202274E+04  0.11955698530E+04  0.00000000000E+00 0. -1.
          1    1    1    2  503    0 -0.35974212100E+01  0.28532561649E+02  0.79791051050E+02  0.84815448718E+02  0.00000000000E+00 0. -1.
<mgrwt>
<rscale>  0 0.53062219E+02</rscale>
<asrwt>0</asrwt>
<pdfrwt beam="1">  1        2 0.15144404E-01 0.28758451E+02</pdfrwt>
<pdfrwt beam="2">  1        1 0.26699443E+00 0.97905100E+02</pdfrwt>
<totfact> 0.26096212E+02</totfact>
</mgrwt>
</event>
<event>
 7    1  0.4252091E-004  0.8870033E+02  0.7546771E-02  0.1430965E+00
          1   -1    0    0  502    0 -0.00000000000E+00  0.00000000000E+00  0.49973215849E+03  0.49973215849E+03  0.00000000000E+00 0. -1.
          2   -1    0    0  503    0  0.00000000000E+00 -0.00000000000E+00 -0.17113457039E+03  0.17113457039E+03  0.00000000000E+00 0. -1.
         25    2    1    2    0    0  0.24658294828E+02 -0.70091087042E+02  0.96196340626E+02  0.17434880586E+03  0.12499191241E+03 0.  0.
          4    1    3    3  501    0  0.36529219854E+02 -0.23796848029E+02  0.11498615113E+03  0.12298008672E+03  0.12700000000E+01 0.  1.
         -4    1    3    3    0  501 -0.11870925026E+02 -0.46294239014E+02 -0.18789810503E+02  0.51368719135E+02  0.12700000000E+01 0.  1.
          2    1    1    2  502    0  0.31361314950E+02 -0.13520553732E+01  0.34806581807E+03  0.34947843115E+03  0.00000000000E+00 0. -1.
          1    1    1    2  503    0 -0.56019609777E+02  0.71443142415E+02 -0.11566457060E+03  0.14703949187E+03  0.00000000000E+00 0. -1.
<mgrwt>
<rscale>  0 0.52766873E+02</rscale>
<asrwt>0</asrwt>
<pdfrwt beam="2">  1        2 0.26328396E-01 0.88700326E+02</pdfrwt>
<pdfrwt beam="1">  1        1 0.76881870E-01 0.31390446E+02</pdfrwt>
<totfact> 0.12733499E+03</totfact>
</mgrwt>
</event>
<event>
 7    1  0.4252091E-004  0.1260829E+03  0.7546771E-02  0.1322110E+00
          2   -1    0    0  503    0  0.00000000000E+00  0.00000000000E+00  0.15358838411E+04  0.15358838411E+04  0.00000000000E+00 0. -1.
          1   -1    0    0  502    0 -0.00000000000E+00 -0.00000000000E+00 -0.74744500727E+03  0.74744500727E+03  0.00000000000E+00 0. -1.
         25    2    1    2    0    0 -0.64076866711E+02 -0.58987619373E+02  0.10733734959E+04  0.10841306745E+04  0.12499309413E+03 0.  0.
          4    1    3    3  501    0 -0.57748527936E+02  0.10050728213E+00  0.18586102354E+03  0.19462999653E+03  0.12700000000E+01 0.  1.
         -4    1    3    3    0  501 -0.63283387749E+01 -0.59088126655E+02  0.88751247234E+03  0.88950067794E+03  0.12700000000E+01 0.  1.
          2    1    1    2  502    0  0.11689291993E+03  0.47842644234E+02 -0.73506774489E+03  0.74584010547E+03  0.00000000000E+00 0. -1.
          1    1    1    2  503    0 -0.52816053217E+02  0.11144975138E+02  0.45013308282E+03  0.45335806841E+03  0.00000000000E+00 0. -1.
<mgrwt>
<rscale>  0 0.82497544E+02</rscale>
<asrwt>0</asrwt>
<pdfrwt beam="1">  1        2 0.23628982E+00 0.53979125E+02</pdfrwt>
<pdfrwt beam="2">  1        1 0.11499154E+00 0.12608290E+03</pdfrwt>
<totfact> 0.54265636E+01</totfact>
</mgrwt>
</event>
<event>
 7    1  0.4252091E-004  0.1818177E+03  0.7546771E-02  0.1238513E+00
          2   -1    0    0  503    0  0.00000000000E+00  0.00000000000E+00  0.41133439379E+03  0.41133439379E+03  0.00000000000E+00 0. -1.
          1   -1    0    0  502    0 -0.00000000000E+00 -0.00000000000E+00 -0.16788620755E+04  0.16788620755E+04  0.00000000000E+00 0. -1.
         25    2    1    2    0    0  0.63423507211E+02  0.15414970739E+03 -0.84201947040E+03  0.86741385856E+03  0.12500135974E+03 0.  0.
          4    1    3    3  501    0  0.92010118024E+02  0.84926933610E+02 -0.40157003295E+03  0.42064064252E+03  0.12700000000E+01 0.  1.
         -4    1    3    3    0  501 -0.28586610813E+02  0.69222773781E+02 -0.44044943745E+03  0.44677321604E+03  0.12700000000E+01 0.  1.
          2    1    1    2  502    0 -0.78142995027E+02  0.27883459652E+02 -0.80097279618E+03  0.80525848969E+03  0.00000000000E+00 0. -1.
          1    1    1    2  503    0  0.14719487815E+02 -0.18203316704E+03  0.37546458483E+03  0.41752412108E+03  0.00000000000E+00 0. -1.
<mgrwt>
<rscale>  0 0.12282179E+03</rscale>
<asrwt>0</asrwt>
<pdfrwt beam="1">  1        2 0.63282216E-01 0.18181775E+03</pdfrwt>
<pdfrwt beam="2">  1        1 0.25828647E+00 0.82968759E+02</pdfrwt>
<totfact> 0.65507940E+01</totfact>
</mgrwt>
</event>
<event>
 7    1  0.4252091E-004  0.4256758E+02  0.7546771E-02  0.1543398E+00
          1   -1    0    0  502    0 -0.00000000000E+00  0.00000000000E+00  0.66964686152E+03  0.66964686152E+03  0.00000000000E+00 0. -1.
          2   -1    0    0  503    0  0.00000000000E+00 -0.00000000000E+00 -0.62519154818E+02  0.62519154818E+02  0.00000000000E+00 0. -1.
         25    2    1    2    0    0 -0.63906114215E+02 -0.27150646794E+02  0.37461329897E+03  0.40097610337E+03  0.12500225059E+03 0.  0.
          4    1    3    3  501    0 -0.58014789379E+02 -0.60300201899E+02  0.34833621987E+03  0.35824791013E+03  0.12700000000E+01 0.  1.
         -4    1    3    3    0  501 -0.58913248360E+01  0.33149555105E+02  0.26277079100E+02  0.42728193245E+02  0.12700000000E+01 0.  1.
          2    1    1    2  502    0  0.36447635724E+02  0.15672663781E+02  0.27581176214E+03  0.27865066064E+03  0.00000000000E+00 0. -1.
          1    1    1    2  503    0  0.27458478491E+02  0.11477983014E+02 -0.43297354416E+02  0.52539252322E+02  0.00000000000E+00 0. -1.
<mgrwt>
<rscale>  0 0.35592839E+02</rscale>
<asrwt>0</asrwt>
<pdfrwt beam="2">  1        2 0.96183320E-02 0.29760916E+02</pdfrwt>
<pdfrwt beam="1">  1        1 0.10302259E+00 0.42567581E+02</pdfrwt>
<totfact> 0.25369474E+03</totfact>
</mgrwt>
</event>
<event>
 7    1  0.4252091E-004  0.9824299E+02  0.7546771E-02  0.1397396E+00
          1   -1    0    0  502    0 -0.00000000000E+00  0.00000000000E+00  0.86720863991E+03  0.86720863991E+03  0.00000000000E+00 0. -1.
          2   -1    0    0  503    0  0.00000000000E+00 -0.00000000000E+00 -0.95117200826E+02  0.95117200826E+02  0.00000000000E+00 0. -1.
         25    2    1    2    0    0  0.47943633970E+02 -0.56196058727E+02  0.15713178343E+03  0.21394166463E+03  0.12499619772E+03 0.  0.
          4    1    3    3  501    0  0.54472430443E+02 -0.83749458332E+02  0.69157246673E+02  0.12151360054E+03  0.12700000000E+01 0.  1.
         -4    1    3    3    0  501 -0.65287964735E+01  0.27553399605E+02  0.87974536756E+02  0.92428064086E+02  0.12700000000E+01 0.  1.
          2    1    1    2  502    0 -0.42546840681E+02  0.92568929732E+02  0.67245897028E+03  0.68013256584E+03  0.00000000000E+00 0. -1.
          1    1    1    2  503    0 -0.53967932883E+01 -0.36372871005E+02 -0.57499314622E+02  0.68251610274E+02  0.00000000000E+00 0. -1.
<mgrwt>
<rscale>  0 0.60104070E+02</rscale>
<asrwt>0</asrwt>
<pdfrwt beam="2">  1        2 0.14633416E-01 0.36771064E+02</pdfrwt>
<pdfrwt beam="1">  1        1 0.13341671E+00 0.98242991E+02</pdfrwt>
<totfact> 0.10576666E+03</totfact>
</mgrwt>
</event>
<event>
 7    1  0.4252091E-004  0.1243873E+03  0.7546771E-02  0.1272638E+00
          2   -1    0    0  503    0  0.00000000000E+00  0.00000000000E+00  0.10258526104E+04  0.10258526104E+04  0.00000000000E+00 0. -1.
          1   -1    0    0  502    0 -0.00000000000E+00 -0.00000000000E+00 -0.19749137675E+03  0.19749137675E+03  0.00000000000E+00 0. -1.
         25    2    1    2    0    0  0.15422890398E+01 -0.57817849764E+02  0.48081300746E+01  0.13781566314E+03  0.12499902594E+03 0.  0.
          4    1    3    3  501    0 -0.32181658900E+02 -0.53295244170E+02 -0.45461441609E+02  0.77099920842E+02  0.12700000000E+01 0. -1.
         -4    1    3    3    0  501  0.33723947940E+02 -0.45226055933E+01  0.50269571683E+02  0.60715742301E+02  0.12700000000E+01 0. -1.
          2    1    1    2  502    0  0.71045586531E+02 -0.49355083163E+02 -0.11174453801E+03  0.14131610444E+03  0.00000000000E+00 0. -1.
          1    1    1    2  503    0 -0.72587875571E+02  0.10717293293E+03  0.93529764161E+03  0.94421221959E+03  0.00000000000E+00 0. -1.
<mgrwt>
<rscale>  0 0.10373200E+03</rscale>
<asrwt>0</asrwt>
<pdfrwt beam="1">  1        2 0.15782348E+00 0.12438729E+03</pdfrwt>
<pdfrwt beam="2">  1        1 0.30383289E-01 0.86506645E+02</pdfrwt>
<totfact> 0.52592629E+02</totfact>
</mgrwt>
</event>
<event>
 7    1  0.4252091E-004  0.8785536E+02  0.7546771E-02  0.1363077E+00
          2   -1    0    0  503    0  0.00000000000E+00  0.00000000000E+00  0.70291175860E+03  0.70291175860E+03  0.00000000000E+00 0. -1.
          1   -1    0    0  502    0 -0.00000000000E+00 -0.00000000000E+00 -0.17854254230E+04  0.17854254230E+04  0.00000000000E+00 0. -1.
         25    2    1    2    0    0 -0.45131632842E+02  0.15938382891E+02 -0.26868694189E+03  0.30018203994E+03  0.12500275208E+03 0.  0.
          4    1    3    3  501    0 -0.49055173739E+02  0.66680482384E+01 -0.23553008636E+02  0.54838217090E+02  0.12700000000E+01 0. -1.
         -4    1    3    3    0  501  0.39235408962E+01  0.92703346528E+01 -0.24513393325E+03  0.24534382285E+03  0.12700000000E+01 0. -1.
          2    1    1    2  502    0  0.62322997230E+02 -0.67546067285E+02 -0.14985043805E+04  0.15013200876E+04  0.00000000000E+00 0. -1.
          1    1    1    2  503    0 -0.17191364387E+02  0.51607684394E+02  0.68467765799E+03  0.68683505403E+03  0.00000000000E+00 0. -1.
<mgrwt>
<rscale>  0 0.69130002E+02</rscale>
<asrwt>0</asrwt>
<pdfrwt beam="1">  1        2 0.10814027E+00 0.54395736E+02</pdfrwt>
<pdfrwt beam="2">  1        1 0.27468084E+00 0.87855363E+02</pdfrwt>
<totfact> 0.31594188E+01</totfact>
</mgrwt>
</event>
<event>
 7    1  0.4252091E-004  0.9827116E+02  0.7546771E-02  0.1385358E+00
          1   -1    0    0  502    0 -0.00000000000E+00  0.00000000000E+00  0.22088000670E+04  0.22088000670E+04  0.00000000000E+00 0. -1.
          2   -1    0    0  503    0  0.00000000000E+00 -0.00000000000E+00 -0.51273032759E+02  0.51273032759E+02  0.00000000000E+00 0. -1.
         25    2    1    2    0    0  0.63049583959E+02 -0.11932418566E+03  0.17884818010E+03  0.25656376054E+03  0.12499912149E+03 0.  0.
          4    1    3    3  501    0  0.69874726280E+02 -0.10657742884E+03  0.19618856028E+03  0.23395040029E+03  0.12700000000E+01 0. -1.
         -4    1    3    3    0  501 -0.68251423214E+01 -0.12746756823E+02 -0.17340380175E+02  0.22613360251E+02  0.12700000000E+01 0. -1.
          2    1    1    2  502    0 -0.34159937192E+02  0.90960575868E+02  0.19533244990E+04  0.19557395855E+04  0.00000000000E+00 0. -1.
          1    1    1    2  503    0 -0.28889646767E+02  0.28363609792E+02  0.25354355116E+02  0.47769753757E+02  0.00000000000E+00 0. -1.
<mgrwt>
<rscale>  0 0.63076096E+02</rscale>
<asrwt>0</asrwt>
<pdfrwt beam="2">  1        2 0.78881606E-02 0.40485875E+02</pdfrwt>
<pdfrwt beam="1">  1        1 0.33981532E+00 0.98271161E+02</pdfrwt>
<totfact> 0.28735936E+02</totfact>
</mgrwt>
</event>
<event>
 7    1  0.4252091E-004  0.1081408E+03  0.7546771E-02  0.1284753E+00
          2   -1    0    0  503    0  0.00000000000E+00  0.00000000000E+00  0.13391930846E+04  0.13391930846E+04  0.00000000000E+00 0. -1.
          1   -1    0    0  502    0 -0.00000000000E+00 -0.00000000000E+00 -0.12164678126E+04  0.12164678126E+04  0.00000000000E+00 0. -1.
         25    2    1    2    0    0 -0.10349073233E+03  0.85118848424E+02  0.95851825827E+03  0.97587783212E+03  0.12499896699E+03 0.  0.
          4    1    3    3  501    0  0.78205775403E+00  0.78143635718E+02  0.37223104410E+03  0.38034800184E+03  0.12700000000E+01 0. -1.
         -4    1    3    3    0  501 -0.10427279008E+03  0.69752127067E+01  0.58628721418E+03  0.59552983028E+03  0.12700000000E+01 0. -1.
          2    1    1    2  502    0  0.17518039159E+02 -0.10673103820E+03 -0.12000398664E+04  0.12049041776E+04  0.00000000000E+00 0. -1.
          1    1    1    2  503    0  0.85972693167E+02  0.21612189779E+02  0.36424688002E+03  0.37487888754E+03  0.00000000000E+00 0. -1.
<mgrwt>
<rscale>  0 0.97910251E+02</rscale>
<asrwt>0</asrwt>
<pdfrwt beam="1">  1        2 0.20602970E+00 0.88647565E+02</pdfrwt>
<pdfrwt beam="2">  1        1 0.18714890E+00 0.10814078E+03</pdfrwt>
<totfact> 0.29722535E+01</totfact>
</mgrwt>
</event>
<event>
 7    1  0.4252091E-004  0.9066761E+02  0.7546771E-02  0.1315191E+00
          2   -1    0    0  503    0  0.00000000000E+00  0.00000000000E+00  0.15931588843E+04  0.15931588843E+04  0.00000000000E+00 0. -1.
          1   -1    0    0  502    0 -0.00000000000E+00 -0.00000000000E+00 -0.35229261668E+03  0.35229261668E+03  0.00000000000E+00 0. -1.
         25    2    1    2    0    0  0.35596003188E+02  0.32112842615E+02  0.17848343726E+03  0.22311410178E+03  0.12500101974E+03 0.  0.
          4    1    3    3  501    0  0.16380942003E+02 -0.21177726484E+02 -0.81925355059E+01  0.28027877157E+02  0.12700000000E+01 0.  1.
         -4    1    3    3    0  501  0.19215061186E+02  0.53290569099E+02  0.18667597277E+03  0.19508622463E+03  0.12700000000E+01 0.  1.
          2    1    1    2  502    0 -0.88618369374E+02  0.27605221732E+02 -0.32227676081E+03  0.33537676458E+03  0.00000000000E+00 0. -1.
          1    1    1    2  503    0  0.53022366185E+02 -0.59718064347E+02  0.13846595912E+04  0.13869606346E+04  0.00000000000E+00 0. -1.
<mgrwt>
<rscale>  0 0.85092388E+02</rscale>
<asrwt>0</asrwt>
<pdfrwt beam="1">  1        2 0.24510136E+00 0.79859993E+02</pdfrwt>
<pdfrwt beam="2">  1        1 0.54198865E-01 0.90667608E+02</pdfrwt>
<totfact> 0.13299967E+02</totfact>
</mgrwt>
</event>
<event>
 7    1  0.4252091E-004  0.7102900E+02  0.7546771E-02  0.1405209E+00
          1   -1    0    0  502    0 -0.00000000000E+00  0.00000000000E+00  0.85452506887E+03  0.85452506887E+03  0.00000000000E+00 0. -1.
          2   -1    0    0  503    0  0.00000000000E+00 -0.00000000000E+00 -0.16904583534E+04  0.16904583534E+04  0.00000000000E+00 0. -1.
         25    2    1    2    0    0  0.23233874003E+02  0.24945743737E+02 -0.53818721447E+03  0.55356152202E+03  0.12499111095E+03 0.  0.
          4    1    3    3  501    0 -0.22291119019E+02 -0.42048383391E+02 -0.16807500192E+03  0.17468766328E+03  0.12700000000E+01 0.  1.
         -4    1    3    3    0  501  0.45524993022E+02  0.66994127128E+02 -0.37011221255E+03  0.37887385874E+03  0.12700000000E+01 0.  1.
          2    1    1    2  502    0 -0.69766572773E+02 -0.13950838455E+02  0.84484264873E+03  0.84783318034E+03  0.00000000000E+00 0. -1.
          1    1    1    2  503    0  0.46532698770E+02 -0.10994905282E+02 -0.11425887188E+04  0.11435887200E+04  0.00000000000E+00 0. -1.
<mgrwt>
<rscale>  0 0.58276768E+02</rscale>
<asrwt>0</asrwt>
<pdfrwt beam="2">  1        2 0.26007051E+00 0.47814015E+02</pdfrwt>
<pdfrwt beam="1">  1        1 0.13146540E+00 0.71029001E+02</pdfrwt>
<totfact> 0.38877053E+01</totfact>
</mgrwt>
</event>
<event>
 7    1  0.4252091E-004  0.1105133E+03  0.7546771E-02  0.1300680E+00
         -2   -1    0    0    0  501 -0.00000000000E+00  0.00000000000E+00  0.59223166703E+03  0.59223166703E+03  0.00000000000E+00 0.  1.
          2   -1    0    0  503    0  0.00000000000E+00 -0.00000000000E+00 -0.13389526790E+04  0.13389526790E+04  0.00000000000E+00 0. -1.
         25    2    1    2    0    0  0.10885001393E+02  0.36043102163E+02  0.48167780284E+02  0.13914681833E+03  0.12499645405E+03 0.  0.
          4    1    3    3  502    0 -0.33522424348E+02 -0.18107957431E+02 -0.18566562644E+02  0.42402608468E+02  0.12700000000E+01 0.  1.
         -4    1    3    3    0  502  0.44407425741E+02  0.54151059594E+02  0.66734342928E+02  0.96744209864E+02  0.12700000000E+01 0.  1.
          3    1    1    2  503    0 -0.34012015614E+02 -0.10714916537E+03 -0.12881979156E+04  0.12930938212E+04  0.00000000000E+00 0. -1.
         -1    1    1    2    0  501  0.23127014221E+02  0.71106063207E+02  0.49330912334E+03  0.49894370643E+03  0.00000000000E+00 0.  1.
<mgrwt>
<rscale>  0 0.90903007E+02</rscale>
<asrwt>0</asrwt>
<pdfrwt beam="2">  1        2 0.20599272E+00 0.11051327E+03</pdfrwt>
<pdfrwt beam="1">  1       -2 0.91112566E-01 0.74772528E+02</pdfrwt>
<totfact> 0.19827616E+01</totfact>
</mgrwt>
</event>
<event>
 7    1  0.4252091E-004  0.9775628E+02  0.7546771E-02  0.1352685E+00
          1   -1    0    0  502    0 -0.00000000000E+00  0.00000000000E+00  0.78308382539E+02  0.78308382539E+02  0.00000000000E+00 0. -1.
          2   -1    0    0  503    0  0.00000000000E+00 -0.00000000000E+00 -0.14145344324E+04  0.14145344324E+04  0.00000000000E+00 0. -1.
         25    2    1    2    0    0  0.20905236196E+02  0.13999495634E+03 -0.10516809239E+04  0.10685000854E+04  0.12499620112E+03 0.  0.
          4    1    3    3  501    0 -0.39145153256E+02  0.88250368865E+02 -0.76465839317E+03  0.77072987601E+03  0.12700000000E+01 0.  1.
         -4    1    3    3    0  501  0.60050389453E+02  0.51744587472E+02 -0.28702253068E+03  0.29777020943E+03  0.12700000000E+01 0.  1.
          2    1    1    2  502    0 -0.36960839790E+02 -0.89105535871E+02  0.33297290572E+02  0.10205199538E+03  0.00000000000E+00 0. -1.
          1    1    1    2  503    0  0.16055603594E+02 -0.50889420466E+02 -0.31784241653E+03  0.32229073407E+03  0.00000000000E+00 0. -1.
<mgrwt>
<rscale>  0 0.72225218E+02</rscale>
<asrwt>0</asrwt>
<pdfrwt beam="2">  1        2 0.21762067E+00 0.53362117E+02</pdfrwt>
<pdfrwt beam="1">  1        1 0.12047444E-01 0.97756280E+02</pdfrwt>
<totfact> 0.11057340E+03</totfact>
</mgrwt>
</event>
<event>
 7    1  0.4252091E-004  0.9345643E+02  0.7546771E-02  0.1321378E+00
          1   -1    0    0  502    0 -0.00000000000E+00  0.00000000000E+00  0.61278262139E+02  0.61278262139E+02  0.00000000000E+00 0. -1.
          2   -1    0    0  503    0  0.00000000000E+00 -0.00000000000E+00 -0.20453309255E+04  0.20453309255E+04  0.00000000000E+00 0. -1.
         25    2    1    2    0    0 -0.77315158803E+02 -0.62970318063E+02 -0.46352557530E+03  0.49033093914E+03  0.12500230468E+03 0.  0.
          4    1    3    3  501    0 -0.10219298260E+03 -0.11681092711E+02 -0.30160615736E+03  0.31866556242E+03  0.12700000000E+01 0. -1.
         -4    1    3    3    0  501  0.24877823794E+02 -0.51289225352E+02 -0.16191941795E+03  0.17166537671E+03  0.12700000000E+01 0. -1.
          2    1    1    2  502    0  0.65976763369E+02 -0.31936003044E+02  0.17438459595E+02  0.75345480741E+02  0.00000000000E+00 0. -1.
          1    1    1    2  503    0  0.11338395435E+02  0.94906321107E+02 -0.15379655476E+04  0.15409327677E+04  0.00000000000E+00 0. -1.
<mgrwt>
<rscale>  0 0.82766691E+02</rscale>
<asrwt>0</asrwt>
<pdfrwt beam="2">  1        2 0.31466631E+00 0.93456426E+02</pdfrwt>
<pdfrwt beam="1">  1        1 0.94274245E-02 0.73299670E+02</pdfrwt>
<totfact> 0.68629118E+02</totfact>
</mgrwt>
</event>
<event>
 7    1  0.4252091E-004  0.1835025E+03  0.7546771E-02  0.1205777E+00
          2   -1    0    0  503    0  0.00000000000E+00  0.00000000000E+00  0.23876976449E+04  0.23876976449E+04  0.00000000000E+00 0. -1.
         -2   -1    0    0    0  501 -0.00000000000E+00 -0.00000000000E+00 -0.11047918891E+03  0.11047918891E+03  0.00000000000E+00 0.  1.
         25    2    1    2    0    0  0.92822932890E+02 -0.20185641988E+02  0.87235472489E+03  0.88636927259E+03  0.12499665731E+03 0.  0.
          4    1    3    3  502    0  0.63712891520E+02 -0.72586586755E+02  0.57019969076E+03  0.57832295940E+03  0.12700000000E+01 0.  1.
         -4    1    3    3    0  502  0.29110041370E+02  0.52400944767E+02  0.30215503413E+03  0.30804631319E+03  0.12700000000E+01 0.  1.
          1    1    1    2  503    0  0.95666603381E+02  0.65226200061E+02  0.14131006866E+04  0.14178364175E+04  0.00000000000E+00 0. -1.
         -1    1    1    2    0  501 -0.18848953627E+03 -0.45040558073E+02 -0.82369555610E+01  0.19397114371E+03  0.00000000000E+00 0.  1.
<mgrwt>
<rscale>  0 0.14576403E+03</rscale>
<asrwt>0</asrwt>
<pdfrwt beam="1">  1        2 0.36733806E+00 0.11578668E+03</pdfrwt>
<pdfrwt beam="2">  1       -2 0.16996800E-01 0.18350255E+03</pdfrwt>
<totfact> 0.14096490E+02</totfact>
</mgrwt>
</event>
<event>
 7    1  0.4252091E-004  0.1696772E+03  0.7546771E-02  0.1346680E+00
          2   -1    0    0  503    0  0.00000000000E+00  0.00000000000E+00  0.41975105727E+04  0.41975105727E+04  0.00000000000E+00 0. -1.
          1   -1    0    0  502    0 -0.00000000000E+00 -0.00000000000E+00 -0.13876998191E+04  0.13876998191E+04  0.00000000000E+00 0. -1.
         25    2    1    2    0    0  0.14279969464E+03 -0.85029362893E+02  0.18594223320E+04  0.18710151151E+04  0.12499762814E+03 0.  0.
          4    1    3    3  501    0  0.13724390563E+03 -0.20650624988E+02  0.10725821611E+04  0.10815250544E+04  0.12700000000E+01 0. -1.
         -4    1    3    3    0  501  0.55557890126E+01 -0.64378737905E+02  0.78684017082E+03  0.78949006074E+03  0.12700000000E+01 0. -1.
          2    1    1    2  502    0 -0.15968452428E+03  0.57422926780E+02 -0.13765809217E+04  0.13870009278E+04  0.00000000000E+00 0. -1.
          1    1    1    2  503    0  0.16884829639E+02  0.27606436113E+02  0.23269693433E+04  0.23271943488E+04  0.00000000000E+00 0. -1.
<mgrwt>
<rscale>  0 0.74100392E+02</rscale>
<asrwt>0</asrwt>
<pdfrwt beam="1">  1        2 0.64577085E+00 0.32360667E+02</pdfrwt>
<pdfrwt beam="2">  1        1 0.21349228E+00 0.16967722E+03</pdfrwt>
<totfact> 0.62625676E-01</totfact>
</mgrwt>
</event>
<event>
 7    1  0.4252091E-004  0.8137308E+02  0.7546771E-02  0.1405687E+00
         -1   -1    0    0    0  501 -0.00000000000E+00  0.00000000000E+00  0.55043290568E+03  0.55043290568E+03  0.00000000000E+00 0.  1.
          1   -1    0    0  503    0  0.00000000000E+00 -0.00000000000E+00 -0.14341974774E+04  0.14341974774E+04  0.00000000000E+00 0. -1.
         25    2    1    2    0    0  0.62813680915E+02 -0.42548348191E+02  0.38612621860E+02  0.15128349694E+03  0.12505935165E+03 0.  0.
          4    1    3    3  502    0 -0.38196218998E+02 -0.52438782506E+01  0.11027359150E+02  0.40120630038E+02  0.12700000000E+01 0.  1.
         -4    1    3    3    0  502  0.10100989991E+03 -0.37304469941E+02  0.27585262710E+02  0.11116286690E+03  0.12700000000E+01 0.  1.
          2    1    1    2  503    0 -0.81398165469E+02  0.53531033397E+01 -0.13757024021E+04  0.13781187961E+04  0.00000000000E+00 0. -1.
         -2    1    1    2    0  501  0.18584484554E+02  0.37195244852E+02  0.45332520850E+03  0.45522809005E+03  0.00000000000E+00 0.  1.
<mgrwt>
<rscale>  0 0.58167571E+02</rscale>
<asrwt>0</asrwt>
<pdfrwt beam="2">  1        1 0.22064577E+00 0.81373083E+02</pdfrwt>
<pdfrwt beam="1">  1       -1 0.84681985E-01 0.41579674E+02</pdfrwt>
<totfact> 0.13802710E+01</totfact>
</mgrwt>
</event>
<event>
 7    1  0.4252091E-004  0.4984856E+02  0.7546771E-02  0.1533726E+00
          2   -1    0    0  503    0  0.00000000000E+00  0.00000000000E+00  0.62461143282E+03  0.62461143282E+03  0.00000000000E+00 0. -1.
          1   -1    0    0  502    0 -0.00000000000E+00 -0.00000000000E+00 -0.49362266557E+02  0.49362266557E+02  0.00000000000E+00 0. -1.
         25    2    1    2    0    0  0.49288540764E+02 -0.45334702077E+02  0.23144089073E+03  0.27143458594E+03  0.12500901199E+03 0.  0.
          4    1    3    3  501    0 -0.38346090629E+02  0.60165863574E+01  0.47963839032E+02  0.61715190452E+02  0.12700000000E+01 0.  1.
         -4    1    3    3    0  501  0.87634631393E+02 -0.51351288434E+02  0.18347705170E+03  0.20971939549E+03  0.12700000000E+01 0.  1.
          2    1    1    2  502    0 -0.22292480646E+02  0.43354248960E+02 -0.82489559750E+01  0.49442804036E+02  0.00000000000E+00 0. -1.
          1    1    1    2  503    0 -0.26996060118E+02  0.19804531162E+01  0.35205723150E+03  0.35309630940E+03  0.00000000000E+00 0. -1.
<mgrwt>
<rscale>  0 0.36733242E+02</rscale>
<asrwt>0</asrwt>
<pdfrwt beam="1">  1        2 0.96094061E-01 0.27068606E+02</pdfrwt>
<pdfrwt beam="2">  1        1 0.75941953E-02 0.49848560E+02</pdfrwt>
<totfact> 0.56734837E+03</totfact>
</mgrwt>
</event>
<event>
 7    1  0.4252091E-004  0.3985082E+02  0.7546771E-02  0.1524854E+00
          2   -1    0    0  503    0  0.00000000000E+00  0.00000000000E+00  0.40405982355E+03  0.40405982355E+03  0.00000000000E+00 0. -1.
          1   -1    0    0  502    0 -0.00000000000E+00 -0.00000000000E+00 -0.24868862428E+03  0.24868862428E+03  0.00000000000E+00 0. -1.
         25    2    1    2    0    0  0.38524839953E+02 -0.33791046016E+02  0.26024944150E+03  0.29322219531E+03  0.12499394360E+03 0.  0.
          4    1    3    3  501    0 -0.42067495122E+02 -0.56465707710E+01  0.13594645333E+03  0.14242404635E+03  0.12700000000E+01 0.  1.
         -4    1    3    3    0  501  0.80592335075E+02 -0.28144475245E+02  0.12430298817E+03  0.15079814896E+03  0.12700000000E+01 0.  1.
          2    1    1    2  502    0 -0.31199261995E+01  0.39747631080E+02 -0.22790588046E+03  0.23136702112E+03  0.00000000000E+00 0. -1.
          1    1    1    2  503    0 -0.35404913753E+02 -0.59565850649E+01  0.12302763824E+03  0.12815923140E+03  0.00000000000E+00 0. -1.
<mgrwt>
<rscale>  0 0.37825174E+02</rscale>
<asrwt>0</asrwt>
<pdfrwt beam="1">  1        2 0.62163050E-01 0.35902490E+02</pdfrwt>
<pdfrwt beam="2">  1        1 0.38259788E-01 0.39850823E+02</pdfrwt>
<totfact> 0.11830131E+03</totfact>
</mgrwt>
</event>
<event>
 7    1  0.4252091E-004  0.6529689E+02  0.7546771E-02  0.1428633E+00
          1   -1    0    0  502    0 -0.00000000000E+00  0.00000000000E+00  0.18860345845E+03  0.18860345845E+03  0.00000000000E+00 0. -1.
          2   -1    0    0  503    0  0.00000000000E+00 -0.00000000000E+00 -0.23366142241E+04  0.23366142241E+04  0.00000000000E+00 0. -1.
         25    2    1    2    0    0 -0.75168777643E+02  0.23257823672E+02 -0.88143385412E+03  0.89372372236E+03  0.12500072487E+03 0.  0.
          4    1    3    3  501    0  0.12801813553E+02  0.10947540751E+02 -0.55957393929E+03  0.55982885019E+03  0.12700000000E+01 0. -1.
         -4    1    3    3    0  501 -0.87970591195E+02  0.12310282921E+02 -0.32185991483E+03  0.33389487216E+03  0.12700000000E+01 0. -1.
          2    1    1    2  502    0  0.33922280865E+02  0.27074162226E+02  0.17913519346E+03  0.18431806459E+03  0.00000000000E+00 0. -1.
          1    1    1    2  503    0  0.41246496778E+02 -0.50331985898E+02 -0.14457121049E+04  0.14471758956E+04  0.00000000000E+00 0. -1.
<mgrwt>
<rscale>  0 0.53235460E+02</rscale>
<asrwt>0</asrwt>
<pdfrwt beam="2">  1        2 0.35947910E+00 0.65296895E+02</pdfrwt>
<pdfrwt beam="1">  1        1 0.29015917E-01 0.43401975E+02</pdfrwt>
<totfact> 0.12206483E+02</totfact>
</mgrwt>
</event>
<event>
 7    1  0.4252091E-004  0.7062204E+02  0.7546771E-02  0.1374618E+00
          2   -1    0    0  503    0  0.00000000000E+00  0.00000000000E+00  0.21164014613E+04  0.21164014613E+04  0.00000000000E+00 0. -1.
         -2   -1    0    0    0  501 -0.00000000000E+00 -0.00000000000E+00 -0.80625223368E+02  0.80625223368E+02  0.00000000000E+00 0.  1.
         25    2    1    2    0    0  0.47280596846E+01  0.38575199847E+02  0.17514092595E+03  0.21865916381E+03  0.12500834125E+03 0.  0.
          4    1    3    3  502    0  0.29312855509E+02  0.36876141066E+02  0.57425814488E+01  0.47472975678E+02  0.12700000000E+01 0.  1.
         -4    1    3    3    0  502 -0.24584795825E+02  0.16990587816E+01  0.16939834450E+03  0.17118618813E+03  0.12700000000E+01 0.  1.
          1    1    1    2  503    0  0.61492983511E+02 -0.19898015154E+00  0.18939113615E+04  0.18949094099E+04  0.00000000000E+00 0. -1.
         -1    1    1    2    0  501 -0.66221043195E+02 -0.38376219696E+02 -0.33276049556E+02  0.83458110894E+02  0.00000000000E+00 0.  1.
<mgrwt>
<rscale>  0 0.65899792E+02</rscale>
<asrwt>0</asrwt>
<pdfrwt beam="1">  1        2 0.32560018E+00 0.61493305E+02</pdfrwt>
<pdfrwt beam="2">  1       -2 0.12403882E-01 0.70622039E+02</pdfrwt>
<totfact> 0.33327900E+02</totfact>
</mgrwt>
</event>
<event>
 7    1  0.4252091E-004  0.1013541E+03  0.7546771E-02  0.1374764E+00
          1   -1    0    0  502    0 -0.00000000000E+00  0.00000000000E+00  0.11705783281E+04  0.11705783281E+04  0.00000000000E+00 0. -1.
          2   -1    0    0  503    0  0.00000000000E+00 -0.00000000000E+00 -0.56724486410E+03  0.56724486410E+03  0.00000000000E+00 0. -1.
         25    2    1    2    0    0  0.12266276575E+03  0.37295297152E+02 -0.39638778266E+03  0.43495073017E+03  0.12498707988E+03 0.  0.
          4    1    3    3  501    0 -0.12672591263E+01  0.50844855131E+02 -0.15707816599E+03  0.16511198736E+03  0.12700000000E+01 0. -1.
         -4    1    3    3    0  501  0.12393002488E+03 -0.13549557979E+02 -0.23930961667E+03  0.26983874281E+03  0.12700000000E+01 0. -1.
          2    1    1    2  502    0 -0.84242530398E+02 -0.56147427653E+02  0.11459993686E+04  0.11504624681E+04  0.00000000000E+00 0. -1.
          1    1    1    2  503    0 -0.38420235354E+02  0.18852130501E+02 -0.14627812194E+03  0.15240999398E+03  0.00000000000E+00 0. -1.
<mgrwt>
<rscale>  0 0.65860253E+02</rscale>
<asrwt>0</asrwt>
<pdfrwt beam="2">  1        2 0.87268441E-01 0.42796230E+02</pdfrwt>
<pdfrwt beam="1">  1        1 0.18008897E+00 0.10135409E+03</pdfrwt>
<totfact> 0.98933930E+01</totfact>
</mgrwt>
</event>
<event>
 7    1  0.4252091E-004  0.5879474E+02  0.7546771E-02  0.1433088E+00
          2   -1    0    0  503    0  0.00000000000E+00  0.00000000000E+00  0.20357320326E+04  0.20357320326E+04  0.00000000000E+00 0. -1.
          3   -1    0    0  502    0 -0.00000000000E+00 -0.00000000000E+00 -0.16629042460E+02  0.16629042460E+02  0.00000000000E+00 0. -1.
         25    2    1    2    0    0  0.34477967701E+02 -0.87524828558E+02  0.65665064309E+03  0.67502970025E+03  0.12500281308E+03 0.  0.
          4    1    3    3  501    0 -0.44877689018E+02 -0.30040241733E+02  0.16211593596E+03  0.17087894161E+03  0.12700000000E+01 0. -1.
         -4    1    3    3    0  501  0.79355656720E+02 -0.57484586826E+02  0.49453470713E+03  0.50415075863E+03  0.12700000000E+01 0. -1.
          2    1    1    2  502    0 -0.22173824688E+01  0.53893021046E+02  0.96737206691E+02  0.11075857376E+03  0.00000000000E+00 0. -1.
          3    1    1    2  503    0 -0.32260585232E+02  0.33631807512E+02  0.12657151404E+04  0.12665728011E+04  0.00000000000E+00 0. -1.
<mgrwt>
<rscale>  0 0.52345145E+02</rscale>
<asrwt>0</asrwt>
<pdfrwt beam="1">  1        2 0.31318935E+00 0.46603045E+02</pdfrwt>
<pdfrwt beam="2">  1        3 0.25583158E-02 0.58794745E+02</pdfrwt>
<totfact> 0.28467554E+03</totfact>
</mgrwt>
</event>
<event>
 7    1  0.4252091E-004  0.4586930E+02  0.7546771E-02  0.1541405E+00
          2   -1    0    0  503    0  0.00000000000E+00  0.00000000000E+00  0.22714100322E+03  0.22714100322E+03  0.00000000000E+00 0. -1.
          1   -1    0    0  502    0 -0.00000000000E+00 -0.00000000000E+00 -0.25174503265E+03  0.25174503265E+03  0.00000000000E+00 0. -1.
         25    2    1    2    0    0 -0.28215539196E+02  0.45599407795E+02  0.85756882650E+02  0.16079430115E+03  0.12500056687E+03 0.  0.
          4    1    3    3  501    0 -0.60177245399E+02 -0.19638550671E+02  0.37857200856E+02  0.73768245831E+02  0.12700000000E+01 0. -1.
         -4    1    3    3    0  501  0.31961706203E+02  0.65237958466E+02  0.47899681794E+02  0.87026055318E+02  0.12700000000E+01 0. -1.
          2    1    1    2  502    0 -0.12617818458E+02 -0.24971439360E+02 -0.20820735608E+03  0.21007875964E+03  0.00000000000E+00 0. -1.
          3    1    1    2  503    0  0.40833357655E+02 -0.20627968435E+02  0.97846444010E+02  0.10801297507E+03  0.00000000000E+00 0. -1.
<mgrwt>
<rscale>  0 0.35823770E+02</rscale>
<asrwt>0</asrwt>
<pdfrwt beam="1">  1        2 0.34944769E-01 0.45869300E+02</pdfrwt>
<pdfrwt beam="2">  1        1 0.38730005E-01 0.27978244E+02</pdfrwt>
<totfact> 0.20858724E+03</totfact>
</mgrwt>
</event>
<event>
 7    1  0.4252091E-004  0.3121194E+03  0.7546771E-02  0.1266144E+00
          2   -1    0    0  503    0  0.00000000000E+00  0.00000000000E+00  0.64479591129E+03  0.64479591129E+03  0.00000000000E+00 0. -1.
          1   -1    0    0  502    0 -0.00000000000E+00 -0.00000000000E+00 -0.50423179510E+03  0.50423179510E+03  0.00000000000E+00 0. -1.
         25    2    1    2    0    0  0.20114498407E+03  0.20853252736E+03 -0.56228514404E+02  0.32051822478E+03  0.12500066802E+03 0.  0.
          4    1    3    3  501    0  0.17146896531E+03  0.17638074266E+03  0.40441032734E+01  0.24602792548E+03  0.12700000000E+01 0. -1.
         -4    1    3    3    0  501  0.29676018761E+02  0.32151784694E+02 -0.60272617678E+02  0.74490299303E+02  0.12700000000E+01 0. -1.
          2    1    1    2  502    0 -0.22649683421E+03 -0.23508509481E+03 -0.23051446781E+03  0.39962824923E+03  0.00000000000E+00 0. -1.
          1    1    1    2  503    0  0.25351850141E+02  0.26552567457E+02  0.42730709840E+03  0.42888123238E+03  0.00000000000E+00 0. -1.
<mgrwt>
<rscale>  0 0.10704420E+03</rscale>
<asrwt>0</asrwt>
<pdfrwt beam="1">  1        2 0.99199371E-01 0.36711785E+02</pdfrwt>
<pdfrwt beam="2">  1        1 0.77574122E-01 0.31211944E+03</pdfrwt>
<totfact> 0.29683720E+02</totfact>
</mgrwt>
</event>
<event>
 7    1  0.4252091E-004  0.6199960E+02  0.7546771E-02  0.1477952E+00
          2   -1    0    0  503    0  0.00000000000E+00  0.00000000000E+00  0.19241749396E+03  0.19241749396E+03  0.00000000000E+00 0. -1.
          1   -1    0    0  502    0 -0.00000000000E+00 -0.00000000000E+00 -0.96768048194E+03  0.96768048194E+03  0.00000000000E+00 0. -1.
         25    2    1    2    0    0  0.35256873976E+02  0.14730912956E+02  0.22232451731E+01  0.13073409795E+03  0.12500565823E+03 0.  0.
          4    1    3    3  501    0 -0.31197222646E+01 -0.11433663634E+02 -0.55424701110E+02  0.56691901752E+02  0.12700000000E+01 0. -1.
         -4    1    3    3    0  501  0.38376596241E+02  0.26164576589E+02  0.57647946283E+02  0.74042196198E+02  0.12700000000E+01 0. -1.
          2    1    1    2  502    0 -0.42521989760E+02 -0.45725585515E+02 -0.90031447409E+03  0.90247720250E+03  0.00000000000E+00 0. -1.
          1    1    1    2  503    0  0.72651157839E+01  0.30994672560E+02  0.12282824093E+03  0.12688667544E+03  0.00000000000E+00 0. -1.
<mgrwt>
<rscale>  0 0.44426816E+02</rscale>
<asrwt>0</asrwt>
<pdfrwt beam="1">  1        2 0.29602691E-01 0.31834755E+02</pdfrwt>
<pdfrwt beam="2">  1        1 0.14887392E+00 0.61999598E+02</pdfrwt>
<totfact> 0.42624279E+02</totfact>
</mgrwt>
</event>
<event>
 7    1  0.4252091E-004  0.7767781E+02  0.7546771E-02  0.1504172E+00
         -1   -1    0    0    0  501 -0.00000000000E+00  0.00000000000E+00  0.14841592762E+03  0.14841592762E+03  0.00000000000E+00 0.  1.
          1   -1    0    0  503    0  0.00000000000E+00 -0.00000000000E+00 -0.84482467478E+03  0.84482467478E+03  0.00000000000E+00 0. -1.
         25    2    1    2    0    0 -0.86963875286E+01  0.86602556438E+02 -0.15028523900E+03  0.21397860121E+03  0.12500223509E+03 0.  0.
          4    1    3    3  502    0 -0.35991438147E+02 -0.10687262358E+02 -0.63311347415E+01  0.38095896940E+02  0.12700000000E+01 0. -1.
         -4    1    3    3    0  502  0.27295050618E+02  0.97289818797E+02 -0.14395410425E+03  0.17588270427E+03  0.12700000000E+01 0. -1.
          2    1    1    2  503    0  0.18622001225E+02 -0.10074998861E+02 -0.64973004447E+03  0.65007493046E+03  0.00000000000E+00 0. -1.
         -2    1    1    2    0  501 -0.99256136963E+01 -0.76527557578E+02  0.10360653630E+03  0.12918707072E+03  0.00000000000E+00 0.  1.
<mgrwt>
<rscale>  0 0.40554301E+02</rscale>
<asrwt>0</asrwt>
<pdfrwt beam="2">  1        1 0.12997303E+00 0.21172731E+02</pdfrwt>
<pdfrwt beam="1">  1       -1 0.22833220E-01 0.77677810E+02</pdfrwt>
<totfact> 0.38326346E+02</totfact>
</mgrwt>
</event>
<event>
 7    1  0.4252091E-004  0.1351808E+03  0.7546771E-02  0.1250936E+00
         -1   -1    0    0    0  501 -0.00000000000E+00  0.00000000000E+00  0.56213486659E+03  0.56213486659E+03  0.00000000000E+00 0.  1.
          1   -1    0    0  503    0  0.00000000000E+00 -0.00000000000E+00 -0.69446377141E+03  0.69446377141E+03  0.00000000000E+00 0. -1.
         25    2    1    2    0    0 -0.22754147927E+02  0.21937040348E+03  0.29014339816E+03  0.38529040594E+03  0.12499752095E+03 0.  0.
          4    1    3    3  502    0  0.24717767578E+02  0.72520400781E+02  0.28965668810E+02  0.81919469194E+02  0.12700000000E+01 0.  1.
         -4    1    3    3    0  502 -0.47471915505E+02  0.14685000269E+03  0.26117772935E+03  0.30337093675E+03  0.12700000000E+01 0.  1.
          2    1    1    2  503    0  0.48679140297E+02 -0.12438107135E+03 -0.62872594519E+03  0.64275704879E+03  0.00000000000E+00 0. -1.
         -2    1    1    2    0  501 -0.25924992371E+02 -0.94989332121E+02  0.20625364221E+03  0.22855118327E+03  0.00000000000E+00 0.  1.
<mgrwt>
<rscale>  0 0.11537064E+03</rscale>
<asrwt>0</asrwt>
<pdfrwt beam="2">  1        1 0.10684058E+00 0.13518077E+03</pdfrwt>
<pdfrwt beam="1">  1       -1 0.86482288E-01 0.98463589E+02</pdfrwt>
<totfact> 0.42692476E+01</totfact>
</mgrwt>
</event>
<event>
 7    1  0.4252091E-004  0.7053019E+02  0.7546771E-02  0.1370135E+00
          1   -1    0    0  502    0 -0.00000000000E+00  0.00000000000E+00  0.34882190575E+03  0.34882190575E+03  0.00000000000E+00 0. -1.
          2   -1    0    0  503    0  0.00000000000E+00 -0.00000000000E+00 -0.12065987260E+04  0.12065987260E+04  0.00000000000E+00 0. -1.
         25    2    1    2    0    0 -0.66414630535E+01  0.16231226330E+02  0.37715570039E+02  0.13173906176E+03  0.12500061772E+03 0.  0.
          4    1    3    3  501    0  0.21852854949E+01 -0.54635091256E+02  0.19037043533E+02  0.57911921015E+02  0.12700000000E+01 0. -1.
         -4    1    3    3    0  501 -0.88267485483E+01  0.70866317586E+02  0.18678526506E+02  0.73827140745E+02  0.12700000000E+01 0. -1.
          2    1    1    2  502    0 -0.63728226787E+02 -0.45874529758E+01  0.25911344801E+03  0.26687470947E+03  0.00000000000E+00 0. -1.
          3    1    1    2  503    0  0.70369689840E+02 -0.11643773355E+02 -0.11546058383E+04  0.11568068606E+04  0.00000000000E+00 0. -1.
<mgrwt>
<rscale>  0 0.67129682E+02</rscale>
<asrwt>0</asrwt>
<pdfrwt beam="2">  1        2 0.18563057E+00 0.70530188E+02</pdfrwt>
<pdfrwt beam="1">  1        1 0.53664910E-01 0.63893127E+02</pdfrwt>
<totfact> 0.21542813E+02</totfact>
</mgrwt>
</event>
<event>
 7    1  0.4252091E-004  0.2884086E+02  0.7546771E-02  0.1619971E+00
          2   -1    0    0  503    0  0.00000000000E+00  0.00000000000E+00  0.19541217087E+04  0.19541217087E+04  0.00000000000E+00 0. -1.
          1   -1    0    0  502    0 -0.00000000000E+00 -0.00000000000E+00 -0.19775720199E+04  0.19775720199E+04  0.00000000000E+00 0. -1.
         25    2    1    2    0    0 -0.11772531184E+02  0.41244549706E+01  0.14051433684E+04  0.14107465322E+04  0.12498915458E+03 0.  0.
          4    1    3    3  501    0  0.51712926361E+02  0.14943903240E+02  0.40996370762E+03  0.41348446338E+03  0.12700000000E+01 0.  1.
         -4    1    3    3    0  501 -0.63485457545E+02 -0.10819448269E+02  0.99517966080E+03  0.99726206884E+03  0.12700000000E+01 0.  1.
          2    1    1    2  502    0 -0.83382313518E+01 -0.27609218370E+02 -0.19742274508E+04  0.19744381030E+04  0.00000000000E+00 0. -1.
          1    1    1    2  503    0  0.20110762536E+02  0.23484763399E+02  0.54563377116E+03  0.54650909335E+03  0.00000000000E+00 0. -1.
<mgrwt>
<rscale>  0 0.28110036E+02</rscale>
<asrwt>0</asrwt>
<pdfrwt beam="1">  1        2 0.30063411E+00 0.27397733E+02</pdfrwt>
<pdfrwt beam="2">  1        1 0.30424185E+00 0.28840857E+02</pdfrwt>
<totfact> 0.64233461E+00</totfact>
</mgrwt>
</event>
<event>
 7    1  0.4252091E-004  0.1196983E+03  0.7546771E-02  0.1315388E+00
          2   -1    0    0  503    0  0.00000000000E+00  0.00000000000E+00  0.12056572421E+04  0.12056572421E+04  0.00000000000E+00 0. -1.
         -2   -1    0    0    0  501 -0.00000000000E+00 -0.00000000000E+00 -0.50906843335E+02  0.50906843335E+02  0.00000000000E+00 0.  1.
         25    2    1    2    0    0  0.77969578730E+02  0.53131668841E+02  0.29427319815E+03  0.33335188479E+03  0.12499813800E+03 0.  0.
          4    1    3    3  502    0  0.94888409404E+02  0.15627398701E+02  0.11746188865E+03  0.15181216689E+03  0.12700000000E+01 0.  1.
         -4    1    3    3    0  502 -0.16918830675E+02  0.37504270140E+02  0.17681130949E+03  0.18153971790E+03  0.12700000000E+01 0.  1.
          1    1    1    2  503    0  0.54017904252E+02 -0.26987872699E+02  0.74044025790E+03  0.74289841484E+03  0.00000000000E+00 0. -1.
         -1    1    1    2    0  501 -0.13198748298E+03 -0.26143796142E+02  0.12003694276E+03  0.18031378585E+03  0.00000000000E+00 0.  1.
<mgrwt>
<rscale>  0 0.85017127E+02</rscale>
<asrwt>0</asrwt>
<pdfrwt beam="1">  1        2 0.18548571E+00 0.60384429E+02</pdfrwt>
<pdfrwt beam="2">  1       -2 0.78318230E-02 0.11969827E+03</pdfrwt>
<totfact> 0.20187483E+03</totfact>
</mgrwt>
</event>
<event>
 7    1  0.4252091E-004  0.1076552E+03  0.7546771E-02  0.1384762E+00
          2   -1    0    0  503    0  0.00000000000E+00  0.00000000000E+00  0.67524149156E+03  0.67524149156E+03  0.00000000000E+00 0. -1.
          1   -1    0    0  502    0 -0.00000000000E+00 -0.00000000000E+00 -0.21838359659E+03  0.21838359659E+03  0.00000000000E+00 0. -1.
         25    2    1    2    0    0  0.57111987445E+02 -0.65602394334E+02  0.79490184651E+02  0.17178125553E+03  0.12499862816E+03 0.  0.
          4    1    3    3  501    0  0.65994927406E+02 -0.56145741021E+02 -0.45119906701E+01  0.86773530745E+02  0.12700000000E+01 0. -1.
         -4    1    3    3    0  501 -0.88829399609E+01 -0.94566533128E+01  0.84002175321E+02  0.85007724784E+02  0.12700000000E+01 0. -1.
          2    1    1    2  502    0  0.36511252647E+02  0.67812224207E+01 -0.16458742144E+03  0.16872485248E+03  0.00000000000E+00 0. -1.
          1    1    1    2  503    0 -0.93623240091E+02  0.58821171913E+02  0.54195513176E+03  0.55311898014E+03  0.00000000000E+00 0. -1.
<mgrwt>
<rscale>  0 0.63228527E+02</rscale>
<asrwt>0</asrwt>
<pdfrwt beam="1">  1        2 0.10388331E+00 0.10765522E+03</pdfrwt>
<pdfrwt beam="2">  1        1 0.33597477E-01 0.37135651E+02</pdfrwt>
<totfact> 0.78044278E+02</totfact>
</mgrwt>
</event>
<event>
 7    1  0.4252091E-004  0.5401638E+02  0.7546771E-02  0.1464720E+00
          1   -1    0    0  502    0 -0.00000000000E+00  0.00000000000E+00  0.26488396467E+03  0.26488396467E+03  0.00000000000E+00 0. -1.
          2   -1    0    0  503    0  0.00000000000E+00 -0.00000000000E+00 -0.13722454622E+04  0.13722454622E+04  0.00000000000E+00 0. -1.
         25    2    1    2    0    0 -0.36597350477E+02 -0.58008160401E+00  0.10566260540E+03  0.16770325867E+03  0.12498037539E+03 0.  0.
          4    1    3    3  501    0 -0.15540936865E+02 -0.52819876363E+01  0.13234557757E+03  0.13336560619E+03  0.12700000000E+01 0.  1.
         -4    1    3    3    0  501 -0.21056413612E+02  0.47019060323E+01 -0.26682972169E+02  0.34337652487E+02  0.12700000000E+01 0.  1.
          2    1    1    2  502    0  0.45632036824E+02 -0.38555735938E+02  0.12092287428E+03  0.13487464211E+03  0.00000000000E+00 0. -1.
          1    1    1    2  503    0 -0.90346863479E+01  0.39135817542E+02 -0.13339469772E+04  0.13345515261E+04  0.00000000000E+00 0. -1.
<mgrwt>
<rscale>  0 0.46578696E+02</rscale>
<asrwt>0</asrwt>
<pdfrwt beam="2">  1        2 0.21111469E+00 0.40165131E+02</pdfrwt>
<pdfrwt beam="1">  1        1 0.40751379E-01 0.54016379E+02</pdfrwt>
<totfact> 0.25660026E+02</totfact>
</mgrwt>
</event>
<event>
 7    1  0.4252091E-004  0.9781413E+02  0.7546771E-02  0.1369580E+00
         -2   -1    0    0    0  501 -0.00000000000E+00  0.00000000000E+00  0.10697616518E+04  0.10697616518E+04  0.00000000000E+00 0.  1.
          2   -1    0    0  503    0  0.00000000000E+00 -0.00000000000E+00 -0.18875058893E+03  0.18875058893E+03  0.00000000000E+00 0. -1.
         25    2    1    2    0    0  0.74672459163E+02  0.52216423041E+02  0.69445335642E+03  0.71147265874E+03  0.12500139557E+03 0.  0.
          4    1    3    3  502    0  0.10352357252E+03  0.21535354270E+02  0.57885350195E+03  0.58843342119E+03  0.12700000000E+01 0. -1.
         -4    1    3    3    0  502 -0.28851113361E+02  0.30681068771E+02  0.11559985447E+03  0.12303923755E+03  0.12700000000E+01 0. -1.
          1    1    1    2  503    0 -0.44618700735E+02 -0.87414579405E+02 -0.16525185215E+03  0.19219862587E+03  0.00000000000E+00 0. -1.
         -1    1    1    2    0  501 -0.30053758428E+02  0.35198156364E+02  0.35180955861E+03  0.35484095612E+03  0.00000000000E+00 0.  1.
<mgrwt>
<rscale>  0 0.67284139E+02</rscale>
<asrwt>0</asrwt>
<pdfrwt beam="2">  1        2 0.29038553E-01 0.97814134E+02</pdfrwt>
<pdfrwt beam="1">  1       -2 0.16457871E+00 0.46283243E+02</pdfrwt>
<totfact> 0.48962185E+01</totfact>
</mgrwt>
</event>
<event>
 7    1  0.4252091E-004  0.8196278E+02  0.7546771E-02  0.1365834E+00
          1   -1    0    0  502    0 -0.00000000000E+00  0.00000000000E+00  0.28348599179E+02  0.28348599179E+02  0.00000000000E+00 0. -1.
          2   -1    0    0  503    0  0.00000000000E+00 -0.00000000000E+00 -0.15700652946E+04  0.15700652946E+04  0.00000000000E+00 0. -1.
         25    2    1    2    0    0  0.41910566227E+02 -0.64595835141E+02 -0.11418035671E+04  0.11512034420E+04  0.12499944585E+03 0.  0.
          4    1    3    3  501    0  0.28808119883E+02  0.29188935662E+02 -0.17377016274E+03  0.17854854828E+03  0.12700000000E+01 0.  1.
         -4    1    3    3    0  501  0.13102446344E+02 -0.93784770803E+02 -0.96803340439E+03  0.97265489370E+03  0.12700000000E+01 0.  1.
          2    1    1    2  502    0  0.12104983039E+02  0.82734724138E+02 -0.60901011445E+02  0.10344321335E+03  0.00000000000E+00 0. -1.
          1    1    1    2  503    0 -0.54015549266E+02 -0.18138888998E+02 -0.33901211687E+03  0.34376723846E+03  0.00000000000E+00 0. -1.
<mgrwt>
<rscale>  0 0.68339035E+02</rscale>
<asrwt>0</asrwt>
<pdfrwt beam="2">  1        2 0.24154858E+00 0.56979811E+02</pdfrwt>
<pdfrwt beam="1">  1        1 0.43613217E-02 0.81962779E+02</pdfrwt>
<totfact> 0.35001239E+03</totfact>
</mgrwt>
</event>
<event>
 7    1  0.4252091E-004  0.5446508E+02  0.7546771E-02  0.1455357E+00
          1   -1    0    0  502    0 -0.00000000000E+00  0.00000000000E+00  0.26123742095E+04  0.26123742095E+04  0.00000000000E+00 0. -1.
          2   -1    0    0  503    0  0.00000000000E+00 -0.00000000000E+00 -0.13600112977E+03  0.13600112977E+03  0.00000000000E+00 0. -1.
         25    2    1    2    0    0  0.85464084418E+02 -0.34041350670E+02  0.20167733505E+03  0.25446567645E+03  0.12496443388E+03 0.  0.
          4    1    3    3  501    0  0.75183318502E+02 -0.18982059516E+02  0.21710894233E+03  0.23054447662E+03  0.12700000000E+01 0.  1.
         -4    1    3    3    0  501  0.10280765916E+02 -0.15059291154E+02 -0.15431607275E+02  0.23921199823E+02  0.12700000000E+01 0.  1.
          2    1    1    2  502    0 -0.53788066753E+02  0.55000551143E+01  0.23798374137E+04  0.23804515375E+04  0.00000000000E+00 0. -1.
          3    1    1    2  503    0 -0.31676017665E+02  0.28541295556E+02 -0.10514166900E+03  0.11345812535E+03  0.00000000000E+00 0. -1.
<mgrwt>
<rscale>  0 0.48189905E+02</rscale>
<asrwt>0</asrwt>
<pdfrwt beam="2">  1        2 0.20923253E-01 0.42637726E+02</pdfrwt>
<pdfrwt beam="1">  1        1 0.40190369E+00 0.54465077E+02</pdfrwt>
<totfact> 0.57146253E+01</totfact>
</mgrwt>
</event>
<event>
 7    1  0.4252091E-004  0.1034765E+03  0.7546771E-02  0.1307799E+00
          2   -1    0    0  503    0  0.00000000000E+00  0.00000000000E+00  0.19261471930E+04  0.19261471930E+04  0.00000000000E+00 0. -1.
          1   -1    0    0  502    0 -0.00000000000E+00 -0.00000000000E+00 -0.44563502343E+03  0.44563502343E+03  0.00000000000E+00 0. -1.
         25    2    1    2    0    0  0.16571471722E+03  0.64090031852E+02  0.73893481442E+03  0.77020588524E+03  0.12499418390E+03 0.  0.
          4    1    3    3  501    0  0.10888505168E+03  0.34362268534E+02  0.22532647819E+03  0.25260711520E+03  0.12700000000E+01 0.  1.
         -4    1    3    3    0  501  0.56829665541E+02  0.29727763318E+02  0.51360833624E+03  0.51759877004E+03  0.12700000000E+01 0.  1.
          2    1    1    2  502    0 -0.96291419138E+02 -0.36196367829E+02 -0.42262900835E+03  0.43496838177E+03  0.00000000000E+00 0. -1.
          1    1    1    2  503    0 -0.69423298079E+02 -0.27893664023E+02  0.11642063635E+04  0.11666079494E+04  0.00000000000E+00 0. -1.
<mgrwt>
<rscale>  0 0.87987778E+02</rscale>
<asrwt>0</asrwt>
<pdfrwt beam="1">  1        2 0.29633033E+00 0.74817450E+02</pdfrwt>
<pdfrwt beam="2">  1        1 0.68559236E-01 0.10347652E+03</pdfrwt>
<totfact> 0.68039826E+01</totfact>
</mgrwt>
</event>
<event>
 7    1  0.4252091E-004  0.7527704E+02  0.7546771E-02  0.1488309E+00
          1   -1    0    0  503    0  0.00000000000E+00  0.00000000000E+00  0.11798840942E+04  0.11798840942E+04  0.00000000000E+00 0. -1.
         -1   -1    0    0    0  501 -0.00000000000E+00 -0.00000000000E+00 -0.14013798791E+02  0.14013798791E+02  0.00000000000E+00 0.  1.
         25    2    1    2    0    0 -0.10407254417E+01  0.57811312582E+02  0.70147948170E+03  0.71487217236E+03  0.12500211436E+03 0.  0.
          4    1    3    3  502    0 -0.31649972134E+02  0.28228984153E+02  0.69280161783E+02  0.81240076311E+02  0.12700000000E+01 0. -1.
         -4    1    3    3    0  502  0.30609246692E+02  0.29582328429E+02  0.63219931992E+03  0.63363209605E+03  0.12700000000E+01 0. -1.
          2    1    1    2  503    0  0.64910174063E+01  0.23497722586E+02  0.22131377847E+03  0.22265234069E+03  0.00000000000E+00 0. -1.
         -2    1    1    2    0  501 -0.54502919645E+01 -0.81309035168E+02  0.24307703523E+03  0.25637337994E+03  0.00000000000E+00 0.  1.
<mgrwt>
<rscale>  0 0.42837918E+02</rscale>
<asrwt>0</asrwt>
<pdfrwt beam="1">  1        1 0.18152055E+00 0.24377782E+02</pdfrwt>
<pdfrwt beam="2">  1       -1 0.21559700E-02 0.75277035E+02</pdfrwt>
<totfact> 0.75329457E+03</totfact>
</mgrwt>
</event>
<event>
 7    1  0.4252091E-004  0.2934240E+03  0.7546771E-02  0.1180070E+00
          1   -1    0    0  502    0 -0.00000000000E+00  0.00000000000E+00  0.15957792497E+04  0.15957792497E+04  0.00000000000E+00 0. -1.
          2   -1    0    0  503    0  0.00000000000E+00 -0.00000000000E+00 -0.42672591364E+03  0.42672591364E+03  0.00000000000E+00 0. -1.
         25    2    1    2    0    0  0.22689798621E+02 -0.25555687370E+03  0.78831763732E+03  0.83838724269E+03  0.12499731495E+03 0.  0.
          4    1    3    3  501    0 -0.17459447845E+02 -0.36652600698E+02  0.37513855911E+02  0.55291479835E+02  0.12700000000E+01 0. -1.
         -4    1    3    3    0  501  0.40149246466E+02 -0.21890427300E+03  0.75080378141E+03  0.78309576286E+03  0.12700000000E+01 0. -1.
          2    1    1    2  502    0 -0.39252208353E+02  0.35017664926E+03  0.73605010203E+03  0.81604789948E+03  0.00000000000E+00 0. -1.
          1    1    1    2  503    0  0.16562409732E+02 -0.94619775563E+02 -0.35531440326E+03  0.36807002120E+03  0.00000000000E+00 0. -1.
<mgrwt>
<rscale>  0 0.16788638E+03</rscale>
<asrwt>0</asrwt>
<pdfrwt beam="2">  1        2 0.65650141E-01 0.96058395E+02</pdfrwt>
<pdfrwt beam="1">  1        1 0.24550450E+00 0.29342398E+03</pdfrwt>
<totfact> 0.63197197E+01</totfact>
</mgrwt>
</event>
<event>
 7    1  0.4252091E-004  0.1856651E+03  0.7546771E-02  0.1330339E+00
          1   -1    0    0  503    0  0.00000000000E+00  0.00000000000E+00  0.18140831990E+03  0.18140831990E+03  0.00000000000E+00 0. -1.
         -1   -1    0    0    0  501 -0.00000000000E+00 -0.00000000000E+00 -0.12508651456E+04  0.12508651456E+04  0.00000000000E+00 0.  1.
         25    2    1    2    0    0 -0.12426287018E+03  0.12044725207E+03 -0.76707312142E+03  0.79622538911E+03  0.12499958087E+03 0.  0.
          4    1    3    3  502    0 -0.31394212550E+02  0.90666661849E+02 -0.54915923189E+03  0.55747960951E+03  0.12700000000E+01 0.  1.
         -4    1    3    3    0  502 -0.92868657632E+02  0.29780590221E+02 -0.21791388954E+03  0.23874577960E+03  0.12700000000E+01 0.  1.
          2    1    1    2  503    0 -0.14772468237E+02  0.30714451628E+02  0.14224830476E+03  0.14627434349E+03  0.00000000000E+00 0. -1.
         -2    1    1    2    0  501  0.13903533842E+03 -0.15116170370E+03 -0.44463200903E+03  0.48977373291E+03  0.00000000000E+00 0.  1.
<mgrwt>
<rscale>  0 0.79548062E+02</rscale>
<asrwt>0</asrwt>
<pdfrwt beam="1">  1        1 0.27908973E-01 0.34082303E+02</pdfrwt>
<pdfrwt beam="2">  1       -1 0.19244078E+00 0.18566510E+03</pdfrwt>
<totfact> 0.30979806E+01</totfact>
</mgrwt>
</event>
<event>
 7    1  0.4252091E-004  0.8416076E+02  0.7546771E-02  0.1413462E+00
          2   -1    0    0  503    0  0.00000000000E+00  0.00000000000E+00  0.11905627249E+04  0.11905627249E+04  0.00000000000E+00 0. -1.
         -2   -1    0    0    0  501 -0.00000000000E+00 -0.00000000000E+00 -0.25402295454E+03  0.25402295454E+03  0.00000000000E+00 0.  1.
         25    2    1    2    0    0  0.15316834222E+02 -0.10195082207E+03  0.75515703901E+02  0.17877305274E+03  0.12501442844E+03 0.  0.
          4    1    3    3  502    0  0.62606123967E+02 -0.67025326022E+02  0.77285949554E+02  0.11994437038E+03  0.12700000000E+01 0.  1.
         -4    1    3    3    0  502 -0.47289289745E+02 -0.34925496048E+02 -0.17702456532E+01  0.58828682363E+02  0.12700000000E+01 0.  1.
          1    1    1    2  503    0  0.16852455146E+02  0.82036422891E+02  0.10599839657E+04  0.10632873494E+04  0.00000000000E+00 0. -1.
         -1    1    1    2    0  501 -0.32169289368E+02  0.19914399180E+02 -0.19895989918E+03  0.20252527732E+03  0.00000000000E+00 0.  1.
<mgrwt>
<rscale>  0 0.56428512E+02</rscale>
<asrwt>0</asrwt>
<pdfrwt beam="1">  1        2 0.18316349E+00 0.84160758E+02</pdfrwt>
<pdfrwt beam="2">  1       -2 0.39080455E-01 0.37834461E+02</pdfrwt>
<totfact> 0.13389475E+02</totfact>
</mgrwt>
</event>
<event>
 7    1  0.4252091E-004  0.1467116E+03  0.7546771E-02  0.1325702E+00
          2   -1    0    0  503    0  0.00000000000E+00  0.00000000000E+00  0.23626166604E+04  0.23626166604E+04  0.00000000000E+00 0. -1.
         -2   -1    0    0    0  501 -0.00000000000E+00 -0.00000000000E+00 -0.34492015019E+03  0.34492015019E+03  0.00000000000E+00 0.  1.
         25    2    1    2    0    0 -0.20198922904E+02  0.13019813934E+03 -0.18018390416E+02  0.18251283547E+03  0.12500688279E+03 0.  0.
          4    1    3    3  502    0 -0.13943444448E+02  0.13949056705E+03 -0.49813322851E+02  0.14877841904E+03  0.12700000000E+01 0.  1.
         -4    1    3    3    0  502 -0.62554784563E+01 -0.92924277106E+01  0.31794932435E+02  0.33734416432E+02  0.12700000000E+01 0.  1.
          1    1    1    2  503    0 -0.22030091614E+02 -0.14554898239E+03  0.22759082745E+04  0.22806640053E+04  0.00000000000E+00 0. -1.
         -1    1    1    2    0  501  0.42229014518E+02  0.15350843050E+02 -0.24019337382E+03  0.24435996987E+03  0.00000000000E+00 0.  1.
<mgrwt>
<rscale>  0 0.81191948E+02</rscale>
<asrwt>0</asrwt>
<pdfrwt beam="1">  1        2 0.36347948E+00 0.14671159E+03</pdfrwt>
<pdfrwt beam="2">  1       -2 0.53064640E-01 0.44932595E+02</pdfrwt>
<totfact> 0.17771431E+01</totfact>
</mgrwt>
</event>
<event>
 7    1  0.4252091E-004  0.6248137E+02  0.7546771E-02  0.1462718E+00
          2   -1    0    0  503    0  0.00000000000E+00  0.00000000000E+00  0.14922223181E+04  0.14922223181E+04  0.00000000000E+00 0. -1.
          1   -1    0    0  502    0 -0.00000000000E+00 -0.00000000000E+00 -0.21798390962E+03  0.21798390962E+03  0.00000000000E+00 0. -1.
         25    2    1    2    0    0  0.46889879474E+02  0.23947357314E+02  0.38797885034E+03  0.41100729268E+03  0.12500907809E+03 0.  0.
          4    1    3    3  501    0  0.84915987982E+02  0.39330689396E+02  0.29170530279E+03  0.30635147252E+03  0.12700000000E+01 0.  1.
         -4    1    3    3    0  501 -0.38026108507E+02 -0.15383332082E+02  0.96273547548E+02  0.10465582015E+03  0.12700000000E+01 0.  1.
          2    1    1    2  502    0  0.16664102597E+02 -0.31039037928E+02 -0.20402317052E+03  0.20704243116E+03  0.00000000000E+00 0. -1.
          1    1    1    2  503    0 -0.63553982071E+02  0.70916806143E+01  0.10902827286E+04  0.10921565039E+04  0.00000000000E+00 0. -1.
<mgrwt>
<rscale>  0 0.46916781E+02</rscale>
<asrwt>0</asrwt>
<pdfrwt beam="1">  1        2 0.22957266E+00 0.62481370E+02</pdfrwt>
<pdfrwt beam="2">  1        1 0.33535987E-01 0.35229451E+02</pdfrwt>
<totfact> 0.26970253E+02</totfact>
</mgrwt>
</event>
<event>
 7    1  0.4252091E-004  0.6946426E+02  0.7546771E-02  0.1389163E+00
          2   -1    0    0  503    0  0.00000000000E+00  0.00000000000E+00  0.23833981312E+04  0.23833981312E+04  0.00000000000E+00 0. -1.
          1   -1    0    0  502    0 -0.00000000000E+00 -0.00000000000E+00 -0.39986912412E+02  0.39986912412E+02  0.00000000000E+00 0. -1.
         25    2    1    2    0    0  0.24500521401E+02  0.12363031643E+01  0.53532580410E+03  0.55027291944E+03  0.12499906134E+03 0.  0.
          4    1    3    3  501    0 -0.27053123627E+02 -0.25274510510E+02  0.41556969239E+03  0.41721751462E+03  0.12700000000E+01 0. -1.
         -4    1    3    3    0  501  0.51553645028E+02  0.26510813674E+02  0.11975611172E+03  0.13305540482E+03  0.12700000000E+01 0. -1.
          2    1    1    2  502    0 -0.56598479601E+02 -0.46566626922E+02  0.97723074460E+01  0.73941440539E+02  0.00000000000E+00 0. -1.
          1    1    1    2  503    0  0.32097958200E+02  0.45330323758E+02  0.17983131072E+04  0.17991706836E+04  0.00000000000E+00 0. -1.
<mgrwt>
<rscale>  0 0.62115304E+02</rscale>
<asrwt>0</asrwt>
<pdfrwt beam="1">  1        2 0.36667653E+00 0.55543831E+02</pdfrwt>
<pdfrwt beam="2">  1        1 0.61518345E-02 0.69464257E+02</pdfrwt>
<totfact> 0.86437278E+02</totfact>
</mgrwt>
</event>
<event>
 7    1  0.4252091E-004  0.6919520E+02  0.7546771E-02  0.1457406E+00
          2   -1    0    0  503    0  0.00000000000E+00  0.00000000000E+00  0.54470328610E+03  0.54470328610E+03  0.00000000000E+00 0. -1.
          1   -1    0    0  502    0 -0.00000000000E+00 -0.00000000000E+00 -0.73057193998E+03  0.73057193998E+03  0.00000000000E+00 0. -1.
         25    2    1    2    0    0  0.23742313247E+02  0.42489104780E+02 -0.35298870638E+02  0.13875413872E+03  0.12505070684E+03 0.  0.
          4    1    3    3  501    0  0.55804941244E+02  0.70802428134E+02 -0.32611623521E+02  0.95876515297E+02  0.12700000000E+01 0. -1.
         -4    1    3    3    0  501 -0.32062627997E+02 -0.28313323354E+02 -0.26872471171E+01  0.42877623424E+02  0.12700000000E+01 0. -1.
          2    1    1    2  502    0 -0.52805715908E+01 -0.69917346023E+02 -0.64107740692E+03  0.64490042749E+03  0.00000000000E+00 0. -1.
          1    1    1    2  503    0 -0.18461741656E+02  0.27428241244E+02  0.49050762368E+03  0.49162065987E+03  0.00000000000E+00 0. -1.
<mgrwt>
<rscale>  0 0.47830768E+02</rscale>
<asrwt>0</asrwt>
<pdfrwt beam="1">  1        2 0.83800505E-01 0.33062733E+02</pdfrwt>
<pdfrwt beam="2">  1        1 0.11239568E+00 0.69195198E+02</pdfrwt>
<totfact> 0.22515483E+02</totfact>
</mgrwt>
</event>
<event>
 7    1  0.4252091E-004  0.5138127E+02  0.7546771E-02  0.1485491E+00
         -1   -1    0    0    0  501 -0.00000000000E+00  0.00000000000E+00  0.13015960395E+04  0.13015960395E+04  0.00000000000E+00 0.  1.
          1   -1    0    0  503    0  0.00000000000E+00 -0.00000000000E+00 -0.40562148365E+02  0.40562148365E+02  0.00000000000E+00 0. -1.
         25    2    1    2    0    0  0.10601959286E+02  0.21947261950E+02  0.15827188390E+03  0.20315177914E+03  0.12500628898E+03 0.  0.
          4    1    3    3  502    0 -0.17539471017E+02  0.62035430413E+02  0.13348515548E+03  0.14824279849E+03  0.12700000000E+01 0.  1.
         -4    1    3    3    0  502  0.28141430303E+02 -0.40088168463E+02  0.24786728428E+02  0.54908980653E+02  0.12700000000E+01 0.  1.
          2    1    1    2  503    0 -0.85568894200E+01 -0.58315895710E+02  0.30943761549E+02  0.66569365536E+02  0.00000000000E+00 0. -1.
         -2    1    1    2    0  501 -0.20450698655E+01  0.36368633760E+02  0.10718182457E+04  0.10724370432E+04  0.00000000000E+00 0.  1.
<mgrwt>
<rscale>  0 0.43262207E+02</rscale>
<asrwt>0</asrwt>
<pdfrwt beam="2">  1        1 0.62403315E-02 0.51381268E+02</pdfrwt>
<pdfrwt beam="1">  1       -1 0.20024551E+00 0.36426087E+02</pdfrwt>
<totfact> 0.21276861E+02</totfact>
</mgrwt>
</event>
<event>
 7    1  0.4252091E-004  0.1116699E+03  0.7546771E-02  0.1289159E+00
          2   -1    0    0  503    0  0.00000000000E+00  0.00000000000E+00  0.30256463160E+04  0.30256463160E+04  0.00000000000E+00 0. -1.
          1   -1    0    0  502    0 -0.00000000000E+00 -0.00000000000E+00 -0.93697511335E+03  0.93697511335E+03  0.00000000000E+00 0. -1.
         25    2    1    2    0    0  0.16955098926E+02  0.17061164547E+03  0.17528178957E+02  0.21290646862E+03  0.12500447340E+03 0.  0.
          4    1    3    3  501    0  0.32573377604E+02  0.30875633227E+02  0.51423930008E+02  0.68266852374E+02  0.12700000000E+01 0. -1.
         -4    1    3    3    0  501 -0.15618278677E+02  0.13973601224E+03 -0.33895751051E+02  0.14463961624E+03  0.12700000000E+01 0. -1.
          2    1    1    2  502    0 -0.50898159169E+02 -0.64748812597E+02 -0.83620057321E+03  0.84024664829E+03  0.00000000000E+00 0. -1.
          1    1    1    2  503    0  0.33943060243E+02 -0.10586283287E+03  0.29073435969E+04  0.29094683124E+04  0.00000000000E+00 0. -1.
<mgrwt>
<rscale>  0 0.95901190E+02</rscale>
<asrwt>0</asrwt>
<pdfrwt beam="1">  1        2 0.46548404E+00 0.11166989E+03</pdfrwt>
<pdfrwt beam="2">  1        1 0.14415002E+00 0.82359161E+02</pdfrwt>
<totfact> 0.60821329E+00</totfact>
</mgrwt>
</event>
<event>
 7    1  0.4252091E-004  0.7625358E+02  0.7546771E-02  0.1405744E+00
         -1   -1    0    0    0  502 -0.00000000000E+00  0.00000000000E+00  0.38609681170E+03  0.38609681170E+03  0.00000000000E+00 0.  1.
         -2   -1    0    0    0  501  0.00000000000E+00 -0.00000000000E+00 -0.15324889931E+03  0.15324889931E+03  0.00000000000E+00 0.  1.
         25    2    1    2    0    0  0.80906084871E+02  0.17178165247E+02  0.68945763943E+02  0.16498483278E+03  0.12500237098E+03 0.  0.
          4    1    3    3  503    0 -0.22663212656E+02 -0.88186564377E+01  0.51246840486E+02  0.56738359767E+02  0.12700000000E+01 0. -1.
         -4    1    3    3    0  503  0.10356929753E+03  0.25996821685E+02  0.17698923457E+02  0.10824647301E+03  0.12700000000E+01 0. -1.
         -2    1    1    2    0  502 -0.55254276348E+02 -0.53358529514E+02  0.25861334497E+03  0.26977959508E+03  0.00000000000E+00 0.  1.
         -3    1    1    2    0  501 -0.25651808522E+02  0.36180364267E+02 -0.94711196521E+02  0.10458128315E+03  0.00000000000E+00 0.  1.
<mgrwt>
<rscale>  0 0.58154469E+02</rscale>
<asrwt>0</asrwt>
<pdfrwt beam="2">  1       -2 0.23576754E-01 0.44351257E+02</pdfrwt>
<pdfrwt beam="1">  1       -1 0.59399509E-01 0.76253583E+02</pdfrwt>
<totfact> 0.33468029E+02</totfact>
</mgrwt>
</event>
<event>
 7    1  0.4252091E-004  0.4192246E+02  0.7546771E-02  0.1569959E+00
          2   -1    0    0  503    0  0.00000000000E+00  0.00000000000E+00  0.95456158035E+03  0.95456158035E+03  0.00000000000E+00 0. -1.
          1   -1    0    0  502    0 -0.00000000000E+00 -0.00000000000E+00 -0.14113337004E+03  0.14113337004E+03  0.00000000000E+00 0. -1.
         25    2    1    2    0    0 -0.59434582527E+02 -0.27369292456E+02 -0.19672349789E+02  0.14245382321E+03  0.12499817051E+03 0.  0.
          4    1    3    3  501    0 -0.97183165374E+02 -0.33536585980E+02 -0.13858871323E+02  0.10374464538E+03  0.12700000000E+01 0.  1.
         -4    1    3    3    0  501  0.37748582847E+02  0.61672935235E+01 -0.58134784658E+01  0.38709177829E+02  0.12700000000E+01 0.  1.
          2    1    1    2  502    0  0.25309268976E+02  0.32527981699E+01 -0.56847829457E+02  0.62312242024E+02  0.00000000000E+00 0. -1.
          1    1    1    2  503    0  0.34125313551E+02  0.24116494286E+02  0.88994838956E+03  0.89092888515E+03  0.00000000000E+00 0. -1.
<mgrwt>
<rscale>  0 0.32707094E+02</rscale>
<asrwt>0</asrwt>
<pdfrwt beam="1">  1        2 0.14685562E+00 0.41922463E+02</pdfrwt>
<pdfrwt beam="2">  1        1 0.21712827E-01 0.25517441E+02</pdfrwt>
<totfact> 0.88125282E+02</totfact>
</mgrwt>
</event>
<event>
 7    1  0.4252091E-004  0.9158869E+02  0.7546771E-02  0.1402297E+00
          2   -1    0    0  503    0  0.00000000000E+00  0.00000000000E+00  0.13746233142E+04  0.13746233142E+04  0.00000000000E+00 0. -1.
          1   -1    0    0  502    0 -0.00000000000E+00 -0.00000000000E+00 -0.81519100340E+02  0.81519100340E+02  0.00000000000E+00 0. -1.
         25    2    1    2    0    0 -0.77527987087E+02  0.66998302145E+02  0.20821616906E+03  0.26358580811E+03  0.12499657557E+03 0.  0.
          4    1    3    3  501    0 -0.18821213197E+02 -0.85383328549E+00 -0.14280971328E+02  0.23675433249E+02  0.12700000000E+01 0.  1.
         -4    1    3    3    0  501 -0.58706773890E+02  0.67852135431E+02  0.22249714039E+03  0.23991037486E+03  0.12700000000E+01 0.  1.
          2    1    1    2  502    0  0.85724146120E+02 -0.29953410280E+02 -0.14980405894E+02  0.92033953388E+02  0.00000000000E+00 0. -1.
          1    1    1    2  503    0 -0.81961590336E+01 -0.37044891865E+02  0.10998684507E+04  0.11005226531E+04  0.00000000000E+00 0. -1.
<mgrwt>
<rscale>  0 0.58948657E+02</rscale>
<asrwt>0</asrwt>
<pdfrwt beam="1">  1        2 0.21148049E+00 0.37940757E+02</pdfrwt>
<pdfrwt beam="2">  1        1 0.12541401E-01 0.91588689E+02</pdfrwt>
<totfact> 0.11258713E+03</totfact>
</mgrwt>
</event>
<event>
 7    1  0.4252091E-004  0.1635010E+03  0.7546771E-02  0.1307569E+00
          2   -1    0    0  503    0  0.00000000000E+00  0.00000000000E+00  0.27550521244E+04  0.27550521244E+04  0.00000000000E+00 0. -1.
          1   -1    0    0  502    0 -0.00000000000E+00 -0.00000000000E+00 -0.11949030691E+03  0.11949030691E+03  0.00000000000E+00 0. -1.
         25    2    1    2    0    0 -0.42278130388E+02  0.12503547154E+03  0.42361415718E+03  0.46097201923E+03  0.12499975559E+03 0.  0.
          4    1    3    3  501    0 -0.18217396345E+02  0.90802209070E+01  0.24988045195E+03  0.25071134220E+03  0.12700000000E+01 0. -1.
         -4    1    3    3    0  501 -0.24060734043E+02  0.11595525064E+03  0.17373370523E+03  0.21026067703E+03  0.12700000000E+01 0. -1.
          2    1    1    2  502    0  0.84791642192E+02 -0.14610870244E+03 -0.29614367655E+02  0.17150622812E+03  0.00000000000E+00 0. -1.
          1    1    1    2  503    0 -0.42513511804E+02  0.21073230893E+02  0.22415620279E+04  0.22420641839E+04  0.00000000000E+00 0. -1.
<mgrwt>
<rscale>  0 0.88079983E+02</rscale>
<asrwt>0</asrwt>
<pdfrwt beam="1">  1        2 0.42385412E+00 0.47449760E+02</pdfrwt>
<pdfrwt beam="2">  1        1 0.18383126E-01 0.16350100E+03</pdfrwt>
<totfact> 0.14263984E+02</totfact>
</mgrwt>
</event>
<event>
 7    1  0.4252091E-004  0.1421913E+03  0.7546771E-02  0.1335745E+00
          2   -1    0    0  503    0  0.00000000000E+00  0.00000000000E+00  0.22804730126E+04  0.22804730126E+04  0.00000000000E+00 0. -1.
         -2   -1    0    0    0  501 -0.00000000000E+00 -0.00000000000E+00 -0.12120604925E+04  0.12120604925E+04  0.00000000000E+00 0.  1.
         25    2    1    2    0    0  0.34598549713E+02 -0.95765794978E+02  0.14792889020E+03  0.21880558779E+03  0.12499912624E+03 0.  0.
          4    1    3    3  502    0  0.29330269328E+02 -0.12902020247E+01 -0.12986187587E+02  0.32127609437E+02  0.12700000000E+01 0. -1.
         -4    1    3    3    0  502  0.52682803848E+01 -0.94475592954E+02  0.16091507779E+03  0.18667797835E+03  0.12700000000E+01 0. -1.
          1    1    1    2  503    0  0.24642095603E+02 -0.34559437954E+02  0.20925353197E+04  0.20929657550E+04  0.00000000000E+00 0. -1.
         -1    1    1    2    0  501 -0.59240645316E+02  0.13032523293E+03 -0.11720516897E+04  0.11807621623E+04  0.00000000000E+00 0.  1.
<mgrwt>
<rscale>  0 0.77687360E+02</rscale>
<asrwt>0</asrwt>
<pdfrwt beam="1">  1        2 0.35084200E+00 0.42445113E+02</pdfrwt>
<pdfrwt beam="2">  1       -2 0.18647085E+00 0.14219130E+03</pdfrwt>
<totfact> 0.12394775E+00</totfact>
</mgrwt>
</event>
<event>
 7    1  0.4252091E-004  0.9262646E+02  0.7546771E-02  0.1314279E+00
          1   -1    0    0  502    0 -0.00000000000E+00  0.00000000000E+00  0.40595032710E+03  0.40595032710E+03  0.00000000000E+00 0. -1.
          2   -1    0    0  503    0  0.00000000000E+00 -0.00000000000E+00 -0.10194781191E+04  0.10194781191E+04  0.00000000000E+00 0. -1.
         25    2    1    2    0    0 -0.36435261193E+02  0.10902544404E+02 -0.33833894816E+03  0.36269116364E+03  0.12500097043E+03 0.  0.
          4    1    3    3  501    0 -0.59861947989E+02  0.51351540608E+02 -0.16091146844E+03  0.17920532111E+03  0.12700000000E+01 0. -1.
         -4    1    3    3    0  501  0.23426686796E+02 -0.40448996203E+02 -0.17742747971E+03  0.18348584252E+03  0.12700000000E+01 0. -1.
          2    1    1    2  502    0  0.31999460067E+02  0.86923507665E+02  0.38466324697E+03  0.39565828084E+03  0.00000000000E+00 0. -1.
          1    1    1    2  503    0  0.44358011263E+01 -0.97826052070E+02 -0.65985209084E+03  0.66707900176E+03  0.00000000000E+00 0. -1.
<mgrwt>
<rscale>  0 0.85442467E+02</rscale>
<asrwt>0</asrwt>
<pdfrwt beam="2">  1        2 0.15684279E+00 0.78815652E+02</pdfrwt>
<pdfrwt beam="1">  1        1 0.62453897E-01 0.92626463E+02</pdfrwt>
<totfact> 0.22479664E+02</totfact>
</mgrwt>
</event>
<event>
 7    1  0.4252091E-004  0.6900890E+02  0.7546771E-02  0.1364593E+00
          1   -1    0    0  502    0 -0.00000000000E+00  0.00000000000E+00  0.37647960560E+03  0.37647960560E+03  0.00000000000E+00 0. -1.
          2   -1    0    0  503    0  0.00000000000E+00 -0.00000000000E+00 -0.47329163065E+03  0.47329163065E+03  0.00000000000E+00 0. -1.
         25    2    1    2    0    0  0.63688315949E+01 -0.23368463412E+02 -0.18936563466E+03  0.22819079436E+03  0.12500019177E+03 0.  0.
          4    1    3    3  501    0 -0.40009411264E+02  0.72615609502E+01 -0.16044752555E+03  0.16552493653E+03  0.12700000000E+01 0.  1.
         -4    1    3    3    0  501  0.46378242859E+02 -0.30630024363E+02 -0.28918109105E+02  0.62665857828E+02  0.12700000000E+01 0.  1.
          2    1    1    2  502    0  0.61147767610E+02  0.34197250980E+02  0.34910857310E+03  0.35606923101E+03  0.00000000000E+00 0. -1.
          1    1    1    2  503    0 -0.67516599205E+02 -0.10828787568E+02 -0.25655496350E+03  0.26551121088E+03  0.00000000000E+00 0. -1.
<mgrwt>
<rscale>  0 0.68693470E+02</rscale>
<asrwt>0</asrwt>
<pdfrwt beam="2">  1        2 0.72814097E-01 0.68379484E+02</pdfrwt>
<pdfrwt beam="1">  1        1 0.57919940E-01 0.69008897E+02</pdfrwt>
<totfact> 0.61011482E+02</totfact>
</mgrwt>
</event>
<event>
 7    1  0.4252091E-004  0.7805104E+02  0.7546771E-02  0.1472280E+00
          1   -1    0    0  503    0  0.00000000000E+00  0.00000000000E+00  0.18914743070E+03  0.18914743070E+03  0.00000000000E+00 0. -1.
         -1   -1    0    0    0  501 -0.00000000000E+00 -0.00000000000E+00 -0.29880711636E+03  0.29880711636E+03  0.00000000000E+00 0.  1.
         25    2    1    2    0    0 -0.93236690257E+02 -0.43223206356E+02  0.71836509115E+02  0.17704674756E+03  0.12499496311E+03 0.  0.
          4    1    3    3  502    0  0.27736429470E+02 -0.18249964965E+02 -0.17274643663E+01  0.33271125230E+02  0.12700000000E+01 0.  1.
         -4    1    3    3    0  502 -0.12097311973E+03 -0.24973241391E+02  0.73563973481E+02  0.14377562233E+03  0.12700000000E+01 0.  1.
          2    1    1    2  503    0  0.21920773247E+02  0.14583480175E+02  0.55680094595E+02  0.61591161118E+02  0.00000000000E+00 0. -1.
         -2    1    1    2    0  501  0.71315917010E+02  0.28639726180E+02 -0.23717628937E+03  0.24931663838E+03  0.00000000000E+00 0.  1.
<mgrwt>
<rscale>  0 0.45331878E+02</rscale>
<asrwt>0</asrwt>
<pdfrwt beam="1">  1        1 0.29099605E-01 0.26328657E+02</pdfrwt>
<pdfrwt beam="2">  1       -1 0.45970325E-01 0.78051042E+02</pdfrwt>
<totfact> 0.72398725E+02</totfact>
</mgrwt>
</event>
<event>
 7    1  0.4252091E-004  0.1028496E+03  0.7546771E-02  0.1342111E+00
          1   -1    0    0  502    0 -0.00000000000E+00  0.00000000000E+00  0.26419185936E+02  0.26419185936E+02  0.00000000000E+00 0. -1.
          2   -1    0    0  503    0  0.00000000000E+00 -0.00000000000E+00 -0.26664332950E+04  0.26664332950E+04  0.00000000000E+00 0. -1.
         25    2    1    2    0    0  0.12699734563E+02 -0.80090185635E+02 -0.19071648128E+04  0.19129764597E+04  0.12500236298E+03 0.  0.
          4    1    3    3  501    0 -0.36757493477E+02 -0.40832264826E+02 -0.32975498131E+03  0.33430277859E+03  0.12700000000E+01 0. -1.
         -4    1    3    3    0  501  0.49457228040E+02 -0.39257920810E+02 -0.15774098315E+04  0.15786736811E+04  0.12700000000E+01 0. -1.
          2    1    1    2  502    0 -0.68227105453E+02  0.79809528470E+02 -0.10132505139E+03  0.14591526579E+03  0.00000000000E+00 0. -1.
          1    1    1    2  503    0  0.55527370890E+02  0.28065716582E+00 -0.63152424479E+03  0.63396075544E+03  0.00000000000E+00 0. -1.
<mgrwt>
<rscale>  0 0.75571432E+02</rscale>
<asrwt>0</asrwt>
<pdfrwt beam="2">  1        2 0.41022051E+00 0.55528080E+02</pdfrwt>
<pdfrwt beam="1">  1        1 0.40644901E-02 0.10284961E+03</pdfrwt>
<totfact> 0.11206071E+03</totfact>
</mgrwt>
</event>
<event>
 7    1  0.4252091E-004  0.4106699E+02  0.7546771E-02  0.1567107E+00
          2   -1    0    0  503    0  0.00000000000E+00  0.00000000000E+00  0.12087259610E+04  0.12087259610E+04  0.00000000000E+00 0. -1.
         -2   -1    0    0    0  501 -0.00000000000E+00 -0.00000000000E+00 -0.13874733635E+02  0.13874733635E+02  0.00000000000E+00 0.  1.
         25    2    1    2    0    0 -0.50962059730E+02  0.41420542100E+02  0.57281939133E+03  0.58996659265E+03  0.12500293004E+03 0.  0.
          4    1    3    3  502    0  0.15778370616E+01 -0.42278472326E+02  0.17872359685E+03  0.18366735083E+03  0.12700000000E+01 0. -1.
         -4    1    3    3    0  502 -0.52539896792E+02  0.83699014426E+02  0.39409579448E+03  0.40629924182E+03  0.12700000000E+01 0. -1.
          1    1    1    2  503    0  0.29644682283E+02 -0.25646795821E+02  0.58886872729E+03  0.59017196079E+03  0.00000000000E+00 0. -1.
         -1    1    1    2    0  501  0.21317377447E+02 -0.15773746279E+02  0.33163108725E+02  0.42462141175E+02  0.00000000000E+00 0.  1.
<mgrwt>
<rscale>  0 0.33000658E+02</rscale>
<asrwt>0</asrwt>
<pdfrwt beam="1">  1        2 0.18595776E+00 0.41066992E+02</pdfrwt>
<pdfrwt beam="2">  1       -2 0.21345754E-02 0.26518704E+02</pdfrwt>
<totfact> 0.11366452E+04</totfact>
</mgrwt>
</event>
<event>
 7    1  0.4252091E-004  0.9252941E+02  0.7546771E-02  0.1355741E+00
         -1   -1    0    0    0  501 -0.00000000000E+00  0.00000000000E+00  0.19215439716E+03  0.19215439716E+03  0.00000000000E+00 0.  1.
          1   -1    0    0  503    0  0.00000000000E+00 -0.00000000000E+00 -0.16139905484E+04  0.16139905484E+04  0.00000000000E+00 0. -1.
         25    2    1    2    0    0 -0.44498679158E+02 -0.13829425671E+03 -0.30829110032E+03  0.36300579499E+03  0.12499748308E+03 0.  0.
          4    1    3    3  502    0  0.25187600155E+02 -0.60203344982E+02 -0.43933766626E+02  0.78680662800E+02  0.12700000000E+01 0.  1.
         -4    1    3    3    0  502 -0.69686279314E+02 -0.78090911726E+02 -0.26435733369E+03  0.28432513219E+03  0.12700000000E+01 0.  1.
          2    1    1    2  503    0  0.20552082620E+02  0.50945744565E+02 -0.12652565170E+04  0.12664485425E+04  0.00000000000E+00 0. -1.
         -2    1    1    2    0  501  0.23946596539E+02  0.87348512143E+02  0.15171146605E+03  0.17669060810E+03  0.00000000000E+00 0.  1.
<mgrwt>
<rscale>  0 0.71295900E+02</rscale>
<asrwt>0</asrwt>
<pdfrwt beam="2">  1        1 0.24830625E+00 0.54935025E+02</pdfrwt>
<pdfrwt beam="1">  1       -1 0.29562214E-01 0.92529409E+02</pdfrwt>
<totfact> 0.73696206E+01</totfact>
</mgrwt>
</event>
<event>
 7    1  0.4252091E-004  0.1231496E+03  0.7546771E-02  0.1252256E+00
          2   -1    0    0  503    0  0.00000000000E+00  0.00000000000E+00  0.81687747247E+03  0.81687747247E+03  0.00000000000E+00 0. -1.
          1   -1    0    0  502    0 -0.00000000000E+00 -0.00000000000E+00 -0.49602276517E+03  0.49602276517E+03  0.00000000000E+00 0. -1.
         25    2    1    2    0    0  0.22994018090E+02  0.12335195716E+02  0.16552185537E+03  0.20905406169E+03  0.12500093673E+03 0.  0.
          4    1    3    3  501    0  0.34509244717E+02 -0.33354872953E+02  0.13471434259E+02  0.49865097630E+02  0.12700000000E+01 0. -1.
         -4    1    3    3    0  501 -0.11515226626E+02  0.45690068669E+02  0.15205042111E+03  0.15918896406E+03  0.12700000000E+01 0. -1.
          2    1    1    2  502    0  0.51277033589E+01  0.12304275638E+03 -0.45843963592E+03  0.47469222978E+03  0.00000000000E+00 0. -1.
          1    1    1    2  503    0 -0.28121721449E+02 -0.13537795209E+03  0.61377248785E+03  0.62915394616E+03  0.00000000000E+00 0. -1.
<mgrwt>
<rscale>  0 0.11461422E+03</rscale>
<asrwt>0</asrwt>
<pdfrwt beam="1">  1        2 0.12567346E+00 0.10667045E+03</pdfrwt>
<pdfrwt beam="2">  1        1 0.76311195E-01 0.12314956E+03</pdfrwt>
<totfact> 0.22778828E+02</totfact>
</mgrwt>
</event>
<event>
 7    1  0.4252091E-004  0.2657676E+02  0.7546771E-02  0.1655114E+00
          2   -1    0    0  503    0  0.00000000000E+00  0.00000000000E+00  0.19901006299E+03  0.19901006299E+03  0.00000000000E+00 0. -1.
          1   -1    0    0  502    0 -0.00000000000E+00 -0.00000000000E+00 -0.16107468635E+03  0.16107468635E+03  0.00000000000E+00 0. -1.
         25    2    1    2    0    0 -0.12984210888E+02  0.21255672319E+02 -0.68175909122E+02  0.14454497494E+03  0.12499960743E+03 0.  0.
          4    1    3    3  501    0  0.55701252331E+02  0.16068111821E+01 -0.34527036002E+02  0.65566305893E+02  0.12700000000E+01 0. -1.
         -4    1    3    3    0  501 -0.68685463219E+02  0.19648861137E+02 -0.33648873120E+02  0.78978669043E+02  0.12700000000E+01 0. -1.
          2    1    1    2  502    0 -0.13699886903E+02 -0.20074513527E+02 -0.50830157856E+02  0.56341618207E+02  0.00000000000E+00 0. -1.
          1    1    1    2  503    0  0.26684097791E+02 -0.11811587918E+01  0.15694144362E+03  0.15919815620E+03  0.00000000000E+00 0. -1.
<mgrwt>
<rscale>  0 0.25414863E+02</rscale>
<asrwt>0</asrwt>
<pdfrwt beam="1">  1        2 0.30616933E-01 0.26576758E+02</pdfrwt>
<pdfrwt beam="2">  1        1 0.24780721E-01 0.24303765E+02</pdfrwt>
<totfact> 0.39413052E+03</totfact>
</mgrwt>
</event>
<event>
 7    1  0.4252091E-004  0.5388838E+02  0.7546771E-02  0.1506490E+00
          2   -1    0    0  503    0  0.00000000000E+00  0.00000000000E+00  0.48706813458E+02  0.48706813458E+02  0.00000000000E+00 0. -1.
          1   -1    0    0  502    0 -0.00000000000E+00 -0.00000000000E+00 -0.83185108041E+03  0.83185108041E+03  0.00000000000E+00 0. -1.
         25    2    1    2    0    0 -0.28483487116E+01  0.52762652753E+02 -0.30885898592E+03  0.33736359003E+03  0.12501323161E+03 0.  0.
          4    1    3    3  501    0 -0.13655029187E+02  0.36007773811E+02 -0.31430385973E+03  0.31665683118E+03  0.12700000000E+01 0. -1.
         -4    1    3    3    0  501  0.10806680476E+02  0.16754878942E+02  0.54448738032E+01  0.20706758849E+02  0.12700000000E+01 0. -1.
          2    1    1    2  502    0 -0.26778577301E+02 -0.47794190256E+02 -0.50039969669E+03  0.50338974292E+03  0.00000000000E+00 0. -1.
          1    1    1    2  503    0  0.29626926013E+02 -0.49684624975E+01  0.26114415662E+02  0.39804560919E+02  0.00000000000E+00 0. -1.
<mgrwt>
<rscale>  0 0.40234833E+02</rscale>
<asrwt>0</asrwt>
<pdfrwt beam="1">  1        2 0.74933558E-02 0.30040645E+02</pdfrwt>
<pdfrwt beam="2">  1        1 0.12797709E+00 0.53888383E+02</pdfrwt>
<totfact> 0.24897877E+03</totfact>
</mgrwt>
</event>
<event>
 7    1  0.4252091E-004  0.3818599E+02  0.7546771E-02  0.1539540E+00
          1   -1    0    0  502    0 -0.00000000000E+00  0.00000000000E+00  0.61183728661E+03  0.61183728661E+03  0.00000000000E+00 0. -1.
          2   -1    0    0  503    0  0.00000000000E+00 -0.00000000000E+00 -0.47492349324E+03  0.47492349324E+03  0.00000000000E+00 0. -1.
         25    2    1    2    0    0 -0.24813568128E+02 -0.78750934754E+01  0.10159230145E+03  0.16316626759E+03  0.12499801960E+03 0.  0.
          4    1    3    3  501    0 -0.54056030565E+02  0.13768082828E+01 -0.29907536822E+01  0.54171095144E+02  0.12700000000E+01 0. -1.
         -4    1    3    3    0  501  0.29242462437E+02 -0.92519017581E+01  0.10458305513E+03  0.10899517245E+03  0.12700000000E+01 0. -1.
          2    1    1    2  502    0  0.28921802168E+02 -0.25893688015E+02  0.47801863530E+03  0.47959229499E+03  0.00000000000E+00 0. -1.
          1    1    1    2  503    0 -0.41082340404E+01  0.33768781491E+02 -0.44269714337E+03  0.44400221727E+03  0.00000000000E+00 0. -1.
<mgrwt>
<rscale>  0 0.36041670E+02</rscale>
<asrwt>0</asrwt>
<pdfrwt beam="2">  1        2 0.73065153E-01 0.34017763E+02</pdfrwt>
<pdfrwt beam="1">  1        1 0.94128813E-01 0.38185990E+02</pdfrwt>
<totfact> 0.33744915E+02</totfact>
</mgrwt>
</event>
<event>
 7    1  0.4252091E-004  0.5262954E+02  0.7546771E-02  0.1479778E+00
          1   -1    0    0  502    0 -0.00000000000E+00  0.00000000000E+00  0.53925885608E+03  0.53925885608E+03  0.00000000000E+00 0. -1.
          2   -1    0    0  503    0  0.00000000000E+00 -0.00000000000E+00 -0.13494856825E+04  0.13494856825E+04  0.00000000000E+00 0. -1.
         25    2    1    2    0    0  0.17468459821E+02  0.85820075369E+02 -0.40638452728E+03  0.43410106729E+03  0.12500048071E+03 0.  0.
          4    1    3    3  501    0  0.55370318248E+02  0.18318423286E+02 -0.27899215517E+03  0.28502573975E+03  0.12700000000E+01 0. -1.
         -4    1    3    3    0  501 -0.37901858427E+02  0.67501652083E+02 -0.12739237211E+03  0.14907532753E+03  0.12700000000E+01 0. -1.
          2    1    1    2  502    0 -0.10993347941E+02 -0.35351258239E+02  0.52405053495E+03  0.52535657257E+03  0.00000000000E+00 0. -1.
          1    1    1    2  503    0 -0.64751118803E+01 -0.50468817130E+02 -0.92789283408E+03  0.92928689870E+03  0.00000000000E+00 0. -1.
<mgrwt>
<rscale>  0 0.44140751E+02</rscale>
<asrwt>0</asrwt>
<pdfrwt beam="2">  1        2 0.20761318E+00 0.52629543E+02</pdfrwt>
<pdfrwt beam="1">  1        1 0.82962902E-01 0.37021145E+02</pdfrwt>
<totfact> 0.10944365E+02</totfact>
</mgrwt>
</event>
<event>
 7    1  0.4292274E-004  0.4330361E+02  0.7546771E-02  0.1504216E+00
         -2   -1    0    0    0  501 -0.00000000000E+00  0.00000000000E+00  0.10167584765E+02  0.10167584765E+02  0.00000000000E+00 0.  1.
          2   -1    0    0  503    0  0.00000000000E+00 -0.00000000000E+00 -0.12301445791E+04  0.12301445791E+04  0.00000000000E+00 0. -1.
         25    2    1    2    0    0  0.28294074492E+02  0.60202754770E+01 -0.68895274502E+03  0.70079845752E+03  0.12500317930E+03 0.  0.
          4    1    3    3  502    0  0.22709324543E+02  0.10132638841E+02 -0.20347787125E+02  0.32156323359E+02  0.12700000000E+01 0.  1.
         -4    1    3    3    0  502  0.55847499498E+01 -0.41123633640E+01 -0.66860495789E+03  0.66864213417E+03  0.12700000000E+01 0.  1.
          1    1    1    2  503    0  0.11304977163E+02 -0.36245918583E+02 -0.33950970358E+03  0.34162612305E+03  0.00000000000E+00 0. -1.
         -1    1    1    2    0  501 -0.39599051655E+02  0.30225643106E+02 -0.19151454575E+03  0.19788758330E+03  0.00000000000E+00 0.  1.
<mgrwt>
<rscale>  0 0.40548139E+02</rscale>
<asrwt>0</asrwt>
<pdfrwt beam="2">  1        2 0.18925301E+00 0.37968001E+02</pdfrwt>
<pdfrwt beam="1">  1       -2 0.15642438E-02 0.43303612E+02</pdfrwt>
<totfact> 0.18727131E+04</totfact>
</mgrwt>
</event>
<event>
 7    1  0.4252091E-004  0.1732761E+03  0.7546771E-02  0.1292189E+00
          1   -1    0    0  503    0  0.00000000000E+00  0.00000000000E+00  0.28746768167E+03  0.28746768167E+03  0.00000000000E+00 0. -1.
         -1   -1    0    0    0  501 -0.00000000000E+00 -0.00000000000E+00 -0.30355418530E+03  0.30355418530E+03  0.00000000000E+00 0.  1.
         25    2    1    2    0    0  0.11992171611E+03  0.15508216002E+03 -0.47082731079E+02  0.23722040949E+03  0.12500017905E+03 0.  0.
          4    1    3    3  502    0  0.13510117876E+03  0.14495155007E+03 -0.67939941780E+02  0.20947727552E+03  0.12700000000E+01 0.  1.
         -4    1    3    3    0  502 -0.15179462651E+02  0.10130609946E+02  0.20857210700E+02  0.27743133970E+02  0.12700000000E+01 0.  1.
          2    1    1    2  503    0  0.74481157941E+01 -0.51053481036E+02  0.14486182510E+03  0.15377542302E+03  0.00000000000E+00 0. -1.
         -2    1    1    2    0  501 -0.12736983191E+03 -0.10402867898E+03 -0.11386559766E+03  0.20002603446E+03  0.00000000000E+00 0.  1.
<mgrwt>
<rscale>  0 0.94551531E+02</rscale>
<asrwt>0</asrwt>
<pdfrwt beam="1">  1        1 0.44225797E-01 0.51593918E+02</pdfrwt>
<pdfrwt beam="2">  1       -1 0.46700644E-01 0.17327608E+03</pdfrwt>
<totfact> 0.43406205E+02</totfact>
</mgrwt>
</event>
<event>
 7    1  0.4252091E-004  0.6280508E+02  0.7546771E-02  0.1484956E+00
         -1   -1    0    0    0  501 -0.00000000000E+00  0.00000000000E+00  0.40537967229E+03  0.40537967229E+03  0.00000000000E+00 0.  1.
          1   -1    0    0  503    0  0.00000000000E+00 -0.00000000000E+00 -0.13920630178E+03  0.13920630178E+03  0.00000000000E+00 0. -1.
         25    2    1    2    0    0 -0.60468156054E+02 -0.16324867748E+02  0.31965500590E+02  0.14341786438E+03  0.12499596551E+03 0.  0.
          4    1    3    3  502    0  0.24198488626E+02  0.24269912312E+02  0.35614413921E+02  0.49442844521E+02  0.12700000000E+01 0. -1.
         -4    1    3    3    0  502 -0.84666644680E+02 -0.40594780060E+02 -0.36489133306E+01  0.93975019861E+02  0.12700000000E+01 0. -1.
          2    1    1    2  503    0  0.13954727746E+02 -0.26458033525E+02 -0.77524038339E+02  0.83094756061E+02  0.00000000000E+00 0. -1.
         -2    1    1    2    0  501  0.46513428308E+02  0.42782901273E+02  0.31173190827E+03  0.31807335363E+03  0.00000000000E+00 0.  1.
<mgrwt>
<rscale>  0 0.43343529E+02</rscale>
<asrwt>0</asrwt>
<pdfrwt beam="2">  1        1 0.21416354E-01 0.29912572E+02</pdfrwt>
<pdfrwt beam="1">  1       -1 0.62366103E-01 0.62805081E+02</pdfrwt>
<totfact> 0.60188651E+02</totfact>
</mgrwt>
</event>
<event>
 7    1  0.4252091E-004  0.8808876E+02  0.7546771E-02  0.1366148E+00
          2   -1    0    0  503    0  0.00000000000E+00  0.00000000000E+00  0.72430227215E+03  0.72430227215E+03  0.00000000000E+00 0. -1.
          1   -1    0    0  502    0 -0.00000000000E+00 -0.00000000000E+00 -0.52711709348E+02  0.52711709348E+02  0.00000000000E+00 0. -1.
         25    2    1    2    0    0 -0.46605372920E+02 -0.11833521246E+02  0.32468631690E+03  0.35122409193E+03  0.12500026142E+03 0.  0.
          4    1    3    3  501    0 -0.56745429748E+02 -0.18907648265E+02  0.33163272111E+03  0.33698578244E+03  0.12700000000E+01 0. -1.
         -4    1    3    3    0  501  0.10140056828E+02  0.70741270196E+01 -0.69464042038E+01  0.14238309483E+02  0.12700000000E+01 0. -1.
          2    1    1    2  502    0  0.79885350014E+02  0.52926022713E+02  0.24272296374E+02  0.98853312531E+02  0.00000000000E+00 0. -1.
          1    1    1    2  503    0 -0.33279977094E+02 -0.41092501467E+02  0.32263194952E+03  0.32693657704E+03  0.00000000000E+00 0. -1.
<mgrwt>
<rscale>  0 0.68249642E+02</rscale>
<asrwt>0</asrwt>
<pdfrwt beam="1">  1        2 0.11143111E+00 0.52878640E+02</pdfrwt>
<pdfrwt beam="2">  1        1 0.81094943E-02 0.88088758E+02</pdfrwt>
<totfact> 0.45438329E+03</totfact>
</mgrwt>
</event>
<event>
 7    1  0.4252091E-004  0.4012798E+02  0.7546771E-02  0.1520636E+00
         -1   -1    0    0    0  502 -0.00000000000E+00  0.00000000000E+00  0.30348537728E+03  0.30348537728E+03  0.00000000000E+00 0.  1.
         -2   -1    0    0    0  501  0.00000000000E+00 -0.00000000000E+00 -0.15347678009E+03  0.15347678009E+03  0.00000000000E+00 0.  1.
         25    2    1    2    0    0 -0.39035624958E+02  0.42060740916E+02  0.11658761758E+03  0.18030739136E+03  0.12500078745E+03 0.  0.
          4    1    3    3  503    0 -0.45132555974E+01  0.33220418880E+01 -0.27011299918E+02  0.27615732140E+02  0.12700000000E+01 0. -1.
         -4    1    3    3    0  503 -0.34522369360E+02  0.38738699028E+02  0.14359891750E+03  0.15269165922E+03  0.12700000000E+01 0. -1.
         -2    1    1    2    0  502 -0.62339425995E+00 -0.36665281158E+02  0.14946738313E+03  0.15390006524E+03  0.00000000000E+00 0.  1.
         -1    1    1    2    0  501  0.39659019218E+02 -0.53954597574E+01 -0.11604640352E+03  0.12275470077E+03  0.00000000000E+00 0.  1.
<mgrwt>
<rscale>  0 0.38360349E+02</rscale>
<asrwt>0</asrwt>
<pdfrwt beam="2">  1       -2 0.23611812E-01 0.40127982E+02</pdfrwt>
<pdfrwt beam="1">  1       -1 0.46690058E-01 0.36670580E+02</pdfrwt>
<totfact> 0.51388253E+02</totfact>
</mgrwt>
</event>
<event>
 7    1  0.4252091E-004  0.8599455E+02  0.7546771E-02  0.1320348E+00
         -2   -1    0    0    0  501 -0.00000000000E+00  0.00000000000E+00  0.73335147359E+03  0.73335147359E+03  0.00000000000E+00 0.  1.
          2   -1    0    0  503    0  0.00000000000E+00 -0.00000000000E+00 -0.21007434339E+03  0.21007434339E+03  0.00000000000E+00 0. -1.
         25    2    1    2    0    0 -0.83638505271E+02 -0.47109173325E+02  0.17656933068E+03  0.23667829124E+03  0.12500084493E+03 0.  0.
          4    1    3    3  502    0 -0.69641982510E+02 -0.12376399065E+02  0.18517994910E+03  0.19823321475E+03  0.12700000000E+01 0.  1.
         -4    1    3    3    0  502 -0.13996522761E+02 -0.34732774261E+02 -0.86106184180E+01  0.38445076496E+02  0.12700000000E+01 0.  1.
          1    1    1    2  503    0  0.13418382615E+02  0.86257614393E+02 -0.16611795321E+03  0.18765820902E+03  0.00000000000E+00 0. -1.
         -1    1    1    2    0  501  0.70220122657E+02 -0.39148441067E+02  0.51282575274E+03  0.51908931672E+03  0.00000000000E+00 0.  1.
<mgrwt>
<rscale>  0 0.83148003E+02</rscale>
<asrwt>0</asrwt>
<pdfrwt beam="2">  1        2 0.32319130E-01 0.85994547E+02</pdfrwt>
<pdfrwt beam="1">  1       -2 0.11282330E+00 0.80395684E+02</pdfrwt>
<totfact> 0.10716811E+02</totfact>
</mgrwt>
</event>
<event>
 7    1  0.4252091E-004  0.8412910E+02  0.7546771E-02  0.1329021E+00
          2   -1    0    0  503    0  0.00000000000E+00  0.00000000000E+00  0.11565833882E+04  0.11565833882E+04  0.00000000000E+00 0. -1.
          1   -1    0    0  502    0 -0.00000000000E+00 -0.00000000000E+00 -0.11184476775E+04  0.11184476775E+04  0.00000000000E+00 0. -1.
         25    2    1    2    0    0  0.13943786478E+02 -0.75749611313E+02 -0.40560750664E+03  0.43136423222E+03  0.12500087442E+03 0.  0.
          4    1    3    3  501    0 -0.42879437220E+02 -0.43900766491E+02 -0.88942030674E+02  0.10806581863E+03  0.12700000000E+01 0.  1.
         -4    1    3    3    0  501  0.56823223698E+02 -0.31848844821E+02 -0.31666547596E+03  0.32329841360E+03  0.12700000000E+01 0.  1.
          2    1    1    2  502    0  0.61761313911E+02  0.68063783313E+02 -0.69567027811E+03  0.70171523736E+03  0.00000000000E+00 0. -1.
          1    1    1    2  503    0 -0.75705100389E+02  0.76858279998E+01  0.11394134955E+04  0.11419515961E+04  0.00000000000E+00 0. -1.
<mgrwt>
<rscale>  0 0.80010876E+02</rscale>
<asrwt>0</asrwt>
<pdfrwt beam="1">  1        2 0.17793591E+00 0.76094245E+02</pdfrwt>
<pdfrwt beam="2">  1        1 0.17206887E+00 0.84129100E+02</pdfrwt>
<totfact> 0.44660506E+01</totfact>
</mgrwt>
</event>
<event>
 7    1  0.4252091E-004  0.6152906E+02  0.7546771E-02  0.1423325E+00
          1   -1    0    0  502    0 -0.00000000000E+00  0.00000000000E+00  0.69355862033E+03  0.69355862033E+03  0.00000000000E+00 0. -1.
          2   -1    0    0  503    0  0.00000000000E+00 -0.00000000000E+00 -0.25048387266E+03  0.25048387266E+03  0.00000000000E+00 0. -1.
         25    2    1    2    0    0  0.28036888271E+02  0.96817082613E+02 -0.14442311190E+03  0.21596047629E+03  0.12498510902E+03 0.  0.
          4    1    3    3  501    0  0.19326358276E+02  0.12062419402E+03 -0.78235479702E+02  0.14507276619E+03  0.12700000000E+01 0. -1.
         -4    1    3    3    0  501  0.87105299958E+01 -0.23807111403E+02 -0.66187632201E+02  0.70887710095E+02  0.12700000000E+01 0. -1.
          2    1    1    2  502    0  0.40073834910E+01 -0.61130680502E+02  0.64799212045E+03  0.65088156172E+03  0.00000000000E+00 0. -1.
          1    1    1    2  503    0 -0.32044271763E+02 -0.35686402112E+02 -0.60494260884E+02  0.77200454975E+02  0.00000000000E+00 0. -1.
<mgrwt>
<rscale>  0 0.54323638E+02</rscale>
<asrwt>0</asrwt>
<pdfrwt beam="2">  1        2 0.38535981E-01 0.47962013E+02</pdfrwt>
<pdfrwt beam="1">  1        1 0.10670132E+00 0.61529062E+02</pdfrwt>
<totfact> 0.53825200E+02</totfact>
</mgrwt>
</event>
<event>
 7    1  0.4252091E-004  0.4727946E+02  0.7546771E-02  0.1482744E+00
          1   -1    0    0  502    0 -0.00000000000E+00  0.00000000000E+00  0.23627757140E+03  0.23627757140E+03  0.00000000000E+00 0. -1.
          2   -1    0    0  503    0  0.00000000000E+00 -0.00000000000E+00 -0.50732471085E+03  0.50732471085E+03  0.00000000000E+00 0. -1.
         25    2    1    2    0    0 -0.17914999476E+02 -0.20429376806E+01 -0.15605663893E+03  0.20075726962E+03  0.12499874380E+03 0.  0.
          4    1    3    3  501    0  0.53863630516E+02 -0.68117585316E+01 -0.64727596049E+02  0.84492398101E+02  0.12700000000E+01 0.  1.
         -4    1    3    3    0  501 -0.71778629992E+02  0.47688208510E+01 -0.91329042885E+02  0.11626487152E+03  0.12700000000E+01 0.  1.
          2    1    1    2  502    0 -0.11687311042E+02 -0.38628269265E+02  0.21007190190E+03  0.21391339461E+03  0.00000000000E+00 0. -1.
          1    1    1    2  503    0  0.29602310519E+02  0.40671206946E+02 -0.32506240242E+03  0.32893161801E+03  0.00000000000E+00 0. -1.
<mgrwt>
<rscale>  0 0.43681644E+02</rscale>
<asrwt>0</asrwt>
<pdfrwt beam="2">  1        2 0.78049954E-01 0.47279464E+02</pdfrwt>
<pdfrwt beam="1">  1        1 0.36350396E-01 0.40357607E+02</pdfrwt>
<totfact> 0.99283836E+02</totfact>
</mgrwt>
</event>
<event>
 7    1  0.4252091E-004  0.6757790E+02  0.7546771E-02  0.1454199E+00
         -3   -1    0    0    0  501 -0.00000000000E+00  0.00000000000E+00  0.49132974860E+02  0.49132974860E+02  0.00000000000E+00 0.  1.
          1   -1    0    0  503    0  0.00000000000E+00 -0.00000000000E+00 -0.16730698603E+04  0.16730698603E+04  0.00000000000E+00 0. -1.
         25    2    1    2    0    0 -0.22265764875E+02  0.81417080304E+02 -0.64032012766E+03  0.65784569904E+03  0.12500637025E+03 0.  0.
          4    1    3    3  502    0 -0.52428333624E+02  0.47990997263E+02 -0.56947592088E+03  0.57389572515E+03  0.12700000000E+01 0. -1.
         -4    1    3    3    0  502  0.30162568749E+02  0.33426083042E+02 -0.70844206784E+02  0.83949973889E+02  0.12700000000E+01 0. -1.
          2    1    1    2  503    0 -0.19352106428E+02 -0.28750150476E+02 -0.99557212248E+03  0.99617514837E+03  0.00000000000E+00 0. -1.
         -2    1    1    2    0  501  0.41617871303E+02 -0.52666929829E+02  0.11955364694E+02  0.68181987756E+02  0.00000000000E+00 0.  1.
<mgrwt>
<rscale>  0 0.48394375E+02</rscale>
<asrwt>0</asrwt>
<pdfrwt beam="2">  1        1 0.25739539E+00 0.34656531E+02</pdfrwt>
<pdfrwt beam="1">  1       -3 0.75589185E-02 0.67577899E+02</pdfrwt>
<totfact> 0.38183409E+02</totfact>
</mgrwt>
</event>
<event>
 7    1  0.4252091E-004  0.2442538E+03  0.7546771E-02  0.1306606E+00
         -1   -1    0    0    0  501 -0.00000000000E+00  0.00000000000E+00  0.22581740884E+04  0.22581740884E+04  0.00000000000E+00 0.  1.
          1   -1    0    0  503    0  0.00000000000E+00 -0.00000000000E+00 -0.87595711823E+02  0.87595711823E+02  0.00000000000E+00 0. -1.
         25    2    1    2    0    0 -0.16587087354E+03  0.18655866128E+03  0.66882706356E+03  0.72475661165E+03  0.12500089755E+03 0.  0.
          4    1    3    3  502    0 -0.34220731662E+02  0.67649192165E+02  0.36616553900E+03  0.37393353224E+03  0.12700000000E+01 0. -1.
         -4    1    3    3    0  502 -0.13165014187E+03  0.11890946912E+03  0.30266152456E+03  0.35082307941E+03  0.12700000000E+01 0. -1.
          2    1    1    2  503    0 -0.17298419326E+02 -0.26971777835E+02 -0.45031866179E+02  0.55268264694E+02  0.00000000000E+00 0. -1.
         -2    1    1    2    0  501  0.18316929286E+03 -0.15958688345E+03  0.15467831792E+04  0.15657449239E+04  0.00000000000E+00 0.  1.
<mgrwt>
<rscale>  0 0.88467317E+02</rscale>
<asrwt>0</asrwt>
<pdfrwt beam="2">  1        1 0.13476265E-01 0.32042349E+02</pdfrwt>
<pdfrwt beam="1">  1       -1 0.34741135E+00 0.24425382E+03</pdfrwt>
<totfact> 0.75822275E+00</totfact>
</mgrwt>
</event>
<event>
 7    1  0.4252091E-004  0.1179901E+03  0.7546771E-02  0.1276544E+00
          1   -1    0    0  502    0 -0.00000000000E+00  0.00000000000E+00  0.95807687914E+03  0.95807687914E+03  0.00000000000E+00 0. -1.
          2   -1    0    0  503    0  0.00000000000E+00 -0.00000000000E+00 -0.54707313621E+03  0.54707313621E+03  0.00000000000E+00 0. -1.
         25    2    1    2    0    0 -0.37959773989E+02 -0.11099844816E+01  0.30355916489E+02  0.13411705726E+03  0.12499490740E+03 0.  0.
          4    1    3    3  501    0 -0.65217622552E+01  0.40813212113E+02 -0.32268459386E+02  0.52451101390E+02  0.12700000000E+01 0.  1.
         -4    1    3    3    0  501 -0.31438011733E+02 -0.41923196595E+02  0.62624375875E+02  0.81665955870E+02  0.12700000000E+01 0.  1.
          2    1    1    2  502    0 -0.87839242515E+02  0.60470139986E+00  0.86559186983E+03  0.87003757580E+03  0.00000000000E+00 0. -1.
          1    1    1    2  503    0  0.12579901650E+03  0.50528308172E+00 -0.48494404339E+03  0.50099538229E+03  0.00000000000E+00 0. -1.
<mgrwt>
<rscale>  0 0.10180573E+03</rscale>
<asrwt>0</asrwt>
<pdfrwt beam="2">  1        2 0.84165098E-01 0.11799011E+03</pdfrwt>
<pdfrwt beam="1">  1        1 0.14739644E+00 0.87841324E+02</pdfrwt>
<totfact> 0.14400944E+02</totfact>
</mgrwt>
</event>
<event>
 7    1  0.4252091E-004  0.4796904E+02  0.7546771E-02  0.1502714E+00
          2   -1    0    0  503    0  0.00000000000E+00  0.00000000000E+00  0.24084707309E+04  0.24084707309E+04  0.00000000000E+00 0. -1.
          1   -1    0    0  502    0 -0.00000000000E+00 -0.00000000000E+00 -0.38752256257E+03  0.38752256257E+03  0.00000000000E+00 0. -1.
         25    2    1    2    0    0  0.81023956282E+02 -0.14770790192E+02 -0.93710709313E+01  0.14998603742E+03  0.12499974686E+03 0.  0.
          4    1    3    3  501    0 -0.96624133521E+01  0.41702861398E+02 -0.14185326064E+01  0.42849924333E+02  0.12700000000E+01 0. -1.
         -4    1    3    3    0  501  0.90686369634E+02 -0.56473651590E+02 -0.79525383249E+01  0.10713611309E+03  0.12700000000E+01 0. -1.
          2    1    1    2  502    0 -0.33576435394E+02  0.84736577864E+01 -0.30662432810E+03  0.30857358680E+03  0.00000000000E+00 0. -1.
          1    1    1    2  503    0 -0.47447520888E+02  0.62971324055E+01  0.23369435673E+04  0.23374336692E+04  0.00000000000E+00 0. -1.
<mgrwt>
<rscale>  0 0.40756943E+02</rscale>
<asrwt>0</asrwt>
<pdfrwt beam="1">  1        2 0.37053395E+00 0.47969040E+02</pdfrwt>
<pdfrwt beam="2">  1        1 0.59618857E-01 0.34629177E+02</pdfrwt>
<totfact> 0.49786376E+01</totfact>
</mgrwt>
</event>
<event>
 7    1  0.4252091E-004  0.5426371E+02  0.7546771E-02  0.1499830E+00
          2   -1    0    0  503    0  0.00000000000E+00  0.00000000000E+00  0.15593865114E+03  0.15593865114E+03  0.00000000000E+00 0. -1.
         -2   -1    0    0    0  501 -0.00000000000E+00 -0.00000000000E+00 -0.12020278056E+03  0.12020278056E+03  0.00000000000E+00 0.  1.
         25    2    1    2    0    0  0.84309908830E+01  0.77724907757E+02  0.48940070484E+02  0.15534629575E+03  0.12500039284E+03 0.  0.
          4    1    3    3  502    0 -0.34052054012E+01  0.39529387581E+01  0.75762083349E+02  0.75952138364E+02  0.12700000000E+01 0. -1.
         -4    1    3    3    0  502  0.11836196284E+02  0.73771968999E+02 -0.26822012865E+02  0.79394157383E+02  0.12700000000E+01 0. -1.
          1    1    1    2  503    0 -0.16622439639E+02 -0.26431361091E+02  0.37096754885E+02  0.48488055969E+02  0.00000000000E+00 0. -1.
         -1    1    1    2    0  501  0.81914487559E+01 -0.51293546666E+02 -0.50300954793E+02  0.72307079981E+02  0.00000000000E+00 0.  1.
<mgrwt>
<rscale>  0 0.41162074E+02</rscale>
<asrwt>0</asrwt>
<pdfrwt beam="1">  1        2 0.23990562E-01 0.31223747E+02</pdfrwt>
<pdfrwt beam="2">  1       -2 0.18492735E-01 0.54263709E+02</pdfrwt>
<totfact> 0.47159995E+03</totfact>
</mgrwt>
</event>
<event>
 7    1  0.4252091E-004  0.1245178E+03  0.7546771E-02  0.1265145E+00
          2   -1    0    0  503    0  0.00000000000E+00  0.00000000000E+00  0.11885985691E+04  0.11885985691E+04  0.00000000000E+00 0. -1.
          1   -1    0    0  502    0 -0.00000000000E+00 -0.00000000000E+00 -0.10412716123E+03  0.10412716123E+03  0.00000000000E+00 0. -1.
         25    2    1    2    0    0 -0.92285508617E+02 -0.28146280335E+02  0.68260607152E+03  0.70063217143E+03  0.12500225026E+03 0.  0.
          4    1    3    3  501    0 -0.94622049899E+02 -0.39908686673E+02  0.28665527552E+03  0.30449777583E+03  0.12700000000E+01 0.  1.
         -4    1    3    3    0  501  0.23365412826E+01  0.11762406338E+02  0.39595079600E+03  0.39613439560E+03  0.12700000000E+01 0.  1.
          2    1    1    2  502    0  0.11187417084E+03 -0.62687428073E+02 -0.44818961465E+02  0.13584654226E+03  0.00000000000E+00 0. -1.
          1    1    1    2  503    0 -0.19588662218E+02  0.90833708408E+02  0.44668429784E+03  0.45624701666E+03  0.00000000000E+00 0. -1.
<mgrwt>
<rscale>  0 0.10756593E+03</rscale>
<asrwt>0</asrwt>
<pdfrwt beam="1">  1        2 0.18286131E+00 0.92921893E+02</pdfrwt>
<pdfrwt beam="2">  1        1 0.16019564E-01 0.12451779E+03</pdfrwt>
<totfact> 0.97596710E+02</totfact>
</mgrwt>
</event>
<event>
 7    1  0.4252091E-004  0.5055799E+02  0.7546771E-02  0.1479327E+00
         -2   -1    0    0    0  501 -0.00000000000E+00  0.00000000000E+00  0.58163653229E+02  0.58163653229E+02  0.00000000000E+00 0.  1.
          2   -1    0    0  503    0  0.00000000000E+00 -0.00000000000E+00 -0.77576429711E+03  0.77576429711E+03  0.00000000000E+00 0. -1.
         25    2    1    2    0    0 -0.56316529095E+02 -0.66329387099E+02 -0.14616691263E+03  0.21108627883E+03  0.12498604610E+03 0.  0.
          4    1    3    3  502    0  0.24611050465E+02  0.20393588347E+02 -0.19111440706E+02  0.37262076116E+02  0.12700000000E+01 0.  1.
         -4    1    3    3    0  502 -0.80927579561E+02 -0.86722975445E+02 -0.12705547192E+03  0.17382420271E+03  0.12700000000E+01 0.  1.
          1    1    1    2  503    0  0.36815855982E+02  0.32946587992E+02 -0.58093342540E+03  0.58303047061E+03  0.00000000000E+00 0. -1.
         -1    1    1    2    0  501  0.19500673114E+02  0.33382799106E+02  0.94996941490E+01  0.39811200899E+02  0.00000000000E+00 0.  1.
<mgrwt>
<rscale>  0 0.44211222E+02</rscale>
<asrwt>0</asrwt>
<pdfrwt beam="2">  1        2 0.11934836E+00 0.50557995E+02</pdfrwt>
<pdfrwt beam="1">  1       -2 0.89482541E-02 0.38661189E+02</pdfrwt>
<totfact> 0.26916626E+03</totfact>
</mgrwt>
</event>
<event>
 7    1  0.4252091E-004  0.7535351E+02  0.7546771E-02  0.1408666E+00
          2   -1    0    0  503    0  0.00000000000E+00  0.00000000000E+00  0.26394358767E+03  0.26394358767E+03  0.00000000000E+00 0. -1.
          1   -1    0    0  502    0 -0.00000000000E+00 -0.00000000000E+00 -0.14781849757E+03  0.14781849757E+03  0.00000000000E+00 0. -1.
         25    2    1    2    0    0  0.33330662531E+02 -0.21517992410E+02  0.17965945419E+02  0.13237076892E+03  0.12500115283E+03 0.  0.
          4    1    3    3  501    0  0.22774843535E+02  0.49942189537E+02  0.23899315790E+02  0.59880764766E+02  0.12700000000E+01 0.  1.
         -4    1    3    3    0  501  0.10555818996E+02 -0.71460181946E+02 -0.59333703712E+01  0.72490004155E+02  0.12700000000E+01 0.  1.
          2    1    1    2  502    0  0.21711506772E+02 -0.38115022863E+02 -0.75719242573E+02  0.87507417914E+02  0.00000000000E+00 0. -1.
          1    1    1    2  503    0 -0.55042169304E+02  0.59633015272E+02  0.17387838726E+03  0.19188389841E+03  0.00000000000E+00 0. -1.
<mgrwt>
<rscale>  0 0.57492496E+02</rscale>
<asrwt>0</asrwt>
<pdfrwt beam="1">  1        2 0.40606706E-01 0.75353509E+02</pdfrwt>
<pdfrwt beam="2">  1        1 0.22741307E-01 0.43865071E+02</pdfrwt>
<totfact> 0.34365763E+03</totfact>
</mgrwt>
</event>
<event>
 7    1  0.4252091E-004  0.2558926E+02  0.7546771E-02  0.1687332E+00
          2   -1    0    0  503    0  0.00000000000E+00  0.00000000000E+00  0.78372980334E+03  0.78372980334E+03  0.00000000000E+00 0. -1.
          1   -1    0    0  502    0 -0.00000000000E+00 -0.00000000000E+00 -0.16063577665E+03  0.16063577665E+03  0.00000000000E+00 0. -1.
         25    2    1    2    0    0  0.30297297872E+02  0.35375623452E+02 -0.83759302403E+01  0.13365979928E+03  0.12500169896E+03 0.  0.
          4    1    3    3  501    0 -0.34892851956E+02 -0.18027559554E+02 -0.26573147828E+02  0.47436790644E+02  0.12700000000E+01 0. -1.
         -4    1    3    3    0  501  0.65190149828E+02  0.53403183006E+02  0.18197217588E+02  0.86223008633E+02  0.12700000000E+01 0. -1.
          2    1    1    2  502    0 -0.12633560642E+02 -0.16952878606E+02 -0.88141542775E+02  0.90641814359E+02  0.00000000000E+00 0. -1.
          1    1    1    2  503    0 -0.17663737230E+02 -0.18422744847E+02  0.71961149970E+03  0.72006396635E+03  0.00000000000E+00 0. -1.
<mgrwt>
<rscale>  0 0.23259880E+02</rscale>
<asrwt>0</asrwt>
<pdfrwt beam="1">  1        2 0.12057381E+00 0.25589264E+02</pdfrwt>
<pdfrwt beam="2">  1        1 0.24713197E-01 0.21142539E+02</pdfrwt>
<totfact> 0.96905057E+02</totfact>
</mgrwt>
</event>
<event>
 7    1  0.4252091E-004  0.1638422E+03  0.7546771E-02  0.1352190E+00
          1   -1    0    0  503    0  0.00000000000E+00  0.00000000000E+00  0.10265506536E+04  0.10265506536E+04  0.00000000000E+00 0. -1.
         -1   -1    0    0    0  501 -0.00000000000E+00 -0.00000000000E+00 -0.28409132411E+03  0.28409132411E+03  0.00000000000E+00 0.  1.
         25    2    1    2    0    0  0.70419640238E+02  0.12382493089E+03  0.18328355652E+03  0.26364555732E+03  0.12499831425E+03 0.  0.
          4    1    3    3  502    0  0.76368935494E+02  0.13936917135E+03  0.12263253637E+03  0.20073946325E+03  0.12700000000E+01 0. -1.
         -4    1    3    3    0  502 -0.59492952557E+01 -0.15544240459E+02  0.60651020154E+02  0.62906094071E+02  0.12700000000E+01 0. -1.
          2    1    1    2  503    0 -0.10001795710E+03 -0.13591650567E+03  0.79312188444E+03  0.81087558345E+03  0.00000000000E+00 0. -1.
         -2    1    1    2    0  501  0.29598316862E+02  0.12091574773E+02 -0.23394611149E+03  0.23612083691E+03  0.00000000000E+00 0.  1.
<mgrwt>
<rscale>  0 0.72377561E+02</rscale>
<asrwt>0</asrwt>
<pdfrwt beam="1">  1        1 0.15793087E+00 0.16384222E+03</pdfrwt>
<pdfrwt beam="2">  1       -1 0.43706358E-01 0.31972903E+02</pdfrwt>
<totfact> 0.83775768E+01</totfact>
</mgrwt>
</event>
<event>
 7    1  0.4252091E-004  0.1527407E+03  0.7546771E-02  0.1283923E+00
          1   -1    0    0  502    0 -0.00000000000E+00  0.00000000000E+00  0.30837091477E+04  0.30837091477E+04  0.00000000000E+00 0. -1.
          2   -1    0    0  503    0  0.00000000000E+00 -0.00000000000E+00 -0.34360103850E+03  0.34360103850E+03  0.00000000000E+00 0. -1.
         25    2    1    2    0    0 -0.13562708510E+03  0.13623309546E+03  0.19848183391E+03  0.30326419108E+03  0.12497987312E+03 0.  0.
          4    1    3    3  501    0 -0.15441075114E+03  0.10352850631E+03  0.13627658888E+03  0.23050759914E+03  0.12700000000E+01 0.  1.
         -4    1    3    3    0  501  0.18783666034E+02  0.32704589146E+02  0.62205245025E+02  0.72756591932E+02  0.12700000000E+01 0.  1.
          2    1    1    2  502    0  0.13272613127E+03 -0.73042701871E+02  0.28273488971E+04  0.28314048189E+04  0.00000000000E+00 0. -1.
          3    1    1    2  503    0  0.29009538312E+01 -0.63190393590E+02 -0.28572262187E+03  0.29264117622E+03  0.00000000000E+00 0. -1.
<mgrwt>
<rscale>  0 0.98295018E+02</rscale>
<asrwt>0</asrwt>
<pdfrwt beam="2">  1        2 0.52861700E-01 0.63256947E+02</pdfrwt>
<pdfrwt beam="1">  1        1 0.47441677E+00 0.15274070E+03</pdfrwt>
<totfact> 0.89432608E+00</totfact>
</mgrwt>
</event>
<event>
 7    1  0.4252091E-004  0.2736275E+02  0.7546771E-02  0.1674499E+00
          1   -1    0    0  503    0  0.00000000000E+00  0.00000000000E+00  0.18512027450E+03  0.18512027450E+03  0.00000000000E+00 0. -1.
         -1   -1    0    0    0  501 -0.00000000000E+00 -0.00000000000E+00 -0.12635552826E+03  0.12635552826E+03  0.00000000000E+00 0.  1.
         25    2    1    2    0    0  0.26025320522E+02 -0.85224779697E+00  0.75436709839E+02  0.14829447030E+03  0.12499003599E+03 0.  0.
          4    1    3    3  502    0  0.37211693841E+02 -0.52399438945E+02  0.11337532217E+02  0.65272995159E+02  0.12700000000E+01 0. -1.
         -4    1    3    3    0  502 -0.11186373318E+02  0.51547191149E+02  0.64099177621E+02  0.83021475144E+02  0.12700000000E+01 0. -1.
          2    1    1    2  503    0 -0.77348721022E+01 -0.19738948133E+02  0.69528020847E+02  0.72688375981E+02  0.00000000000E+00 0. -1.
         -2    1    1    2    0  501 -0.18290448420E+02  0.20591195930E+02 -0.86199984446E+02  0.90492956476E+02  0.00000000000E+00 0.  1.
<mgrwt>
<rscale>  0 0.24085254E+02</rscale>
<asrwt>0</asrwt>
<pdfrwt beam="1">  1        1 0.28480042E-01 0.21200338E+02</pdfrwt>
<pdfrwt beam="2">  1       -1 0.19439312E-01 0.27362747E+02</pdfrwt>
<totfact> 0.29168101E+03</totfact>
</mgrwt>
</event>
<event>
 7    1  0.4252091E-004  0.5102088E+03  0.7546771E-02  0.1011148E+00
          1   -1    0    0  503    0  0.00000000000E+00  0.00000000000E+00  0.14859653269E+04  0.14859653269E+04  0.00000000000E+00 0. -1.
         -1   -1    0    0    0  501 -0.00000000000E+00 -0.00000000000E+00 -0.43795278193E+02  0.43795278193E+02  0.00000000000E+00 0.  1.
         25    2    1    2    0    0  0.14225726549E+03  0.15339260117E+03  0.10191665934E+04  0.10478991746E+04  0.12500286147E+03 0.  0.
          4    1    3    3  502    0  0.10231190684E+03  0.38938374111E+02  0.65493209410E+03  0.66401926481E+03  0.12700000000E+01 0.  1.
         -4    1    3    3    0  502  0.39945358646E+02  0.11445422706E+03  0.36423449933E+03  0.38387990983E+03  0.12700000000E+01 0.  1.
          2    1    1    2  503    0 -0.73910139858E+02 -0.42484645297E+02  0.25744106281E+03  0.27118914927E+03  0.00000000000E+00 0. -1.
         -2    1    1    2    0  501 -0.68347125628E+02 -0.11090795587E+03  0.16556239244E+03  0.21067228116E+03  0.00000000000E+00 0.  1.
<mgrwt>
<rscale>  0 0.51020884E+03</rscale>
<asrwt>0</asrwt>
<pdfrwt beam="1">  1        1 0.22861001E+00 0.51020884E+03</pdfrwt>
<pdfrwt beam="2">  1       -1 0.67377362E-02 0.51020884E+03</pdfrwt>
<totfact> 0.80666836E+02</totfact>
</mgrwt>
</event>
<event>
 7    1  0.4252091E-004  0.1802935E+03  0.7546771E-02  0.1235916E+00
          2   -1    0    0  503    0  0.00000000000E+00  0.00000000000E+00  0.12861078066E+04  0.12861078066E+04  0.00000000000E+00 0. -1.
          1   -1    0    0  502    0 -0.00000000000E+00 -0.00000000000E+00 -0.13451140356E+03  0.13451140356E+03  0.00000000000E+00 0. -1.
         25    2    1    2    0    0 -0.15247403185E+03 -0.22544024004E+02  0.19177180346E+03  0.27596760019E+03  0.12500051337E+03 0.  0.
          4    1    3    3  501    0 -0.16565019626E+03 -0.36075448560E+02  0.13685985525E+03  0.21788450700E+03  0.12700000000E+01 0.  1.
         -4    1    3    3    0  501  0.13176164404E+02  0.13531424556E+02  0.54911948206E+02  0.58083093191E+02  0.12700000000E+01 0.  1.
          2    1    1    2  502    0  0.16518003007E+03  0.10751633600E+03  0.16890939463E+02  0.19781180115E+03  0.00000000000E+00 0. -1.
          1    1    1    2  503    0 -0.12705998213E+02 -0.84972311992E+02  0.94293366013E+03  0.94683980884E+03  0.00000000000E+00 0. -1.
<mgrwt>
<rscale>  0 0.12445998E+03</rscale>
<asrwt>0</asrwt>
<pdfrwt beam="1">  1        2 0.19786273E+00 0.85917031E+02</pdfrwt>
<pdfrwt beam="2">  1        1 0.20694063E-01 0.18029355E+03</pdfrwt>
<totfact> 0.63389379E+02</totfact>
</mgrwt>
</event>
<event>
 7    1  0.4252091E-004  0.2954554E+02  0.7546771E-02  0.1642482E+00
          1   -1    0    0  502    0 -0.00000000000E+00  0.00000000000E+00  0.12157448150E+04  0.12157448150E+04  0.00000000000E+00 0. -1.
          2   -1    0    0  503    0  0.00000000000E+00 -0.00000000000E+00 -0.70899192557E+03  0.70899192557E+03  0.00000000000E+00 0. -1.
         25    2    1    2    0    0  0.34736954382E+02  0.97766990483E+01 -0.15874807822E+03  0.20525166262E+03  0.12500021130E+03 0.  0.
          4    1    3    3  501    0 -0.12627811563E+02  0.59098770385E+02 -0.88822323877E+02  0.10743902645E+03  0.12700000000E+01 0.  1.
         -4    1    3    3    0  501  0.47364765945E+02 -0.49322071337E+02 -0.69925754344E+02  0.97812636170E+02  0.12700000000E+01 0.  1.
          2    1    1    2  502    0 -0.78588311694E+01 -0.22126246506E+02  0.11919622421E+04  0.11921934904E+04  0.00000000000E+00 0. -1.
          3    1    1    2  503    0 -0.26878123213E+02  0.12349547457E+02 -0.52646127442E+03  0.52729158754E+03  0.00000000000E+00 0. -1.
<mgrwt>
<rscale>  0 0.26338997E+02</rscale>
<asrwt>0</asrwt>
<pdfrwt beam="2">  1        2 0.10907568E+00 0.29545536E+02</pdfrwt>
<pdfrwt beam="1">  1        1 0.18703766E+00 0.23480460E+02</pdfrwt>
<totfact> 0.82651455E+01</totfact>
</mgrwt>
</event>
<event>
 7    1  0.4252091E-004  0.9736944E+02  0.7546771E-02  0.1321189E+00
          2   -1    0    0  503    0  0.00000000000E+00  0.00000000000E+00  0.45348226704E+03  0.45348226704E+03  0.00000000000E+00 0. -1.
          1   -1    0    0  502    0 -0.00000000000E+00 -0.00000000000E+00 -0.22063359105E+03  0.22063359105E+03  0.00000000000E+00 0. -1.
         25    2    1    2    0    0  0.97265804523E+02  0.52721449468E+02  0.16519519169E+03  0.23485932308E+03  0.12501704810E+03 0.  0.
          4    1    3    3  501    0 -0.29502190200E+02  0.38016400453E+01  0.41716099398E+02  0.51251122355E+02  0.12700000000E+01 0. -1.
         -4    1    3    3    0  501  0.12676799472E+03  0.48919809423E+02  0.12347909229E+03  0.18360820073E+03  0.12700000000E+01 0. -1.
          2    1    1    2  502    0 -0.37746230509E+02 -0.90455301572E+02 -0.16733526898E+03  0.19392790347E+03  0.00000000000E+00 0. -1.
          1    1    1    2  503    0 -0.59519574014E+02  0.37733852103E+02  0.23498875328E+03  0.24532863154E+03  0.00000000000E+00 0. -1.
<mgrwt>
<rscale>  0 0.82836602E+02</rscale>
<asrwt>0</asrwt>
<pdfrwt beam="1">  1        2 0.69766502E-01 0.70472855E+02</pdfrwt>
<pdfrwt beam="2">  1        1 0.33943629E-01 0.97369444E+02</pdfrwt>
<totfact> 0.12251226E+03</totfact>
</mgrwt>
</event>
<event>
 7    1  0.4252091E-004  0.6033557E+02  0.7546771E-02  0.1467159E+00
          1   -1    0    0  502    0 -0.00000000000E+00  0.00000000000E+00  0.26704050340E+04  0.26704050340E+04  0.00000000000E+00 0. -1.
          2   -1    0    0  503    0  0.00000000000E+00 -0.00000000000E+00 -0.21309218871E+02  0.21309218871E+02  0.00000000000E+00 0. -1.
         25    2    1    2    0    0  0.76242502447E+02 -0.43854642496E+02  0.62010490347E+03  0.63865803090E+03  0.12497135781E+03 0.  0.
          4    1    3    3  501    0  0.35468123538E+02 -0.78521504386E+02  0.49702675198E+03  0.50444109619E+03  0.12700000000E+01 0. -1.
         -4    1    3    3    0  501  0.40774378908E+02  0.34666861890E+02  0.12307815149E+03  0.13421693471E+03  0.12700000000E+01 0. -1.
          2    1    1    2  502    0 -0.40926891922E+02  0.42769605383E+02  0.20136787359E+04  0.20145486594E+04  0.00000000000E+00 0. -1.
          1    1    1    2  503    0 -0.35315610525E+02  0.10850371132E+01  0.15312175810E+02  0.38507562638E+02  0.00000000000E+00 0. -1.
<mgrwt>
<rscale>  0 0.46171343E+02</rscale>
<asrwt>0</asrwt>
<pdfrwt beam="2">  1        2 0.32783435E-02 0.35332275E+02</pdfrwt>
<pdfrwt beam="1">  1        1 0.41083128E+00 0.60335568E+02</pdfrwt>
<totfact> 0.46175243E+02</totfact>
</mgrwt>
</event>
<event>
 7    1  0.4252091E-004  0.1120920E+03  0.7546771E-02  0.1443634E+00
          2   -1    0    0  503    0  0.00000000000E+00  0.00000000000E+00  0.21897409170E+04  0.21897409170E+04  0.00000000000E+00 0. -1.
         -2   -1    0    0    0  501 -0.00000000000E+00 -0.00000000000E+00 -0.20299027873E+03  0.20299027873E+03  0.00000000000E+00 0.  1.
         25    2    1    2    0    0  0.86492759023E+02  0.35756846841E+02  0.92446727262E+03  0.93756289307E+03  0.12499956343E+03 0.  0.
          4    1    3    3  502    0  0.65965830085E+02  0.82031162613E+02  0.64825865571E+03  0.65675071373E+03  0.12700000000E+01 0. -1.
         -4    1    3    3    0  502  0.20526928938E+02 -0.46274315772E+02  0.27620861691E+03  0.28081217934E+03  0.12700000000E+01 0. -1.
          1    1    1    2  503    0  0.21847801486E+02 -0.57337164772E+01  0.12425298344E+04  0.12427351252E+04  0.00000000000E+00 0. -1.
         -1    1    1    2    0  501 -0.10834056051E+03 -0.30023130363E+02 -0.18024646875E+03  0.21243317750E+03  0.00000000000E+00 0.  1.
<mgrwt>
<rscale>  0 0.50317944E+02</rscale>
<asrwt>0</asrwt>
<pdfrwt beam="1">  1        2 0.33688320E+00 0.22587650E+02</pdfrwt>
<pdfrwt beam="2">  1       -2 0.31229275E-01 0.11209203E+03</pdfrwt>
<totfact> 0.75996008E+01</totfact>
</mgrwt>
</event>
<event>
 7    1  0.4252091E-004  0.9056741E+02  0.7546771E-02  0.1359005E+00
          2   -1    0    0  503    0  0.00000000000E+00  0.00000000000E+00  0.11177535584E+04  0.11177535584E+04  0.00000000000E+00 0. -1.
          1   -1    0    0  502    0 -0.00000000000E+00 -0.00000000000E+00 -0.51970643288E+03  0.51970643288E+03  0.00000000000E+00 0. -1.
         25    2    1    2    0    0  0.68838348359E+02  0.55282003050E+01  0.65827611459E+02  0.15725000593E+03  0.12500004292E+03 0.  0.
          4    1    3    3  501    0  0.80370257686E+02  0.45823277922E+02  0.68668232713E+02  0.11522191720E+03  0.12700000000E+01 0.  1.
         -4    1    3    3    0  501 -0.11531909327E+02 -0.40295077617E+02 -0.28406212538E+01  0.42028088726E+02  0.12700000000E+01 0.  1.
          2    1    1    2  502    0 -0.69568639939E+02 -0.60124157558E+02 -0.46878493294E+03  0.47771751416E+03  0.00000000000E+00 0. -1.
          1    1    1    2  503    0  0.73029158023E+00  0.54595957253E+02  0.10010044470E+04  0.10024924712E+04  0.00000000000E+00 0. -1.
<mgrwt>
<rscale>  0 0.70321099E+02</rscale>
<asrwt>0</asrwt>
<pdfrwt beam="1">  1        2 0.17196209E+00 0.54600841E+02</pdfrwt>
<pdfrwt beam="2">  1        1 0.79954836E-01 0.90567414E+02</pdfrwt>
<totfact> 0.14794180E+02</totfact>
</mgrwt>
</event>
<event>
 7    1  0.4252091E-004  0.8173747E+02  0.7546771E-02  0.1501855E+00
          1   -1    0    0  502    0 -0.00000000000E+00  0.00000000000E+00  0.12447149957E+03  0.12447149957E+03  0.00000000000E+00 0. -1.
          2   -1    0    0  503    0  0.00000000000E+00 -0.00000000000E+00 -0.29742900097E+03  0.29742900097E+03  0.00000000000E+00 0. -1.
         25    2    1    2    0    0 -0.13337574007E+00  0.69807989382E+02  0.24968309820E+01  0.14319175693E+03  0.12499788765E+03 0.  0.
          4    1    3    3  501    0  0.22485442694E+02  0.35282397949E+02  0.59533535329E+02  0.72775665349E+02  0.12700000000E+01 0.  1.
         -4    1    3    3    0  501 -0.22618818434E+02  0.34525591432E+02 -0.57036704347E+02  0.70416091584E+02  0.12700000000E+01 0.  1.
          2    1    1    2  502    0  0.16804827858E+02  0.11640309975E+02  0.41559530870E+02  0.46315155854E+02  0.00000000000E+00 0. -1.
          1    1    1    2  503    0 -0.16671452118E+02 -0.81448299357E+02 -0.21701386325E+03  0.23239358775E+03  0.00000000000E+00 0. -1.
<mgrwt>
<rscale>  0 0.40876945E+02</rscale>
<asrwt>0</asrwt>
<pdfrwt beam="2">  1        2 0.45758307E-01 0.81737466E+02</pdfrwt>
<pdfrwt beam="1">  1        1 0.19149462E-01 0.20442579E+02</pdfrwt>
<totfact> 0.35919419E+03</totfact>
</mgrwt>
</event>
<event>
 7    1  0.4252091E-004  0.2776143E+03  0.7546771E-02  0.1227752E+00
          2   -1    0    0  503    0  0.00000000000E+00  0.00000000000E+00  0.17547126409E+04  0.17547126409E+04  0.00000000000E+00 0. -1.
          1   -1    0    0  502    0 -0.00000000000E+00 -0.00000000000E+00 -0.88905586314E+02  0.88905586314E+02  0.00000000000E+00 0. -1.
         25    2    1    2    0    0 -0.18156229861E+03  0.17795118556E+03  0.35890032931E+03  0.45723701310E+03  0.12499898821E+03 0.  0.
          4    1    3    3  501    0 -0.11610506356E+03  0.15696032154E+03  0.17989342109E+03  0.26548104297E+03  0.12700000000E+01 0. -1.
         -4    1    3    3    0  501 -0.65457235045E+02  0.20990864023E+02  0.17900690822E+03  0.19175597014E+03  0.12700000000E+01 0. -1.
          2    1    1    2  502    0  0.22973338924E+03 -0.21486584180E+03  0.60528634202E+03  0.68214097952E+03  0.00000000000E+00 0. -1.
          1    1    1    2  503    0 -0.48171090630E+02  0.36914656239E+02  0.70162038328E+03  0.70424023461E+03  0.00000000000E+00 0. -1.
<mgrwt>
<rscale>  0 0.12980030E+03</rscale>
<asrwt>0</asrwt>
<pdfrwt beam="1">  1        2 0.26995576E+00 0.60688927E+02</pdfrwt>
<pdfrwt beam="2">  1        1 0.13677784E-01 0.27761435E+03</pdfrwt>
<totfact> 0.65749690E+02</totfact>
</mgrwt>
</event>
<event>
 7    1  0.4252091E-004  0.3623392E+02  0.7546771E-02  0.1586188E+00
          1   -1    0    0  503    0  0.00000000000E+00  0.00000000000E+00  0.16192133010E+04  0.16192133010E+04  0.00000000000E+00 0. -1.
         -1   -1    0    0    0  501 -0.00000000000E+00 -0.00000000000E+00 -0.14198503821E+03  0.14198503821E+03  0.00000000000E+00 0.  1.
         25    2    1    2    0    0 -0.10831910662E+02 -0.59645560875E+02  0.51925118533E+03  0.53751430809E+03  0.12499965887E+03 0.  0.
          4    1    3    3  502    0 -0.24396976953E+02  0.13141631830E+02  0.23773826368E+02  0.36533856787E+02  0.12700000000E+01 0.  1.
         -4    1    3    3    0  502  0.13565066291E+02 -0.72787192705E+02  0.49547735896E+03  0.50098045130E+03  0.12700000000E+01 0.  1.
          2    1    1    2  503    0 -0.34806843617E+01  0.26473937490E+02  0.10882076472E+04  0.10885351937E+04  0.00000000000E+00 0. -1.
         -2    1    1    2    0  501  0.14312595023E+02  0.33171623385E+02 -0.13023056971E+03  0.13514883744E+03  0.00000000000E+00 0.  1.
<mgrwt>
<rscale>  0 0.31104821E+02</rscale>
<asrwt>0</asrwt>
<pdfrwt beam="1">  1        1 0.24910973E+00 0.26701770E+02</pdfrwt>
<pdfrwt beam="2">  1       -1 0.21843853E-01 0.36233922E+02</pdfrwt>
<totfact> 0.12539220E+02</totfact>
</mgrwt>
</event>
<event>
 7    1  0.4252091E-004  0.8300530E+02  0.7546771E-02  0.1426134E+00
         -1   -1    0    0    0  501 -0.00000000000E+00  0.00000000000E+00  0.34979378117E+03  0.34979378117E+03  0.00000000000E+00 0.  1.
          1   -1    0    0  503    0  0.00000000000E+00 -0.00000000000E+00 -0.92359346374E+03  0.92359346374E+03  0.00000000000E+00 0. -1.
         25    2    1    2    0    0 -0.95058279757E+02  0.40026073853E+02  0.12037990987E+03  0.20187610604E+03  0.12499790539E+03 0.  0.
          4    1    3    3  502    0  0.12903870236E+02 -0.30270117681E+02  0.19766093171E+02  0.38407046628E+02  0.12700000000E+01 0.  1.
         -4    1    3    3    0  502 -0.10796214999E+03  0.70296191534E+02  0.10061381670E+03  0.16346905941E+03  0.12700000000E+01 0.  1.
          2    1    1    2  503    0  0.33304885929E+02  0.10083403793E+02 -0.87410329013E+03  0.87479566315E+03  0.00000000000E+00 0. -1.
         -2    1    1    2    0  501  0.61753393828E+02 -0.50109477646E+02  0.17992369769E+03  0.19671547573E+03  0.00000000000E+00 0.  1.
<mgrwt>
<rscale>  0 0.53743894E+02</rscale>
<asrwt>0</asrwt>
<pdfrwt beam="2">  1        1 0.14209130E+00 0.34797851E+02</pdfrwt>
<pdfrwt beam="1">  1       -1 0.53814429E-01 0.83005300E+02</pdfrwt>
<totfact> 0.76018530E+01</totfact>
</mgrwt>
</event>
<event>
 7    1  0.4252091E-004  0.7943190E+02  0.7546771E-02  0.1494732E+00
          1   -1    0    0  502    0 -0.00000000000E+00  0.00000000000E+00  0.22787410255E+04  0.22787410255E+04  0.00000000000E+00 0. -1.
          2   -1    0    0  503    0  0.00000000000E+00 -0.00000000000E+00 -0.46004342336E+03  0.46004342336E+03  0.00000000000E+00 0. -1.
         25    2    1    2    0    0  0.85533881000E+02  0.46040589418E+02  0.32873906595E+03  0.36488156369E+03  0.12503360094E+03 0.  0.
          4    1    3    3  501    0  0.59782461239E+01  0.15236937325E+02  0.24426894495E+03  0.24482000337E+03  0.12700000000E+01 0. -1.
         -4    1    3    3    0  501  0.79555634876E+02  0.30803652093E+02  0.84470121004E+02  0.12006156031E+03  0.12700000000E+01 0. -1.
          2    1    1    2  502    0 -0.73788389984E+02 -0.27327575342E+02  0.19308527742E+04  0.19324554221E+04  0.00000000000E+00 0. -1.
          1    1    1    2  503    0 -0.11745491016E+02 -0.18713014075E+02 -0.44089423804E+03  0.44144746301E+03  0.00000000000E+00 0. -1.
<mgrwt>
<rscale>  0 0.41892099E+02</rscale>
<asrwt>0</asrwt>
<pdfrwt beam="2">  1        2 0.70775913E-01 0.22093742E+02</pdfrwt>
<pdfrwt beam="1">  1        1 0.35057553E+00 0.79431902E+02</pdfrwt>
<totfact> 0.25003217E+01</totfact>
</mgrwt>
</event>
<event>
 7    1  0.4252091E-004  0.6389926E+02  0.7546771E-02  0.1502115E+00
         -2   -1    0    0    0  501 -0.00000000000E+00  0.00000000000E+00  0.36477451144E+02  0.36477451144E+02  0.00000000000E+00 0.  1.
          2   -1    0    0  503    0  0.00000000000E+00 -0.00000000000E+00 -0.18993241627E+04  0.18993241627E+04  0.00000000000E+00 0. -1.
         25    2    1    2    0    0  0.54028501220E+02 -0.43430476334E+01 -0.15360769923E+04  0.15421074833E+04  0.12500009217E+03 0.  0.
          4    1    3    3  502    0 -0.27808780295E+02  0.31063033533E+02 -0.31030911042E+03  0.31309997959E+03  0.12700000000E+01 0.  1.
         -4    1    3    3    0  502  0.81837281514E+02 -0.35406081166E+02 -0.12257678818E+04  0.12290075038E+04  0.12700000000E+01 0.  1.
          1    1    1    2  503    0 -0.76103452418E+02  0.18273363190E+02 -0.35006525039E+03  0.35870786276E+03  0.00000000000E+00 0. -1.
         -1    1    1    2    0  501  0.22074951199E+02 -0.13930315557E+02  0.23295531089E+02  0.34986267745E+02  0.00000000000E+00 0.  1.
<mgrwt>
<rscale>  0 0.40840554E+02</rscale>
<asrwt>0</asrwt>
<pdfrwt beam="2">  1        2 0.29220376E+00 0.63899260E+02</pdfrwt>
<pdfrwt beam="1">  1       -2 0.56119148E-02 0.26102819E+02</pdfrwt>
<totfact> 0.12701943E+03</totfact>
</mgrwt>
</event>
<event>
 7    1  0.4252091E-004  0.6463778E+02  0.7546771E-02  0.1520408E+00
          1   -1    0    0  502    0 -0.00000000000E+00  0.00000000000E+00  0.12726928801E+03  0.12726928801E+03  0.00000000000E+00 0. -1.
          2   -1    0    0  503    0  0.00000000000E+00 -0.00000000000E+00 -0.36613770800E+03  0.36613770800E+03  0.00000000000E+00 0. -1.
         25    2    1    2    0    0  0.32919492069E+02 -0.71870418258E+02 -0.99951653458E+02  0.17846523058E+03  0.12494180853E+03 0.  0.
          4    1    3    3  501    0  0.29149808792E+02  0.35385749883E+01 -0.98655219872E+02  0.10294026507E+03  0.12700000000E+01 0. -1.
         -4    1    3    3    0  501  0.37696832769E+01 -0.75408993246E+02 -0.12964335866E+01  0.75524965504E+02  0.12700000000E+01 0. -1.
          2    1    1    2  502    0 -0.20552893686E+02  0.98706960097E+01  0.82023902264E+02  0.85133851206E+02  0.00000000000E+00 0. -1.
          1    1    1    2  503    0 -0.12366598382E+02  0.61999722248E+02 -0.22094066880E+03  0.22980791423E+03  0.00000000000E+00 0. -1.
<mgrwt>
<rscale>  0 0.38389562E+02</rscale>
<asrwt>0</asrwt>
<pdfrwt beam="2">  1        2 0.56328880E-01 0.64637777E+02</pdfrwt>
<pdfrwt beam="1">  1        1 0.19579890E-01 0.22800265E+02</pdfrwt>
<totfact> 0.28356926E+03</totfact>
</mgrwt>
</event>
<event>
 7    1  0.4252091E-004  0.9160075E+02  0.7546771E-02  0.1451286E+00
         -2   -1    0    0    0  501 -0.00000000000E+00  0.00000000000E+00  0.23017729839E+03  0.23017729839E+03  0.00000000000E+00 0.  1.
          2   -1    0    0  503    0  0.00000000000E+00 -0.00000000000E+00 -0.93920436630E+02  0.93920436630E+02  0.00000000000E+00 0. -1.
         25    2    1    2    0    0 -0.90024715487E+02 -0.24341678717E+02  0.10357616538E+03  0.18721778838E+03  0.12500204610E+03 0.  0.
          4    1    3    3  502    0 -0.10535226160E+03 -0.20373921394E+02  0.12227277729E+03  0.16268509662E+03  0.12700000000E+01 0.  1.
         -4    1    3    3    0  502  0.15327546112E+02 -0.39677573234E+01 -0.18696611908E+02  0.24532691756E+02  0.12700000000E+01 0.  1.
          3    1    1    2  503    0  0.78555154776E+02  0.47808885131E+02 -0.37696523735E+01  0.92037014936E+02  0.00000000000E+00 0. -1.
         -3    1    1    2    0  501  0.11469560711E+02 -0.23467206414E+02  0.36450348745E+02  0.44842931700E+02  0.00000000000E+00 0.  1.
<mgrwt>
<rscale>  0 0.48914440E+02</rscale>
<asrwt>0</asrwt>
<pdfrwt beam="2">  1        2 0.14449298E-01 0.91600748E+02</pdfrwt>
<pdfrwt beam="1">  1       -2 0.35411892E-01 0.26120119E+02</pdfrwt>
<totfact> 0.27922990E+03</totfact>
</mgrwt>
</event>
<event>
 7    1  0.4252091E-004  0.1926274E+03  0.7546771E-02  0.1226772E+00
          2   -1    0    0  503    0  0.00000000000E+00  0.00000000000E+00  0.33399227410E+03  0.33399227410E+03  0.00000000000E+00 0. -1.
          1   -1    0    0  502    0 -0.00000000000E+00 -0.00000000000E+00 -0.10350708819E+04  0.10350708819E+04  0.00000000000E+00 0. -1.
         25    2    1    2    0    0  0.17168915871E+03  0.21694097081E+02 -0.47572903227E+03  0.52142992058E+03  0.12499299527E+03 0.  0.
          4    1    3    3  501    0  0.15482013749E+03  0.61892828005E+02 -0.33675692528E+03  0.37577498155E+03  0.12700000000E+01 0.  1.
         -4    1    3    3    0  501  0.16869021224E+02 -0.40198730923E+02 -0.13897210699E+03  0.14565493904E+03  0.12700000000E+01 0.  1.
          2    1    1    2  502    0 -0.21178877160E+03  0.57041077067E+02 -0.50702026583E+03  0.55242892594E+03  0.00000000000E+00 0. -1.
          1    1    1    2  503    0  0.40099612892E+02 -0.78735174149E+02  0.28167069026E+03  0.29520430951E+03  0.00000000000E+00 0. -1.
<mgrwt>
<rscale>  0 0.13046169E+03</rscale>
<asrwt>0</asrwt>
<pdfrwt beam="1">  1        2 0.51383427E-01 0.88358399E+02</pdfrwt>
<pdfrwt beam="2">  1        1 0.15924167E+00 0.19262743E+03</pdfrwt>
<totfact> 0.20454151E+02</totfact>
</mgrwt>
</event>
<event>
 7    1  0.4252091E-004  0.1439252E+03  0.7546771E-02  0.1281144E+00
          2   -1    0    0  503    0  0.00000000000E+00  0.00000000000E+00  0.88425061697E+03  0.88425061697E+03  0.00000000000E+00 0. -1.
          1   -1    0    0  502    0 -0.00000000000E+00 -0.00000000000E+00 -0.30219375835E+03  0.30219375835E+03  0.00000000000E+00 0. -1.
         25    2    1    2    0    0 -0.17734823402E+02 -0.10016510178E+03 -0.53824376574E+02  0.16991423739E+03  0.12500485182E+03 0.  0.
          4    1    3    3  501    0 -0.25900884684E+02  0.12797726228E+02 -0.48570931994E+02  0.56527745036E+02  0.12700000000E+01 0. -1.
         -4    1    3    3    0  501  0.81660612820E+01 -0.11296282801E+03 -0.52534445803E+01  0.11338649236E+03  0.12700000000E+01 0. -1.
          2    1    1    2  502    0  0.54596210892E+02 -0.42066714718E+02 -0.17727707349E+03  0.19020387881E+03  0.00000000000E+00 0. -1.
          1    1    1    2  503    0 -0.36861387490E+02  0.14223181650E+03  0.81315830869E+03  0.82632625911E+03  0.00000000000E+00 0. -1.
<mgrwt>
<rscale>  0 0.99597860E+02</rscale>
<asrwt>0</asrwt>
<pdfrwt beam="1">  1        2 0.13603856E+00 0.14392525E+03</pdfrwt>
<pdfrwt beam="2">  1        1 0.46491348E-01 0.68922817E+02</pdfrwt>
<totfact> 0.37940275E+02</totfact>
</mgrwt>
</event>
<event>
 7    1  0.4252091E-004  0.5830695E+02  0.7546771E-02  0.1427782E+00
         -2   -1    0    0    0  501 -0.00000000000E+00  0.00000000000E+00  0.10517746642E+04  0.10517746642E+04  0.00000000000E+00 0.  1.
          2   -1    0    0  503    0  0.00000000000E+00 -0.00000000000E+00 -0.90699239308E+03  0.90699239308E+03  0.00000000000E+00 0. -1.
         25    2    1    2    0    0  0.45578927929E+02 -0.82762197934E+02  0.31751827389E+03  0.35407310869E+03  0.12499156758E+03 0.  0.
          4    1    3    3  502    0  0.63229158681E+02 -0.89669882673E+02  0.15199795118E+03  0.18746627544E+03  0.12700000000E+01 0.  1.
         -4    1    3    3    0  502 -0.17650230752E+02  0.69076847394E+01  0.16552032271E+03  0.16660683324E+03  0.12700000000E+01 0.  1.
          1    1    1    2  503    0 -0.41206609780E+02  0.26367217306E+02 -0.88692267085E+03  0.88827081394E+03  0.00000000000E+00 0. -1.
         -1    1    1    2    0  501 -0.43723181493E+01  0.56394980628E+02  0.71418666806E+03  0.71642313464E+03  0.00000000000E+00 0.  1.
<mgrwt>
<rscale>  0 0.53407911E+02</rscale>
<asrwt>0</asrwt>
<pdfrwt beam="2">  1        2 0.13953729E+00 0.48920495E+02</pdfrwt>
<pdfrwt beam="1">  1       -2 0.16181149E+00 0.58306953E+02</pdfrwt>
<totfact> 0.92866846E+00</totfact>
</mgrwt>
</event>
<event>
 7    1  0.4252091E-004  0.7352294E+02  0.7546771E-02  0.1380112E+00
          2   -1    0    0  503    0  0.00000000000E+00  0.00000000000E+00  0.10935868961E+04  0.10935868961E+04  0.00000000000E+00 0. -1.
          1   -1    0    0  502    0 -0.00000000000E+00 -0.00000000000E+00 -0.21766559493E+04  0.21766559493E+04  0.00000000000E+00 0. -1.
         25    2    1    2    0    0  0.23489420355E+02  0.86842344352E+01 -0.46614841864E+03  0.48326650304E+03  0.12499998384E+03 0.  0.
          4    1    3    3  501    0 -0.35424592439E+02 -0.17260523811E+02 -0.58380541302E+02  0.70446631817E+02  0.12700000000E+01 0. -1.
         -4    1    3    3    0  501  0.58914012793E+02  0.25944758246E+02 -0.40776787734E+03  0.41281987122E+03  0.12700000000E+01 0. -1.
          2    1    1    2  502    0  0.46258453715E+02 -0.32387161156E+02 -0.17002288679E+04  0.17011663575E+04  0.00000000000E+00 0. -1.
          1    1    1    2  503    0 -0.69747874070E+02  0.23702926721E+02  0.10833082334E+04  0.10858099848E+04  0.00000000000E+00 0. -1.
<mgrwt>
<rscale>  0 0.64434331E+02</rscale>
<asrwt>0</asrwt>
<pdfrwt beam="1">  1        2 0.16824414E+00 0.73522940E+02</pdfrwt>
<pdfrwt beam="2">  1        1 0.33487014E+00 0.56469219E+02</pdfrwt>
<totfact> 0.10831278E+01</totfact>
</mgrwt>
</event>
<event>
 7    1  0.4252091E-004  0.3099524E+03  0.7546771E-02  0.1195332E+00
          1   -1    0    0  503    0  0.00000000000E+00  0.00000000000E+00  0.21700520482E+04  0.21700520482E+04  0.00000000000E+00 0. -1.
         -1   -1    0    0    0  501 -0.00000000000E+00 -0.00000000000E+00 -0.14775831240E+03  0.14775831240E+03  0.00000000000E+00 0.  1.
         25    2    1    2    0    0 -0.89033806327E+02  0.26381151057E+03  0.46868313343E+03  0.55929665127E+03  0.12500133112E+03 0.  0.
          4    1    3    3  502    0 -0.45014872723E+02  0.47936788596E+02  0.39115534722E+02  0.76523933666E+02  0.12700000000E+01 0. -1.
         -4    1    3    3    0  502 -0.44018933604E+02  0.21587472198E+03  0.42956759871E+03  0.48277271761E+03  0.12700000000E+01 0. -1.
          2    1    1    2  503    0 -0.73841993075E+02  0.21017902890E+02  0.13895563740E+04  0.13916757197E+04  0.00000000000E+00 0. -1.
         -2    1    1    2    0  501  0.16287579940E+03 -0.28482941346E+03  0.16405422833E+03  0.36683798963E+03  0.00000000000E+00 0.  1.
<mgrwt>
<rscale>  0 0.15426139E+03</rscale>
<asrwt>0</asrwt>
<pdfrwt beam="1">  1        1 0.33385414E+00 0.76774945E+02</pdfrwt>
<pdfrwt beam="2">  1       -1 0.22732050E-01 0.30995239E+03</pdfrwt>
<totfact> 0.50597449E+01</totfact>
</mgrwt>
</event>
<event>
 7    1  0.4252091E-004  0.5657050E+02  0.7546771E-02  0.1520479E+00
         -2   -1    0    0    0  501 -0.00000000000E+00  0.00000000000E+00  0.21720331023E+03  0.21720331023E+03  0.00000000000E+00 0.  1.
          2   -1    0    0  503    0  0.00000000000E+00 -0.00000000000E+00 -0.62329912485E+03  0.62329912485E+03  0.00000000000E+00 0. -1.
         25    2    1    2    0    0  0.77031832275E+02  0.12488452499E+02 -0.36734183878E+03  0.39579757211E+03  0.12500330770E+03 0.  0.
          4    1    3    3  502    0  0.29576156491E+02  0.61921227033E+02 -0.25610319718E+03  0.26514043052E+03  0.12700000000E+01 0.  1.
         -4    1    3    3    0  502  0.47455675784E+02 -0.49432774533E+02 -0.11123864160E+03  0.13065714158E+03  0.12700000000E+01 0.  1.
          1    1    1    2  503    0 -0.51007614354E+02 -0.11597373188E+02 -0.23804258043E+03  0.24372227203E+03  0.00000000000E+00 0. -1.
         -1    1    1    2    0  501 -0.26024217921E+02 -0.89107931163E+00  0.19928860459E+03  0.20098259094E+03  0.00000000000E+00 0.  1.
<mgrwt>
<rscale>  0 0.38380540E+02</rscale>
<asrwt>0</asrwt>
<pdfrwt beam="2">  1        2 0.95892171E-01 0.56570502E+02</pdfrwt>
<pdfrwt beam="1">  1       -2 0.33415895E-01 0.26039469E+02</pdfrwt>
<totfact> 0.40291708E+02</totfact>
</mgrwt>
</event>
<event>
 7    1  0.4252091E-004  0.6439155E+02  0.7546771E-02  0.1455880E+00
         -2   -1    0    0    0  501 -0.00000000000E+00  0.00000000000E+00  0.69188207269E+02  0.69188207269E+02  0.00000000000E+00 0.  1.
          2   -1    0    0  503    0  0.00000000000E+00 -0.00000000000E+00 -0.15644769845E+04  0.15644769845E+04  0.00000000000E+00 0. -1.
         25    2    1    2    0    0  0.90892921427E+02  0.50007590549E+01 -0.25485423824E+03  0.29808279429E+03  0.12496454996E+03 0.  0.
          4    1    3    3  502    0  0.44091865023E+02  0.37632949939E+02 -0.28429453807E+02  0.64576917130E+02  0.12700000000E+01 0. -1.
         -4    1    3    3    0  502  0.46801056404E+02 -0.32632190884E+02 -0.22642478443E+03  0.23350587716E+03  0.12700000000E+01 0. -1.
          1    1    1    2  503    0 -0.61578833425E+02  0.15770548549E+02 -0.12803227109E+04  0.12818997258E+04  0.00000000000E+00 0. -1.
         -1    1    1    2    0  501 -0.29314088002E+02 -0.20771307603E+02  0.39888171946E+02  0.53682671656E+02  0.00000000000E+00 0.  1.
<mgrwt>
<rscale>  0 0.48097896E+02</rscale>
<asrwt>0</asrwt>
<pdfrwt beam="2">  1        2 0.24068874E+00 0.64391555E+02</pdfrwt>
<pdfrwt beam="1">  1       -2 0.10644341E-01 0.35927190E+02</pdfrwt>
<totfact> 0.74807457E+02</totfact>
</mgrwt>
</event>
<event>
 7    1  0.4252091E-004  0.4736552E+02  0.7546771E-02  0.1519123E+00
         -2   -1    0    0    0  501 -0.00000000000E+00  0.00000000000E+00  0.93186141850E+03  0.93186141850E+03  0.00000000000E+00 0.  1.
          2   -1    0    0  503    0  0.00000000000E+00 -0.00000000000E+00 -0.16711159848E+03  0.16711159848E+03  0.00000000000E+00 0. -1.
         25    2    1    2    0    0  0.13226995106E+02 -0.23996005796E+02  0.13179267736E+03  0.18369960780E+03  0.12500189760E+03 0.  0.
          4    1    3    3  502    0  0.24532718465E+02 -0.23814873024E+02 -0.14359347650E+02  0.37105339472E+02  0.12700000000E+01 0. -1.
         -4    1    3    3    0  502 -0.11305723359E+02 -0.18113277214E+00  0.14615202501E+03  0.14659426832E+03  0.12700000000E+01 0. -1.
          1    1    1    2  503    0 -0.44183864762E+02  0.18840280530E+02 -0.13674294393E+03  0.14493378760E+03  0.00000000000E+00 0. -1.
         -1    1    1    2    0  501  0.30956869655E+02  0.51557252663E+01  0.76970008658E+03  0.77033962157E+03  0.00000000000E+00 0.  1.
<mgrwt>
<rscale>  0 0.38554956E+02</rscale>
<asrwt>0</asrwt>
<pdfrwt beam="2">  1        2 0.25709477E-01 0.47365519E+02</pdfrwt>
<pdfrwt beam="1">  1       -2 0.14336329E+00 0.31383264E+02</pdfrwt>
<totfact> 0.78353643E+01</totfact>
</mgrwt>
</event>
<event>
 7    1  0.4252091E-004  0.6779757E+02  0.7546771E-02  0.1512421E+00
         -2   -1    0    0    0  501 -0.00000000000E+00  0.00000000000E+00  0.42136608542E+03  0.42136608542E+03  0.00000000000E+00 0.  1.
          2   -1    0    0  503    0  0.00000000000E+00 -0.00000000000E+00 -0.69558864891E+03  0.69558864891E+03  0.00000000000E+00 0. -1.
         25    2    1    2    0    0 -0.52877448767E+02  0.25635025858E+02 -0.27317784004E+03  0.30610958832E+03  0.12499507443E+03 0.  0.
          4    1    3    3  502    0 -0.80058898634E+02  0.47382313634E+02 -0.24234395929E+03  0.25958951905E+03  0.12700000000E+01 0.  1.
         -4    1    3    3    0  502  0.27181449868E+02 -0.21747287776E+02 -0.30833880754E+02  0.46520069270E+02  0.12700000000E+01 0.  1.
          1    1    1    2  503    0 -0.14576672155E+02 -0.17708464404E+02 -0.40276820474E+03  0.40342074294E+03  0.00000000000E+00 0. -1.
         -1    1    1    2    0  501  0.67454120922E+02 -0.79265614542E+01  0.40172348129E+03  0.40742440308E+03  0.00000000000E+00 0.  1.
<mgrwt>
<rscale>  0 0.39433720E+02</rscale>
<asrwt>0</asrwt>
<pdfrwt beam="2">  1        2 0.10701364E+00 0.22936196E+02</pdfrwt>
<pdfrwt beam="1">  1       -2 0.64825551E-01 0.67797568E+02</pdfrwt>
<totfact> 0.10503172E+02</totfact>
</mgrwt>
</event>
<event>
 7    1  0.4252091E-004  0.6976513E+02  0.7546771E-02  0.1410243E+00
         -2   -1    0    0    0  501 -0.00000000000E+00  0.00000000000E+00  0.15513312098E+02  0.15513312098E+02  0.00000000000E+00 0.  1.
          2   -1    0    0  503    0  0.00000000000E+00 -0.00000000000E+00 -0.13903983627E+04  0.13903983627E+04  0.00000000000E+00 0. -1.
         25    2    1    2    0    0 -0.85750668226E+02 -0.55722176802E+02 -0.86205615992E+03  0.87705325889E+03  0.12499383177E+03 0.  0.
          4    1    3    3  502    0  0.28424126842E+02 -0.35286334579E+02 -0.26088538257E+03  0.26479398055E+03  0.12700000000E+01 0. -1.
         -4    1    3    3    0  502 -0.11417479507E+03 -0.20435842222E+02 -0.60117077735E+03  0.61225927834E+03  0.12700000000E+01 0. -1.
          3    1    1    2  503    0  0.46599521122E+02  0.43161668445E+01 -0.35859021456E+03  0.36163114722E+03  0.00000000000E+00 0. -1.
         -3    1    1    2    0  501  0.39151147104E+02  0.51406009957E+02 -0.15423867609E+03  0.16722726866E+03  0.00000000000E+00 0.  1.
<mgrwt>
<rscale>  0 0.57139627E+02</rscale>
<asrwt>0</asrwt>
<pdfrwt beam="2">  1        2 0.21390745E+00 0.46798981E+02</pdfrwt>
<pdfrwt beam="1">  1       -2 0.23866633E-02 0.69765129E+02</pdfrwt>
<totfact> 0.90559240E+03</totfact>
</mgrwt>
</event>
<event>
 7    1  0.4252091E-004  0.4448630E+02  0.7546771E-02  0.1497685E+00
          1   -1    0    0  502    0 -0.00000000000E+00  0.00000000000E+00  0.69078288171E+03  0.69078288171E+03  0.00000000000E+00 0. -1.
          2   -1    0    0  503    0  0.00000000000E+00 -0.00000000000E+00 -0.44086862486E+02  0.44086862486E+02  0.00000000000E+00 0. -1.
         25    2    1    2    0    0  0.42578524240E+02 -0.32499746648E+01  0.37531986667E+03  0.39788701453E+03  0.12500232379E+03 0.  0.
          4    1    3    3  501    0 -0.27370514705E+02  0.25714439333E+02  0.23911890406E+03  0.24205338388E+03  0.12700000000E+01 0.  1.
         -4    1    3    3    0  501  0.69949038944E+02 -0.28964413998E+02  0.13620096261E+03  0.15583363065E+03  0.12700000000E+01 0.  1.
          2    1    1    2  502    0 -0.17562384378E+02 -0.34432365461E+02  0.28664923399E+03  0.28924351071E+03  0.00000000000E+00 0. -1.
          1    1    1    2  503    0 -0.25016139861E+02  0.37682340125E+02 -0.15273081435E+02  0.47739218965E+02  0.00000000000E+00 0. -1.
<mgrwt>
<rscale>  0 0.41466998E+02</rscale>
<asrwt>0</asrwt>
<pdfrwt beam="2">  1        2 0.67825947E-02 0.44486296E+02</pdfrwt>
<pdfrwt beam="1">  1        1 0.10627428E+00 0.38652621E+02</pdfrwt>
<totfact> 0.38543701E+03</totfact>
</mgrwt>
</event>
<event>
 7    1  0.4252091E-004  0.8547396E+02  0.7546771E-02  0.1325866E+00
          2   -1    0    0  503    0  0.00000000000E+00  0.00000000000E+00  0.83236817740E+03  0.83236817740E+03  0.00000000000E+00 0. -1.
          1   -1    0    0  502    0 -0.00000000000E+00 -0.00000000000E+00 -0.72804462948E+03  0.72804462948E+03  0.00000000000E+00 0. -1.
         25    2    1    2    0    0  0.20249971717E+02 -0.14702362893E+03 -0.25544673864E+03  0.32078522396E+03  0.12499645918E+03 0.  0.
          4    1    3    3  501    0  0.33492607635E+02 -0.67640608184E+02 -0.29705683360E+02  0.81123653552E+02  0.12700000000E+01 0.  1.
         -4    1    3    3    0  501 -0.13242635918E+02 -0.79383020750E+02 -0.22574105528E+03  0.23966157041E+03  0.12700000000E+01 0.  1.
          2    1    1    2  502    0  0.13909739282E+02  0.78001201995E+02 -0.43448357224E+03  0.44164877777E+03  0.00000000000E+00 0. -1.
          1    1    1    2  503    0 -0.34159710999E+02  0.69022426940E+02  0.79425385879E+03  0.79797880516E+03  0.00000000000E+00 0. -1.
<mgrwt>
<rscale>  0 0.81133189E+02</rscale>
<asrwt>0</asrwt>
<pdfrwt beam="1">  1        2 0.12805664E+00 0.77012864E+02</pdfrwt>
<pdfrwt beam="2">  1        1 0.11200687E+00 0.85473957E+02</pdfrwt>
<totfact> 0.13582827E+02</totfact>
</mgrwt>
</event>
<event>
 7    1  0.4252091E-004  0.8012356E+02  0.7546771E-02  0.1450894E+00
         -2   -1    0    0    0  501 -0.00000000000E+00  0.00000000000E+00  0.30245881972E+03  0.30245881972E+03  0.00000000000E+00 0.  1.
          2   -1    0    0  503    0  0.00000000000E+00 -0.00000000000E+00 -0.10985898828E+04  0.10985898828E+04  0.00000000000E+00 0. -1.
         25    2    1    2    0    0 -0.44522589601E+02  0.32726431815E+02 -0.28254220037E+03  0.31386261807E+03  0.12500547073E+03 0.  0.
          4    1    3    3  502    0 -0.14153795697E+01 -0.50469653495E+01 -0.24560487359E+03  0.24566408364E+03  0.12700000000E+01 0. -1.
         -4    1    3    3    0  502 -0.43107210032E+02  0.37773397164E+02 -0.36937326778E+02  0.68198534438E+02  0.12700000000E+01 0. -1.
          1    1    1    2  503    0  0.73645832685E+02 -0.39705881610E+02 -0.79741098365E+03  0.80178834025E+03  0.00000000000E+00 0. -1.
         -1    1    1    2    0  501 -0.29123243083E+02  0.69794497954E+01  0.28382212099E+03  0.28539774415E+03  0.00000000000E+00 0.  1.
<mgrwt>
<rscale>  0 0.48985011E+02</rscale>
<asrwt>0</asrwt>
<pdfrwt beam="2">  1        2 0.16901383E+00 0.80123556E+02</pdfrwt>
<pdfrwt beam="1">  1       -2 0.46532126E-01 0.29947888E+02</pdfrwt>
<totfact> 0.10861229E+02</totfact>
</mgrwt>
</event>
<event>
 7    1  0.4252091E-004  0.1516256E+03  0.7546771E-02  0.1364668E+00
         -2   -1    0    0    0  501 -0.00000000000E+00  0.00000000000E+00  0.29054254513E+02  0.29054254513E+02  0.00000000000E+00 0.  1.
          2   -1    0    0  503    0  0.00000000000E+00 -0.00000000000E+00 -0.14516881279E+04  0.14516881279E+04  0.00000000000E+00 0. -1.
         25    2    1    2    0    0  0.14504820587E+03  0.62559445469E+02 -0.48103070835E+03  0.52150496546E+03  0.12499688149E+03 0.  0.
          4    1    3    3  502    0 -0.67390944459E+01  0.48441689131E+02 -0.11128265051E+03  0.12156255116E+03  0.12700000000E+01 0. -1.
         -4    1    3    3    0  502  0.15178730031E+03  0.14117756338E+02 -0.36974805785E+03  0.39994241431E+03  0.12700000000E+01 0. -1.
          1    1    1    2  503    0 -0.14690749837E+03 -0.31513089184E+02 -0.82427535387E+03  0.83785723538E+03  0.00000000000E+00 0. -1.
         -1    1    1    2    0  501  0.18592925000E+01 -0.31046356286E+02 -0.11732781117E+03  0.12138018158E+03  0.00000000000E+00 0.  1.
<mgrwt>
<rscale>  0 0.68672104E+02</rscale>
<asrwt>0</asrwt>
<pdfrwt beam="2">  1        2 0.22333661E+00 0.15162565E+03</pdfrwt>
<pdfrwt beam="1">  1       -2 0.44698859E-02 0.31101981E+02</pdfrwt>
<totfact> 0.28069252E+03</totfact>
</mgrwt>
</event>
<event>
 7    1  0.4252091E-004  0.6651140E+02  0.7546771E-02  0.1446122E+00
          2   -1    0    0  503    0  0.00000000000E+00  0.00000000000E+00  0.16667336657E+04  0.16667336657E+04  0.00000000000E+00 0. -1.
         -2   -1    0    0    0  501 -0.00000000000E+00 -0.00000000000E+00 -0.12597097700E+03  0.12597097700E+03  0.00000000000E+00 0.  1.
         25    2    1    2    0    0  0.45962468597E+02  0.49372696774E+01 -0.29002119295E+02  0.13639295840E+03  0.12499996410E+03 0.  0.
          4    1    3    3  502    0 -0.46345387525E+01  0.26499049009E+02 -0.65196572099E+02  0.70539949399E+02  0.12700000000E+01 0.  1.
         -4    1    3    3    0  502  0.50597007349E+02 -0.21561779331E+02  0.36194452804E+02  0.65853009000E+02  0.12700000000E+01 0.  1.
          1    1    1    2  503    0 -0.52021028052E+02 -0.41813755536E+02  0.16041444727E+04  0.16055323312E+04  0.00000000000E+00 0. -1.
         -1    1    1    2    0  501  0.60585594555E+01  0.36876485859E+02 -0.34379664678E+02  0.50779353042E+02  0.00000000000E+00 0.  1.
<mgrwt>
<rscale>  0 0.49855677E+02</rscale>
<asrwt>0</asrwt>
<pdfrwt beam="1">  1        2 0.25642055E+00 0.66511403E+02</pdfrwt>
<pdfrwt beam="2">  1       -2 0.19380152E-01 0.37370862E+02</pdfrwt>
<totfact> 0.25960270E+02</totfact>
</mgrwt>
</event>
<event>
 7    1  0.4252091E-004  0.1664032E+03  0.7546771E-02  0.1268445E+00
         -2   -1    0    0    0  501 -0.00000000000E+00  0.00000000000E+00  0.65225231484E+02  0.65225231484E+02  0.00000000000E+00 0.  1.
          2   -1    0    0  503    0  0.00000000000E+00 -0.00000000000E+00 -0.20196686219E+04  0.20196686219E+04  0.00000000000E+00 0. -1.
         25    2    1    2    0    0 -0.18030059055E+03 -0.93534052164E+02 -0.28377357553E+03  0.37068708351E+03  0.12499819936E+03 0.  0.
          4    1    3    3  502    0 -0.18361447801E+03 -0.51780600288E+02 -0.26007386132E+03  0.32254539734E+03  0.12700000000E+01 0.  1.
         -4    1    3    3    0  502  0.33138874622E+01 -0.41753451875E+02 -0.23699714208E+02  0.48141686169E+02  0.12700000000E+01 0.  1.
          3    1    1    2  503    0  0.66472401594E+02  0.10760655984E+02 -0.14557367520E+04  0.14572933346E+04  0.00000000000E+00 0. -1.
         -1    1    1    2    0  501  0.11382818895E+03  0.82773396179E+02 -0.21493306291E+03  0.25691343532E+03  0.00000000000E+00 0.  1.
<mgrwt>
<rscale>  0 0.10585469E+03</rscale>
<asrwt>0</asrwt>
<pdfrwt beam="2">  1        2 0.31071822E+00 0.67337745E+02</pdfrwt>
<pdfrwt beam="1">  1       -2 0.10034652E-01 0.16640320E+03</pdfrwt>
<totfact> 0.54184422E+02</totfact>
</mgrwt>
</event>
<event>
 7    1  0.4252091E-004  0.1093691E+03  0.7546771E-02  0.1419814E+00
          1   -1    0    0  502    0 -0.00000000000E+00  0.00000000000E+00  0.77977595861E+03  0.77977595861E+03  0.00000000000E+00 0. -1.
          2   -1    0    0  503    0  0.00000000000E+00 -0.00000000000E+00 -0.34410172217E+04  0.34410172217E+04  0.00000000000E+00 0. -1.
         25    2    1    2    0    0 -0.60104605633E+02 -0.63062638433E+02 -0.86678299570E+03  0.88007160201E+03  0.12499521211E+03 0.  0.
          4    1    3    3  501    0  0.35923022744E+02 -0.25489181028E+02 -0.37585443178E+03  0.37842876305E+03  0.12700000000E+01 0. -1.
         -4    1    3    3    0  501 -0.96027628376E+02 -0.37573457406E+02 -0.49092856392E+03  0.50164283897E+03  0.12700000000E+01 0. -1.
          2    1    1    2  502    0 -0.24719633952E+02 -0.12541719177E+02  0.77162554414E+03  0.77212326438E+03  0.00000000000E+00 0. -1.
          1    1    1    2  503    0  0.84824239584E+02  0.75604357611E+02 -0.25660838115E+04  0.25685983139E+04  0.00000000000E+00 0. -1.
<mgrwt>
<rscale>  0 0.55060209E+02</rscale>
<asrwt>0</asrwt>
<pdfrwt beam="2">  1        2 0.52938727E+00 0.10936913E+03</pdfrwt>
<pdfrwt beam="1">  1        1 0.11996553E+00 0.27719218E+02</pdfrwt>
<totfact> 0.47864199E+00</totfact>
</mgrwt>
</event>
<event>
 7    1  0.4252091E-004  0.1162500E+03  0.7546771E-02  0.1314125E+00
          1   -1    0    0  502    0 -0.00000000000E+00  0.00000000000E+00  0.48054913719E+03  0.48054913719E+03  0.00000000000E+00 0. -1.
          2   -1    0    0  503    0  0.00000000000E+00 -0.00000000000E+00 -0.17303456634E+04  0.17303456634E+04  0.00000000000E+00 0. -1.
         25    2    1    2    0    0  0.19810172919E+02 -0.10687446066E+03  0.12239071334E+03  0.20596014930E+03  0.12500201238E+03 0.  0.
          4    1    3    3  501    0  0.45440129932E+02 -0.11039487472E+03  0.13232126213E+03  0.17821998508E+03  0.12700000000E+01 0.  1.
         -4    1    3    3    0  501 -0.25629957013E+02  0.35204140613E+01 -0.99305487908E+01  0.27740164220E+02  0.12700000000E+01 0.  1.
          2    1    1    2  502    0  0.59204528466E+02  0.21203315453E+02  0.31121384430E+03  0.31750403724E+03  0.00000000000E+00 0. -1.
          1    1    1    2  503    0 -0.79014701385E+02  0.85671145206E+02 -0.16834010838E+04  0.16874306140E+04  0.00000000000E+00 0. -1.
<mgrwt>
<rscale>  0 0.85502038E+02</rscale>
<asrwt>0</asrwt>
<pdfrwt beam="2">  1        2 0.26620702E+00 0.11625002E+03</pdfrwt>
<pdfrwt beam="1">  1        1 0.73930637E-01 0.62886857E+02</pdfrwt>
<totfact> 0.74944432E+01</totfact>
</mgrwt>
</event>
<event>
 7    1  0.4252091E-004  0.7013726E+02  0.7546771E-02  0.1369077E+00
         -2   -1    0    0    0  501 -0.00000000000E+00  0.00000000000E+00  0.21075574362E+02  0.21075574362E+02  0.00000000000E+00 0.  1.
          2   -1    0    0  503    0  0.00000000000E+00 -0.00000000000E+00 -0.20935634898E+04  0.20935634898E+04  0.00000000000E+00 0. -1.
         25    2    1    2    0    0 -0.39711681316E+01 -0.31171867424E+01 -0.70511087388E+03  0.71612522774E+03  0.12501404048E+03 0.  0.
          4    1    3    3  502    0  0.43707132369E+02  0.23737767800E+02 -0.53762158033E+03  0.53991885647E+03  0.12700000000E+01 0.  1.
         -4    1    3    3    0  502 -0.47678300501E+02 -0.26854954542E+02 -0.16748929355E+03  0.17620637127E+03  0.12700000000E+01 0.  1.
          1    1    1    2  503    0  0.11129457484E+02 -0.69248611738E+02 -0.12915498505E+04  0.12934528408E+04  0.00000000000E+00 0. -1.
         -1    1    1    2    0  501 -0.71582893528E+01  0.72365798480E+02 -0.75827191056E+02  0.10506099562E+03  0.00000000000E+00 0.  1.
<mgrwt>
<rscale>  0 0.67424420E+02</rscale>
<asrwt>0</asrwt>
<pdfrwt beam="2">  1        2 0.32208658E+00 0.70137259E+02</pdfrwt>
<pdfrwt beam="1">  1       -2 0.32423972E-02 0.64816512E+02</pdfrwt>
<totfact> 0.24935597E+03</totfact>
</mgrwt>
</event>
<event>
 7    1  0.4252091E-004  0.5991516E+02  0.7546771E-02  0.1419543E+00
         -2   -1    0    0    0  501 -0.00000000000E+00  0.00000000000E+00  0.93610261071E+03  0.93610261071E+03  0.00000000000E+00 0.  1.
          2   -1    0    0  503    0  0.00000000000E+00 -0.00000000000E+00 -0.25399550065E+04  0.25399550065E+04  0.00000000000E+00 0. -1.
         25    2    1    2    0    0 -0.93207600318E+01 -0.29439444498E+02 -0.15401585735E+04  0.15455313851E+04  0.12500109350E+03 0.  0.
          4    1    3    3  502    0  0.10319920670E+02 -0.10032418481E+02 -0.17818497359E+02  0.22940399546E+02  0.12700000000E+01 0.  1.
         -4    1    3    3    0  502 -0.19640680701E+02 -0.19407026017E+02 -0.15223400761E+04  0.15225909856E+04  0.12700000000E+01 0.  1.
          1    1    1    2  503    0  0.47992981271E+02 -0.16359409042E+02 -0.99550179077E+03  0.99679224111E+03  0.00000000000E+00 0. -1.
         -1    1    1    2    0  501 -0.38672221239E+02  0.45798853540E+02  0.93180796852E+03  0.93373399096E+03  0.00000000000E+00 0.  1.
<mgrwt>
<rscale>  0 0.55117822E+02</rscale>
<asrwt>0</asrwt>
<pdfrwt beam="2">  1        2 0.39076230E+00 0.50704601E+02</pdfrwt>
<pdfrwt beam="1">  1       -2 0.14401579E+00 0.59915160E+02</pdfrwt>
<totfact> 0.18389516E+00</totfact>
</mgrwt>
</event>
<event>
 7    1  0.4252091E-004  0.4863801E+02  0.7546771E-02  0.1566273E+00
          2   -1    0    0  503    0  0.00000000000E+00  0.00000000000E+00  0.19642563070E+03  0.19642563070E+03  0.00000000000E+00 0. -1.
          1   -1    0    0  502    0 -0.00000000000E+00 -0.00000000000E+00 -0.37098261262E+03  0.37098261262E+03  0.00000000000E+00 0. -1.
         25    2    1    2    0    0 -0.17837275603E+02  0.20111163602E+02 -0.85968905873E+02  0.15407154689E+03  0.12499904592E+03 0.  0.
          4    1    3    3  501    0 -0.84680810995E+01 -0.37078938593E+02  0.12288676910E+02  0.39989755749E+02  0.12700000000E+01 0.  1.
         -4    1    3    3    0  501 -0.93691945039E+01  0.57190102195E+02 -0.98257582782E+02  0.11408179114E+03  0.12700000000E+01 0.  1.
          2    1    1    2  502    0 -0.16648640159E+02  0.15147704508E+02 -0.24669302136E+03  0.24771773647E+03  0.00000000000E+00 0. -1.
          1    1    1    2  503    0  0.34485915762E+02 -0.35258868109E+02  0.15810494532E+03  0.16561895997E+03  0.00000000000E+00 0. -1.
<mgrwt>
<rscale>  0 0.33087251E+02</rscale>
<asrwt>0</asrwt>
<pdfrwt beam="1">  1        2 0.30219328E-01 0.48638015E+02</pdfrwt>
<pdfrwt beam="2">  1        1 0.57074248E-01 0.22508447E+02</pdfrwt>
<totfact> 0.15458911E+03</totfact>
</mgrwt>
</event>
<event>
 7    1  0.4252091E-004  0.8878009E+02  0.7546771E-02  0.1336713E+00
          1   -1    0    0  502    0 -0.00000000000E+00  0.00000000000E+00  0.29696463170E+04  0.29696463170E+04  0.00000000000E+00 0. -1.
          2   -1    0    0  503    0  0.00000000000E+00 -0.00000000000E+00 -0.13540614521E+03  0.13540614521E+03  0.00000000000E+00 0. -1.
         25    2    1    2    0    0 -0.49817412259E+02  0.19243245551E+02  0.50999626848E+03  0.52780383887E+03  0.12501448478E+03 0.  0.
          4    1    3    3  501    0 -0.21690855821E+01 -0.34967068801E+02  0.35607383339E+03  0.35779545631E+03  0.12700000000E+01 0.  1.
         -4    1    3    3    0  501 -0.47648326677E+02  0.54210314352E+02  0.15392243509E+03  0.17000838256E+03  0.12700000000E+01 0.  1.
          2    1    1    2  502    0 -0.30964530859E+02 -0.59877340584E+02  0.24340603194E+04  0.24349935804E+04  0.00000000000E+00 0. -1.
          1    1    1    2  503    0  0.80781943118E+02  0.40634095033E+02 -0.10981641607E+03  0.14225504297E+03  0.00000000000E+00 0. -1.
<mgrwt>
<rscale>  0 0.77360578E+02</rscale>
<asrwt>0</asrwt>
<pdfrwt beam="2">  1        2 0.20831717E-01 0.88780087E+02</pdfrwt>
<pdfrwt beam="1">  1        1 0.45686861E+00 0.67409926E+02</pdfrwt>
<totfact> 0.33301550E+01</totfact>
</mgrwt>
</event>
<event>
 7    1  0.4252091E-004  0.8195673E+02  0.7546771E-02  0.1491381E+00
         -2   -1    0    0    0  501 -0.00000000000E+00  0.00000000000E+00  0.52171478656E+03  0.52171478656E+03  0.00000000000E+00 0.  1.
          2   -1    0    0  503    0  0.00000000000E+00 -0.00000000000E+00 -0.14721105348E+04  0.14721105348E+04  0.00000000000E+00 0. -1.
         25    2    1    2    0    0 -0.40405087135E+02 -0.62636004270E+02  0.97619979319E+02  0.17524104757E+03  0.12499569710E+03 0.  0.
          4    1    3    3  502    0 -0.22495904809E+02 -0.90953048724E+02  0.27721816103E+02  0.97717116175E+02  0.12700000000E+01 0.  1.
         -4    1    3    3    0  502 -0.17909182326E+02  0.28317044454E+02  0.69898163215E+02  0.77523931396E+02  0.12700000000E+01 0.  1.
          3    1    1    2  503    0  0.60927537098E+02  0.54943906131E+02 -0.14318130746E+04  0.14341616639E+04  0.00000000000E+00 0. -1.
         -1    1    1    2    0  501 -0.20522449963E+02  0.76920981389E+01  0.38379734709E+03  0.38442260985E+03  0.00000000000E+00 0.  1.
<mgrwt>
<rscale>  0 0.42381794E+02</rscale>
<asrwt>0</asrwt>
<pdfrwt beam="2">  1        2 0.22647854E+00 0.81956726E+02</pdfrwt>
<pdfrwt beam="1">  1       -2 0.80263813E-01 0.21916645E+02</pdfrwt>
<totfact> 0.23145496E+01</totfact>
</mgrwt>
</event>
<event>
 7    1  0.4252091E-004  0.1148953E+03  0.7546771E-02  0.1334926E+00
         -2   -1    0    0    0  501 -0.00000000000E+00  0.00000000000E+00  0.61789706896E+03  0.61789706896E+03  0.00000000000E+00 0.  1.
          2   -1    0    0  503    0  0.00000000000E+00 -0.00000000000E+00 -0.20070600878E+03  0.20070600878E+03  0.00000000000E+00 0. -1.
         25    2    1    2    0    0 -0.81153750856E+02  0.13434600788E+03  0.22774172579E+03  0.30352362667E+03  0.12500206866E+03 0.  0.
          4    1    3    3  502    0 -0.40493751453E+02 -0.16912113004E+02  0.45683546365E+02  0.63358999214E+02  0.12700000000E+01 0. -1.
         -4    1    3    3    0  502 -0.40659999404E+02  0.15125812088E+03  0.18205817943E+03  0.24016462746E+03  0.12700000000E+01 0. -1.
          1    1    1    2  503    0  0.36845632397E+02 -0.37966115620E+02 -0.15020294512E+03  0.15924808094E+03  0.00000000000E+00 0. -1.
         -1    1    1    2    0  501  0.44308118460E+02 -0.96379892258E+02  0.33965227951E+03  0.35583137013E+03  0.00000000000E+00 0.  1.
<mgrwt>
<rscale>  0 0.77965567E+02</rscale>
<asrwt>0</asrwt>
<pdfrwt beam="2">  1        2 0.30877848E-01 0.52905827E+02</pdfrwt>
<pdfrwt beam="1">  1       -2 0.95061087E-01 0.11489528E+03</pdfrwt>
<totfact> 0.16333477E+02</totfact>
</mgrwt>
</event>
<event>
 7    1  0.4252091E-004  0.5227059E+02  0.7546771E-02  0.1465093E+00
          1   -1    0    0  502    0 -0.00000000000E+00  0.00000000000E+00  0.59378646288E+02  0.59378646288E+02  0.00000000000E+00 0. -1.
          2   -1    0    0  503    0  0.00000000000E+00 -0.00000000000E+00 -0.24060290241E+04  0.24060290241E+04  0.00000000000E+00 0. -1.
         25    2    1    2    0    0 -0.35770905383E+02 -0.39785790402E+01 -0.16981091711E+03  0.21390184130E+03  0.12499145323E+03 0.  0.
          4    1    3    3  501    0  0.10395787479E+02  0.25467122731E+02 -0.15463245498E+03  0.15706513226E+03  0.12700000000E+01 0. -1.
         -4    1    3    3    0  501 -0.46166692861E+02 -0.29445701772E+02 -0.15178462126E+02  0.56836709045E+02  0.12700000000E+01 0. -1.
          2    1    1    2  502    0  0.40938305371E+02 -0.37092597422E+02  0.16594155336E+02  0.57681640246E+02  0.00000000000E+00 0. -1.
          1    1    1    2  503    0 -0.51673999883E+01  0.41071176463E+02 -0.21934336160E+04  0.21938241888E+04  0.00000000000E+00 0. -1.
<mgrwt>
<rscale>  0 0.46516014E+02</rscale>
<asrwt>0</asrwt>
<pdfrwt beam="2">  1        2 0.37015829E+00 0.41394970E+02</pdfrwt>
<pdfrwt beam="1">  1        1 0.91351770E-02 0.52270591E+02</pdfrwt>
<totfact> 0.51057028E+02</totfact>
</mgrwt>
</event>
<event>
 7    1  0.4252091E-004  0.7723715E+02  0.7546771E-02  0.1423678E+00
          1   -1    0    0  502    0 -0.00000000000E+00  0.00000000000E+00  0.68507142091E+03  0.68507142091E+03  0.00000000000E+00 0. -1.
          2   -1    0    0  503    0  0.00000000000E+00 -0.00000000000E+00 -0.18391368249E+04  0.18391368249E+04  0.00000000000E+00 0. -1.
         25    2    1    2    0    0  0.10065278819E+03  0.17047383444E+02 -0.87044012908E+03  0.88526873281E+03  0.12495244670E+03 0.  0.
          4    1    3    3  501    0  0.96533663169E+02 -0.18680816195E+02 -0.34900387552E+03  0.36259211112E+03  0.12700000000E+01 0.  1.
         -4    1    3    3    0  501  0.41191250163E+01  0.35728199639E+02 -0.52143625356E+03  0.52267662169E+03  0.12700000000E+01 0.  1.
          2    1    1    2  502    0 -0.76219344208E+02  0.12192357909E+02  0.67507938608E+03  0.67947790216E+03  0.00000000000E+00 0. -1.
          1    1    1    2  503    0 -0.24433443977E+02 -0.29239741353E+02 -0.95870466099E+03  0.95946161083E+03  0.00000000000E+00 0. -1.
<mgrwt>
<rscale>  0 0.54250214E+02</rscale>
<asrwt>0</asrwt>
<pdfrwt beam="2">  1        2 0.28294412E+00 0.38104536E+02</pdfrwt>
<pdfrwt beam="1">  1        1 0.10539560E+00 0.77237148E+02</pdfrwt>
<totfact> 0.46274001E+01</totfact>
</mgrwt>
</event>
<event>
 7    1  0.4252091E-004  0.6924467E+02  0.7546771E-02  0.1405890E+00
          2   -1    0    0  503    0  0.00000000000E+00  0.00000000000E+00  0.49681957176E+03  0.49681957176E+03  0.00000000000E+00 0. -1.
         -2   -1    0    0    0  501 -0.00000000000E+00 -0.00000000000E+00 -0.14468878572E+03  0.14468878572E+03  0.00000000000E+00 0.  1.
         25    2    1    2    0    0  0.68017943919E+02 -0.63935314521E+02  0.56851040893E+02  0.16604404253E+03  0.12499767226E+03 0.  0.
          4    1    3    3  502    0  0.33240200219E+02  0.58011492846E+01  0.78247810090E+02  0.85222631545E+02  0.12700000000E+01 0. -1.
         -4    1    3    3    0  502  0.34777743700E+02 -0.69736463805E+02 -0.21396769197E+02  0.80821410982E+02  0.12700000000E+01 0. -1.
          1    1    1    2  503    0 -0.20164347238E+01  0.48742911745E+02  0.37081595068E+03  0.37401123878E+03  0.00000000000E+00 0. -1.
         -1    1    1    2    0  501 -0.66001509195E+02  0.15192402776E+02 -0.75536205534E+02  0.10145307617E+03  0.00000000000E+00 0.  1.
<mgrwt>
<rscale>  0 0.58121200E+02</rscale>
<asrwt>0</asrwt>
<pdfrwt beam="1">  1        2 0.76433779E-01 0.48784603E+02</pdfrwt>
<pdfrwt beam="2">  1       -2 0.22259813E-01 0.69244674E+02</pdfrwt>
<totfact> 0.10769061E+03</totfact>
</mgrwt>
</event>
<event>
 7    1  0.4252091E-004  0.1027207E+03  0.7546771E-02  0.1323294E+00
          1   -1    0    0  502    0 -0.00000000000E+00  0.00000000000E+00  0.14601700482E+04  0.14601700482E+04  0.00000000000E+00 0. -1.
          2   -1    0    0  503    0  0.00000000000E+00 -0.00000000000E+00 -0.47641200508E+03  0.47641200508E+03  0.00000000000E+00 0. -1.
         25    2    1    2    0    0 -0.44053230968E+02  0.20340638511E+02  0.58323821962E+01  0.13420490614E+03  0.12499004527E+03 0.  0.
          4    1    3    3  501    0 -0.21679400074E+02  0.49841655582E+02 -0.45503616386E+02  0.70896960605E+02  0.12700000000E+01 0. -1.
         -4    1    3    3    0  501 -0.22373830894E+02 -0.29501017071E+02  0.51335998583E+02  0.63307945533E+02  0.12700000000E+01 0. -1.
          2    1    1    2  502    0 -0.64271605976E+02 -0.12939673639E+02  0.13822112831E+04  0.13837652639E+04  0.00000000000E+00 0. -1.
          1    1    1    2  503    0  0.10832483694E+03 -0.74009648722E+01 -0.40428562211E+03  0.41861188328E+03  0.00000000000E+00 0. -1.
<mgrwt>
<rscale>  0 0.82063961E+02</rscale>
<asrwt>0</asrwt>
<pdfrwt beam="2">  1        2 0.73294156E-01 0.10272068E+03</pdfrwt>
<pdfrwt beam="1">  1        1 0.22464154E+00 0.65561227E+02</pdfrwt>
<totfact> 0.79056349E+01</totfact>
</mgrwt>
</event>
<event>
 7    1  0.4252091E-004  0.7604789E+02  0.7546771E-02  0.1364792E+00
          2   -1    0    0  503    0  0.00000000000E+00  0.00000000000E+00  0.18655721103E+04  0.18655721103E+04  0.00000000000E+00 0. -1.
          1   -1    0    0  502    0 -0.00000000000E+00 -0.00000000000E+00 -0.26893020541E+03  0.26893020541E+03  0.00000000000E+00 0. -1.
         25    2    1    2    0    0  0.50634359502E+02 -0.98910049548E+01  0.20740097311E+03  0.24760803900E+03  0.12503162394E+03 0.  0.
          4    1    3    3  501    0  0.64505253683E+02  0.10578453243E+02  0.21249928941E+03  0.22232946796E+03  0.12700000000E+01 0.  1.
         -4    1    3    3    0  501 -0.13870894181E+02 -0.20469458198E+02 -0.50983162982E+01  0.25278571031E+02  0.12700000000E+01 0.  1.
          2    1    1    2  502    0 -0.33713388350E+02  0.69482522581E+02 -0.24223211836E+03  0.25424557550E+03  0.00000000000E+00 0. -1.
          3    1    1    2  503    0 -0.16920971152E+02 -0.59591517626E+02  0.16314730502E+04  0.16326487012E+04  0.00000000000E+00 0. -1.
<mgrwt>
<rscale>  0 0.68636445E+02</rscale>
<asrwt>0</asrwt>
<pdfrwt beam="1">  1        2 0.28701109E+00 0.61947302E+02</pdfrwt>
<pdfrwt beam="2">  1        1 0.41373879E-01 0.76047889E+02</pdfrwt>
<totfact> 0.13879114E+02</totfact>
</mgrwt>
</event>
<event>
 7    1  0.4252091E-004  0.3929517E+02  0.7546771E-02  0.1516735E+00
          2   -1    0    0  503    0  0.00000000000E+00  0.00000000000E+00  0.82803158700E+03  0.82803158700E+03  0.00000000000E+00 0. -1.
          1   -1    0    0  502    0 -0.00000000000E+00 -0.00000000000E+00 -0.25901001504E+03  0.25901001504E+03  0.00000000000E+00 0. -1.
         25    2    1    2    0    0  0.57790217041E+02 -0.29443387190E+02 -0.10109780276E+03  0.17335427201E+03  0.12499726263E+03 0.  0.
          4    1    3    3  501    0  0.28073500603E+02 -0.57031891120E+02  0.89853895869E+00  0.63585991485E+02  0.12700000000E+01 0. -1.
         -4    1    3    3    0  501  0.29716716437E+02  0.27588503930E+02 -0.10199634172E+03  0.10976828052E+03  0.12700000000E+01 0. -1.
          2    1    1    2  502    0 -0.18764211536E+02  0.33548142587E+02 -0.11825058025E+03  0.12434135770E+03  0.00000000000E+00 0. -1.
          1    1    1    2  503    0 -0.39026005505E+02 -0.41047553969E+01  0.78836995498E+03  0.78934597233E+03  0.00000000000E+00 0. -1.
<mgrwt>
<rscale>  0 0.38864840E+02</rscale>
<asrwt>0</asrwt>
<pdfrwt beam="1">  1        2 0.12738947E+00 0.39295174E+02</pdfrwt>
<pdfrwt beam="2">  1        1 0.39847695E-01 0.38439218E+02</pdfrwt>
<totfact> 0.51996266E+02</totfact>
</mgrwt>
</event>
<event>
 7    1  0.4252091E-004  0.4177079E+02  0.7546771E-02  0.1581400E+00
          2   -1    0    0  503    0  0.00000000000E+00  0.00000000000E+00  0.15113141776E+04  0.15113141776E+04  0.00000000000E+00 0. -1.
          1   -1    0    0  502    0 -0.00000000000E+00 -0.00000000000E+00 -0.58699046853E+03  0.58699046853E+03  0.00000000000E+00 0. -1.
         25    2    1    2    0    0 -0.49141938163E+02 -0.12405924142E+02 -0.96995717388E+01  0.13523242610E+03  0.12499956135E+03 0.  0.
          4    1    3    3  501    0  0.42236878870E+01 -0.60205811455E+02 -0.18260633917E+02  0.63068557327E+02  0.12700000000E+01 0. -1.
         -4    1    3    3    0  501 -0.53365626050E+02  0.47799887312E+02  0.85610621778E+01  0.72163868774E+02  0.12700000000E+01 0. -1.
          2    1    1    2  502    0  0.85641185322E+01  0.22263432130E+02 -0.51394683472E+03  0.51450010054E+03  0.00000000000E+00 0. -1.
          1    1    1    2  503    0  0.40577819631E+02 -0.98575079880E+01  0.14479701156E+04  0.14485721195E+04  0.00000000000E+00 0. -1.
<mgrwt>
<rscale>  0 0.31565690E+02</rscale>
<asrwt>0</asrwt>
<pdfrwt beam="1">  1        2 0.23250987E+00 0.41770791E+02</pdfrwt>
<pdfrwt beam="2">  1        1 0.90306226E-01 0.23853816E+02</pdfrwt>
<totfact> 0.84357452E+01</totfact>
</mgrwt>
</event>
<event>
 7    1  0.4252091E-004  0.5912451E+02  0.7546771E-02  0.1543708E+00
          1   -1    0    0  502    0 -0.00000000000E+00  0.00000000000E+00  0.19137477093E+03  0.19137477093E+03  0.00000000000E+00 0. -1.
          2   -1    0    0  503    0  0.00000000000E+00 -0.00000000000E+00 -0.15221932069E+03  0.15221932069E+03  0.00000000000E+00 0. -1.
         25    2    1    2    0    0  0.62256525742E+02 -0.43662411495E+02 -0.43103827103E+02  0.15252957017E+03  0.12500019476E+03 0.  0.
          4    1    3    3  501    0  0.62912006951E+02 -0.14749452492E+02 -0.81769975811E+02  0.10422767776E+03  0.12700000000E+01 0. -1.
         -4    1    3    3    0  501 -0.65548120989E+00 -0.28912959003E+02  0.38666148707E+02  0.48301892404E+02  0.12700000000E+01 0. -1.
          2    1    1    2  502    0 -0.16250341929E+02  0.13899395400E+02  0.12169193738E+03  0.12355644228E+03  0.00000000000E+00 0. -1.
          1    1    1    2  503    0 -0.46006183812E+02  0.29763016095E+02 -0.39432660041E+02  0.67508079175E+02  0.00000000000E+00 0. -1.
<mgrwt>
<rscale>  0 0.35557088E+02</rscale>
<asrwt>0</asrwt>
<pdfrwt beam="2">  1        2 0.23418357E-01 0.59124507E+02</pdfrwt>
<pdfrwt beam="1">  1        1 0.29442272E-01 0.21383798E+02</pdfrwt>
<totfact> 0.43734168E+03</totfact>
</mgrwt>
</event>
<event>
 7    1  0.4252091E-004  0.1039994E+03  0.7546771E-02  0.1354838E+00
          2   -1    0    0  503    0  0.00000000000E+00  0.00000000000E+00  0.16486543291E+04  0.16486543291E+04  0.00000000000E+00 0. -1.
          1   -1    0    0  502    0 -0.00000000000E+00 -0.00000000000E+00 -0.74453808448E+02  0.74453808448E+02  0.00000000000E+00 0. -1.
         25    2    1    2    0    0  0.89859169555E+02 -0.73968649101E+02  0.10151651261E+04  0.10294322705E+04  0.12499813990E+03 0.  0.
          4    1    3    3  501    0  0.11250319560E+02  0.31233880933E+02  0.11383143474E+03  0.11858049352E+03  0.12700000000E+01 0. -1.
         -4    1    3    3    0  501  0.78608849995E+02 -0.10520253003E+03  0.90133369134E+03  0.91085177700E+03  0.12700000000E+01 0. -1.
          2    1    1    2  502    0 -0.44770548633E+02  0.93785033629E+02 -0.25551228351E+02  0.10701822194E+03  0.00000000000E+00 0. -1.
          1    1    1    2  503    0 -0.45088620922E+02 -0.19816384528E+02  0.58458662292E+03  0.58665764508E+03  0.00000000000E+00 0. -1.
<mgrwt>
<rscale>  0 0.71568749E+02</rscale>
<asrwt>0</asrwt>
<pdfrwt beam="1">  1        2 0.25363910E+00 0.49251120E+02</pdfrwt>
<pdfrwt beam="2">  1        1 0.11454433E-01 0.10399938E+03</pdfrwt>
<totfact> 0.91409354E+02</totfact>
</mgrwt>
</event>
<event>
 7    1  0.4252091E-004  0.5674554E+02  0.7546771E-02  0.1478694E+00
          1   -1    0    0  503    0  0.00000000000E+00  0.00000000000E+00  0.21247593235E+04  0.21247593235E+04  0.00000000000E+00 0. -1.
         -1   -1    0    0    0  501 -0.00000000000E+00 -0.00000000000E+00 -0.22310269947E+03  0.22310269947E+03  0.00000000000E+00 0.  1.
         25    2    1    2    0    0  0.12153260234E+02 -0.25952427876E+02 -0.11215845543E+03  0.17037170191E+03  0.12500306972E+03 0.  0.
          4    1    3    3  502    0 -0.45055573204E+02 -0.39153473280E+02 -0.23790511237E+02  0.64269747717E+02  0.12700000000E+01 0. -1.
         -4    1    3    3    0  502  0.57208833438E+02  0.13201045403E+02 -0.88367944191E+02  0.10610195419E+03  0.12700000000E+01 0. -1.
          2    1    1    2  503    0 -0.45925217300E+02  0.33477559430E+02  0.20915922279E+04  0.20923641940E+04  0.00000000000E+00 0. -1.
         -2    1    1    2    0  501  0.33771957066E+02 -0.75251315536E+01 -0.77777148432E+02  0.85126127054E+02  0.00000000000E+00 0.  1.
<mgrwt>
<rscale>  0 0.44310337E+02</rscale>
<asrwt>0</asrwt>
<pdfrwt beam="1">  1        1 0.32688604E+00 0.56745537E+02</pdfrwt>
<pdfrwt beam="2">  1       -1 0.34323494E-01 0.34600183E+02</pdfrwt>
<totfact> 0.27221929E+01</totfact>
</mgrwt>
</event>
<event>
 7    1  0.4252091E-004  0.3211885E+02  0.7546771E-02  0.1651971E+00
          2   -1    0    0  503    0  0.00000000000E+00  0.00000000000E+00  0.51307547344E+03  0.51307547344E+03  0.00000000000E+00 0. -1.
          1   -1    0    0  502    0 -0.00000000000E+00 -0.00000000000E+00 -0.45273680730E+02  0.45273680730E+02  0.00000000000E+00 0. -1.
         25    2    1    2    0    0  0.12808349894E+02 -0.44922306611E+01  0.12371658589E+03  0.17639531964E+03  0.12500112480E+03 0.  0.
          4    1    3    3  501    0  0.52397452870E+01 -0.33362876463E+01  0.14941556010E+03  0.14955001921E+03  0.12700000000E+01 0. -1.
         -4    1    3    3    0  501  0.75686046069E+01 -0.11559430148E+01 -0.25698974206E+02  0.26845300430E+02  0.12700000000E+01 0. -1.
          2    1    1    2  502    0 -0.32250204164E+02  0.10893799015E+02 -0.30857515443E+01  0.34179999827E+02  0.00000000000E+00 0. -1.
          1    1    1    2  503    0  0.19441854270E+02 -0.64015683537E+01  0.34717095836E+03  0.34777383471E+03  0.00000000000E+00 0. -1.
<mgrwt>
<rscale>  0 0.25640390E+02</rscale>
<asrwt>0</asrwt>
<pdfrwt beam="1">  1        2 0.78934684E-01 0.20468653E+02</pdfrwt>
<pdfrwt beam="2">  1        1 0.69651820E-02 0.32118850E+02</pdfrwt>
<totfact> 0.74807267E+03</totfact>
</mgrwt>
</event>
<event>
 7    1  0.4252091E-004  0.9589501E+02  0.7546771E-02  0.1360964E+00
          1   -1    0    0  502    0 -0.00000000000E+00  0.00000000000E+00  0.53419636464E+02  0.53419636464E+02  0.00000000000E+00 0. -1.
          2   -1    0    0  503    0  0.00000000000E+00 -0.00000000000E+00 -0.16333169705E+04  0.16333169705E+04  0.00000000000E+00 0. -1.
         25    2    1    2    0    0  0.59304792856E+02  0.56522945775E+02 -0.62104134768E+03  0.63877136674E+03  0.12499840633E+03 0.  0.
          4    1    3    3  501    0  0.73532871027E+01 -0.32578899557E+02 -0.63399427864E+02  0.71669769646E+02  0.12700000000E+01 0.  1.
         -4    1    3    3    0  501  0.51951505753E+02  0.89101845331E+02 -0.55764191981E+03  0.56710159709E+03  0.12700000000E+01 0.  1.
          2    1    1    2  502    0 -0.25807289325E+02 -0.94614325494E+02 -0.10924355458E+02  0.98677395147E+02  0.00000000000E+00 0. -1.
          1    1    1    2  503    0 -0.33497503531E+02  0.38091379719E+02 -0.94793163092E+03  0.94928784510E+03  0.00000000000E+00 0. -1.
<mgrwt>
<rscale>  0 0.69744420E+02</rscale>
<asrwt>0</asrwt>
<pdfrwt beam="2">  1        2 0.25127955E+00 0.50725102E+02</pdfrwt>
<pdfrwt beam="1">  1        1 0.82184052E-02 0.95895009E+02</pdfrwt>
<totfact> 0.14279830E+03</totfact>
</mgrwt>
</event>
<event>
 7    1  0.4252091E-004  0.7340387E+02  0.7546771E-02  0.1386627E+00
          1   -1    0    0  502    0 -0.00000000000E+00  0.00000000000E+00  0.45866331558E+03  0.45866331558E+03  0.00000000000E+00 0. -1.
          2   -1    0    0  503    0  0.00000000000E+00 -0.00000000000E+00 -0.11877064042E+04  0.11877064042E+04  0.00000000000E+00 0. -1.
         25    2    1    2    0    0  0.32625549486E+02 -0.19173997836E+02  0.47918437362E+02  0.13911590538E+03  0.12499995927E+03 0.  0.
          4    1    3    3  501    0 -0.31982715716E+02 -0.47255263305E+02  0.36473570162E+02  0.67733951863E+02  0.12700000000E+01 0.  1.
         -4    1    3    3    0  501  0.64608265202E+02  0.28081265469E+02  0.11444867201E+02  0.71381953518E+02  0.12700000000E+01 0.  1.
          2    1    1    2  502    0 -0.12766682780E+02 -0.52107314438E+02  0.36196848179E+03  0.36592259048E+03  0.00000000000E+00 0. -1.
          1    1    1    2  503    0 -0.19858866706E+02  0.71281312273E+02 -0.11389300077E+04  0.11413312239E+04  0.00000000000E+00 0. -1.
<mgrwt>
<rscale>  0 0.62753540E+02</rscale>
<asrwt>0</asrwt>
<pdfrwt beam="2">  1        2 0.18272406E+00 0.73403870E+02</pdfrwt>
<pdfrwt beam="1">  1        1 0.70563587E-01 0.53648489E+02</pdfrwt>
<totfact> 0.15766364E+02</totfact>
</mgrwt>
</event>
<event>
 7    1  0.4252091E-004  0.7538141E+02  0.7546771E-02  0.1409211E+00
          2   -1    0    0  503    0  0.00000000000E+00  0.00000000000E+00  0.40801441643E+02  0.40801441643E+02  0.00000000000E+00 0. -1.
          1   -1    0    0  502    0 -0.00000000000E+00 -0.00000000000E+00 -0.14186694834E+04  0.14186694834E+04  0.00000000000E+00 0. -1.
         25    2    1    2    0    0  0.39541626413E+02 -0.94822711685E+02 -0.60302528987E+03  0.62435372215E+03  0.12499273285E+03 0.  0.
          4    1    3    3  501    0  0.38083049941E+01 -0.86939758345E+02 -0.56463221505E+03  0.57130042529E+03  0.12700000000E+01 0. -1.
         -4    1    3    3    0  501  0.35733321419E+02 -0.78829533397E+01 -0.38393074828E+02  0.53053296860E+02  0.12700000000E+01 0. -1.
          2    1    1    2  502    0 -0.49491593328E+02  0.52308842915E+02 -0.78660787435E+03  0.78989719637E+03  0.00000000000E+00 0. -1.
          1    1    1    2  503    0  0.99499669147E+01  0.42513868770E+02  0.11765122494E+02  0.45220006487E+02  0.00000000000E+00 0. -1.
<mgrwt>
<rscale>  0 0.57370336E+02</rscale>
<asrwt>0</asrwt>
<pdfrwt beam="1">  1        2 0.62771451E-02 0.43662694E+02</pdfrwt>
<pdfrwt beam="2">  1        1 0.21825684E+00 0.75381409E+02</pdfrwt>
<totfact> 0.12382400E+03</totfact>
</mgrwt>
</event>
<event>
 7    1  0.4252091E-004  0.2110024E+03  0.7546771E-02  0.1290964E+00
          2   -1    0    0  503    0  0.00000000000E+00  0.00000000000E+00  0.38640102883E+03  0.38640102883E+03  0.00000000000E+00 0. -1.
          1   -1    0    0  502    0 -0.00000000000E+00 -0.00000000000E+00 -0.18484255479E+03  0.18484255479E+03  0.00000000000E+00 0. -1.
         25    2    1    2    0    0  0.14225939271E+03  0.12247876398E+03  0.85699926079E+02  0.24126461909E+03  0.12500142661E+03 0.  0.
          4    1    3    3  501    0  0.88366615086E+02  0.44781469980E+02  0.10541433765E+03  0.14466455750E+03  0.12700000000E+01 0.  1.
         -4    1    3    3    0  501  0.53892777621E+02  0.77697294000E+02 -0.19714411571E+02  0.96600061585E+02  0.12700000000E+01 0.  1.
          2    1    1    2  502    0 -0.18074032314E+03 -0.14134512126E+03  0.26622964206E+02  0.23098547560E+03  0.00000000000E+00 0. -1.
          3    1    1    2  503    0  0.38480930434E+02  0.18866357279E+02  0.89235583751E+02  0.98993488934E+02  0.00000000000E+00 0. -1.
<mgrwt>
<rscale>  0 0.95094317E+02</rscale>
<asrwt>0</asrwt>
<pdfrwt beam="1">  1        2 0.59446312E-01 0.42856988E+02</pdfrwt>
<pdfrwt beam="2">  1        1 0.28437316E-01 0.21100244E+03</pdfrwt>
<totfact> 0.18242343E+03</totfact>
</mgrwt>
</event>
<event>
 7    1  0.4252091E-004  0.5290801E+02  0.7546771E-02  0.1455295E+00
          2   -1    0    0  503    0  0.00000000000E+00  0.00000000000E+00  0.61384211217E+03  0.61384211217E+03  0.00000000000E+00 0. -1.
          1   -1    0    0  502    0 -0.00000000000E+00 -0.00000000000E+00 -0.28352298467E+03  0.28352298467E+03  0.00000000000E+00 0. -1.
         25    2    1    2    0    0  0.42541155968E+02 -0.25940887883E+02  0.37264628320E+03  0.39619784106E+03  0.12499918905E+03 0.  0.
          4    1    3    3  501    0  0.15853454848E+02 -0.68160522801E+02  0.12227505234E+03  0.14088999334E+03  0.12700000000E+01 0. -1.
         -4    1    3    3    0  501  0.26687701121E+02  0.42219634918E+02  0.25037123086E+03  0.25530784772E+03  0.12700000000E+01 0. -1.
          2    1    1    2  502    0 -0.75765434847E+01  0.52507181302E+02 -0.26701217221E+03  0.27223135052E+03  0.00000000000E+00 0. -1.
          1    1    1    2  503    0 -0.34964612484E+02 -0.26566293419E+02  0.22468501651E+03  0.22893590526E+03  0.00000000000E+00 0. -1.
<mgrwt>
<rscale>  0 0.48200763E+02</rscale>
<asrwt>0</asrwt>
<pdfrwt beam="1">  1        2 0.94437248E-01 0.43912323E+02</pdfrwt>
<pdfrwt beam="2">  1        1 0.43618921E-01 0.52908009E+02</pdfrwt>
<totfact> 0.65519007E+02</totfact>
</mgrwt>
</event>
<event>
 7    1  0.4252091E-004  0.6753125E+02  0.7546771E-02  0.1460593E+00
         -2   -1    0    0    0  501 -0.00000000000E+00  0.00000000000E+00  0.36296259439E+03  0.36296259439E+03  0.00000000000E+00 0.  1.
          2   -1    0    0  503    0  0.00000000000E+00 -0.00000000000E+00 -0.50191829539E+04  0.50191829539E+04  0.00000000000E+00 0. -1.
         25    2    1    2    0    0 -0.82628580857E+02  0.57362558595E+02  0.13428862772E+03  0.20922811718E+03  0.12500009592E+03 0.  0.
          4    1    3    3  502    0 -0.29754417746E+02  0.82648162758E+02  0.36325707033E+02  0.95064262865E+02  0.12700000000E+01 0. -1.
         -4    1    3    3    0  502 -0.52874163112E+02 -0.25285604164E+02  0.97962920686E+02  0.11416385431E+03  0.12700000000E+01 0. -1.
          1    1    1    2  503    0  0.55507949925E+02 -0.38384844165E+02 -0.49800502586E+04  0.49805075150E+04  0.00000000000E+00 0. -1.
         -1    1    1    2    0  501  0.27120630932E+02 -0.18977714429E+02  0.18954127137E+03  0.19240991612E+03  0.00000000000E+00 0.  1.
<mgrwt>
<rscale>  0 0.47279574E+02</rscale>
<asrwt>0</asrwt>
<pdfrwt beam="2">  1        2 0.77218193E+00 0.67531251E+02</pdfrwt>
<pdfrwt beam="1">  1       -2 0.55840404E-01 0.33101092E+02</pdfrwt>
<totfact> 0.22173823E-01</totfact>
</mgrwt>
</event>
<event>
 7    1  0.4252091E-004  0.7911523E+02  0.7546771E-02  0.1499690E+00
          2   -1    0    0  503    0  0.00000000000E+00  0.00000000000E+00  0.65198429825E+03  0.65198429825E+03  0.00000000000E+00 0. -1.
          1   -1    0    0  502    0 -0.00000000000E+00 -0.00000000000E+00 -0.17332231043E+04  0.17332231043E+04  0.00000000000E+00 0. -1.
         25    2    1    2    0    0  0.27325560214E+02 -0.95947251231E+02 -0.17652974052E+03  0.23820280969E+03  0.12500107197E+03 0.  0.
          4    1    3    3  501    0 -0.11027951507E+02 -0.25143559570E+02 -0.15134794781E+03  0.15382336789E+03  0.12700000000E+01 0. -1.
         -4    1    3    3    0  501  0.38353511721E+02 -0.70803691662E+02 -0.25181792714E+02  0.84379441801E+02  0.12700000000E+01 0. -1.
          2    1    1    2  502    0 -0.23369605212E+02  0.74879042009E+02 -0.15246633349E+04  0.15266798270E+04  0.00000000000E+00 0. -1.
          1    1    1    2  503    0 -0.39559550016E+01  0.21068209222E+02  0.61995426938E+03  0.62032476586E+03  0.00000000000E+00 0. -1.
<mgrwt>
<rscale>  0 0.41181857E+02</rscale>
<asrwt>0</asrwt>
<pdfrwt beam="1">  1        2 0.10030528E+00 0.21436395E+02</pdfrwt>
<pdfrwt beam="2">  1        1 0.26664971E+00 0.79115230E+02</pdfrwt>
<totfact> 0.38395187E+01</totfact>
</mgrwt>
</event>
<event>
 7    1  0.4252091E-004  0.5732596E+02  0.7546771E-02  0.1416288E+00
         -1   -1    0    0    0  502 -0.00000000000E+00  0.00000000000E+00  0.22825650410E+03  0.22825650410E+03  0.00000000000E+00 0.  1.
         -2   -1    0    0    0  501  0.00000000000E+00 -0.00000000000E+00 -0.21732730913E+03  0.21732730913E+03  0.00000000000E+00 0.  1.
         25    2    1    2    0    0  0.81193723763E+02  0.15451844303E+02  0.60137889277E+02  0.16147154362E+03  0.12500125360E+03 0.  0.
          4    1    3    3  503    0 -0.30376417439E+02  0.21197965055E+02  0.68584120645E+01  0.37692587798E+02  0.12700000000E+01 0. -1.
         -4    1    3    3    0  503  0.11157014120E+03 -0.57461207522E+01  0.53279477213E+02  0.12377895582E+03  0.12700000000E+01 0. -1.
         -2    1    1    2    0  502 -0.45788321528E+02  0.29265617316E+02  0.10580172328E+03  0.11894137798E+03  0.00000000000E+00 0.  1.
         -1    1    1    2    0  501 -0.35405402235E+02 -0.44717461619E+02 -0.15501041760E+03  0.16517089164E+03  0.00000000000E+00 0.  1.
<mgrwt>
<rscale>  0 0.55814013E+02</rscale>
<asrwt>0</asrwt>
<pdfrwt beam="2">  1       -2 0.33434970E-01 0.57325959E+02</pdfrwt>
<pdfrwt beam="1">  1       -1 0.35116385E-01 0.54341943E+02</pdfrwt>
<totfact> 0.46413980E+02</totfact>
</mgrwt>
</event>
<event>
 7    1  0.4252091E-004  0.2479515E+03  0.7546771E-02  0.1245412E+00
         -2   -1    0    0    0  501 -0.00000000000E+00  0.00000000000E+00  0.10755055871E+04  0.10755055871E+04  0.00000000000E+00 0.  1.
          2   -1    0    0  503    0  0.00000000000E+00 -0.00000000000E+00 -0.91075208459E+03  0.91075208459E+03  0.00000000000E+00 0. -1.
         25    2    1    2    0    0 -0.34568612700E+02  0.21749695859E+03  0.19972835262E+03  0.32251197295E+03  0.12499056714E+03 0.  0.
          4    1    3    3  502    0  0.22187089661E+01  0.11930962761E+03  0.30075781068E+02  0.12306858014E+03  0.12700000000E+01 0.  1.
         -4    1    3    3    0  502 -0.36787321666E+02  0.98187330973E+02  0.16965257156E+03  0.19944339281E+03  0.12700000000E+01 0.  1.
          1    1    1    2  503    0 -0.50299563829E+02  0.26246858860E+02 -0.82791594663E+03  0.82985767359E+03  0.00000000000E+00 0. -1.
         -1    1    1    2    0  501  0.84868176529E+02 -0.24374381745E+03  0.79294109648E+03  0.83388802511E+03  0.00000000000E+00 0.  1.
<mgrwt>
<rscale>  0 0.11860738E+03</rscale>
<asrwt>0</asrwt>
<pdfrwt beam="2">  1        2 0.14011570E+00 0.56735736E+02</pdfrwt>
<pdfrwt beam="1">  1       -2 0.16546240E+00 0.24795150E+03</pdfrwt>
<totfact> 0.80161714E+00</totfact>
</mgrwt>
</event>
<event>
 7    1  0.4252091E-004  0.7755431E+02  0.7546771E-02  0.1417132E+00
          2   -1    0    0  503    0  0.00000000000E+00  0.00000000000E+00  0.20023479085E+03  0.20023479085E+03  0.00000000000E+00 0. -1.
         -2   -1    0    0    0  501 -0.00000000000E+00 -0.00000000000E+00 -0.43621342875E+03  0.43621342875E+03  0.00000000000E+00 0.  1.
         25    2    1    2    0    0 -0.17491017696E+02  0.87552710192E+02  0.30477929152E+02  0.15660550550E+03  0.12499986971E+03 0.  0.
          4    1    3    3  502    0  0.27064832215E+02 -0.21676729293E+02 -0.23322585837E+00  0.34699467287E+02  0.12700000000E+01 0. -1.
         -4    1    3    3    0  502 -0.44555849911E+02  0.10922943949E+03  0.30711155011E+02  0.12190603822E+03  0.12700000000E+01 0. -1.
          1    1    1    2  503    0 -0.20028958289E+02 -0.73958295471E+02  0.91683698558E+02  0.11948593733E+03  0.00000000000E+00 0. -1.
         -1    1    1    2    0  501  0.37519975984E+02 -0.13594414721E+02 -0.35814026561E+03  0.36035677676E+03  0.00000000000E+00 0.  1.
<mgrwt>
<rscale>  0 0.55632258E+02</rscale>
<asrwt>0</asrwt>
<pdfrwt beam="1">  1        2 0.30805352E-01 0.77554307E+02</pdfrwt>
<pdfrwt beam="2">  1       -2 0.67109759E-01 0.39906850E+02</pdfrwt>
<totfact> 0.35613131E+02</totfact>
</mgrwt>
</event>
<event>
 7    1  0.4252091E-004  0.1228178E+03  0.7546771E-02  0.1273360E+00
          2   -1    0    0  503    0  0.00000000000E+00  0.00000000000E+00  0.20251675426E+04  0.20251675426E+04  0.00000000000E+00 0. -1.
          1   -1    0    0  502    0 -0.00000000000E+00 -0.00000000000E+00 -0.28162379701E+03  0.28162379701E+03  0.00000000000E+00 0. -1.
         25    2    1    2    0    0  0.10687047644E+03 -0.19495373477E+01 -0.19634128422E+00  0.16446863936E+03  0.12499918141E+03 0.  0.
          4    1    3    3  501    0  0.36461880585E+02  0.40134603680E+02  0.45293351337E+02  0.70663680371E+02  0.12700000000E+01 0. -1.
         -4    1    3    3    0  501  0.70408595860E+02 -0.42084141028E+02 -0.45489692621E+02  0.93804958993E+02  0.12700000000E+01 0. -1.
          2    1    1    2  502    0 -0.99206001128E+02  0.88617089948E+02 -0.17599853158E+03  0.22061346833E+03  0.00000000000E+00 0. -1.
          1    1    1    2  503    0 -0.76644753162E+01 -0.86667552600E+02  0.19197386185E+04  0.19217092320E+04  0.00000000000E+00 0. -1.
<mgrwt>
<rscale>  0 0.10337243E+03</rscale>
<asrwt>0</asrwt>
<pdfrwt beam="1">  1        2 0.31156423E+00 0.87005798E+02</pdfrwt>
<pdfrwt beam="2">  1        1 0.43326739E-01 0.12281778E+03</pdfrwt>
<totfact> 0.10550503E+02</totfact>
</mgrwt>
</event>
<event>
 7    1  0.4252091E-004  0.8103078E+02  0.7546771E-02  0.1360711E+00
          2   -1    0    0  503    0  0.00000000000E+00  0.00000000000E+00  0.28374572911E+04  0.28374572911E+04  0.00000000000E+00 0. -1.
          1   -1    0    0  502    0 -0.00000000000E+00 -0.00000000000E+00 -0.23157396412E+04  0.23157396412E+04  0.00000000000E+00 0. -1.
         25    2    1    2    0    0  0.75452850979E+01  0.10239986077E+03  0.53160141099E+03  0.55566967488E+03  0.12500425833E+03 0.  0.
          4    1    3    3  501    0 -0.11633102824E+02  0.60062970958E+02  0.48834565477E+03  0.49216458730E+03  0.12700000000E+01 0.  1.
         -4    1    3    3    0  501  0.19178387922E+02  0.42336889814E+02  0.43255756228E+02  0.63505087586E+02  0.12700000000E+01 0.  1.
          2    1    1    2  502    0 -0.49919079337E+02 -0.33571688376E+02 -0.23026005263E+04  0.23033862370E+04  0.00000000000E+00 0. -1.
          1    1    1    2  503    0  0.42373794239E+02 -0.68828172396E+02  0.22927167653E+04  0.22941410204E+04  0.00000000000E+00 0. -1.
<mgrwt>
<rscale>  0 0.69818634E+02</rscale>
<asrwt>0</asrwt>
<pdfrwt beam="1">  1        2 0.43653189E+00 0.81030783E+02</pdfrwt>
<pdfrwt beam="2">  1        1 0.35626763E+00 0.60157898E+02</pdfrwt>
<totfact> 0.10995652E+00</totfact>
</mgrwt>
</event>
<event>
 7    1  0.4252091E-004  0.9052726E+02  0.7546771E-02  0.1373994E+00
          1   -1    0    0  502    0 -0.00000000000E+00  0.00000000000E+00  0.14441335199E+03  0.14441335199E+03  0.00000000000E+00 0. -1.
          2   -1    0    0  503    0  0.00000000000E+00 -0.00000000000E+00 -0.40062038868E+03  0.40062038868E+03  0.00000000000E+00 0. -1.
         25    2    1    2    0    0  0.11993446408E+03 -0.15359348388E+02 -0.73781122212E+02  0.18892865763E+03  0.12502079196E+03 0.  0.
          4    1    3    3  501    0 -0.18652312468E+02  0.23025547388E+02 -0.17903983396E+02  0.34644626053E+02  0.12700000000E+01 0.  1.
         -4    1    3    3    0  501  0.13858677655E+03 -0.38384895776E+02 -0.55877138816E+02  0.15428403158E+03  0.12700000000E+01 0.  1.
          2    1    1    2  502    0 -0.84547908771E+02 -0.17395294445E+02  0.62441090235E+02  0.10653560389E+03  0.00000000000E+00 0. -1.
          1    1    1    2  503    0 -0.35386555312E+02  0.32754642833E+02 -0.24486700472E+03  0.24956947915E+03  0.00000000000E+00 0. -1.
<mgrwt>
<rscale>  0 0.66069181E+02</rscale>
<asrwt>0</asrwt>
<pdfrwt beam="2">  1        2 0.61633905E-01 0.48219031E+02</pdfrwt>
<pdfrwt beam="1">  1        1 0.22217439E-01 0.90527260E+02</pdfrwt>
<totfact> 0.23530103E+03</totfact>
</mgrwt>
</event>
<event>
 7    1  0.4252091E-004  0.8853062E+02  0.7546771E-02  0.1347359E+00
          1   -1    0    0  502    0 -0.00000000000E+00  0.00000000000E+00  0.10266903182E+03  0.10266903182E+03  0.00000000000E+00 0. -1.
          2   -1    0    0  503    0  0.00000000000E+00 -0.00000000000E+00 -0.18889262212E+04  0.18889262212E+04  0.00000000000E+00 0. -1.
         25    2    1    2    0    0  0.38924332422E+02  0.78954324227E+02 -0.69229240790E+03  0.70897225274E+03  0.12499595252E+03 0.  0.
          4    1    3    3  501    0  0.59829951345E+02  0.10583954489E+02 -0.50240741517E+03  0.50606962652E+03  0.12700000000E+01 0. -1.
         -4    1    3    3    0  501 -0.20905618923E+02  0.68370369738E+02 -0.18988499273E+03  0.20290262622E+03  0.12700000000E+01 0. -1.
          2    1    1    2  502    0 -0.60703690840E+02  0.10829166053E+02  0.82243446343E+02  0.10279199086E+03  0.00000000000E+00 0. -1.
          1    1    1    2  503    0  0.21779358418E+02 -0.89783490280E+02 -0.11762082278E+04  0.11798310094E+04  0.00000000000E+00 0. -1.
<mgrwt>
<rscale>  0 0.73884908E+02</rscale>
<asrwt>0</asrwt>
<pdfrwt beam="2">  1        2 0.29060403E+00 0.88530617E+02</pdfrwt>
<pdfrwt beam="1">  1        1 0.15795236E-01 0.61662054E+02</pdfrwt>
<totfact> 0.42244984E+02</totfact>
</mgrwt>
</event>
<event>
 7    1  0.4252091E-004  0.4665254E+02  0.7546771E-02  0.1477734E+00
         -2   -1    0    0    0  501 -0.00000000000E+00  0.00000000000E+00  0.13502944403E+04  0.13502944403E+04  0.00000000000E+00 0.  1.
          2   -1    0    0  503    0  0.00000000000E+00 -0.00000000000E+00 -0.40537591247E+02  0.40537591247E+02  0.00000000000E+00 0. -1.
         25    2    1    2    0    0 -0.12988153143E+02  0.60115045208E+02  0.13868506979E+03  0.19657285589E+03  0.12499931322E+03 0.  0.
          4    1    3    3  502    0 -0.29220514376E+02  0.95335556530E+02  0.10887709853E+03  0.14764329407E+03  0.12700000000E+01 0.  1.
         -4    1    3    3    0  502  0.16232361233E+02 -0.35220511321E+02  0.29807971262E+02  0.48929561818E+02  0.12700000000E+01 0.  1.
          1    1    1    2  503    0  0.37234209243E+02 -0.20224835588E+02  0.29259788299E+02  0.51493354171E+02  0.00000000000E+00 0. -1.
         -1    1    1    2    0  501 -0.24246056100E+02 -0.39890209621E+02  0.11418119910E+04  0.11427658215E+04  0.00000000000E+00 0.  1.
<mgrwt>
<rscale>  0 0.44461056E+02</rscale>
<asrwt>0</asrwt>
<pdfrwt beam="2">  1        2 0.62365535E-02 0.42372518E+02</pdfrwt>
<pdfrwt beam="1">  1       -2 0.20773757E+00 0.46652537E+02</pdfrwt>
<totfact> 0.14783193E+02</totfact>
</mgrwt>
</event>
<event>
 7    1  0.4252091E-004  0.7262947E+02  0.7546771E-02  0.1358822E+00
          1   -1    0    0  502    0 -0.00000000000E+00  0.00000000000E+00  0.93348697834E+02  0.93348697834E+02  0.00000000000E+00 0. -1.
          2   -1    0    0  503    0  0.00000000000E+00 -0.00000000000E+00 -0.37328320419E+04  0.37328320419E+04  0.00000000000E+00 0. -1.
         25    2    1    2    0    0  0.94022593014E+01 -0.25762601230E+02 -0.18295063521E+03  0.22326468936E+03  0.12499628989E+03 0.  0.
          4    1    3    3  501    0 -0.41639879342E+02 -0.54690010894E+02 -0.88457420208E+02  0.11203216026E+03  0.12700000000E+01 0.  1.
         -4    1    3    3    0  501  0.51042138644E+02  0.28927409664E+02 -0.94493215004E+02  0.11123252910E+03  0.12700000000E+01 0.  1.
          2    1    1    2  502    0  0.48313973908E+02  0.62078177020E+02  0.51628134680E+02  0.94092531199E+02  0.00000000000E+00 0. -1.
          1    1    1    2  503    0 -0.57716233209E+02 -0.36315575790E+02 -0.35081608436E+04  0.35088235192E+04  0.00000000000E+00 0. -1.
<mgrwt>
<rscale>  0 0.70375148E+02</rscale>
<asrwt>0</asrwt>
<pdfrwt beam="2">  1        2 0.57428197E+00 0.68190796E+02</pdfrwt>
<pdfrwt beam="1">  1        1 0.14361335E-01 0.72629471E+02</pdfrwt>
<totfact> 0.46589401E+01</totfact>
</mgrwt>
</event>
<event>
 7    1  0.4252091E-004  0.9354784E+02  0.7546771E-02  0.1466518E+00
          1   -1    0    0  502    0 -0.00000000000E+00  0.00000000000E+00  0.50983249461E+03  0.50983249461E+03  0.00000000000E+00 0. -1.
          2   -1    0    0  503    0  0.00000000000E+00 -0.00000000000E+00 -0.25474270491E+03  0.25474270491E+03  0.00000000000E+00 0. -1.
         25    2    1    2    0    0  0.85191070443E+02 -0.90035102262E+01  0.25324683288E+03  0.29512323313E+03  0.12500073076E+03 0.  0.
          4    1    3    3  501    0  0.83743493190E+02 -0.57232526281E+02  0.14910686712E+03  0.18034135809E+03  0.12700000000E+01 0. -1.
         -4    1    3    3    0  501  0.14475772534E+01  0.48229016054E+02  0.10413996576E+03  0.11478187505E+03  0.12700000000E+01 0. -1.
          2    1    1    2  502    0  0.32073863020E+01 -0.22667797800E+02  0.22561663992E+03  0.22677518514E+03  0.00000000000E+00 0. -1.
          1    1    1    2  503    0 -0.88398456745E+02  0.31671308027E+02 -0.22377368311E+03  0.24267678125E+03  0.00000000000E+00 0. -1.
<mgrwt>
<rscale>  0 0.46277919E+02</rscale>
<asrwt>0</asrwt>
<pdfrwt beam="2">  1        2 0.39191186E-01 0.93547843E+02</pdfrwt>
<pdfrwt beam="1">  1        1 0.78435768E-01 0.22893588E+02</pdfrwt>
<totfact> 0.81981110E+02</totfact>
</mgrwt>
</event>
<event>
 7    1  0.4252091E-004  0.1369655E+03  0.7546771E-02  0.1293359E+00
          2   -1    0    0  503    0  0.00000000000E+00  0.00000000000E+00  0.61936303450E+03  0.61936303450E+03  0.00000000000E+00 0. -1.
          1   -1    0    0  502    0 -0.00000000000E+00 -0.00000000000E+00 -0.21912207401E+03  0.21912207401E+03  0.00000000000E+00 0. -1.
         25    2    1    2    0    0  0.11901775025E+03  0.11103017415E+03  0.14807929222E+03  0.25306793951E+03  0.12499192285E+03 0.  0.
          4    1    3    3  501    0 -0.14279325184E+02  0.22436694226E+02  0.70178037294E+02  0.75059137977E+02  0.12700000000E+01 0.  1.
         -4    1    3    3    0  501  0.13329707544E+03  0.88593479923E+02  0.77901254923E+02  0.17800880153E+03  0.12700000000E+01 0.  1.
          2    1    1    2  502    0  0.62357220488E+01 -0.64262163613E+02 -0.14909389640E+03  0.16247307422E+03  0.00000000000E+00 0. -1.
          1    1    1    2  503    0 -0.12525347230E+03 -0.46768010537E+02  0.40125556467E+03  0.42294409479E+03  0.00000000000E+00 0. -1.
<mgrwt>
<rscale>  0 0.94037436E+02</rscale>
<asrwt>0</asrwt>
<pdfrwt beam="1">  1        2 0.95286620E-01 0.13696549E+03</pdfrwt>
<pdfrwt beam="2">  1        1 0.33711089E-01 0.64563998E+02</pdfrwt>
<totfact> 0.86285121E+02</totfact>
</mgrwt>
</event>
<event>
 7    1  0.4252091E-004  0.7377906E+02  0.7546771E-02  0.1432645E+00
          1   -1    0    0  503    0  0.00000000000E+00  0.00000000000E+00  0.93984241611E+03  0.93984241611E+03  0.00000000000E+00 0. -1.
         -1   -1    0    0    0  501 -0.00000000000E+00 -0.00000000000E+00 -0.29775456206E+03  0.29775456206E+03  0.00000000000E+00 0.  1.
         25    2    1    2    0    0 -0.74641389942E+02 -0.76916297327E+02  0.18703841278E+03  0.24918527662E+03  0.12498992095E+03 0.  0.
          4    1    3    3  502    0 -0.56341777514E+02 -0.37087802187E+02  0.19344330224E+03  0.20487026393E+03  0.12700000000E+01 0.  1.
         -4    1    3    3    0  502 -0.18299612429E+02 -0.39828495140E+02 -0.64048894509E+01  0.44315012683E+02  0.12700000000E+01 0.  1.
          2    1    1    2  503    0  0.56646497515E+02  0.44286990835E+02  0.71862596969E+03  0.72221426706E+03  0.00000000000E+00 0. -1.
         -2    1    1    2    0  501  0.17994892427E+02  0.32629306492E+02 -0.26357652842E+03  0.26619743449E+03  0.00000000000E+00 0.  1.
<mgrwt>
<rscale>  0 0.52432683E+02</rscale>
<asrwt>0</asrwt>
<pdfrwt beam="1">  1        1 0.14459114E+00 0.73779063E+02</pdfrwt>
<pdfrwt beam="2">  1       -1 0.45808394E-01 0.37262418E+02</pdfrwt>
<totfact> 0.94108965E+01</totfact>
</mgrwt>
</event>
<event>
 7    1  0.4252091E-004  0.6173133E+02  0.7546771E-02  0.1499182E+00
          1   -1    0    0  502    0 -0.00000000000E+00  0.00000000000E+00  0.24856076286E+03  0.24856076286E+03  0.00000000000E+00 0. -1.
          2   -1    0    0  503    0  0.00000000000E+00 -0.00000000000E+00 -0.71468451288E+03  0.71468451288E+03  0.00000000000E+00 0. -1.
         25    2    1    2    0    0 -0.38380569403E+02 -0.14216306124E+02  0.86140936776E+02  0.15722541777E+03  0.12499759813E+03 0.  0.
          4    1    3    3  501    0 -0.29284536865E+02  0.28780909644E+02 -0.17494088021E+02  0.44649533872E+02  0.12700000000E+01 0.  1.
         -4    1    3    3    0  501 -0.90960325377E+01 -0.42997215768E+02  0.10363502480E+03  0.11257588390E+03  0.12700000000E+01 0.  1.
          2    1    1    2  502    0  0.58088942746E+02  0.33494280113E+02  0.11771494170E+03  0.13547324300E+03  0.00000000000E+00 0. -1.
          1    1    1    2  503    0 -0.19708373343E+02 -0.19277973989E+02 -0.66997962849E+03  0.67054661497E+03  0.00000000000E+00 0. -1.
<mgrwt>
<rscale>  0 0.41253881E+02</rscale>
<asrwt>0</asrwt>
<pdfrwt beam="2">  1        2 0.10995146E+00 0.27569190E+02</pdfrwt>
<pdfrwt beam="1">  1        1 0.38240118E-01 0.61731326E+02</pdfrwt>
<totfact> 0.65838662E+02</totfact>
</mgrwt>
</event>
<event>
 7    1  0.4252091E-004  0.4403080E+02  0.7546771E-02  0.1495167E+00
         -2   -1    0    0    0  501 -0.00000000000E+00  0.00000000000E+00  0.99978225983E+01  0.99978225983E+01  0.00000000000E+00 0.  1.
          2   -1    0    0  503    0  0.00000000000E+00 -0.00000000000E+00 -0.18463995696E+04  0.18463995696E+04  0.00000000000E+00 0. -1.
         25    2    1    2    0    0  0.82983514123E+01  0.12494531020E+02 -0.15568627882E+04  0.15619448992E+04  0.12500060259E+03 0.  0.
          4    1    3    3  502    0 -0.10011997539E+02  0.17418965354E+01 -0.81566424119E+01  0.13092670228E+02  0.12700000000E+01 0. -1.
         -4    1    3    3    0  502  0.18310348951E+02  0.10752634484E+02 -0.15487061458E+04  0.15488522289E+04  0.12700000000E+01 0. -1.
          1    1    1    2  503    0 -0.25443856389E+02  0.30523326903E+02 -0.18451017230E+03  0.18874074016E+03  0.00000000000E+00 0. -1.
         -1    1    1    2    0  501  0.17145504977E+02 -0.43017857922E+02 -0.95028786433E+02  0.10571175286E+03  0.00000000000E+00 0.  1.
<mgrwt>
<rscale>  0 0.41829066E+02</rscale>
<asrwt>0</asrwt>
<pdfrwt beam="2">  1        2 0.28406092E+00 0.39737430E+02</pdfrwt>
<pdfrwt beam="1">  1       -2 0.15381296E-02 0.44030798E+02</pdfrwt>
<totfact> 0.95626590E+03</totfact>
</mgrwt>
</event>
<event>
 7    1  0.4252091E-004  0.1663330E+03  0.7546771E-02  0.1247102E+00
          1   -1    0    0  502    0 -0.00000000000E+00  0.00000000000E+00  0.10798794382E+04  0.10798794382E+04  0.00000000000E+00 0. -1.
          2   -1    0    0  503    0  0.00000000000E+00 -0.00000000000E+00 -0.25835594021E+03  0.25835594021E+03  0.00000000000E+00 0. -1.
         25    2    1    2    0    0 -0.18332232887E+02 -0.10528861389E+03  0.55753430621E+02  0.17368627706E+03  0.12504685056E+03 0.  0.
          4    1    3    3  501    0 -0.63867879144E+02 -0.77699553161E+02  0.64818627850E+02  0.11966367019E+03  0.12700000000E+01 0.  1.
         -4    1    3    3    0  501  0.45535646257E+02 -0.27589060734E+02 -0.90651972286E+01  0.54022606870E+02  0.12700000000E+01 0.  1.
          2    1    1    2  502    0 -0.15007247932E+02 -0.81786318524E+02  0.91757478674E+03  0.92133474300E+03  0.00000000000E+00 0. -1.
          1    1    1    2  503    0  0.33339480820E+02  0.18707493242E+03 -0.15180471933E+03  0.24321435840E+03  0.00000000000E+00 0. -1.
<mgrwt>
<rscale>  0 0.11760479E+03</rscale>
<asrwt>0</asrwt>
<pdfrwt beam="2">  1        2 0.39747068E-01 0.16633300E+03</pdfrwt>
<pdfrwt beam="1">  1        1 0.16613530E+00 0.83151785E+02</pdfrwt>
<totfact> 0.26452723E+02</totfact>
</mgrwt>
</event>
<event>
 7    1  0.4252091E-004  0.1468338E+03  0.7546771E-02  0.1229630E+00
          1   -1    0    0  502    0 -0.00000000000E+00  0.00000000000E+00  0.44053947921E+03  0.44053947921E+03  0.00000000000E+00 0. -1.
          2   -1    0    0  503    0  0.00000000000E+00 -0.00000000000E+00 -0.19594926033E+04  0.19594926033E+04  0.00000000000E+00 0. -1.
         25    2    1    2    0    0 -0.18913925934E+03 -0.96698023276E+02 -0.47347512053E+03  0.53378829363E+03  0.12500834180E+03 0.  0.
          4    1    3    3  501    0 -0.19981017270E+03 -0.63292393907E+02 -0.42579096403E+03  0.47458359663E+03  0.12700000000E+01 0.  1.
         -4    1    3    3    0  501  0.10670913355E+02 -0.33405629369E+02 -0.47684156504E+02  0.59204697000E+02  0.12700000000E+01 0.  1.
          2    1    1    2  502    0  0.47286479044E+02  0.10211769342E+03  0.39912314676E+03  0.41468460387E+03  0.00000000000E+00 0. -1.
          1    1    1    2  503    0  0.14185278030E+03 -0.54196701397E+01 -0.14446011503E+04  0.14515591850E+04  0.00000000000E+00 0. -1.
<mgrwt>
<rscale>  0 0.12854526E+03</rscale>
<asrwt>0</asrwt>
<pdfrwt beam="2">  1        2 0.30146039E+00 0.14683383E+03</pdfrwt>
<pdfrwt beam="1">  1        1 0.67775306E-01 0.11253459E+03</pdfrwt>
<totfact> 0.61788040E+01</totfact>
</mgrwt>
</event>
<event>
 7    1  0.4252091E-004  0.8372182E+02  0.7546771E-02  0.1352870E+00
          2   -1    0    0  503    0  0.00000000000E+00  0.00000000000E+00  0.13047511798E+04  0.13047511798E+04  0.00000000000E+00 0. -1.
         -2   -1    0    0    0  501 -0.00000000000E+00 -0.00000000000E+00 -0.79826666676E+02  0.79826666676E+02  0.00000000000E+00 0.  1.
         25    2    1    2    0    0  0.12910055275E+03 -0.37962463047E+02  0.94693040292E+02  0.20663959444E+03  0.12500019517E+03 0.  0.
          4    1    3    3  502    0  0.13462074984E+03 -0.21504447478E+02  0.11608575815E+03  0.17906061458E+03  0.12700000000E+01 0. -1.
         -4    1    3    3    0  502 -0.55201970961E+01 -0.16458015569E+02 -0.21392717862E+02  0.27578979857E+02  0.12700000000E+01 0. -1.
          1    1    1    2  503    0 -0.82452398335E+02 -0.31954681271E+01  0.11092071779E+04  0.11122720767E+04  0.00000000000E+00 0. -1.
         -1    1    1    2    0  501 -0.46648154411E+02  0.41157931174E+02  0.21024294903E+02  0.65666175347E+02  0.00000000000E+00 0.  1.
<mgrwt>
<rscale>  0 0.72168517E+02</rscale>
<asrwt>0</asrwt>
<pdfrwt beam="1">  1        2 0.20073094E+00 0.83721816E+02</pdfrwt>
<pdfrwt beam="2">  1       -2 0.12281027E-01 0.62209530E+02</pdfrwt>
<totfact> 0.83188009E+02</totfact>
</mgrwt>
</event>
<event>
 7    1  0.4252091E-004  0.9783720E+02  0.7546771E-02  0.1427069E+00
          1   -1    0    0  502    0 -0.00000000000E+00  0.00000000000E+00  0.24515463052E+04  0.24515463052E+04  0.00000000000E+00 0. -1.
          2   -1    0    0  503    0  0.00000000000E+00 -0.00000000000E+00 -0.30300207156E+03  0.30300207156E+03  0.00000000000E+00 0. -1.
         25    2    1    2    0    0 -0.17918248452E+02  0.11594706442E+03  0.96974399619E+03  0.98478165144E+03  0.12500678977E+03 0.  0.
          4    1    3    3  501    0 -0.61602110211E+01  0.75791134246E+02  0.90163456939E+03  0.90483631329E+03  0.12700000000E+01 0.  1.
         -4    1    3    3    0  501 -0.11758037431E+02  0.40155930177E+02  0.68109426798E+02  0.79945338146E+02  0.12700000000E+01 0.  1.
          2    1    1    2  502    0  0.22838962352E+02 -0.18375101389E+02  0.14660576318E+04  0.14663506546E+04  0.00000000000E+00 0. -1.
          1    1    1    2  503    0 -0.49207139006E+01 -0.97571963034E+02 -0.28725739432E+03  0.30341607074E+03  0.00000000000E+00 0. -1.
<mgrwt>
<rscale>  0 0.53552960E+02</rscale>
<asrwt>0</asrwt>
<pdfrwt beam="2">  1        2 0.46615705E-01 0.97837201E+02</pdfrwt>
<pdfrwt beam="1">  1        1 0.37716096E+00 0.29313181E+02</pdfrwt>
<totfact> 0.35084275E+01</totfact>
</mgrwt>
</event>
<event>
 7    1  0.4252091E-004  0.6880121E+02  0.7546771E-02  0.1457920E+00
          2   -1    0    0  503    0  0.00000000000E+00  0.00000000000E+00  0.58785993068E+03  0.58785993068E+03  0.00000000000E+00 0. -1.
          1   -1    0    0  502    0 -0.00000000000E+00 -0.00000000000E+00 -0.61583817842E+03  0.61583817842E+03  0.00000000000E+00 0. -1.
         25    2    1    2    0    0 -0.60954438806E+02  0.52442703018E+02 -0.37957620039E+03  0.40763003814E+03  0.12497389879E+03 0.  0.
          4    1    3    3  501    0  0.17493137590E+02  0.66054930134E+02 -0.19418287530E+03  0.20585884877E+03  0.12700000000E+01 0. -1.
         -4    1    3    3    0  501 -0.78447576397E+02 -0.13612227116E+02 -0.18539332509E+03  0.20177118937E+03  0.12700000000E+01 0. -1.
          2    1    1    2  502    0  0.31651404204E+02  0.97793055151E+01 -0.21892362649E+03  0.22141589925E+03  0.00000000000E+00 0. -1.
          1    1    1    2  503    0  0.29303034602E+02 -0.62222008533E+02  0.57052157914E+03  0.57465217171E+03  0.00000000000E+00 0. -1.
<mgrwt>
<rscale>  0 0.47741256E+02</rscale>
<asrwt>0</asrwt>
<pdfrwt beam="1">  1        2 0.90439990E-01 0.68801208E+02</pdfrwt>
<pdfrwt beam="2">  1        1 0.94744335E-01 0.33127726E+02</pdfrwt>
<totfact> 0.26546473E+02</totfact>
</mgrwt>
</event>
<event>
 7    1  0.4252091E-004  0.9896252E+02  0.7546771E-02  0.1347292E+00
         -2   -1    0    0    0  501 -0.00000000000E+00  0.00000000000E+00  0.12290764145E+03  0.12290764145E+03  0.00000000000E+00 0.  1.
          2   -1    0    0  503    0  0.00000000000E+00 -0.00000000000E+00 -0.32012026649E+03  0.32012026649E+03  0.00000000000E+00 0. -1.
         25    2    1    2    0    0 -0.34624463662E+02  0.10302866578E+03 -0.76216674877E+02  0.18234090401E+03  0.12500185714E+03 0.  0.
          4    1    3    3  502    0 -0.67964205603E+02  0.24184797836E+02 -0.62860693392E+02  0.95692828171E+02  0.12700000000E+01 0. -1.
         -4    1    3    3    0  502  0.33339741942E+02  0.78843867942E+02 -0.13355981485E+02  0.86648075837E+02  0.12700000000E+01 0. -1.
          1    1    1    2  503    0  0.54902614571E+02 -0.56613501979E+01 -0.14772685589E+03  0.15770089386E+03  0.00000000000E+00 0. -1.
         -1    1    1    2    0  501 -0.20278150910E+02 -0.97367315580E+02  0.26730905731E+02  0.10298611008E+03  0.00000000000E+00 0.  1.
<mgrwt>
<rscale>  0 0.73906093E+02</rscale>
<asrwt>0</asrwt>
<pdfrwt beam="2">  1        2 0.49249272E-01 0.55193731E+02</pdfrwt>
<pdfrwt beam="1">  1       -2 0.18908868E-01 0.98962517E+02</pdfrwt>
<totfact> 0.22602999E+03</totfact>
</mgrwt>
</event>
<event>
 7    1  0.4252091E-004  0.1581992E+03  0.7546771E-02  0.1279527E+00
          2   -1    0    0  503    0  0.00000000000E+00  0.00000000000E+00  0.32216781397E+03  0.32216781397E+03  0.00000000000E+00 0. -1.
          1   -1    0    0  502    0 -0.00000000000E+00 -0.00000000000E+00 -0.80361414463E+03  0.80361414463E+03  0.00000000000E+00 0. -1.
         25    2    1    2    0    0 -0.36873350356E+02 -0.92267231578E+02 -0.24978565405E+03  0.29646592939E+03  0.12500515321E+03 0.  0.
          4    1    3    3  501    0  0.36370435201E+02 -0.36509806471E+01 -0.10739118549E+03  0.11344874542E+03  0.12700000000E+01 0. -1.
         -4    1    3    3    0  501 -0.73243785557E+02 -0.88616250930E+02 -0.14239446856E+03  0.18301718397E+03  0.12700000000E+01 0. -1.
          2    1    1    2  502    0 -0.25338119369E+02 -0.58417015349E+02 -0.50611042437E+03  0.51010031330E+03  0.00000000000E+00 0. -1.
          1    1    1    2  503    0  0.62211469725E+02  0.15068424693E+03  0.27444974775E+03  0.31921571590E+03  0.00000000000E+00 0. -1.
<mgrwt>
<rscale>  0 0.10036640E+03</rscale>
<asrwt>0</asrwt>
<pdfrwt beam="1">  1        2 0.49564279E-01 0.15819925E+03</pdfrwt>
<pdfrwt beam="2">  1        1 0.12363294E+00 0.63675490E+02</pdfrwt>
<totfact> 0.33924960E+02</totfact>
</mgrwt>
</event>
<event>
 7    1  0.4252091E-004  0.5934337E+02  0.7546771E-02  0.1405656E+00
          2   -1    0    0  503    0  0.00000000000E+00  0.00000000000E+00  0.24095120955E+03  0.24095120955E+03  0.00000000000E+00 0. -1.
          1   -1    0    0  502    0 -0.00000000000E+00 -0.00000000000E+00 -0.11408095210E+04  0.11408095210E+04  0.00000000000E+00 0. -1.
         25    2    1    2    0    0  0.12539327027E+02  0.66927873352E+02 -0.62153739147E+03  0.63762776742E+03  0.12499546324E+03 0.  0.
          4    1    3    3  501    0 -0.37981044677E+02  0.67325884257E+02 -0.50091798691E+03  0.50684886993E+03  0.12700000000E+01 0.  1.
         -4    1    3    3    0  501  0.50520371704E+02 -0.39801090473E+00 -0.12061940456E+03  0.13077889748E+03  0.12700000000E+01 0.  1.
          2    1    1    2  502    0 -0.54428678566E+02 -0.24893156954E+02 -0.50565308389E+03  0.50918286652E+03  0.00000000000E+00 0. -1.
          1    1    1    2  503    0  0.41889351539E+02 -0.42034716398E+02  0.22733216390E+03  0.23495009661E+03  0.00000000000E+00 0. -1.
<mgrwt>
<rscale>  0 0.58174494E+02</rscale>
<asrwt>0</asrwt>
<pdfrwt beam="1">  1        2 0.37069417E-01 0.59343367E+02</pdfrwt>
<pdfrwt beam="2">  1        1 0.17550916E+00 0.57028644E+02</pdfrwt>
<totfact> 0.26237864E+02</totfact>
</mgrwt>
</event>
<event>
 7    1  0.4252091E-004  0.1023482E+03  0.7546771E-02  0.1293625E+00
          2   -1    0    0  503    0  0.00000000000E+00  0.00000000000E+00  0.77008093477E+03  0.77008093477E+03  0.00000000000E+00 0. -1.
          1   -1    0    0  502    0 -0.00000000000E+00 -0.00000000000E+00 -0.10809572439E+03  0.10809572439E+03  0.00000000000E+00 0. -1.
         25    2    1    2    0    0  0.13004203854E+03  0.27596298713E+02  0.34987055148E+03  0.39460115880E+03  0.12501273634E+03 0.  0.
          4    1    3    3  501    0  0.14713003740E+03  0.27202783304E+01  0.24829075056E+03  0.28862528914E+03  0.12700000000E+01 0.  1.
         -4    1    3    3    0  501 -0.17087998862E+02  0.24876020382E+02  0.10157980092E+03  0.10597586966E+03  0.12700000000E+01 0.  1.
          2    1    1    2  502    0 -0.68922219728E+02  0.51750065540E+02 -0.55532942452E+02  0.10252926096E+03  0.00000000000E+00 0. -1.
          1    1    1    2  503    0 -0.61119818813E+02 -0.79346364252E+02  0.36764760136E+03  0.38104623940E+03  0.00000000000E+00 0. -1.
<mgrwt>
<rscale>  0 0.93921087E+02</rscale>
<asrwt>0</asrwt>
<pdfrwt beam="1">  1        2 0.11847399E+00 0.10234822E+03</pdfrwt>
<pdfrwt beam="2">  1        1 0.16630112E-01 0.86187828E+02</pdfrwt>
<totfact> 0.16272712E+03</totfact>
</mgrwt>
</event>
<event>
 7    1  0.4252091E-004  0.1458496E+03  0.7546771E-02  0.1258078E+00
         -2   -1    0    0    0  501 -0.00000000000E+00  0.00000000000E+00  0.33920024500E+03  0.33920024500E+03  0.00000000000E+00 0.  1.
          2   -1    0    0  503    0  0.00000000000E+00 -0.00000000000E+00 -0.51072651231E+03  0.51072651231E+03  0.00000000000E+00 0. -1.
         25    2    1    2    0    0 -0.12207670279E+03  0.16202833999E+02  0.12046916489E+02  0.17588474964E+03  0.12500025506E+03 0.  0.
          4    1    3    3  502    0 -0.24549492869E+02  0.58146216100E+02  0.27008879819E+02  0.68664055632E+02  0.12700000000E+01 0. -1.
         -4    1    3    3    0  502 -0.97527209920E+02 -0.41943382100E+02 -0.14961963329E+02  0.10722069401E+03  0.12700000000E+01 0. -1.
          1    1    1    2  503    0  0.11367102551E+03 -0.10080714340E+03 -0.40729502920E+03  0.43470958468E+03  0.00000000000E+00 0. -1.
         -1    1    1    2    0  501  0.84056772760E+01  0.84604309401E+02  0.22372184540E+03  0.23933242298E+03  0.00000000000E+00 0.  1.
<mgrwt>
<rscale>  0 0.11135645E+03</rscale>
<asrwt>0</asrwt>
<pdfrwt beam="2">  1        2 0.78573309E-01 0.14584964E+03</pdfrwt>
<pdfrwt beam="1">  1       -2 0.52184653E-01 0.85020848E+02</pdfrwt>
<totfact> 0.21912575E+02</totfact>
</mgrwt>
</event>
<event>
 7    1  0.4252091E-004  0.9483265E+02  0.7546771E-02  0.1446956E+00
         -1   -1    0    0    0  501 -0.00000000000E+00  0.00000000000E+00  0.92132899561E+02  0.92132899561E+02  0.00000000000E+00 0.  1.
          1   -1    0    0  503    0  0.00000000000E+00 -0.00000000000E+00 -0.75836658737E+03  0.75836658737E+03  0.00000000000E+00 0. -1.
         25    2    1    2    0    0  0.75903436005E+02 -0.13039685471E+02 -0.77642634315E+02  0.16607589986E+03  0.12498584262E+03 0.  0.
          4    1    3    3  502    0  0.93270275195E+02 -0.28894892200E+02 -0.14548040407E+02  0.98729516407E+02  0.12700000000E+01 0.  1.
         -4    1    3    3    0  502 -0.17366839190E+02  0.15855206728E+02 -0.63094593908E+02  0.67346383454E+02  0.12700000000E+01 0.  1.
          2    1    1    2  503    0 -0.96386955250E+02 -0.30528248054E+01 -0.62899821157E+03  0.63634779409E+03  0.00000000000E+00 0. -1.
         -2    1    1    2    0  501  0.20483519245E+02  0.16092510277E+02  0.40407158074E+02  0.48075792986E+02  0.00000000000E+00 0.  1.
<mgrwt>
<rscale>  0 0.49701941E+02</rscale>
<asrwt>0</asrwt>
<pdfrwt beam="2">  1        1 0.11667178E+00 0.94832648E+02</pdfrwt>
<pdfrwt beam="1">  1       -1 0.14174293E-01 0.26048867E+02</pdfrwt>
<totfact> 0.81251880E+02</totfact>
</mgrwt>
</event>
<event>
 7    1  0.4252091E-004  0.5545869E+02  0.7546771E-02  0.1563865E+00
         -2   -1    0    0    0  501 -0.00000000000E+00  0.00000000000E+00  0.18054704891E+02  0.18054704891E+02  0.00000000000E+00 0.  1.
          2   -1    0    0  503    0  0.00000000000E+00 -0.00000000000E+00 -0.22135620372E+04  0.22135620372E+04  0.00000000000E+00 0. -1.
         25    2    1    2    0    0 -0.55514024871E+02  0.49755821554E+00 -0.38762268535E+03  0.41104559196E+03  0.12500031181E+03 0.  0.
          4    1    3    3  502    0  0.84220569576E+01 -0.19172879193E+02 -0.30033097383E+03  0.30106284574E+03  0.12700000000E+01 0.  1.
         -4    1    3    3    0  502 -0.63936081829E+02  0.19670437409E+02 -0.87291711515E+02  0.10998274622E+03  0.12700000000E+01 0.  1.
          1    1    1    2  503    0  0.52141763460E+02  0.19258431966E+02 -0.17968169392E+04  0.17976764903E+04  0.00000000000E+00 0. -1.
         -1    1    1    2    0  501  0.33722614113E+01 -0.19755990181E+02 -0.11067707774E+02  0.22894659867E+02  0.00000000000E+00 0.  1.
<mgrwt>
<rscale>  0 0.33338996E+02</rscale>
<asrwt>0</asrwt>
<pdfrwt beam="2">  1        2 0.34054815E+00 0.55458694E+02</pdfrwt>
<pdfrwt beam="1">  1       -2 0.27776457E-02 0.20041739E+02</pdfrwt>
<totfact> 0.23288942E+03</totfact>
</mgrwt>
</event>
<event>
 7    1  0.4252091E-004  0.8787763E+02  0.7546771E-02  0.1327953E+00
          1   -1    0    0  502    0 -0.00000000000E+00  0.00000000000E+00  0.44144645446E+03  0.44144645446E+03  0.00000000000E+00 0. -1.
          2   -1    0    0  503    0  0.00000000000E+00 -0.00000000000E+00 -0.54143646176E+03  0.54143646176E+03  0.00000000000E+00 0. -1.
         25    2    1    2    0    0 -0.40594088973E+02  0.70845246841E+02 -0.10209458830E+03  0.18086994834E+03  0.12499481667E+03 0.  0.
          4    1    3    3  501    0 -0.54844172087E+02  0.58600672881E+02 -0.12663741289E+03  0.14993521707E+03  0.12700000000E+01 0. -1.
         -4    1    3    3    0  501  0.14250083114E+02  0.12244573960E+02  0.24542824590E+02  0.30934731275E+02  0.12700000000E+01 0. -1.
          2    1    1    2  502    0  0.87928193859E+02 -0.14567467462E+02  0.39365421222E+03  0.40361766213E+03  0.00000000000E+00 0. -1.
          1    1    1    2  503    0 -0.47334104886E+02 -0.56277779379E+02 -0.39154963122E+03  0.39839530575E+03  0.00000000000E+00 0. -1.
<mgrwt>
<rscale>  0 0.80388223E+02</rscale>
<asrwt>0</asrwt>
<pdfrwt beam="2">  1        2 0.83297917E-01 0.73537106E+02</pdfrwt>
<pdfrwt beam="1">  1        1 0.67914839E-01 0.87877628E+02</pdfrwt>
<totfact> 0.43193702E+02</totfact>
</mgrwt>
</event>
<event>
 7    1  0.4252091E-004  0.6474430E+02  0.7546771E-02  0.1421440E+00
          1   -1    0    0  502    0 -0.00000000000E+00  0.00000000000E+00  0.37778874150E+03  0.37778874150E+03  0.00000000000E+00 0. -1.
          2   -1    0    0  503    0  0.00000000000E+00 -0.00000000000E+00 -0.36370633887E+03  0.36370633887E+03  0.00000000000E+00 0. -1.
         25    2    1    2    0    0  0.15871260352E+02 -0.82658425381E+02 -0.98679869649E+02  0.18013179015E+03  0.12500173182E+03 0.  0.
          4    1    3    3  501    0  0.60335613263E+02 -0.78861927337E+02 -0.41596353125E+02  0.10766363966E+03  0.12700000000E+01 0.  1.
         -4    1    3    3    0  501 -0.44464352910E+02 -0.37964980442E+01 -0.57083516524E+02  0.72468150493E+02  0.12700000000E+01 0.  1.
          2    1    1    2  502    0 -0.44782185673E+02  0.46566812565E+02  0.33152756146E+03  0.33776387639E+03  0.00000000000E+00 0. -1.
          1    1    1    2  503    0  0.28910925321E+02  0.36091612816E+02 -0.21876528917E+03  0.22359941383E+03  0.00000000000E+00 0. -1.
<mgrwt>
<rscale>  0 0.54717388E+02</rscale>
<asrwt>0</asrwt>
<pdfrwt beam="2">  1        2 0.55954821E-01 0.46243336E+02</pdfrwt>
<pdfrwt beam="1">  1        1 0.58121345E-01 0.64744302E+02</pdfrwt>
<totfact> 0.79971847E+02</totfact>
</mgrwt>
</event>
<event>
 7    1  0.4252091E-004  0.6262971E+02  0.7546771E-02  0.1459128E+00
          2   -1    0    0  503    0  0.00000000000E+00  0.00000000000E+00  0.14164294659E+04  0.14164294659E+04  0.00000000000E+00 0. -1.
          1   -1    0    0  502    0 -0.00000000000E+00 -0.00000000000E+00 -0.31146212937E+03  0.31146212937E+03  0.00000000000E+00 0. -1.
         25    2    1    2    0    0  0.60951022282E+02 -0.10428191579E+02  0.99519326153E+03  0.10049172640E+04  0.12500122144E+03 0.  0.
          4    1    3    3  501    0  0.83236838069E+01  0.41982603355E+02  0.66915875707E+03  0.67052731321E+03  0.12700000000E+01 0.  1.
         -4    1    3    3    0  501  0.52627338476E+02 -0.52410794934E+02  0.32603450446E+03  0.33438995078E+03  0.12700000000E+01 0.  1.
          2    1    1    2  502    0 -0.57262103662E+02 -0.25456086788E+02 -0.30260246917E+03  0.30902300112E+03  0.00000000000E+00 0. -1.
          1    1    1    2  503    0 -0.36889186203E+01  0.35884278367E+02  0.41237654417E+03  0.41395133015E+03  0.00000000000E+00 0. -1.
<mgrwt>
<rscale>  0 0.47531736E+02</rscale>
<asrwt>0</asrwt>
<pdfrwt beam="1">  1        2 0.21791222E+00 0.36073391E+02</pdfrwt>
<pdfrwt beam="2">  1        1 0.47917252E-01 0.62629706E+02</pdfrwt>
<totfact> 0.20283985E+02</totfact>
</mgrwt>
</event>
<event>
 7    1  0.4252091E-004  0.9467159E+02  0.7546771E-02  0.1366663E+00
          2   -1    0    0  503    0  0.00000000000E+00  0.00000000000E+00  0.44330509658E+03  0.44330509658E+03  0.00000000000E+00 0. -1.
          1   -1    0    0  502    0 -0.00000000000E+00 -0.00000000000E+00 -0.42602814047E+03  0.42602814047E+03  0.00000000000E+00 0. -1.
         25    2    1    2    0    0  0.18585399114E+02  0.11842890980E+03  0.19230450109E+02  0.17425321578E+03  0.12499419692E+03 0.  0.
          4    1    3    3  501    0 -0.23958093968E+02  0.10202055513E+03  0.53052592540E+02  0.11746648208E+03  0.12700000000E+01 0.  1.
         -4    1    3    3    0  501  0.42543493082E+02  0.16408354665E+02 -0.33822142432E+02  0.56786733707E+02  0.12700000000E+01 0.  1.
          2    1    1    2  502    0 -0.48787021552E+02 -0.79853872926E+02 -0.34043978737E+03  0.35306665563E+03  0.00000000000E+00 0. -1.
          1    1    1    2  503    0  0.30201622439E+02 -0.38575036872E+02  0.33848629337E+03  0.34201336563E+03  0.00000000000E+00 0. -1.
<mgrwt>
<rscale>  0 0.68103654E+02</rscale>
<asrwt>0</asrwt>
<pdfrwt beam="1">  1        2 0.68200785E-01 0.48991545E+02</pdfrwt>
<pdfrwt beam="2">  1        1 0.65542790E-01 0.94671594E+02</pdfrwt>
<totfact> 0.56009473E+02</totfact>
</mgrwt>
</event>
<event>
 7    1  0.4252091E-004  0.6512284E+02  0.7546771E-02  0.1391054E+00
          2   -1    0    0  503    0  0.00000000000E+00  0.00000000000E+00  0.10958045346E+04  0.10958045346E+04  0.00000000000E+00 0. -1.
          1   -1    0    0  502    0 -0.00000000000E+00 -0.00000000000E+00 -0.20445144207E+04  0.20445144207E+04  0.00000000000E+00 0. -1.
         25    2    1    2    0    0 -0.11007182735E+02 -0.44674184422E+02 -0.41617660288E+00  0.13319329583E+03  0.12499335992E+03 0.  0.
          4    1    3    3  501    0  0.37778220450E+02  0.43512214555E+01 -0.38582686205E+02  0.54188224212E+02  0.12700000000E+01 0.  1.
         -4    1    3    3    0  501 -0.48785403185E+02 -0.49025405877E+02  0.38166509602E+02  0.79005071613E+02  0.12700000000E+01 0.  1.
          2    1    1    2  502    0 -0.47343656309E+02  0.45215896559E+02 -0.19763402937E+04  0.19774242983E+04  0.00000000000E+00 0. -1.
          1    1    1    2  503    0  0.58350839044E+02 -0.54171213733E+00  0.10280465843E+04  0.10297013612E+04  0.00000000000E+00 0. -1.
<mgrwt>
<rscale>  0 0.61645242E+02</rscale>
<asrwt>0</asrwt>
<pdfrwt beam="1">  1        2 0.16858531E+00 0.58353354E+02</pdfrwt>
<pdfrwt beam="2">  1        1 0.31454068E+00 0.65122835E+02</pdfrwt>
<totfact> 0.12960651E+01</totfact>
</mgrwt>
</event>
<event>
 7    1  0.4252091E-004  0.5284982E+02  0.7546771E-02  0.1517450E+00
          2   -1    0    0  503    0  0.00000000000E+00  0.00000000000E+00  0.36509526592E+03  0.36509526592E+03  0.00000000000E+00 0. -1.
         -2   -1    0    0    0  501 -0.00000000000E+00 -0.00000000000E+00 -0.20384224912E+03  0.20384224912E+03  0.00000000000E+00 0.  1.
         25    2    1    2    0    0 -0.44074121531E+02  0.14547088840E+02  0.55535863406E+02  0.14444297414E+03  0.12500157867E+03 0.  0.
          4    1    3    3  502    0 -0.37706274434E+02 -0.53228248571E+02  0.26228673015E+02  0.70317606371E+02  0.12700000000E+01 0.  1.
         -4    1    3    3    0  502 -0.63678470968E+01  0.67775337410E+02  0.29307190390E+02  0.74125367765E+02  0.12700000000E+01 0.  1.
          1    1    1    2  503    0  0.34303401931E+02 -0.41259897244E+02  0.26108643505E+03  0.26654310922E+03  0.00000000000E+00 0. -1.
         -1    1    1    2    0  501  0.97707195993E+01  0.26712808404E+02 -0.15536928165E+03  0.15795143170E+03  0.00000000000E+00 0.  1.
<mgrwt>
<rscale>  0 0.38771659E+02</rscale>
<asrwt>0</asrwt>
<pdfrwt beam="1">  1        2 0.56168503E-01 0.52849815E+02</pdfrwt>
<pdfrwt beam="2">  1       -2 0.31360346E-01 0.28443648E+02</pdfrwt>
<totfact> 0.79474696E+02</totfact>
</mgrwt>
</event>
<event>
 7    1  0.4252091E-004  0.1006099E+03  0.7546771E-02  0.1335045E+00
          2   -1    0    0  503    0  0.00000000000E+00  0.00000000000E+00  0.11319670347E+04  0.11319670347E+04  0.00000000000E+00 0. -1.
          1   -1    0    0  502    0 -0.00000000000E+00 -0.00000000000E+00 -0.62358406536E+03  0.62358406536E+03  0.00000000000E+00 0. -1.
         25    2    1    2    0    0  0.27770519495E+02 -0.77934560104E+02  0.39726722797E+03  0.42460473143E+03  0.12499172021E+03 0.  0.
          4    1    3    3  501    0 -0.84018671923E+01 -0.21422700490E+02  0.32562785649E+03  0.32644239506E+03  0.12700000000E+01 0. -1.
         -4    1    3    3    0  501  0.36172386687E+02 -0.56511859614E+02  0.71639371482E+02  0.98162336372E+02  0.12700000000E+01 0. -1.
          2    1    1    2  502    0  0.29657125073E+02  0.96503555210E+02 -0.60445835827E+03  0.61283145164E+03  0.00000000000E+00 0. -1.
          1    1    1    2  503    0 -0.57427644568E+02 -0.18568995106E+02  0.71557409965E+03  0.71811491701E+03  0.00000000000E+00 0. -1.
<mgrwt>
<rscale>  0 0.77925122E+02</rscale>
<asrwt>0</asrwt>
<pdfrwt beam="1">  1        2 0.17414877E+00 0.60355132E+02</pdfrwt>
<pdfrwt beam="2">  1        1 0.95936011E-01 0.10060991E+03</pdfrwt>
<totfact> 0.11309621E+02</totfact>
</mgrwt>
</event>
<event>
 7    1  0.4252091E-004  0.5547734E+02  0.7546771E-02  0.1430662E+00
          1   -1    0    0  503    0  0.00000000000E+00  0.00000000000E+00  0.36828848251E+03  0.36828848251E+03  0.00000000000E+00 0. -1.
         -1   -1    0    0    0  501 -0.00000000000E+00 -0.00000000000E+00 -0.66166979233E+03  0.66166979233E+03  0.00000000000E+00 0.  1.
         25    2    1    2    0    0  0.31122134201E+02 -0.17830646619E+02  0.22255636207E+02  0.13192743927E+03  0.12499206652E+03 0.  0.
          4    1    3    3  502    0  0.62586929730E+02 -0.38146159595E+02 -0.19465436284E+02  0.75847012958E+02  0.12700000000E+01 0.  1.
         -4    1    3    3    0  502 -0.31464795529E+02  0.20315512976E+02  0.41721072491E+02  0.56080426309E+02  0.12700000000E+01 0.  1.
          2    1    1    2  503    0 -0.32643305472E+02 -0.38273934718E+02  0.28771228476E+03  0.29207676777E+03  0.00000000000E+00 0. -1.
         -2    1    1    2    0  501  0.15211712705E+01  0.56104581337E+02 -0.60334923078E+03  0.60595406781E+03  0.00000000000E+00 0.  1.
<mgrwt>
<rscale>  0 0.52827314E+02</rscale>
<asrwt>0</asrwt>
<pdfrwt beam="1">  1        1 0.56659767E-01 0.50303871E+02</pdfrwt>
<pdfrwt beam="2">  1       -1 0.10179535E+00 0.55477343E+02</pdfrwt>
<totfact> 0.71798032E+01</totfact>
</mgrwt>
</event>
<event>
 7    1  0.4252091E-004  0.6747781E+02  0.7546771E-02  0.1376086E+00
          2   -1    0    0  503    0  0.00000000000E+00  0.00000000000E+00  0.58918190506E+03  0.58918190506E+03  0.00000000000E+00 0. -1.
         -2   -1    0    0    0  501 -0.00000000000E+00 -0.00000000000E+00 -0.48804005828E+02  0.48804005828E+02  0.00000000000E+00 0.  1.
         25    2    1    2    0    0  0.31130906750E+02  0.70235486825E+02  0.43718475524E+03  0.46114656134E+03  0.12499393526E+03 0.  0.
          4    1    3    3  502    0  0.25108055116E+02  0.44380791324E+02  0.44873510909E+02  0.67936101975E+02  0.12700000000E+01 0. -1.
         -4    1    3    3    0  502  0.60228516336E+01  0.25854695501E+02  0.39231124433E+03  0.39321045936E+03  0.12700000000E+01 0. -1.
          1    1    1    2  503    0  0.35787040238E+02 -0.52561464327E+02  0.83354160554E+02  0.10483957203E+03  0.00000000000E+00 0. -1.
         -1    1    1    2    0  501 -0.66917946988E+02 -0.17674022497E+02  0.19838983441E+02  0.71999777529E+02  0.00000000000E+00 0.  1.
<mgrwt>
<rscale>  0 0.65503983E+02</rscale>
<asrwt>0</asrwt>
<pdfrwt beam="1">  1        2 0.90643365E-01 0.63587890E+02</pdfrwt>
<pdfrwt beam="2">  1       -2 0.75083090E-02 0.67477813E+02</pdfrwt>
<totfact> 0.50007762E+03</totfact>
</mgrwt>
</event>
<event>
 7    1  0.4252091E-004  0.9833031E+02  0.7546771E-02  0.1317230E+00
         -2   -1    0    0    0  501 -0.00000000000E+00  0.00000000000E+00  0.12187306938E+03  0.12187306938E+03  0.00000000000E+00 0.  1.
          2   -1    0    0  503    0  0.00000000000E+00 -0.00000000000E+00 -0.12174907071E+04  0.12174907071E+04  0.00000000000E+00 0. -1.
         25    2    1    2    0    0 -0.10236256356E+03 -0.50383447491E+02 -0.52607412534E+03  0.55262602314E+03  0.12499979960E+03 0.  0.
          4    1    3    3  502    0 -0.50361903802E+02 -0.79341164495E+02 -0.42547194578E+03  0.43572850640E+03  0.12700000000E+01 0. -1.
         -4    1    3    3    0  502 -0.52000659758E+02  0.28957717004E+02 -0.10060217955E+03  0.11689751674E+03  0.12700000000E+01 0. -1.
          1    1    1    2  503    0  0.60798214595E+02 -0.39125509316E+02 -0.65330593668E+03  0.65729435969E+03  0.00000000000E+00 0. -1.
         -3    1    1    2    0  501  0.41564348965E+02  0.89508956806E+02  0.83762424253E+02  0.12944339369E+03  0.00000000000E+00 0.  1.
<mgrwt>
<rscale>  0 0.84316304E+02</rscale>
<asrwt>0</asrwt>
<pdfrwt beam="2">  1        2 0.18730626E+00 0.72299574E+02</pdfrwt>
<pdfrwt beam="1">  1       -2 0.18749703E-01 0.98330305E+02</pdfrwt>
<totfact> 0.48379943E+02</totfact>
</mgrwt>
</event>
<event>
 7    1  0.4252091E-004  0.4855151E+02  0.7546771E-02  0.1493571E+00
          2   -1    0    0  503    0  0.00000000000E+00  0.00000000000E+00  0.14886889214E+04  0.14886889214E+04  0.00000000000E+00 0. -1.
         -2   -1    0    0    0  501 -0.00000000000E+00 -0.00000000000E+00 -0.40572117289E+02  0.40572117289E+02  0.00000000000E+00 0.  1.
         25    2    1    2    0    0  0.29527755237E+01  0.19540614048E+02  0.38304782839E+03  0.40341322942E+03  0.12500416135E+03 0.  0.
          4    1    3    3  502    0  0.44057172775E+01 -0.23219962761E+02  0.34598337389E+03  0.34679199086E+03  0.12700000000E+01 0.  1.
         -4    1    3    3    0  502 -0.14529417538E+01  0.42760576809E+02  0.37064454503E+02  0.56621238563E+02  0.12700000000E+01 0.  1.
          1    1    1    2  503    0 -0.35610528085E+02 -0.35702239474E+02  0.10837346686E+04  0.10849071811E+04  0.00000000000E+00 0. -1.
         -1    1    1    2    0  501  0.32657752562E+02  0.16161625426E+02 -0.18665692945E+02  0.40940628133E+02  0.00000000000E+00 0.  1.
<mgrwt>
<rscale>  0 0.42060899E+02</rscale>
<asrwt>0</asrwt>
<pdfrwt beam="1">  1        2 0.22902902E+00 0.48551508E+02</pdfrwt>
<pdfrwt beam="2">  1       -2 0.62418653E-02 0.36437988E+02</pdfrwt>
<totfact> 0.18547389E+03</totfact>
</mgrwt>
</event>
<event>
 7    1  0.4252091E-004  0.4379010E+02  0.7546771E-02  0.1554970E+00
         -2   -1    0    0    0  501 -0.00000000000E+00  0.00000000000E+00  0.17667431970E+03  0.17667431970E+03  0.00000000000E+00 0.  1.
          2   -1    0    0  503    0  0.00000000000E+00 -0.00000000000E+00 -0.53987472751E+03  0.53987472751E+03  0.00000000000E+00 0. -1.
         25    2    1    2    0    0 -0.40617706014E+02 -0.56857858891E+02 -0.77314714347E+02  0.16274330010E+03  0.12500081005E+03 0.  0.
          4    1    3    3  502    0 -0.45054866648E+02  0.29356670200E+02 -0.13720392746E+02  0.55512315489E+02  0.12700000000E+01 0.  1.
         -4    1    3    3    0  502  0.44371606338E+01 -0.86214529091E+02 -0.63594321601E+02  0.10723098461E+03  0.12700000000E+01 0.  1.
          1    1    1    2  503    0  0.16207255509E+02  0.21413662129E+02 -0.41594492278E+03  0.41681098696E+03  0.00000000000E+00 0. -1.
         -1    1    1    2    0  501  0.24410450505E+02  0.35444196762E+02  0.13005922932E+03  0.13699476015E+03  0.00000000000E+00 0.  1.
<mgrwt>
<rscale>  0 0.34292955E+02</rscale>
<asrwt>0</asrwt>
<pdfrwt beam="2">  1        2 0.83057650E-01 0.26855541E+02</pdfrwt>
<pdfrwt beam="1">  1       -2 0.27180665E-01 0.43790098E+02</pdfrwt>
<totfact> 0.69541625E+02</totfact>
</mgrwt>
</event>
<event>
 7    1  0.4252091E-004  0.1870631E+03  0.7546771E-02  0.1224642E+00
          1   -1    0    0  502    0 -0.00000000000E+00  0.00000000000E+00  0.22707549624E+04  0.22707549624E+04  0.00000000000E+00 0. -1.
          2   -1    0    0  503    0  0.00000000000E+00 -0.00000000000E+00 -0.32899389899E+03  0.32899389899E+03  0.00000000000E+00 0. -1.
         25    2    1    2    0    0 -0.15737013583E+02  0.11395097124E+03  0.11387470121E+03  0.20451490447E+03  0.12500568440E+03 0.  0.
          4    1    3    3  501    0 -0.59862804189E+02  0.80669669978E+02  0.11018306019E+03  0.14910758073E+03  0.12700000000E+01 0. -1.
         -4    1    3    3    0  501  0.44125790607E+02  0.33281301262E+02  0.36916410229E+01  0.55407323738E+02  0.12700000000E+01 0. -1.
          2    1    1    2  502    0  0.23541507963E+02  0.89996532567E+02  0.20736712398E+04  0.20757567269E+04  0.00000000000E+00 0. -1.
          1    1    1    2  503    0 -0.78044943801E+01 -0.20394750381E+03 -0.24578487761E+03  0.31947723002E+03  0.00000000000E+00 0. -1.
<mgrwt>
<rscale>  0 0.13191463E+03</rscale>
<asrwt>0</asrwt>
<pdfrwt beam="2">  1        2 0.50614447E-01 0.18706307E+03</pdfrwt>
<pdfrwt beam="1">  1        1 0.34934691E+00 0.93024612E+02</pdfrwt>
<totfact> 0.34925208E+01</totfact>
</mgrwt>
</event>
<event>
 7    1  0.4252091E-004  0.2173980E+03  0.7546771E-02  0.1309338E+00
          1   -1    0    0  502    0 -0.00000000000E+00  0.00000000000E+00  0.47624679289E+04  0.47624679289E+04  0.00000000000E+00 0. -1.
          2   -1    0    0  503    0  0.00000000000E+00 -0.00000000000E+00 -0.14813526935E+04  0.14813526935E+04  0.00000000000E+00 0. -1.
         25    2    1    2    0    0 -0.15277027338E+03  0.13546756452E+03 -0.35977902504E+03  0.43215166227E+03  0.12499557945E+03 0.  0.
          4    1    3    3  501    0 -0.14305812294E+03  0.11799698377E+03 -0.36672915265E+03  0.41095109079E+03  0.12700000000E+01 0. -1.
         -4    1    3    3    0  501 -0.97121504392E+01  0.17470580743E+02  0.69501276038E+01  0.21200571487E+02  0.12700000000E+01 0. -1.
          2    1    1    2  502    0  0.13861349559E+03 -0.16760416286E+03  0.47234945391E+04  0.47284992881E+04  0.00000000000E+00 0. -1.
          1    1    1    2  503    0  0.14156777785E+02  0.32136598344E+02 -0.10826002786E+04  0.10831696721E+04  0.00000000000E+00 0. -1.
<mgrwt>
<rscale>  0 0.87374359E+02</rscale>
<asrwt>0</asrwt>
<pdfrwt beam="2">  1        2 0.22790042E+00 0.35116596E+02</pdfrwt>
<pdfrwt beam="1">  1        1 0.73268736E+00 0.21739802E+03</pdfrwt>
<totfact> 0.56690006E-02</totfact>
</mgrwt>
</event>
<event>
 7    1  0.4252091E-004  0.4716042E+03  0.7546771E-02  0.1277909E+00
          2   -1    0    0  503    0  0.00000000000E+00  0.00000000000E+00  0.80258809115E+02  0.80258809115E+02  0.00000000000E+00 0. -1.
          1   -1    0    0  502    0 -0.00000000000E+00 -0.00000000000E+00 -0.35474631769E+04  0.35474631769E+04  0.00000000000E+00 0. -1.
         25    2    1    2    0    0  0.10099754746E+03  0.45065907468E+03 -0.18823599507E+04  0.19422148368E+04  0.12500152841E+03 0.  0.
          4    1    3    3  501    0  0.80494261389E+02  0.23386625929E+03 -0.77030404629E+03  0.80903812641E+03  0.12700000000E+01 0. -1.
         -4    1    3    3    0  501  0.20503286068E+02  0.21679281539E+03 -0.11120559044E+04  0.11331767104E+04  0.12700000000E+01 0. -1.
          2    1    1    2  502    0 -0.10270998612E+03 -0.47228343964E+03 -0.15911340104E+04  0.16629216541E+04  0.00000000000E+00 0. -1.
          1    1    1    2  503    0  0.17124386603E+01  0.21624364950E+02  0.62895933169E+01  0.22585495119E+02  0.00000000000E+00 0. -1.
<mgrwt>
<rscale>  0 0.10114380E+03</rscale>
<asrwt>0</asrwt>
<pdfrwt beam="1">  1        2 0.12347513E-01 0.21692063E+02</pdfrwt>
<pdfrwt beam="2">  1        1 0.54576338E+00 0.47160420E+03</pdfrwt>
<totfact> 0.15132047E+01</totfact>
</mgrwt>
</event>
<event>
 7    1  0.4252091E-004  0.1955528E+03  0.7546771E-02  0.1166801E+00
         -2   -1    0    0    0  501 -0.00000000000E+00  0.00000000000E+00  0.66012564561E+03  0.66012564561E+03  0.00000000000E+00 0.  1.
          2   -1    0    0  503    0  0.00000000000E+00 -0.00000000000E+00 -0.19483845042E+04  0.19483845042E+04  0.00000000000E+00 0. -1.
         25    2    1    2    0    0 -0.11535063147E+03  0.16215981900E+03 -0.26052581352E+03  0.35085507350E+03  0.12499603200E+03 0.  0.
          4    1    3    3  502    0  0.24095150336E+02  0.20717256056E+02 -0.15337008171E+02  0.35307473540E+02  0.12700000000E+01 0. -1.
         -4    1    3    3    0  502 -0.13944578181E+03  0.14144256294E+03 -0.24518880535E+03  0.31554759996E+03  0.12700000000E+01 0. -1.
          1    1    1    2  503    0 -0.82918186487E+02 -0.14565477654E+03 -0.16221709377E+04  0.16308063315E+04  0.00000000000E+00 0. -1.
         -1    1    1    2    0  501  0.19826881796E+03 -0.16505042461E+02  0.59443789268E+03  0.62684874480E+03  0.00000000000E+00 0.  1.
<mgrwt>
<rscale>  0 0.18103926E+03</rscale>
<asrwt>0</asrwt>
<pdfrwt beam="2">  1        2 0.29975146E+00 0.16760292E+03</pdfrwt>
<pdfrwt beam="1">  1       -2 0.10155779E+00 0.19555276E+03</pdfrwt>
<totfact> 0.70573177E+00</totfact>
</mgrwt>
</event>
<event>
 7    1  0.4252091E-004  0.1973843E+03  0.7546771E-02  0.1339917E+00
         -1   -1    0    0    0  501 -0.00000000000E+00  0.00000000000E+00  0.44443112491E+03  0.44443112491E+03  0.00000000000E+00 0.  1.
          1   -1    0    0  503    0  0.00000000000E+00 -0.00000000000E+00 -0.17141057518E+04  0.17141057518E+04  0.00000000000E+00 0. -1.
         25    2    1    2    0    0 -0.13420144677E+03 -0.10467694125E+03 -0.67217322133E+03  0.70456350493E+03  0.12500241062E+03 0.  0.
          4    1    3    3  502    0 -0.68693907093E+02 -0.93489207713E+02 -0.57655407648E+03  0.58811163978E+03  0.12700000000E+01 0.  1.
         -4    1    3    3    0  502 -0.65507539680E+02 -0.11187733542E+02 -0.95619144843E+02  0.11645186515E+03  0.12700000000E+01 0.  1.
          2    1    1    2  503    0 -0.16038988887E+02 -0.24744313382E+02 -0.10025531500E+04  0.10029867141E+04  0.00000000000E+00 0. -1.
         -2    1    1    2    0  501  0.15024043566E+03  0.12942125464E+03  0.40505174445E+03  0.45098665761E+03  0.00000000000E+00 0.  1.
<mgrwt>
<rscale>  0 0.76291725E+02</rscale>
<asrwt>0</asrwt>
<pdfrwt beam="2">  1        1 0.26370858E+00 0.29487798E+02</pdfrwt>
<pdfrwt beam="1">  1       -1 0.68374017E-01 0.19738427E+03</pdfrwt>
<totfact> 0.15222822E+01</totfact>
</mgrwt>
</event>
<event>
 7    1  0.4252091E-004  0.7670960E+02  0.7546771E-02  0.1406138E+00
          2   -1    0    0  503    0  0.00000000000E+00  0.00000000000E+00  0.21648937983E+03  0.21648937983E+03  0.00000000000E+00 0. -1.
          1   -1    0    0  502    0 -0.00000000000E+00 -0.00000000000E+00 -0.18018393976E+04  0.18018393976E+04  0.00000000000E+00 0. -1.
         25    2    1    2    0    0 -0.13092342940E+02 -0.63584865293E+02 -0.66128232377E+02  0.15560551379E+03  0.12500275304E+03 0.  0.
          4    1    3    3  501    0 -0.41036076891E+02 -0.68374727155E+02 -0.88744895327E+02  0.11931610229E+03  0.12700000000E+01 0. -1.
         -4    1    3    3    0  501  0.27943733951E+02  0.47898618627E+01  0.22616662950E+02  0.36289411497E+02  0.12700000000E+01 0. -1.
          2    1    1    2  502    0 -0.30229191992E+02  0.70998684971E+02 -0.16872643778E+04  0.16890280334E+04  0.00000000000E+00 0. -1.
          1    1    1    2  503    0  0.43321534932E+02 -0.74138196786E+01  0.16804259242E+03  0.17369523015E+03  0.00000000000E+00 0. -1.
<mgrwt>
<rscale>  0 0.58064529E+02</rscale>
<asrwt>0</asrwt>
<pdfrwt beam="1">  1        2 0.33306058E-01 0.43951338E+02</pdfrwt>
<pdfrwt beam="2">  1        1 0.27720606E+00 0.76709600E+02</pdfrwt>
<totfact> 0.10731126E+02</totfact>
</mgrwt>
</event>
<event>
 7    1  0.4252091E-004  0.7574653E+02  0.7546771E-02  0.1348776E+00
          2   -1    0    0  503    0  0.00000000000E+00  0.00000000000E+00  0.22779094540E+04  0.22779094540E+04  0.00000000000E+00 0. -1.
          1   -1    0    0  502    0 -0.00000000000E+00 -0.00000000000E+00 -0.36380220623E+04  0.36380220623E+04  0.00000000000E+00 0. -1.
         25    2    1    2    0    0 -0.37797388227E+02 -0.83182878957E+02  0.12881050693E+04  0.12973770535E+04  0.12499806227E+03 0.  0.
          4    1    3    3  501    0 -0.13440881318E+02 -0.41874177446E+02  0.11559106997E+04  0.11567477092E+04  0.12700000000E+01 0. -1.
         -4    1    3    3    0  501 -0.24356506909E+02 -0.41308701510E+02  0.13219436957E+03  0.14062934436E+03  0.12700000000E+01 0. -1.
          2    1    1    2  502    0 -0.37232270156E+02  0.60690140784E+02 -0.36314796177E+04  0.36321775492E+04  0.00000000000E+00 0. -1.
          1    1    1    2  503    0  0.75029658383E+02  0.22492738173E+02  0.98326194005E+03  0.98637691359E+03  0.00000000000E+00 0. -1.
<mgrwt>
<rscale>  0 0.73438435E+02</rscale>
<asrwt>0</asrwt>
<pdfrwt beam="1">  1        2 0.35044761E+00 0.75746532E+02</pdfrwt>
<pdfrwt beam="2">  1        1 0.55969570E+00 0.71200668E+02</pdfrwt>
<totfact> 0.27113894E-01</totfact>
</mgrwt>
</event>
<event>
 7    1  0.4252091E-004  0.6237849E+02  0.7546771E-02  0.1466299E+00
          2   -1    0    0  503    0  0.00000000000E+00  0.00000000000E+00  0.23924815401E+04  0.23924815401E+04  0.00000000000E+00 0. -1.
          1   -1    0    0  502    0 -0.00000000000E+00 -0.00000000000E+00 -0.10535206262E+02  0.10535206262E+02  0.00000000000E+00 0. -1.
         25    2    1    2    0    0  0.71860093361E+02  0.57171544944E+02  0.14058164099E+04  0.14143468612E+04  0.12499922818E+03 0.  0.
          4    1    3    3  501    0  0.85317089487E+01 -0.38937771476E+02  0.33819090285E+03  0.34053434449E+03  0.12700000000E+01 0. -1.
         -4    1    3    3    0  501  0.63328384413E+02  0.96109316420E+02  0.10676255070E+04  0.10738125167E+04  0.12700000000E+01 0. -1.
          2    1    1    2  502    0 -0.51570326308E+02 -0.29408083885E+02  0.14303502397E+03  0.15486559345E+03  0.00000000000E+00 0. -1.
          3    1    1    2  503    0 -0.20289767053E+02 -0.27763461058E+02  0.83309490000E+03  0.83380429168E+03  0.00000000000E+00 0. -1.
<mgrwt>
<rscale>  0 0.46314427E+02</rscale>
<asrwt>0</asrwt>
<pdfrwt beam="1">  1        2 0.36807365E+00 0.34387271E+02</pdfrwt>
<pdfrwt beam="2">  1        1 0.16208029E-02 0.62378492E+02</pdfrwt>
<totfact> 0.54862837E+03</totfact>
</mgrwt>
</event>
<event>
 7    1  0.4252091E-004  0.8016600E+02  0.7546771E-02  0.1392884E+00
          2   -1    0    0  503    0  0.00000000000E+00  0.00000000000E+00  0.60033642227E+03  0.60033642227E+03  0.00000000000E+00 0. -1.
          1   -1    0    0  502    0 -0.00000000000E+00 -0.00000000000E+00 -0.80391188862E+03  0.80391188862E+03  0.00000000000E+00 0. -1.
         25    2    1    2    0    0 -0.57609394079E+02 -0.77133273401E+02  0.22505540837E+02  0.15937323051E+03  0.12499977233E+03 0.  0.
          4    1    3    3  501    0 -0.46470660394E+02  0.21429403169E+02  0.30946190385E+02  0.59816562898E+02  0.12700000000E+01 0. -1.
         -4    1    3    3    0  501 -0.11138733685E+02 -0.98562676570E+02 -0.84406495476E+01  0.99556667610E+02  0.12700000000E+01 0. -1.
          2    1    1    2  502    0 -0.15225007411E+02  0.44162712764E+02 -0.73159152655E+03  0.73308137869E+03  0.00000000000E+00 0. -1.
          1    1    1    2  503    0  0.72834401490E+02  0.32970560638E+02  0.50551051937E+03  0.51179370170E+03  0.00000000000E+00 0. -1.
<mgrwt>
<rscale>  0 0.61195017E+02</rscale>
<asrwt>0</asrwt>
<pdfrwt beam="1">  1        2 0.92359450E-01 0.80165999E+02</pdfrwt>
<pdfrwt beam="2">  1        1 0.12367875E+00 0.46713446E+02</pdfrwt>
<totfact> 0.17733397E+02</totfact>
</mgrwt>
</event>
<event>
 7    1  0.4252091E-004  0.1466893E+03  0.7546771E-02  0.1315202E+00
          2   -1    0    0  503    0  0.00000000000E+00  0.00000000000E+00  0.62198419494E+03  0.62198419494E+03  0.00000000000E+00 0. -1.
          1   -1    0    0  502    0 -0.00000000000E+00 -0.00000000000E+00 -0.90387624416E+03  0.90387624416E+03  0.00000000000E+00 0. -1.
         25    2    1    2    0    0 -0.44762236276E+02  0.11038357131E+03 -0.22945213987E+02  0.17418527145E+03  0.12500334129E+03 0.  0.
          4    1    3    3  501    0 -0.61639009387E+02  0.83783944811E+02  0.33710101085E+02  0.10934852857E+03  0.12700000000E+01 0. -1.
         -4    1    3    3    0  501  0.16876773111E+02  0.26599626496E+02 -0.56655315073E+02  0.64836742872E+02  0.12700000000E+01 0. -1.
          2    1    1    2  502    0  0.14025828282E+02 -0.14900105770E+03 -0.79721896591E+03  0.81114494306E+03  0.00000000000E+00 0. -1.
          1    1    1    2  503    0  0.30736407995E+02  0.38617486392E+02  0.53827213067E+03  0.54053022459E+03  0.00000000000E+00 0. -1.
<mgrwt>
<rscale>  0 0.85088365E+02</rscale>
<asrwt>0</asrwt>
<pdfrwt beam="1">  1        2 0.95689876E-01 0.49356226E+02</pdfrwt>
<pdfrwt beam="2">  1        1 0.13905788E+00 0.14668929E+03</pdfrwt>
<totfact> 0.13565110E+02</totfact>
</mgrwt>
</event>
<event>
 7    1  0.4252091E-004  0.2762480E+02  0.7546771E-02  0.1655303E+00
          1   -1    0    0  502    0 -0.00000000000E+00  0.00000000000E+00  0.13057597811E+04  0.13057597811E+04  0.00000000000E+00 0. -1.
          2   -1    0    0  503    0  0.00000000000E+00 -0.00000000000E+00 -0.76255717742E+01  0.76255717742E+01  0.00000000000E+00 0. -1.
         25    2    1    2    0    0  0.45390443786E+02  0.17290768303E+02  0.86287425306E+03  0.87323359782E+03  0.12500270682E+03 0.  0.
          4    1    3    3  501    0  0.78279804762E+02  0.16496489908E+02  0.77948184450E+03  0.78357732281E+03  0.12700000000E+01 0. -1.
         -4    1    3    3    0  501 -0.32889360976E+02  0.79427839562E+00  0.83392408557E+02  0.89656275010E+02  0.12700000000E+01 0. -1.
          2    1    1    2  502    0 -0.22482036740E+02 -0.12735688151E+02  0.36885378088E+03  0.36975769282E+03  0.00000000000E+00 0. -1.
          1    1    1    2  503    0 -0.22908407046E+02 -0.45550801524E+01  0.66406175358E+02  0.70394062209E+02  0.00000000000E+00 0. -1.
<mgrwt>
<rscale>  0 0.25401363E+02</rscale>
<asrwt>0</asrwt>
<pdfrwt beam="2">  1        2 0.11731659E-02 0.23356881E+02</pdfrwt>
<pdfrwt beam="1">  1        1 0.20088594E+00 0.27624805E+02</pdfrwt>
<totfact> 0.12442815E+04</totfact>
</mgrwt>
</event>
<event>
 7    1  0.4252091E-004  0.5352318E+02  0.7546771E-02  0.1501979E+00
          1   -1    0    0  502    0 -0.00000000000E+00  0.00000000000E+00  0.11199925435E+04  0.11199925435E+04  0.00000000000E+00 0. -1.
          2   -1    0    0  503    0  0.00000000000E+00 -0.00000000000E+00 -0.29413428811E+03  0.29413428811E+03  0.00000000000E+00 0. -1.
         25    2    1    2    0    0 -0.58623444071E+02  0.16110163209E+02  0.12037616292E+03  0.18387968254E+03  0.12500028600E+03 0.  0.
          4    1    3    3  501    0 -0.70750843073E+02 -0.12977471150E+02  0.13194590620E+03  0.15028450225E+03  0.12700000000E+01 0.  1.
         -4    1    3    3    0  501  0.12127399002E+02  0.29087634360E+02 -0.11569743286E+02  0.33595180293E+02  0.12700000000E+01 0.  1.
          2    1    1    2  502    0  0.70192945084E+01 -0.30392188170E+02  0.96487830253E+03  0.96538235653E+03  0.00000000000E+00 0. -1.
          1    1    1    2  503    0  0.51604149562E+02  0.14282024961E+02 -0.25939621010E+03  0.26486479250E+03  0.00000000000E+00 0. -1.
<mgrwt>
<rscale>  0 0.40859610E+02</rscale>
<asrwt>0</asrwt>
<pdfrwt beam="2">  1        2 0.45251430E-01 0.53523182E+02</pdfrwt>
<pdfrwt beam="1">  1        1 0.17230654E+00 0.31192236E+02</pdfrwt>
<totfact> 0.23102392E+02</totfact>
</mgrwt>
</event>
<event>
 7    1  0.4252091E-004  0.9890268E+02  0.7546771E-02  0.1327975E+00
          2   -1    0    0  503    0  0.00000000000E+00  0.00000000000E+00  0.21016662841E+02  0.21016662841E+02  0.00000000000E+00 0. -1.
          1   -1    0    0  502    0 -0.00000000000E+00 -0.00000000000E+00 -0.37641733514E+04  0.37641733514E+04  0.00000000000E+00 0. -1.
         25    2    1    2    0    0 -0.14909912644E+03  0.58581788190E+01 -0.11174385744E+04  0.11342652940E+04  0.12499568795E+03 0.  0.
          4    1    3    3  501    0 -0.13191330080E+03 -0.21129422288E+02 -0.55263758729E+03  0.56855737371E+03  0.12700000000E+01 0.  1.
         -4    1    3    3    0  501 -0.17185825641E+02  0.26987601107E+02 -0.56480098708E+03  0.56570792032E+03  0.12700000000E+01 0.  1.
          2    1    1    2  502    0  0.88930435794E+02 -0.31301051289E+02 -0.25465017715E+04  0.25482463873E+04  0.00000000000E+00 0. -1.
          1    1    1    2  503    0  0.60168690643E+02  0.25442872470E+02 -0.79216342650E+02  0.10267833285E+03  0.00000000000E+00 0. -1.
<mgrwt>
<rscale>  0 0.80380414E+02</rscale>
<asrwt>0</asrwt>
<pdfrwt beam="1">  1        2 0.32333349E-02 0.65326955E+02</pdfrwt>
<pdfrwt beam="2">  1        1 0.57910321E+00 0.98902679E+02</pdfrwt>
<totfact> 0.79196447E+01</totfact>
</mgrwt>
</event>
<event>
 7    1  0.4252091E-004  0.1031173E+03  0.7546771E-02  0.1404011E+00
          2   -1    0    0  503    0  0.00000000000E+00  0.00000000000E+00  0.16084073739E+04  0.16084073739E+04  0.00000000000E+00 0. -1.
          1   -1    0    0  502    0 -0.00000000000E+00 -0.00000000000E+00 -0.26448266429E+02  0.26448266429E+02  0.00000000000E+00 0. -1.
         25    2    1    2    0    0  0.11033731134E+03 -0.32051004510E+02  0.72691141816E+03  0.74647802892E+03  0.12501059410E+03 0.  0.
          4    1    3    3  501    0  0.55046121644E+02 -0.60247716807E+02  0.20135360009E+03  0.21726653690E+03  0.12700000000E+01 0.  1.
         -4    1    3    3    0  501  0.55291189693E+02  0.28196712297E+02  0.52555781808E+03  0.52921149202E+03  0.12700000000E+01 0.  1.
          2    1    1    2  502    0 -0.85620374498E+02  0.54286617059E+02  0.14157283333E+03  0.17412855153E+03  0.00000000000E+00 0. -1.
          1    1    1    2  503    0 -0.24716936839E+02 -0.22235612549E+02  0.71347485600E+03  0.71424905991E+03  0.00000000000E+00 0. -1.
<mgrwt>
<rscale>  0 0.58551844E+02</rscale>
<asrwt>0</asrwt>
<pdfrwt beam="1">  1        2 0.24744721E+00 0.33246796E+02</pdfrwt>
<pdfrwt beam="2">  1        1 0.40689653E-02 0.10311726E+03</pdfrwt>
<totfact> 0.39657309E+03</totfact>
</mgrwt>
</event>
<event>
 7    1  0.4252091E-004  0.8453274E+02  0.7546771E-02  0.1363410E+00
          2   -1    0    0  503    0  0.00000000000E+00  0.00000000000E+00  0.14597537409E+04  0.14597537409E+04  0.00000000000E+00 0. -1.
          1   -1    0    0  502    0 -0.00000000000E+00 -0.00000000000E+00 -0.17922692475E+04  0.17922692475E+04  0.00000000000E+00 0. -1.
         25    2    1    2    0    0  0.10236246709E+03  0.34135130109E+02  0.17928592240E+03  0.24375171732E+03  0.12501270315E+03 0.  0.
          4    1    3    3  501    0  0.12875704362E+03  0.18063027544E+02  0.12025392868E+03  0.17710807296E+03  0.12700000000E+01 0. -1.
         -4    1    3    3    0  501 -0.26394576527E+02  0.16072102564E+02  0.59031993716E+02  0.66643644356E+02  0.12700000000E+01 0. -1.
          2    1    1    2  502    0 -0.47782911272E+02  0.29918659493E+02 -0.17581656478E+04  0.17590692931E+04  0.00000000000E+00 0. -1.
          1    1    1    2  503    0 -0.54579555817E+02 -0.64053789601E+02  0.12463642188E+04  0.12492019780E+04  0.00000000000E+00 0. -1.
<mgrwt>
<rscale>  0 0.69033885E+02</rscale>
<asrwt>0</asrwt>
<pdfrwt beam="1">  1        2 0.22457750E+00 0.84532740E+02</pdfrwt>
<pdfrwt beam="2">  1        1 0.27573373E+00 0.56376704E+02</pdfrwt>
<totfact> 0.11833959E+01</totfact>
</mgrwt>
</event>
<event>
 7    1  0.4252091E-004  0.6058837E+02  0.7546771E-02  0.1410660E+00
          1   -1    0    0  502    0 -0.00000000000E+00  0.00000000000E+00  0.98004879581E+03  0.98004879581E+03  0.00000000000E+00 0. -1.
          2   -1    0    0  503    0  0.00000000000E+00 -0.00000000000E+00 -0.11489355302E+04  0.11489355302E+04  0.00000000000E+00 0. -1.
         25    2    1    2    0    0 -0.31938602544E+01 -0.15919881558E+02  0.36436989007E+03  0.38555684757E+03  0.12500009018E+03 0.  0.
          4    1    3    3  501    0 -0.44725890961E+01  0.45860228281E+02  0.26162445305E+03  0.26565415849E+03  0.12700000000E+01 0.  1.
         -4    1    3    3    0  501  0.12787288418E+01 -0.61780109839E+02  0.10274543702E+03  0.11990268907E+03  0.12700000000E+01 0.  1.
          2    1    1    2  502    0  0.46869842743E+02 -0.26233877851E+02  0.60308181196E+03  0.60546896735E+03  0.00000000000E+00 0. -1.
          1    1    1    2  503    0 -0.43675982488E+02  0.42153759409E+02 -0.11363384364E+04  0.11379585111E+04  0.00000000000E+00 0. -1.
<mgrwt>
<rscale>  0 0.57046768E+02</rscale>
<asrwt>0</asrwt>
<pdfrwt beam="2">  1        2 0.17675931E+00 0.60588373E+02</pdfrwt>
<pdfrwt beam="1">  1        1 0.15077674E+00 0.53712182E+02</pdfrwt>
<totfact> 0.58924626E+01</totfact>
</mgrwt>
</event>
<event>
 7    1  0.4252091E-004  0.8510828E+02  0.7546771E-02  0.1463333E+00
         -2   -1    0    0    0  501 -0.00000000000E+00  0.00000000000E+00  0.30825105697E+02  0.30825105697E+02  0.00000000000E+00 0.  1.
          2   -1    0    0  503    0  0.00000000000E+00 -0.00000000000E+00 -0.63882722583E+03  0.63882722583E+03  0.00000000000E+00 0. -1.
         25    2    1    2    0    0  0.71536645872E+02 -0.71600233928E+00 -0.20598320492E+03  0.25136449643E+03  0.12504809074E+03 0.  0.
          4    1    3    3  502    0  0.65849365762E+02  0.11569629557E+02 -0.27402567063E+02  0.72266927990E+02  0.12700000000E+01 0. -1.
         -4    1    3    3    0  502  0.56872801094E+01 -0.12285631897E+02 -0.17858063785E+03  0.17909756844E+03  0.12700000000E+01 0. -1.
          1    1    1    2  503    0 -0.86791536518E+02 -0.20027202592E+02 -0.32977630337E+03  0.34159372055E+03  0.00000000000E+00 0. -1.
         -1    1    1    2    0  501  0.15254890646E+02  0.20743204931E+02 -0.72242611845E+02  0.76694114544E+02  0.00000000000E+00 0.  1.
<mgrwt>
<rscale>  0 0.46812628E+02</rscale>
<asrwt>0</asrwt>
<pdfrwt beam="2">  1        2 0.98281110E-01 0.85108281E+02</pdfrwt>
<pdfrwt beam="1">  1       -2 0.47423241E-02 0.25748636E+02</pdfrwt>
<totfact> 0.79836355E+03</totfact>
</mgrwt>
</event>
<event>
 7    1  0.4252091E-004  0.4679688E+02  0.7546771E-02  0.1540132E+00
          1   -1    0    0  502    0 -0.00000000000E+00  0.00000000000E+00  0.22947629390E+04  0.22947629390E+04  0.00000000000E+00 0. -1.
          2   -1    0    0  503    0  0.00000000000E+00 -0.00000000000E+00 -0.13830283640E+03  0.13830283640E+03  0.00000000000E+00 0. -1.
         25    2    1    2    0    0 -0.74360317170E+01 -0.55115315243E+02  0.41881263006E+03  0.44059191766E+03  0.12499690502E+03 0.  0.
          4    1    3    3  501    0 -0.14455764583E+02 -0.95003181578E+02  0.30483623644E+03  0.31962684115E+03  0.12700000000E+01 0. -1.
         -4    1    3    3    0  501  0.70197328664E+01  0.39887866334E+02  0.11397639362E+03  0.12096507650E+03  0.12700000000E+01 0. -1.
          2    1    1    2  502    0 -0.21010606571E+02  0.17976701646E+02  0.18606603963E+04  0.18608658517E+04  0.00000000000E+00 0. -1.
          1    1    1    2  503    0  0.28446638288E+02  0.37138613597E+02 -0.12301292379E+03  0.13160800609E+03  0.00000000000E+00 0. -1.
<mgrwt>
<rscale>  0 0.35972289E+02</rscale>
<asrwt>0</asrwt>
<pdfrwt beam="2">  1        2 0.21277361E-01 0.46796881E+02</pdfrwt>
<pdfrwt beam="1">  1        1 0.35304043E+00 0.27651535E+02</pdfrwt>
<totfact> 0.99442733E+01</totfact>
</mgrwt>
</event>
<event>
 7    1  0.4252091E-004  0.6387826E+02  0.7546771E-02  0.1448509E+00
          2   -1    0    0  503    0  0.00000000000E+00  0.00000000000E+00  0.16329324484E+03  0.16329324484E+03  0.00000000000E+00 0. -1.
          1   -1    0    0  502    0 -0.00000000000E+00 -0.00000000000E+00 -0.16210391626E+04  0.16210391626E+04  0.00000000000E+00 0. -1.
         25    2    1    2    0    0 -0.33500403056E+02  0.46086563492E+02 -0.54423795753E+02  0.14776128599E+03  0.12500079901E+03 0.  0.
          4    1    3    3  501    0  0.36156755649E+02  0.82208622660E+01  0.17213009487E+02  0.40899806247E+02  0.12700000000E+01 0.  1.
         -4    1    3    3    0  501 -0.69657158704E+02  0.37865701226E+02 -0.71636805240E+02  0.10686147974E+03  0.12700000000E+01 0.  1.
          2    1    1    2  502    0  0.32990352721E+02  0.19318261572E+02 -0.15105151381E+04  0.15109988554E+04  0.00000000000E+00 0. -1.
          1    1    1    2  503    0  0.51005033453E+00 -0.65404825064E+02  0.10719301611E+03  0.12557226603E+03  0.00000000000E+00 0. -1.
<mgrwt>
<rscale>  0 0.49417481E+02</rscale>
<asrwt>0</asrwt>
<pdfrwt beam="1">  1        2 0.25122038E-01 0.63878261E+02</pdfrwt>
<pdfrwt beam="2">  1        1 0.24939064E+00 0.38230336E+02</pdfrwt>
<totfact> 0.20457967E+02</totfact>
</mgrwt>
</event>
<event>
 7    1  0.4252091E-004  0.5546729E+02  0.7546771E-02  0.1421829E+00
          2   -1    0    0  503    0  0.00000000000E+00  0.00000000000E+00  0.87875392790E+03  0.87875392790E+03  0.00000000000E+00 0. -1.
         -2   -1    0    0    0  501 -0.00000000000E+00 -0.00000000000E+00 -0.35571149176E+03  0.35571149176E+03  0.00000000000E+00 0.  1.
         25    2    1    2    0    0  0.11835355506E+02  0.59010288308E+02  0.23922487317E+03  0.27654559775E+03  0.12500655153E+03 0.  0.
          4    1    3    3  502    0 -0.52112376541E+02  0.42806592605E+02  0.82953050019E+02  0.10691550667E+03  0.12700000000E+01 0.  1.
         -4    1    3    3    0  502  0.63947732046E+02  0.16203695703E+02  0.15627182315E+03  0.16963009108E+03  0.12700000000E+01 0.  1.
          1    1    1    2  503    0  0.38991189340E+02 -0.41320331143E+02  0.61740790963E+03  0.62001629776E+03  0.00000000000E+00 0. -1.
         -1    1    1    2    0  501 -0.50826544846E+02 -0.17689957165E+02 -0.33359034666E+03  0.33790352415E+03  0.00000000000E+00 0.  1.
<mgrwt>
<rscale>  0 0.54635925E+02</rscale>
<asrwt>0</asrwt>
<pdfrwt beam="1">  1        2 0.13519291E+00 0.55467286E+02</pdfrwt>
<pdfrwt beam="2">  1       -2 0.54724845E-01 0.53817026E+02</pdfrwt>
<totfact> 0.10930951E+02</totfact>
</mgrwt>
</event>
<event>
 7    1  0.4252091E-004  0.6143359E+02  0.7546771E-02  0.1451944E+00
          2   -1    0    0  503    0  0.00000000000E+00  0.00000000000E+00  0.87655466584E+03  0.87655466584E+03  0.00000000000E+00 0. -1.
          1   -1    0    0  502    0 -0.00000000000E+00 -0.00000000000E+00 -0.11146182486E+03  0.11146182486E+03  0.00000000000E+00 0. -1.
         25    2    1    2    0    0  0.56892559476E+02 -0.56800479223E+02  0.52430713225E+03  0.54496976329E+03  0.12502406252E+03 0.  0.
          4    1    3    3  501    0  0.15661332413E+02 -0.16129767230E+02  0.58218292296E+01  0.23258403200E+02  0.12700000000E+01 0. -1.
         -4    1    3    3    0  501  0.41231227063E+02 -0.40670711994E+02  0.51848530302E+03  0.52171136009E+03  0.12700000000E+01 0. -1.
          2    1    1    2  502    0 -0.58532472839E+02  0.18076407924E+02 -0.90619207648E+02  0.10938303202E+03  0.00000000000E+00 0. -1.
          1    1    1    2  503    0  0.16399133638E+01  0.38724071299E+02  0.33140491638E+03  0.33366369538E+03  0.00000000000E+00 0. -1.
<mgrwt>
<rscale>  0 0.48796425E+02</rscale>
<asrwt>0</asrwt>
<pdfrwt beam="1">  1        2 0.13485456E+00 0.38758780E+02</pdfrwt>
<pdfrwt beam="2">  1        1 0.17147974E-01 0.61433593E+02</pdfrwt>
<totfact> 0.13695409E+03</totfact>
</mgrwt>
</event>
<event>
 7    1  0.4252091E-004  0.6670566E+02  0.7546771E-02  0.1445576E+00
         -2   -1    0    0    0  501 -0.00000000000E+00  0.00000000000E+00  0.12266983347E+03  0.12266983347E+03  0.00000000000E+00 0.  1.
          2   -1    0    0  503    0  0.00000000000E+00 -0.00000000000E+00 -0.79781892176E+03  0.79781892176E+03  0.00000000000E+00 0. -1.
         25    2    1    2    0    0 -0.83936540865E+02  0.24266604858E+02 -0.14147285056E+03  0.20802152085E+03  0.12499669871E+03 0.  0.
          4    1    3    3  502    0 -0.10260903951E+03  0.54688578968E+02 -0.11518726354E+03  0.16367398767E+03  0.12700000000E+01 0. -1.
         -4    1    3    3    0  502  0.18672498644E+02 -0.30421974110E+02 -0.26285587021E+02  0.44347533182E+02  0.12700000000E+01 0. -1.
          1    1    1    2  503    0  0.50944338038E+02 -0.41908808633E+02 -0.61732148691E+03  0.62083612333E+03  0.00000000000E+00 0. -1.
         -1    1    1    2    0  501  0.32992202828E+02  0.17642203775E+02  0.83645249188E+02  0.91631111055E+02  0.00000000000E+00 0.  1.
<mgrwt>
<rscale>  0 0.49956570E+02</rscale>
<asrwt>0</asrwt>
<pdfrwt beam="2">  1        2 0.12274137E+00 0.66705656E+02</pdfrwt>
<pdfrwt beam="1">  1       -2 0.18872282E-01 0.37413003E+02</pdfrwt>
<totfact> 0.80452143E+02</totfact>
</mgrwt>
</event>
<event>
 7    1  0.4252091E-004  0.8235130E+02  0.7546771E-02  0.1390964E+00
          1   -1    0    0  502    0 -0.00000000000E+00  0.00000000000E+00  0.36916630646E+03  0.36916630646E+03  0.00000000000E+00 0. -1.
          2   -1    0    0  503    0  0.00000000000E+00 -0.00000000000E+00 -0.26842763847E+04  0.26842763847E+04  0.00000000000E+00 0. -1.
         25    2    1    2    0    0  0.84305968077E+02 -0.48010752757E+02 -0.26663142802E+03  0.31004945635E+03  0.12500327331E+03 0.  0.
          4    1    3    3  501    0  0.58161044246E+01 -0.44396593238E+02 -0.20594761768E+03  0.21076270707E+03  0.12700000000E+01 0.  1.
         -4    1    3    3    0  501  0.78489863652E+02 -0.36141595187E+01 -0.60683810344E+02  0.99286749282E+02  0.12700000000E+01 0.  1.
          2    1    1    2  502    0 -0.43592402508E+02  0.69802663507E+02  0.34235814747E+03  0.35211050897E+03  0.00000000000E+00 0. -1.
          1    1    1    2  503    0 -0.40713565569E+02 -0.21791910750E+02 -0.23908367977E+04  0.23912827258E+04  0.00000000000E+00 0. -1.
<mgrwt>
<rscale>  0 0.61667530E+02</rscale>
<asrwt>0</asrwt>
<pdfrwt beam="2">  1        2 0.41296559E+00 0.46178802E+02</pdfrwt>
<pdfrwt beam="1">  1        1 0.56794818E-01 0.82351297E+02</pdfrwt>
<totfact> 0.38112949E+01</totfact>
</mgrwt>
</event>
<event>
 7    1  0.4252091E-004  0.4579394E+02  0.7546771E-02  0.1514477E+00
         -2   -1    0    0    0  501 -0.00000000000E+00  0.00000000000E+00  0.25922398171E+03  0.25922398171E+03  0.00000000000E+00 0.  1.
          2   -1    0    0  503    0  0.00000000000E+00 -0.00000000000E+00 -0.42475565468E+03  0.42475565468E+03  0.00000000000E+00 0. -1.
         25    2    1    2    0    0 -0.63551379414E+02 -0.74507680584E+01 -0.20357708367E+03  0.24731231758E+03  0.12500184663E+03 0.  0.
          4    1    3    3  502    0 -0.48270085748E+02 -0.49332960446E+01 -0.57518995822E+01  0.48877764236E+02  0.12700000000E+01 0. -1.
         -4    1    3    3    0  502 -0.15281293667E+02 -0.25174720138E+01 -0.19782518408E+03  0.19843455334E+03  0.12700000000E+01 0. -1.
          1    1    1    2  503    0  0.26938118273E+02 -0.19896105238E+02 -0.19567552704E+03  0.19852060120E+03  0.00000000000E+00 0. -1.
         -1    1    1    2    0  501  0.36613261141E+02  0.27346873296E+02  0.23372093774E+03  0.23814671761E+03  0.00000000000E+00 0.  1.
<mgrwt>
<rscale>  0 0.39161155E+02</rscale>
<asrwt>0</asrwt>
<pdfrwt beam="2">  1        2 0.65347024E-01 0.33489061E+02</pdfrwt>
<pdfrwt beam="1">  1       -2 0.39880612E-01 0.45793939E+02</pdfrwt>
<totfact> 0.44863762E+02</totfact>
</mgrwt>
</event>
<event>
 7    1  0.4252091E-004  0.4648434E+02  0.7546771E-02  0.1484152E+00
          1   -1    0    0  502    0 -0.00000000000E+00  0.00000000000E+00  0.46068998194E+02  0.46068998194E+02  0.00000000000E+00 0. -1.
          2   -1    0    0  503    0  0.00000000000E+00 -0.00000000000E+00 -0.21284784342E+04  0.21284784342E+04  0.00000000000E+00 0. -1.
         25    2    1    2    0    0  0.24014092147E+02  0.32522350956E+01 -0.11286243576E+03  0.17014646285E+03  0.12499854304E+03 0.  0.
          4    1    3    3  501    0 -0.23206671275E+02 -0.75756684446E+01 -0.11882929267E+03  0.12131757515E+03  0.12700000000E+01 0.  1.
         -4    1    3    3    0  501  0.47220763422E+02  0.10827903540E+02  0.59668569121E+01  0.48828887706E+02  0.12700000000E+01 0.  1.
          2    1    1    2  502    0 -0.35538562425E+02 -0.42227644516E+02 -0.27024153641E+02  0.61452976011E+02  0.00000000000E+00 0. -1.
          1    1    1    2  503    0  0.11524470277E+02  0.38975409421E+02 -0.19425228466E+04  0.19429479935E+04  0.00000000000E+00 0. -1.
<mgrwt>
<rscale>  0 0.43465933E+02</rscale>
<asrwt>0</asrwt>
<pdfrwt beam="2">  1        2 0.32745830E+00 0.40643523E+02</pdfrwt>
<pdfrwt beam="1">  1        1 0.70875365E-02 0.46484339E+02</pdfrwt>
<totfact> 0.96445280E+02</totfact>
</mgrwt>
</event>
<event>
 7    1  0.4252091E-004  0.9514236E+02  0.7546771E-02  0.1311961E+00
          2   -1    0    0  503    0  0.00000000000E+00  0.00000000000E+00  0.48808920899E+03  0.48808920899E+03  0.00000000000E+00 0. -1.
         -2   -1    0    0    0  501 -0.00000000000E+00 -0.00000000000E+00 -0.90918195617E+03  0.90918195617E+03  0.00000000000E+00 0.  1.
         25    2    1    2    0    0  0.15615907563E+03  0.27856939477E+02  0.45086154853E+02  0.20692875404E+03  0.12500032764E+03 0.  0.
          4    1    3    3  502    0  0.17422927740E+03  0.30164965665E+02  0.23069346848E+02  0.17832435033E+03  0.12700000000E+01 0.  1.
         -4    1    3    3    0  502 -0.18070201767E+02 -0.23080261873E+01  0.22016808005E+02  0.28604403708E+02  0.12700000000E+01 0.  1.
          1    1    1    2  503    0 -0.79587146397E+02 -0.44475324361E+02  0.35444676396E+03  0.36598453087E+03  0.00000000000E+00 0. -1.
         -1    1    1    2    0  501 -0.76571929233E+02  0.16618384884E+02 -0.82062566599E+03  0.82435788026E+03  0.00000000000E+00 0.  1.
<mgrwt>
<rscale>  0 0.86341379E+02</rscale>
<asrwt>0</asrwt>
<pdfrwt beam="1">  1        2 0.75090648E-01 0.95142356E+02</pdfrwt>
<pdfrwt beam="2">  1       -2 0.13987415E+00 0.78354522E+02</pdfrwt>
<totfact> 0.26350767E+01</totfact>
</mgrwt>
</event>
<event>
 7    1  0.4252091E-004  0.5980295E+02  0.7546771E-02  0.1420122E+00
         -2   -1    0    0    0  501 -0.00000000000E+00  0.00000000000E+00  0.25735192378E+02  0.25735192378E+02  0.00000000000E+00 0.  1.
          2   -1    0    0  503    0  0.00000000000E+00 -0.00000000000E+00 -0.82715609247E+03  0.82715609247E+03  0.00000000000E+00 0. -1.
         25    2    1    2    0    0 -0.65344692643E+02 -0.26559806485E+02 -0.23666470121E+03  0.27678493289E+03  0.12499746436E+03 0.  0.
          4    1    3    3  502    0 -0.86431041780E+02  0.22715095508E+02 -0.13610526637E+03  0.16282676985E+03  0.12700000000E+01 0.  1.
         -4    1    3    3    0  502  0.21086349137E+02 -0.49274901993E+02 -0.10055943484E+03  0.11395816303E+03  0.12700000000E+01 0.  1.
          1    1    1    2  503    0  0.24040548085E+02  0.55743570811E+02 -0.36692967959E+03  0.37191757609E+03  0.00000000000E+00 0. -1.
         -1    1    1    2    0  501  0.41304144558E+02 -0.29183764326E+02 -0.19782651930E+03  0.20418877588E+03  0.00000000000E+00 0.  1.
<mgrwt>
<rscale>  0 0.54995196E+02</rscale>
<asrwt>0</asrwt>
<pdfrwt beam="2">  1        2 0.12725478E+00 0.59802954E+02</pdfrwt>
<pdfrwt beam="1">  1       -2 0.39592605E-02 0.50573950E+02</pdfrwt>
<totfact> 0.84583311E+03</totfact>
</mgrwt>
</event>
<event>
 7    1  0.4252091E-004  0.9268542E+02  0.7546771E-02  0.1314506E+00
          2   -1    0    0  503    0  0.00000000000E+00  0.00000000000E+00  0.16861071138E+03  0.16861071138E+03  0.00000000000E+00 0. -1.
          1   -1    0    0  502    0 -0.00000000000E+00 -0.00000000000E+00 -0.14924168426E+04  0.14924168426E+04  0.00000000000E+00 0. -1.
         25    2    1    2    0    0 -0.28453925864E+02 -0.81129086022E+02 -0.28650925540E+02  0.15438178378E+03  0.12498521965E+03 0.  0.
          4    1    3    3  501    0 -0.42106037710E+02 -0.69906584576E+02  0.34634852168E+02  0.88662477201E+02  0.12700000000E+01 0.  1.
         -4    1    3    3    0  501  0.13652111846E+02 -0.11222501446E+02 -0.63285777709E+02  0.65719306576E+02  0.12700000000E+01 0.  1.
          2    1    1    2  502    0  0.88563839750E+02  0.30477941578E+02 -0.13844887409E+04  0.13876532465E+04  0.00000000000E+00 0. -1.
          1    1    1    2  503    0 -0.60109913886E+02  0.50651144443E+02  0.89333535269E+02  0.11899252373E+03  0.00000000000E+00 0. -1.
<mgrwt>
<rscale>  0 0.85355338E+02</rscale>
<asrwt>0</asrwt>
<pdfrwt beam="1">  1        2 0.25940110E-01 0.78604963E+02</pdfrwt>
<pdfrwt beam="2">  1        1 0.22960259E+00 0.92685416E+02</pdfrwt>
<totfact> 0.21794854E+02</totfact>
</mgrwt>
</event>
<event>
 7    1  0.4252091E-004  0.1303269E+03  0.7546771E-02  0.1345606E+00
          1   -1    0    0  502    0 -0.00000000000E+00  0.00000000000E+00  0.56572190106E+02  0.56572190106E+02  0.00000000000E+00 0. -1.
          2   -1    0    0  503    0  0.00000000000E+00 -0.00000000000E+00 -0.25950337717E+04  0.25950337717E+04  0.00000000000E+00 0. -1.
         25    2    1    2    0    0 -0.10458686190E+03 -0.97571407218E+02 -0.93160746789E+03  0.95077600780E+03  0.12499580630E+03 0.  0.
          4    1    3    3  501    0 -0.12247837181E+03 -0.53005534936E+02 -0.54070708205E+03  0.55693473565E+03  0.12700000000E+01 0.  1.
         -4    1    3    3    0  501  0.17891509909E+02 -0.44565872281E+02 -0.39090038584E+03  0.39384127215E+03  0.12700000000E+01 0.  1.
          2    1    1    2  502    0  0.40339500091E+02 -0.13445783471E+02  0.34324558241E+02  0.54646497227E+02  0.00000000000E+00 0. -1.
          1    1    1    2  503    0  0.64247361808E+02  0.11101719069E+03 -0.16411786720E+04  0.16461834568E+04  0.00000000000E+00 0. -1.
<mgrwt>
<rscale>  0 0.74442431E+02</rscale>
<asrwt>0</asrwt>
<pdfrwt beam="2">  1        2 0.39923589E+00 0.13032693E+03</pdfrwt>
<pdfrwt beam="1">  1        1 0.87034156E-02 0.42521340E+02</pdfrwt>
<totfact> 0.36259296E+02</totfact>
</mgrwt>
</event>
<event>
 7    1  0.4252091E-004  0.9624250E+02  0.7546771E-02  0.1360543E+00
         -2   -1    0    0    0  501 -0.00000000000E+00  0.00000000000E+00  0.77835552524E+03  0.77835552524E+03  0.00000000000E+00 0.  1.
          2   -1    0    0  503    0  0.00000000000E+00 -0.00000000000E+00 -0.19997359545E+04  0.19997359545E+04  0.00000000000E+00 0. -1.
         25    2    1    2    0    0 -0.93668609861E+02  0.10798697638E+03  0.11666006587E+03  0.22286739947E+03  0.12500124494E+03 0.  0.
          4    1    3    3  502    0 -0.11619351463E+03  0.11581357314E+03  0.11170912586E+03  0.19847986867E+03  0.12700000000E+01 0.  1.
         -4    1    3    3    0  502  0.22524904768E+02 -0.78265967586E+01  0.49509400089E+01  0.24387530802E+02  0.12700000000E+01 0.  1.
          1    1    1    2  503    0  0.50299716289E+02 -0.81685560868E+02 -0.19443909322E+04  0.19467559399E+04  0.00000000000E+00 0. -1.
         -1    1    1    2    0  501  0.43368893573E+02 -0.26301415514E+02  0.60635043704E+03  0.60846814041E+03  0.00000000000E+00 0.  1.
<mgrwt>
<rscale>  0 0.69867883E+02</rscale>
<asrwt>0</asrwt>
<pdfrwt beam="2">  1        2 0.30765168E+00 0.96242499E+02</pdfrwt>
<pdfrwt beam="1">  1       -2 0.11974700E+00 0.50721055E+02</pdfrwt>
<totfact> 0.49944635E+00</totfact>
</mgrwt>
</event>
<event>
 7    1  0.4252091E-004  0.9032282E+02  0.7546771E-02  0.1477374E+00
          1   -1    0    0  502    0 -0.00000000000E+00  0.00000000000E+00  0.28845411984E+03  0.28845411984E+03  0.00000000000E+00 0. -1.
          2   -1    0    0  503    0  0.00000000000E+00 -0.00000000000E+00 -0.79202625791E+03  0.79202625791E+03  0.00000000000E+00 0. -1.
         25    2    1    2    0    0  0.21002703882E+02 -0.94068002163E+02 -0.64226026460E+03  0.66136840907E+03  0.12498008811E+03 0.  0.
          4    1    3    3  501    0 -0.33964139261E+02 -0.51971973009E+02 -0.12585929392E+03  0.14034537221E+03  0.12700000000E+01 0. -1.
         -4    1    3    3    0  501  0.54966843143E+02 -0.42096029155E+02 -0.51640097068E+03  0.52102303686E+03  0.12700000000E+01 0. -1.
          2    1    1    2  502    0  0.12802351004E+02  0.17819757339E+02  0.26600456594E+03  0.26690798609E+03  0.00000000000E+00 0. -1.
          1    1    1    2  503    0 -0.33805054886E+02  0.76248244824E+02 -0.12731643940E+03  0.15220398259E+03  0.00000000000E+00 0. -1.
<mgrwt>
<rscale>  0 0.44517952E+02</rscale>
<asrwt>0</asrwt>
<pdfrwt beam="2">  1        2 0.12185019E+00 0.90322820E+02</pdfrwt>
<pdfrwt beam="1">  1        1 0.44377557E-01 0.21941831E+02</pdfrwt>
<totfact> 0.46472132E+02</totfact>
</mgrwt>
</event>
<event>
 7    1  0.4252091E-004  0.1266243E+03  0.7546771E-02  0.1241758E+00
          2   -1    0    0  503    0  0.00000000000E+00  0.00000000000E+00  0.17306145871E+04  0.17306145871E+04  0.00000000000E+00 0. -1.
         -2   -1    0    0    0  501 -0.00000000000E+00 -0.00000000000E+00 -0.27761429052E+03  0.27761429052E+03  0.00000000000E+00 0.  1.
         25    2    1    2    0    0 -0.22932032459E+02 -0.99480825017E+02  0.99830741139E+01  0.16170319178E+03  0.12500379116E+03 0.  0.
          4    1    3    3  502    0  0.23272751349E+02 -0.30149887901E+02  0.55063130440E+02  0.66964154065E+02  0.12700000000E+01 0.  1.
         -4    1    3    3    0  502 -0.46204783808E+02 -0.69330937116E+02 -0.45080056326E+02  0.94739037711E+02  0.12700000000E+01 0.  1.
          1    1    1    2  503    0  0.12541860157E+03  0.17432055003E+02  0.16206802167E+04  0.16256192872E+04  0.00000000000E+00 0. -1.
         -1    1    1    2    0  501 -0.10248656911E+03  0.82048770014E+02 -0.17766299414E+03  0.22090639872E+03  0.00000000000E+00 0.  1.
<mgrwt>
<rscale>  0 0.12081525E+03</rscale>
<asrwt>0</asrwt>
<pdfrwt beam="1">  1        2 0.26624839E+00 0.12662426E+03</pdfrwt>
<pdfrwt beam="2">  1       -2 0.42709892E-01 0.11527274E+03</pdfrwt>
<totfact> 0.58428185E+01</totfact>
</mgrwt>
</event>
<event>
 7    1  0.4252091E-004  0.1088612E+03  0.7546771E-02  0.1310302E+00
          2   -1    0    0  503    0  0.00000000000E+00  0.00000000000E+00  0.18491988240E+04  0.18491988240E+04  0.00000000000E+00 0. -1.
         -2   -1    0    0    0  501 -0.00000000000E+00 -0.00000000000E+00 -0.68974057942E+03  0.68974057942E+03  0.00000000000E+00 0.  1.
         25    2    1    2    0    0 -0.13899923990E+03  0.80633383822E+02  0.37001488487E+03  0.42232382594E+03  0.12499547053E+03 0.  0.
          4    1    3    3  502    0 -0.17727403589E+02  0.10176414297E+02  0.20385046928E+03  0.20487666283E+03  0.12700000000E+01 0. -1.
         -4    1    3    3    0  502 -0.12127183631E+03  0.70456969526E+02  0.16616441559E+03  0.21744716311E+03  0.12700000000E+01 0. -1.
          1    1    1    2  503    0  0.69471670649E+02  0.25162454889E+01  0.14477639475E+04  0.14494319895E+04  0.00000000000E+00 0. -1.
         -1    1    1    2    0  501  0.69527569255E+02 -0.83149629311E+02 -0.65832058779E+03  0.66718358797E+03  0.00000000000E+00 0.  1.
<mgrwt>
<rscale>  0 0.86992710E+02</rscale>
<asrwt>0</asrwt>
<pdfrwt beam="1">  1        2 0.28449213E+00 0.69517225E+02</pdfrwt>
<pdfrwt beam="2">  1       -2 0.10611394E+00 0.10886125E+03</pdfrwt>
<totfact> 0.79634676E+00</totfact>
</mgrwt>
</event>
<event>
 7    1  0.4252091E-004  0.1847006E+03  0.7546771E-02  0.1245309E+00
          2   -1    0    0  503    0  0.00000000000E+00  0.00000000000E+00  0.70244406675E+03  0.70244406675E+03  0.00000000000E+00 0. -1.
          1   -1    0    0  502    0 -0.00000000000E+00 -0.00000000000E+00 -0.37175262305E+03  0.37175262305E+03  0.00000000000E+00 0. -1.
         25    2    1    2    0    0  0.57057168707E+02 -0.16836419408E+03  0.51555957841E+03  0.55948950232E+03  0.12499920785E+03 0.  0.
          4    1    3    3  501    0  0.94948404164E+02 -0.93201117709E+02  0.32313814644E+03  0.34945889941E+03  0.12700000000E+01 0. -1.
         -4    1    3    3    0  501 -0.37891235457E+02 -0.75163076369E+02  0.19242143198E+03  0.21003060291E+03  0.12700000000E+01 0. -1.
          2    1    1    2  502    0 -0.58871462930E+02 -0.48448630215E+02 -0.27091302199E+03  0.28143735431E+03  0.00000000000E+00 0. -1.
          1    1    1    2  503    0  0.18142942229E+01  0.21681282429E+03  0.86044887272E+02  0.23326983317E+03  0.00000000000E+00 0. -1.
<mgrwt>
<rscale>  0 0.11866878E+03</rscale>
<asrwt>0</asrwt>
<pdfrwt beam="1">  1        2 0.10806832E+00 0.18470061E+03</pdfrwt>
<pdfrwt beam="2">  1        1 0.57192711E-01 0.76243812E+02</pdfrwt>
<totfact> 0.38931256E+02</totfact>
</mgrwt>
</event>
<event>
 7    1  0.4252091E-004  0.1319642E+03  0.7546771E-02  0.1310492E+00
          1   -1    0    0  503    0  0.00000000000E+00  0.00000000000E+00  0.33087269880E+03  0.33087269880E+03  0.00000000000E+00 0. -1.
         -1   -1    0    0    0  501 -0.00000000000E+00 -0.00000000000E+00 -0.27070403428E+04  0.27070403428E+04  0.00000000000E+00 0.  1.
         25    2    1    2    0    0 -0.54819601841E+02 -0.64521852384E+02 -0.95950837177E+02  0.17888520404E+03  0.12500037955E+03 0.  0.
          4    1    3    3  502    0 -0.27572010080E+02 -0.93837052325E+02 -0.98431143914E+02  0.13876566982E+03  0.12700000000E+01 0.  1.
         -4    1    3    3    0  502 -0.27247591761E+02  0.29315199942E+02  0.24803067377E+01  0.40119534219E+02  0.12700000000E+01 0.  1.
          2    1    1    2  503    0 -0.13594986839E+01 -0.57231949612E+02  0.28480594604E+03  0.29050261822E+03  0.00000000000E+00 0. -1.
         -2    1    1    2    0  501  0.56179100525E+02  0.12175380200E+03 -0.25650227529E+04  0.25685252194E+04  0.00000000000E+00 0.  1.
<mgrwt>
<rscale>  0 0.86917784E+02</rscale>
<asrwt>0</asrwt>
<pdfrwt beam="1">  1        1 0.50903492E-01 0.57248094E+02</pdfrwt>
<pdfrwt beam="2">  1       -1 0.41646774E+00 0.13196424E+03</pdfrwt>
<totfact> 0.60141881E-01</totfact>
</mgrwt>
</event>
<event>
 7    1  0.4252091E-004  0.6643892E+02  0.7546771E-02  0.1379615E+00
          1   -1    0    0  502    0 -0.00000000000E+00  0.00000000000E+00  0.39322255747E+03  0.39322255747E+03  0.00000000000E+00 0. -1.
          2   -1    0    0  503    0  0.00000000000E+00 -0.00000000000E+00 -0.81236568000E+03  0.81236568000E+03  0.00000000000E+00 0. -1.
         25    2    1    2    0    0 -0.51215762789E+02 -0.11669837859E+03 -0.27899939834E+03  0.33122099929E+03  0.12500048067E+03 0.  0.
          4    1    3    3  501    0  0.26869188010E+02 -0.66645869022E+02 -0.18804092871E+03  0.20130729965E+03  0.12700000000E+01 0. -1.
         -4    1    3    3    0  501 -0.78084950800E+02 -0.50052509571E+02 -0.90958469634E+02  0.12991369964E+03  0.12700000000E+01 0. -1.
          2    1    1    2  502    0  0.34118236547E+02  0.56328660549E+02  0.36219084705E+03  0.36812930032E+03  0.00000000000E+00 0. -1.
          1    1    1    2  503    0  0.17097526242E+02  0.60369718044E+02 -0.50233457124E+03  0.50623793786E+03  0.00000000000E+00 0. -1.
<mgrwt>
<rscale>  0 0.64565110E+02</rscale>
<asrwt>0</asrwt>
<pdfrwt beam="2">  1        2 0.12497933E+00 0.62744149E+02</pdfrwt>
<pdfrwt beam="1">  1        1 0.60495779E-01 0.66438919E+02</pdfrwt>
<totfact> 0.31688999E+02</totfact>
</mgrwt>
</event>
<event>
 7    1  0.4252091E-004  0.1108574E+03  0.7546771E-02  0.1343201E+00
         -1   -1    0    0    0  501 -0.00000000000E+00  0.00000000000E+00  0.30024312369E+03  0.30024312369E+03  0.00000000000E+00 0.  1.
          1   -1    0    0  503    0  0.00000000000E+00 -0.00000000000E+00 -0.67130932473E+03  0.67130932473E+03  0.00000000000E+00 0. -1.
         25    2    1    2    0    0  0.27049412566E+02 -0.81379931921E+02  0.49302605335E+02  0.15941135986E+03  0.12500748265E+03 0.  0.
          4    1    3    3  502    0 -0.11914986678E+02 -0.97536065808E+02  0.52531999356E+01  0.98409654254E+02  0.12700000000E+01 0.  1.
         -4    1    3    3    0  502  0.38964399244E+02  0.16156133887E+02  0.44049405399E+02  0.61001705604E+02  0.12700000000E+01 0.  1.
          2    1    1    2  503    0  0.14062615533E+02  0.11161779230E+03 -0.60767797440E+03  0.61800389099E+03  0.00000000000E+00 0. -1.
         -2    1    1    2    0  501 -0.41112028099E+02 -0.30237860379E+02  0.18730916802E+03  0.19413719757E+03  0.00000000000E+00 0.  1.
<mgrwt>
<rscale>  0 0.75216734E+02</rscale>
<asrwt>0</asrwt>
<pdfrwt beam="2">  1        1 0.10327836E+00 0.11085735E+03</pdfrwt>
<pdfrwt beam="1">  1       -1 0.46191250E-01 0.51034567E+02</pdfrwt>
<totfact> 0.14994845E+02</totfact>
</mgrwt>
</event>
<event>
 7    1  0.4252091E-004  0.6342028E+02  0.7546771E-02  0.1520341E+00
         -1   -1    0    0    0  502 -0.00000000000E+00  0.00000000000E+00  0.11390441900E+03  0.11390441900E+03  0.00000000000E+00 0.  1.
         -2   -1    0    0    0  501  0.00000000000E+00 -0.00000000000E+00 -0.96279082003E+03  0.96279082003E+03  0.00000000000E+00 0.  1.
         25    2    1    2    0    0  0.39648508153E+02  0.41119279910E+02 -0.14389192431E+03  0.19897516039E+03  0.12499371661E+03 0.  0.
          4    1    3    3  503    0  0.41976665342E+02  0.59190955241E+02 -0.15931641362E+03  0.17506839282E+03  0.12700000000E+01 0. -1.
         -4    1    3    3    0  503 -0.23281571899E+01 -0.18071675331E+02  0.15424489312E+02  0.23906767571E+02  0.12700000000E+01 0. -1.
         -2    1    1    2    0  502 -0.24888882190E+02 -0.59081486122E+02  0.74267801090E+02  0.98111083664E+02  0.00000000000E+00 0.  1.
         -1    1    1    2    0  501 -0.14759625963E+02  0.17962206212E+02 -0.77926227781E+03  0.77960899497E+03  0.00000000000E+00 0.  1.
<mgrwt>
<rscale>  0 0.38398165E+02</rscale>
<asrwt>0</asrwt>
<pdfrwt beam="2">  1       -2 0.14812167E+00 0.23248385E+02</pdfrwt>
<pdfrwt beam="1">  1       -1 0.17523757E-01 0.63420278E+02</pdfrwt>
<totfact> 0.64306267E+01</totfact>
</mgrwt>
</event>
<event>
 7    1  0.4252091E-004  0.1156095E+03  0.7546771E-02  0.1399757E+00
         -2   -1    0    0    0  501 -0.00000000000E+00  0.00000000000E+00  0.58566738095E+02  0.58566738095E+02  0.00000000000E+00 0.  1.
          2   -1    0    0  503    0  0.00000000000E+00 -0.00000000000E+00 -0.43767274147E+03  0.43767274147E+03  0.00000000000E+00 0. -1.
         25    2    1    2    0    0  0.73483882673E+02  0.93313226385E+02 -0.23297040681E+03  0.28981834453E+03  0.12494888214E+03 0.  0.
          4    1    3    3  502    0 -0.14704783921E+02  0.68300446836E+01  0.86745971490E+01  0.18432083883E+02  0.12700000000E+01 0.  1.
         -4    1    3    3    0  502  0.88188666595E+02  0.86483181701E+02 -0.24164500395E+03  0.27138626065E+03  0.12700000000E+01 0.  1.
          1    1    1    2  503    0 -0.45295166853E+02 -0.10539169060E+03 -0.10877311542E+03  0.15808431682E+03  0.00000000000E+00 0. -1.
         -1    1    1    2    0  501 -0.28188715821E+02  0.12078464210E+02 -0.37362481155E+02  0.48336818217E+02  0.00000000000E+00 0.  1.
<mgrwt>
<rscale>  0 0.59543675E+02</rscale>
<asrwt>0</asrwt>
<pdfrwt beam="2">  1        2 0.67334268E-01 0.11560949E+03</pdfrwt>
<pdfrwt beam="1">  1       -2 0.90102674E-02 0.30667458E+02</pdfrwt>
<totfact> 0.48296541E+03</totfact>
</mgrwt>
</event>
<event>
 7    1  0.4252091E-004  0.6627010E+02  0.7546771E-02  0.1450864E+00
          1   -1    0    0  502    0 -0.00000000000E+00  0.00000000000E+00  0.10256059530E+04  0.10256059530E+04  0.00000000000E+00 0. -1.
          2   -1    0    0  503    0  0.00000000000E+00 -0.00000000000E+00 -0.15282619069E+04  0.15282619069E+04  0.00000000000E+00 0. -1.
         25    2    1    2    0    0 -0.75864108023E+01 -0.53250179763E+02  0.65716271753E+03  0.67110546747E+03  0.12500630334E+03 0.  0.
          4    1    3    3  501    0  0.18932325253E+02 -0.67320371180E+02  0.61697543102E+03  0.62092733930E+03  0.12700000000E+01 0. -1.
         -4    1    3    3    0  501 -0.26518736056E+02  0.14070191417E+02  0.40187286520E+02  0.50178128167E+02  0.12700000000E+01 0. -1.
          2    1    1    2  502    0  0.42612135902E+02  0.62460279242E+02  0.35729935912E+03  0.36521214743E+03  0.00000000000E+00 0. -1.
          1    1    1    2  503    0 -0.35025725100E+02 -0.92100994798E+01 -0.15171180306E+04  0.15175502450E+04  0.00000000000E+00 0. -1.
<mgrwt>
<rscale>  0 0.48990450E+02</rscale>
<asrwt>0</asrwt>
<pdfrwt beam="2">  1        2 0.23511722E+00 0.36216396E+02</pdfrwt>
<pdfrwt beam="1">  1        1 0.15778553E+00 0.66270101E+02</pdfrwt>
<totfact> 0.36012221E+01</totfact>
</mgrwt>
</event>
<event>
 7    1  0.4252091E-004  0.9015590E+02  0.7546771E-02  0.1329534E+00
          1   -1    0    0  502    0 -0.00000000000E+00  0.00000000000E+00  0.70674330509E+03  0.70674330509E+03  0.00000000000E+00 0. -1.
          2   -1    0    0  503    0  0.00000000000E+00 -0.00000000000E+00 -0.96513482914E+03  0.96513482914E+03  0.00000000000E+00 0. -1.
         25    2    1    2    0    0  0.87225570806E+02  0.87924349602E+01  0.91027998966E+02  0.17775373688E+03  0.12499874904E+03 0.  0.
          4    1    3    3  501    0  0.16393603945E+02 -0.54642993056E+02  0.41313377153E+02  0.70448669059E+02  0.12700000000E+01 0. -1.
         -4    1    3    3    0  501  0.70831966861E+02  0.63435428016E+02  0.49714621813E+02  0.10730506782E+03  0.12700000000E+01 0. -1.
          2    1    1    2  502    0 -0.70542829257E+02  0.59897707303E+02  0.56724209902E+03  0.57474135487E+03  0.00000000000E+00 0. -1.
          1    1    1    2  503    0 -0.16682741549E+02 -0.68690142263E+02 -0.91666162203E+03  0.91938304249E+03  0.00000000000E+00 0. -1.
<mgrwt>
<rscale>  0 0.79830125E+02</rscale>
<asrwt>0</asrwt>
<pdfrwt beam="2">  1        2 0.14848228E+00 0.70686983E+02</pdfrwt>
<pdfrwt beam="1">  1        1 0.10872974E+00 0.90155904E+02</pdfrwt>
<totfact> 0.11759903E+02</totfact>
</mgrwt>
</event>
<event>
 7    1  0.4252091E-004  0.5455027E+02  0.7546771E-02  0.1463664E+00
          2   -1    0    0  503    0  0.00000000000E+00  0.00000000000E+00  0.34406782847E+03  0.34406782847E+03  0.00000000000E+00 0. -1.
          1   -1    0    0  502    0 -0.00000000000E+00 -0.00000000000E+00 -0.11676608998E+03  0.11676608998E+03  0.00000000000E+00 0. -1.
         25    2    1    2    0    0 -0.46482650313E+02 -0.60156062620E+02 -0.17886179920E+02  0.14739168428E+03  0.12500001805E+03 0.  0.
          4    1    3    3  501    0 -0.11467305225E+02 -0.34125173412E+02  0.53036411893E+02  0.64113184572E+02  0.12700000000E+01 0.  1.
         -4    1    3    3    0  501 -0.35015345087E+02 -0.26030889208E+02 -0.70922591813E+02  0.83278499710E+02  0.12700000000E+01 0.  1.
          2    1    1    2  502    0  0.78539099480E+01  0.49481020369E+02 -0.13324273821E+02  0.51841986373E+02  0.00000000000E+00 0. -1.
          1    1    1    2  503    0  0.38628740365E+02  0.10675042250E+02  0.25851219223E+03  0.26160024779E+03  0.00000000000E+00 0. -1.
<mgrwt>
<rscale>  0 0.46756719E+02</rscale>
<asrwt>0</asrwt>
<pdfrwt beam="1">  1        2 0.52933512E-01 0.40076628E+02</pdfrwt>
<pdfrwt beam="2">  1        1 0.17964014E-01 0.54550267E+02</pdfrwt>
<totfact> 0.35078998E+03</totfact>
</mgrwt>
</event>
<event>
 7    1  0.4252091E-004  0.8181360E+02  0.7546771E-02  0.1492347E+00
         -2   -1    0    0    0  501 -0.00000000000E+00  0.00000000000E+00  0.48545871429E+03  0.48545871429E+03  0.00000000000E+00 0.  1.
          2   -1    0    0  503    0  0.00000000000E+00 -0.00000000000E+00 -0.50252704060E+03  0.50252704060E+03  0.00000000000E+00 0. -1.
         25    2    1    2    0    0  0.63763016932E+02 -0.47434537949E+02  0.53548045663E+02  0.15750573266E+03  0.12499961963E+03 0.  0.
          4    1    3    3  502    0  0.10191063578E+02 -0.15292478211E+02 -0.40556570852E+02  0.44543978336E+02  0.12700000000E+01 0.  1.
         -4    1    3    3    0  502  0.53571953354E+02 -0.32142059738E+02  0.94104616516E+02  0.11296175432E+03  0.12700000000E+01 0.  1.
          1    1    1    2  503    0  0.12874995344E+02  0.17602091562E+02 -0.44582816073E+03  0.44636123043E+03  0.00000000000E+00 0. -1.
         -1    1    1    2    0  501 -0.76638012276E+02  0.29832446387E+02  0.37521178876E+03  0.38411879179E+03  0.00000000000E+00 0.  1.
<mgrwt>
<rscale>  0 0.42239913E+02</rscale>
<asrwt>0</asrwt>
<pdfrwt beam="2">  1        2 0.77311852E-01 0.21808235E+02</pdfrwt>
<pdfrwt beam="1">  1       -2 0.74685956E-01 0.81813599E+02</pdfrwt>
<totfact> 0.10934030E+02</totfact>
</mgrwt>
</event>
<event>
 7    1  0.4252091E-004  0.6679207E+02  0.7546771E-02  0.1484051E+00
          1   -1    0    0  502    0 -0.00000000000E+00  0.00000000000E+00  0.13369067503E+04  0.13369067503E+04  0.00000000000E+00 0. -1.
          2   -1    0    0  503    0  0.00000000000E+00 -0.00000000000E+00 -0.35375766307E+03  0.35375766307E+03  0.00000000000E+00 0. -1.
         25    2    1    2    0    0  0.75044730207E+02 -0.22223704326E+02 -0.82791650962E+02  0.16914951894E+03  0.12502598819E+03 0.  0.
          4    1    3    3  501    0  0.88924535129E+02  0.11045489860E+02 -0.95445342367E+02  0.13092364979E+03  0.12700000000E+01 0.  1.
         -4    1    3    3    0  501 -0.13879804922E+02 -0.33269194186E+02  0.12653691405E+02  0.38225869155E+02  0.12700000000E+01 0.  1.
          2    1    1    2  502    0 -0.91964368104E+01  0.26770585674E+02  0.12887876280E+04  0.12890984403E+04  0.00000000000E+00 0. -1.
          1    1    1    2  503    0 -0.65848293396E+02 -0.45468813477E+01 -0.22284688978E+03  0.23241645414E+03  0.00000000000E+00 0. -1.
<mgrwt>
<rscale>  0 0.43481343E+02</rscale>
<asrwt>0</asrwt>
<pdfrwt beam="2">  1        2 0.54424256E-01 0.66792074E+02</pdfrwt>
<pdfrwt beam="1">  1        1 0.20567796E+00 0.28306160E+02</pdfrwt>
<totfact> 0.14062669E+02</totfact>
</mgrwt>
</event>
<event>
 7    1  0.4252091E-004  0.6866145E+02  0.7546771E-02  0.1429936E+00
          2   -1    0    0  503    0  0.00000000000E+00  0.00000000000E+00  0.96121826692E+03  0.96121826692E+03  0.00000000000E+00 0. -1.
         -2   -1    0    0    0  501 -0.00000000000E+00 -0.00000000000E+00 -0.18482139394E+02  0.18482139394E+02  0.00000000000E+00 0.  1.
         25    2    1    2    0    0  0.72484882324E+02  0.25591139801E+02  0.46521506490E+03  0.48779994595E+03  0.12495905752E+03 0.  0.
          4    1    3    3  502    0  0.46960689715E+02  0.31453446822E+02  0.62672060282E+02  0.84403943838E+02  0.12700000000E+01 0. -1.
         -4    1    3    3    0  502  0.25524192609E+02 -0.58623070209E+01  0.40254300462E+03  0.40339600211E+03  0.12700000000E+01 0. -1.
          1    1    1    2  503    0 -0.42964234484E+02 -0.53854201070E+02  0.37946908065E+03  0.38567211927E+03  0.00000000000E+00 0. -1.
         -1    1    1    2    0  501 -0.29520647840E+02  0.28263061269E+02  0.98051981985E+02  0.10622834110E+03  0.00000000000E+00 0.  1.
<mgrwt>
<rscale>  0 0.52972823E+02</rscale>
<asrwt>0</asrwt>
<pdfrwt beam="1">  1        2 0.14787969E+00 0.68661454E+02</pdfrwt>
<pdfrwt beam="2">  1       -2 0.28434068E-02 0.40868928E+02</pdfrwt>
<totfact> 0.10853934E+04</totfact>
</mgrwt>
</event>
<event>
 7    1  0.4252091E-004  0.7546999E+02  0.7546771E-02  0.1349054E+00
          1   -1    0    0  502    0 -0.00000000000E+00  0.00000000000E+00  0.81831734711E+03  0.81831734711E+03  0.00000000000E+00 0. -1.
          2   -1    0    0  503    0  0.00000000000E+00 -0.00000000000E+00 -0.32122502783E+04  0.32122502783E+04  0.00000000000E+00 0. -1.
         25    2    1    2    0    0 -0.12624537811E+02 -0.14503062469E+03 -0.26667033605E+03  0.32852772531E+03  0.12499654841E+03 0.  0.
          4    1    3    3  501    0 -0.62166663629E+02 -0.93497406201E+02 -0.20661800476E+03  0.23515754681E+03  0.12700000000E+01 0. -1.
         -4    1    3    3    0  501  0.49542125818E+02 -0.51533218490E+02 -0.60052331293E+02  0.93370178495E+02  0.12700000000E+01 0. -1.
          2    1    1    2  502    0  0.13919755206E+02  0.73750601968E+02  0.78516296900E+03  0.78874190884E+03  0.00000000000E+00 0. -1.
          1    1    1    2  503    0 -0.12952173950E+01  0.71280022723E+02 -0.29124255642E+04  0.29132979913E+04  0.00000000000E+00 0. -1.
<mgrwt>
<rscale>  0 0.73351146E+02</rscale>
<asrwt>0</asrwt>
<pdfrwt beam="2">  1        2 0.49419236E+00 0.71291789E+02</pdfrwt>
<pdfrwt beam="1">  1        1 0.12589497E+00 0.75469990E+02</pdfrwt>
<totfact> 0.63240790E+00</totfact>
</mgrwt>
</event>
<event>
 7    1  0.2724337E-003  0.6278514E+02  0.7546771E-02  0.1463871E+00
         -2   -1    0    0    0  501 -0.00000000000E+00  0.00000000000E+00  0.25986361627E+02  0.25986361627E+02  0.00000000000E+00 0.  1.
          2   -1    0    0  503    0  0.00000000000E+00 -0.00000000000E+00 -0.66078388215E+03  0.66078388215E+03  0.00000000000E+00 0. -1.
         25    2    1    2    0    0  0.18880374237E+02 -0.38851561746E+02 -0.50281045069E+03  0.51991334088E+03  0.12500248126E+03 0.  0.
          4    1    3    3  502    0  0.71359020798E+02 -0.14815420137E+02 -0.23946094097E+03  0.25030933197E+03  0.12700000000E+01 0.  1.
         -4    1    3    3    0  502 -0.52478646561E+02 -0.24036141609E+02 -0.26334950972E+03  0.26960400891E+03  0.12700000000E+01 0.  1.
          3    1    1    2  503    0  0.34723154939E+02 -0.17666018428E+01 -0.47690766301E+02  0.59018874620E+02  0.00000000000E+00 0. -1.
         -3    1    1    2    0  501 -0.53603529176E+02  0.40618163588E+02 -0.84296303526E+02  0.10783802827E+03  0.00000000000E+00 0.  1.
<mgrwt>
<rscale>  0 0.46721708E+02</rscale>
<asrwt>0</asrwt>
<pdfrwt beam="2">  1        2 0.10165905E+00 0.34768065E+02</pdfrwt>
<pdfrwt beam="1">  1       -2 0.39979020E-02 0.62785145E+02</pdfrwt>
<totfact> 0.11282390E+04</totfact>
</mgrwt>
</event>
<event>
 7    1  0.4252091E-004  0.6727847E+02  0.7546771E-02  0.1407601E+00
          2   -1    0    0  503    0  0.00000000000E+00  0.00000000000E+00  0.15465948522E+03  0.15465948522E+03  0.00000000000E+00 0. -1.
          1   -1    0    0  502    0 -0.00000000000E+00 -0.00000000000E+00 -0.25879418945E+03  0.25879418945E+03  0.00000000000E+00 0. -1.
         25    2    1    2    0    0 -0.55114474023E+02  0.61816348294E+02 -0.91445630164E+01  0.15021411540E+03  0.12498716441E+03 0.  0.
          4    1    3    3  501    0  0.34433309677E+01  0.52515290608E+02  0.45492841579E+02  0.69576747629E+02  0.12700000000E+01 0.  1.
         -4    1    3    3    0  501 -0.58557804990E+02  0.93010576861E+01 -0.54637404595E+02  0.80637367766E+02  0.12700000000E+01 0.  1.
          2    1    1    2  502    0  0.58414420757E+01 -0.66962897587E+02 -0.16460269460E+03  0.17779819788E+03  0.00000000000E+00 0. -1.
          1    1    1    2  503    0  0.49273031947E+02  0.51465492932E+01  0.69612553394E+02  0.85441361394E+02  0.00000000000E+00 0. -1.
<mgrwt>
<rscale>  0 0.57732556E+02</rscale>
<asrwt>0</asrwt>
<pdfrwt beam="1">  1        2 0.23793767E-01 0.49541080E+02</pdfrwt>
<pdfrwt beam="2">  1        1 0.39814490E-01 0.67278467E+02</pdfrwt>
<totfact> 0.30662273E+03</totfact>
</mgrwt>
</event>
<event>
 7    1  0.4252091E-004  0.7262982E+02  0.7546771E-02  0.1507764E+00
          1   -1    0    0  502    0 -0.00000000000E+00  0.00000000000E+00  0.17102328322E+04  0.17102328322E+04  0.00000000000E+00 0. -1.
          2   -1    0    0  503    0  0.00000000000E+00 -0.00000000000E+00 -0.12003585237E+03  0.12003585237E+03  0.00000000000E+00 0. -1.
         25    2    1    2    0    0 -0.55299894236E+02  0.43250847548E+02  0.87169186320E+03  0.88340282501E+03  0.12500053101E+03 0.  0.
          4    1    3    3  501    0 -0.74396709758E+02 -0.67034435951E+01  0.68903894588E+03  0.69307726006E+03  0.12700000000E+01 0. -1.
         -4    1    3    3    0  501  0.19096815522E+02  0.49954291143E+02  0.18265291732E+03  0.19032556495E+03  0.12700000000E+01 0. -1.
          2    1    1    2  502    0  0.42041855632E+02 -0.60928031705E+02  0.82995344006E+03  0.83324813552E+03  0.00000000000E+00 0. -1.
          1    1    1    2  503    0  0.13258038604E+02  0.17677184156E+02 -0.11144832342E+03  0.11361772406E+03  0.00000000000E+00 0. -1.
<mgrwt>
<rscale>  0 0.40060829E+02</rscale>
<asrwt>0</asrwt>
<pdfrwt beam="2">  1        2 0.18467056E-01 0.22096570E+02</pdfrwt>
<pdfrwt beam="1">  1        1 0.26311273E+00 0.72629823E+02</pdfrwt>
<totfact> 0.22144507E+02</totfact>
</mgrwt>
</event>
<event>
 7    1  0.4252091E-004  0.5550660E+02  0.7546771E-02  0.1533264E+00
          2   -1    0    0  503    0  0.00000000000E+00  0.00000000000E+00  0.28008307240E+04  0.28008307240E+04  0.00000000000E+00 0. -1.
          1   -1    0    0  502    0 -0.00000000000E+00 -0.00000000000E+00 -0.13888551701E+04  0.13888551701E+04  0.00000000000E+00 0. -1.
         25    2    1    2    0    0  0.24268328019E+02 -0.20079011973E+02 -0.90326194057E+03  0.91241419591E+03  0.12500165260E+03 0.  0.
          4    1    3    3  501    0  0.55894965065E+02  0.55933046503E+00 -0.80799450759E+03  0.80992672333E+03  0.12700000000E+01 0.  1.
         -4    1    3    3    0  501 -0.31626637046E+02 -0.20638342438E+02 -0.95267432973E+02  0.10248747257E+03  0.12700000000E+01 0.  1.
          2    1    1    2  502    0  0.21850002360E+02 -0.10822388302E+02 -0.48043236032E+03  0.48105072449E+03  0.00000000000E+00 0. -1.
          1    1    1    2  503    0 -0.46118330379E+02  0.30901400275E+02  0.27956698548E+04  0.27962209738E+04  0.00000000000E+00 0. -1.
<mgrwt>
<rscale>  0 0.36789069E+02</rscale>
<asrwt>0</asrwt>
<pdfrwt beam="1">  1        2 0.43089703E+00 0.55506599E+02</pdfrwt>
<pdfrwt beam="2">  1        1 0.21367003E+00 0.24383328E+02</pdfrwt>
<totfact> 0.50348729E+00</totfact>
</mgrwt>
</event>
<event>
 7    1  0.4252091E-004  0.1366682E+03  0.7546771E-02  0.1251572E+00
          1   -1    0    0  502    0 -0.00000000000E+00  0.00000000000E+00  0.94452769675E+03  0.94452769675E+03  0.00000000000E+00 0. -1.
          2   -1    0    0  503    0  0.00000000000E+00 -0.00000000000E+00 -0.27009219130E+04  0.27009219130E+04  0.00000000000E+00 0. -1.
         25    2    1    2    0    0 -0.21482191541E+02 -0.19773171331E+03 -0.51294472965E+03  0.56418043434E+03  0.12501180669E+03 0.  0.
          4    1    3    3  501    0 -0.41559060476E+01  0.15385654322E+02 -0.76729789404E+02  0.78377697057E+02  0.12700000000E+01 0.  1.
         -4    1    3    3    0  501 -0.17326285493E+02 -0.21311736764E+03 -0.43621494024E+03  0.48580273728E+03  0.12700000000E+01 0.  1.
          2    1    1    2  502    0  0.72409217729E+02  0.11543891184E+03  0.91276655039E+03  0.92288244793E+03  0.00000000000E+00 0. -1.
          1    1    1    2  503    0 -0.50927026189E+02  0.82292801471E+02 -0.21562160370E+04  0.21583867274E+04  0.00000000000E+00 0. -1.
<mgrwt>
<rscale>  0 0.11500546E+03</rscale>
<asrwt>0</asrwt>
<pdfrwt beam="2">  1        2 0.41552645E+00 0.96776377E+02</pdfrwt>
<pdfrwt beam="1">  1        1 0.14531195E+00 0.13666822E+03</pdfrwt>
<totfact> 0.90426820E+00</totfact>
</mgrwt>
</event>
<event>
 7    1  0.4252091E-004  0.2026723E+03  0.7546771E-02  0.1185874E+00
          2   -1    0    0  503    0  0.00000000000E+00  0.00000000000E+00  0.12811487060E+04  0.12811487060E+04  0.00000000000E+00 0. -1.
          1   -1    0    0  502    0 -0.00000000000E+00 -0.00000000000E+00 -0.84336947807E+03  0.84336947807E+03  0.00000000000E+00 0. -1.
         25    2    1    2    0    0  0.76808643925E+02  0.10085095562E+03 -0.14369680663E+03  0.22879013671E+03  0.12500268552E+03 0.  0.
          4    1    3    3  501    0  0.22183859457E+02 -0.77537706446E+01 -0.94922219260E+02  0.97796140971E+02  0.12700000000E+01 0. -1.
         -4    1    3    3    0  501  0.54624784468E+02  0.10860472627E+03 -0.48774587368E+02  0.13099399574E+03  0.12700000000E+01 0. -1.
          2    1    1    2  502    0  0.12265244776E+03 -0.44076572409E+02 -0.64184974648E+03  0.65494844395E+03  0.00000000000E+00 0. -1.
          1    1    1    2  503    0 -0.19946109169E+03 -0.56774383216E+02  0.12233257810E+04  0.12407796034E+04  0.00000000000E+00 0. -1.
<mgrwt>
<rscale>  0 0.16252579E+03</rscale>
<asrwt>0</asrwt>
<pdfrwt beam="1">  1        2 0.19709980E+00 0.20267226E+03</pdfrwt>
<pdfrwt beam="2">  1        1 0.12974915E+00 0.13033176E+03</pdfrwt>
<totfact> 0.55551139E+01</totfact>
</mgrwt>
</event>
<event>
 7    1  0.4252091E-004  0.1444066E+03  0.7546771E-02  0.1340695E+00
          1   -1    0    0  502    0 -0.00000000000E+00  0.00000000000E+00  0.14952424516E+03  0.14952424516E+03  0.00000000000E+00 0. -1.
          2   -1    0    0  503    0  0.00000000000E+00 -0.00000000000E+00 -0.13264741413E+04  0.13264741413E+04  0.00000000000E+00 0. -1.
         25    2    1    2    0    0  0.40613232725E+02  0.13007649329E+03 -0.65618040831E+03  0.68174992603E+03  0.12506360230E+03 0.  0.
          4    1    3    3  501    0  0.51686310134E+02  0.51836977697E+02 -0.12611707177E+03  0.14582755434E+03  0.12700000000E+01 0.  1.
         -4    1    3    3    0  501 -0.11073077409E+02  0.78239515597E+02 -0.53006333654E+03  0.53592237170E+03  0.12700000000E+01 0.  1.
          2    1    1    2  502    0 -0.35132787623E+01 -0.14512332497E+03  0.97380745539E+02  0.17480312405E+03  0.00000000000E+00 0. -1.
          1    1    1    2  503    0 -0.37099953963E+02  0.15046831675E+02 -0.61815023336E+03  0.61944533635E+03  0.00000000000E+00 0. -1.
<mgrwt>
<rscale>  0 0.76035141E+02</rscale>
<asrwt>0</asrwt>
<pdfrwt beam="2">  1        2 0.20407295E+00 0.40035156E+02</pdfrwt>
<pdfrwt beam="1">  1        1 0.23003730E-01 0.14440665E+03</pdfrwt>
<totfact> 0.55544797E+02</totfact>
</mgrwt>
</event>
<event>
 7    1  0.4252091E-004  0.6211977E+02  0.7546771E-02  0.1486203E+00
          2   -1    0    0  503    0  0.00000000000E+00  0.00000000000E+00  0.15850617401E+04  0.15850617401E+04  0.00000000000E+00 0. -1.
          3   -1    0    0  502    0 -0.00000000000E+00 -0.00000000000E+00 -0.56258833240E+03  0.56258833240E+03  0.00000000000E+00 0. -1.
         25    2    1    2    0    0 -0.32956459801E+02  0.18900925288E+02  0.61284962393E+02  0.14430367368E+03  0.12499732159E+03 0.  0.
          4    1    3    3  501    0 -0.58103736329E+02  0.34408838066E+02 -0.89185221254E+01  0.68126098152E+02  0.12700000000E+01 0. -1.
         -4    1    3    3    0  501  0.25147276528E+02 -0.15507912778E+02  0.70203484518E+02  0.76177575533E+02  0.12700000000E+01 0. -1.
          2    1    1    2  502    0 -0.71030835483E+01  0.29125755418E+02 -0.51998734791E+03  0.52085084757E+03  0.00000000000E+00 0. -1.
          1    1    1    2  503    0  0.40059543350E+02 -0.48026680706E+02  0.14811757932E+04  0.14824955513E+04  0.00000000000E+00 0. -1.
<mgrwt>
<rscale>  0 0.43154517E+02</rscale>
<asrwt>0</asrwt>
<pdfrwt beam="1">  1        2 0.24385565E+00 0.62119768E+02</pdfrwt>
<pdfrwt beam="2">  1        3 0.86552052E-01 0.29979383E+02</pdfrwt>
<totfact> 0.10177481E+01</totfact>
</mgrwt>
</event>
<event>
 7    1  0.4252091E-004  0.4850701E+02  0.7546771E-02  0.1482633E+00
          2   -1    0    0  503    0  0.00000000000E+00  0.00000000000E+00  0.35603317546E+04  0.35603317546E+04  0.00000000000E+00 0. -1.
         -2   -1    0    0    0  501 -0.00000000000E+00 -0.00000000000E+00 -0.17761900510E+02  0.17761900510E+02  0.00000000000E+00 0.  1.
         25    2    1    2    0    0  0.33130012892E+02  0.58769563991E+02  0.11705957101E+04  0.11791833974E+04  0.12501083451E+03 0.  0.
          4    1    3    3  502    0  0.29663379736E+00  0.93830956535E+02  0.80038263308E+03  0.80586494441E+03  0.12700000000E+01 0.  1.
         -4    1    3    3    0  502  0.32833379095E+02 -0.35061392544E+02  0.37021307706E+03  0.37331845301E+03  0.12700000000E+01 0.  1.
          1    1    1    2  503    0 -0.43362424675E+02 -0.20755662164E+02  0.23558961754E+04  0.23563866166E+04  0.00000000000E+00 0. -1.
         -1    1    1    2    0  501  0.10232411783E+02 -0.38013901827E+02  0.16077968545E+02  0.42523641137E+02  0.00000000000E+00 0.  1.
<mgrwt>
<rscale>  0 0.43698678E+02</rscale>
<asrwt>0</asrwt>
<pdfrwt beam="1">  1        2 0.54774278E+00 0.48507010E+02</pdfrwt>
<pdfrwt beam="2">  1       -2 0.27326029E-02 0.39366978E+02</pdfrwt>
<totfact> 0.49472320E+02</totfact>
</mgrwt>
</event>
<event>
 7    1  0.4252091E-004  0.7732250E+02  0.7546771E-02  0.1425156E+00
          3   -1    0    0  502    0 -0.00000000000E+00  0.00000000000E+00  0.21699643955E+02  0.21699643955E+02  0.00000000000E+00 0. -1.
          2   -1    0    0  503    0  0.00000000000E+00 -0.00000000000E+00 -0.17297064262E+04  0.17297064262E+04  0.00000000000E+00 0. -1.
         25    2    1    2    0    0 -0.75367873344E+02  0.40406656718E+01 -0.47238316426E+03  0.49443733078E+03  0.12500310746E+03 0.  0.
          4    1    3    3  501    0 -0.41667157674E+02  0.22277617267E+02 -0.44751309581E+02  0.65090220994E+02  0.12700000000E+01 0.  1.
         -4    1    3    3    0  501 -0.33700715670E+02 -0.18236951596E+02 -0.42763185468E+03  0.42934710978E+03  0.12700000000E+01 0.  1.
          2    1    1    2  502    0  0.72736209797E+02  0.33502337028E+02 -0.14458275906E+03  0.16527896727E+03  0.00000000000E+00 0. -1.
          1    1    1    2  503    0  0.26316635469E+01 -0.37543002700E+02 -0.10910408589E+04  0.10916897721E+04  0.00000000000E+00 0. -1.
<mgrwt>
<rscale>  0 0.53944806E+02</rscale>
<asrwt>0</asrwt>
<pdfrwt beam="2">  1        2 0.26610879E+00 0.37635126E+02</pdfrwt>
<pdfrwt beam="1">  1        3 0.33384055E-02 0.77322503E+02</pdfrwt>
<totfact> 0.28768490E+03</totfact>
</mgrwt>
</event>
<event>
 7    1  0.4252091E-004  0.3191204E+02  0.7546771E-02  0.1602729E+00
          2   -1    0    0  503    0  0.00000000000E+00  0.00000000000E+00  0.11591717461E+04  0.11591717461E+04  0.00000000000E+00 0. -1.
         -2   -1    0    0    0  501 -0.00000000000E+00 -0.00000000000E+00 -0.14074855015E+03  0.14074855015E+03  0.00000000000E+00 0.  1.
         25    2    1    2    0    0 -0.27457527892E+02 -0.17929559281E+02  0.44857741169E+03  0.46682127871E+03  0.12500010816E+03 0.  0.
          4    1    3    3  502    0  0.42144772980E+02  0.23201748861E+02  0.15363908776E+03  0.16100026468E+03  0.12700000000E+01 0.  1.
         -4    1    3    3    0  502 -0.69602300873E+02 -0.41131308143E+02  0.29493832393E+03  0.30582101402E+03  0.12700000000E+01 0.  1.
          1    1    1    2  503    0  0.30978942769E+02 -0.92699280667E+01  0.69966623325E+03  0.70041306699E+03  0.00000000000E+00 0. -1.
         -1    1    1    2    0  501 -0.35214148773E+01  0.27199487348E+02 -0.12982044904E+03  0.13268595051E+03  0.00000000000E+00 0.  1.
<mgrwt>
<rscale>  0 0.29584377E+02</rscale>
<asrwt>0</asrwt>
<pdfrwt beam="1">  1        2 0.17833411E+00 0.31912041E+02</pdfrwt>
<pdfrwt beam="2">  1       -2 0.21653624E-01 0.27426492E+02</pdfrwt>
<totfact> 0.40593915E+02</totfact>
</mgrwt>
</event>
<event>
 7    1  0.4252091E-004  0.1040528E+03  0.7546771E-02  0.1329428E+00
          1   -1    0    0  502    0 -0.00000000000E+00  0.00000000000E+00  0.37289538531E+03  0.37289538531E+03  0.00000000000E+00 0. -1.
          2   -1    0    0  503    0  0.00000000000E+00 -0.00000000000E+00 -0.84278296748E+03  0.84278296748E+03  0.00000000000E+00 0. -1.
         25    2    1    2    0    0 -0.54915483396E+02  0.13049685912E+03 -0.21796611420E+03  0.28840821679E+03  0.12499972807E+03 0.  0.
          4    1    3    3  501    0 -0.46311596361E+02  0.14820713234E+03 -0.14371079343E+03  0.21157628194E+03  0.12700000000E+01 0. -1.
         -4    1    3    3    0  501 -0.86038870353E+01 -0.17710273220E+02 -0.74255320771E+02  0.76831934847E+02  0.12700000000E+01 0. -1.
          2    1    1    2  502    0  0.53482423543E+02 -0.29962455915E+02  0.33054893941E+03  0.33618554362E+03  0.00000000000E+00 0. -1.
          1    1    1    2  503    0  0.14330598529E+01 -0.10053440320E+03 -0.58247040737E+03  0.59108459238E+03  0.00000000000E+00 0. -1.
<mgrwt>
<rscale>  0 0.79867399E+02</rscale>
<asrwt>0</asrwt>
<pdfrwt beam="2">  1        2 0.12965892E+00 0.10405282E+03</pdfrwt>
<pdfrwt beam="1">  1        1 0.57368521E-01 0.61303494E+02</pdfrwt>
<totfact> 0.31697411E+02</totfact>
</mgrwt>
</event>
<event>
 7    1  0.4252091E-004  0.4078206E+02  0.7546771E-02  0.1511285E+00
          1   -1    0    0  503    0  0.00000000000E+00  0.00000000000E+00  0.42337419385E+02  0.42337419385E+02  0.00000000000E+00 0. -1.
         -1   -1    0    0    0  501 -0.00000000000E+00 -0.00000000000E+00 -0.31852836345E+03  0.31852836345E+03  0.00000000000E+00 0.  1.
         25    2    1    2    0    0 -0.28055182864E+02  0.31997587761E+02 -0.14123542391E+03  0.19334878253E+03  0.12500147132E+03 0.  0.
          4    1    3    3  502    0  0.27591063821E+02  0.32493488375E+02 -0.12966225517E+03  0.13649544646E+03  0.12700000000E+01 0.  1.
         -4    1    3    3    0  502 -0.55646246685E+02 -0.49590061321E+00 -0.11573168741E+02  0.56853336069E+02  0.12700000000E+01 0.  1.
          2    1    1    2  503    0 -0.11378644343E+02 -0.42397074165E+02 -0.11294202435E+03  0.12117296031E+03  0.00000000000E+00 0. -1.
         -2    1    1    2    0  501  0.39433827207E+02  0.10399486404E+02 -0.22013495801E+02  0.46344039995E+02  0.00000000000E+00 0.  1.
<mgrwt>
<rscale>  0 0.39585421E+02</rscale>
<asrwt>0</asrwt>
<pdfrwt beam="1">  1        1 0.65134491E-02 0.38423899E+02</pdfrwt>
<pdfrwt beam="2">  1       -1 0.49004364E-01 0.40782055E+02</pdfrwt>
<totfact> 0.42242357E+03</totfact>
</mgrwt>
</event>
<event>
 7    1  0.4252091E-004  0.4034289E+02  0.7546771E-02  0.1583953E+00
         -1   -1    0    0    0  502 -0.00000000000E+00  0.00000000000E+00  0.14843597665E+04  0.14843597665E+04  0.00000000000E+00 0.  1.
         -2   -1    0    0    0  501  0.00000000000E+00 -0.00000000000E+00 -0.18003027776E+02  0.18003027776E+02  0.00000000000E+00 0.  1.
         25    2    1    2    0    0 -0.48219886800E+02 -0.18728061609E+01  0.66968000829E+03  0.68295192882E+03  0.12499343463E+03 0.  0.
          4    1    3    3  503    0 -0.43091622036E+02 -0.18252290630E+02  0.77641947757E+02  0.90663768697E+02  0.12700000000E+01 0.  1.
         -4    1    3    3    0  503 -0.51282647645E+01  0.16379484470E+02  0.59203806053E+03  0.59228816013E+03  0.12700000000E+01 0.  1.
         -2    1    1    2    0  502  0.33935427186E+02  0.21547240108E+02  0.79392554493E+03  0.79494255620E+03  0.00000000000E+00 0.  1.
         -1    1    1    2    0  501  0.14284459615E+02 -0.19674433947E+02  0.27511855535E+01  0.24468309291E+02  0.00000000000E+00 0.  1.
<mgrwt>
<rscale>  0 0.31318727E+02</rscale>
<asrwt>0</asrwt>
<pdfrwt beam="2">  1       -2 0.27696977E-02 0.24313147E+02</pdfrwt>
<pdfrwt beam="1">  1       -1 0.22836295E+00 0.40342892E+02</pdfrwt>
<totfact> 0.33999198E+02</totfact>
</mgrwt>
</event>
<event>
 7    1  0.4252091E-004  0.3594318E+02  0.7546771E-02  0.1545490E+00
          2   -1    0    0  503    0  0.00000000000E+00  0.00000000000E+00  0.18213553094E+03  0.18213553094E+03  0.00000000000E+00 0. -1.
          1   -1    0    0  502    0 -0.00000000000E+00 -0.00000000000E+00 -0.89447044077E+03  0.89447044077E+03  0.00000000000E+00 0. -1.
         25    2    1    2    0    0  0.11388935180E+02  0.74595522304E+01 -0.36036434729E+03  0.38166873576E+03  0.12499283298E+03 0.  0.
          4    1    3    3  501    0 -0.49320110744E+02  0.31866207885E+02 -0.20056678548E+03  0.20898941807E+03  0.12700000000E+01 0.  1.
         -4    1    3    3    0  501  0.60709045924E+02 -0.24406655655E+02 -0.15979756182E+03  0.17267931769E+03  0.12700000000E+01 0.  1.
          2    1    1    2  502    0 -0.31724785386E+02  0.20745838538E+02 -0.52099553436E+03  0.52237266261E+03  0.00000000000E+00 0. -1.
          1    1    1    2  503    0  0.20335850205E+02 -0.28205390768E+02  0.16902497182E+03  0.17256457334E+03  0.00000000000E+00 0. -1.
<mgrwt>
<rscale>  0 0.35352732E+02</rscale>
<asrwt>0</asrwt>
<pdfrwt beam="1">  1        2 0.28020851E-01 0.34771984E+02</pdfrwt>
<pdfrwt beam="2">  1        1 0.13761084E+00 0.35943180E+02</pdfrwt>
<totfact> 0.52894953E+02</totfact>
</mgrwt>
</event>
<event>
 7    1  0.4252091E-004  0.5005903E+02  0.7546771E-02  0.1567354E+00
          2   -1    0    0  503    0  0.00000000000E+00  0.00000000000E+00  0.18449132362E+04  0.18449132362E+04  0.00000000000E+00 0. -1.
          1   -1    0    0  502    0 -0.00000000000E+00 -0.00000000000E+00 -0.98194838645E+03  0.98194838645E+03  0.00000000000E+00 0. -1.
         25    2    1    2    0    0  0.46501347600E+02  0.33833058179E+02  0.21698768904E+02  0.13929394518E+03  0.12499966175E+03 0.  0.
          4    1    3    3  501    0 -0.12644734393E+01 -0.45197876221E+02  0.64694806702E+01  0.45693697466E+02  0.12700000000E+01 0.  1.
         -4    1    3    3    0  501  0.47765821039E+02  0.79030934400E+02  0.15229288234E+02  0.93600247712E+02  0.12700000000E+01 0.  1.
          2    1    1    2  502    0 -0.19953840348E+02  0.85831168208E+01 -0.92266817004E+03  0.92292382006E+03  0.00000000000E+00 0. -1.
          1    1    1    2  503    0 -0.26547507252E+02 -0.42416175000E+02  0.17639342509E+04  0.17646438574E+04  0.00000000000E+00 0. -1.
<mgrwt>
<rscale>  0 0.32975136E+02</rscale>
<asrwt>0</asrwt>
<pdfrwt beam="1">  1        2 0.28383281E+00 0.50059029E+02</pdfrwt>
<pdfrwt beam="2">  1        1 0.15106898E+00 0.21721548E+02</pdfrwt>
<totfact> 0.28387592E+01</totfact>
</mgrwt>
</event>
<event>
 7    1  0.4252091E-004  0.1012041E+03  0.7546771E-02  0.1375845E+00
         -1   -1    0    0    0  501 -0.00000000000E+00  0.00000000000E+00  0.11516556283E+04  0.11516556283E+04  0.00000000000E+00 0.  1.
          1   -1    0    0  503    0  0.00000000000E+00 -0.00000000000E+00 -0.16422005236E+04  0.16422005236E+04  0.00000000000E+00 0. -1.
         25    2    1    2    0    0 -0.68342808693E+02  0.57381146232E+02 -0.73375870251E+03  0.74966048074E+03  0.12500266969E+03 0.  0.
          4    1    3    3  502    0 -0.90684139940E+02  0.20437833698E+02 -0.30822401956E+03  0.32193940022E+03  0.12700000000E+01 0.  1.
         -4    1    3    3    0  502  0.22341331247E+02  0.36943312533E+02 -0.42553468295E+03  0.42772108052E+03  0.12700000000E+01 0.  1.
          2    1    1    2  503    0  0.25171277329E+02  0.34220315285E+02 -0.89774615218E+03  0.89875067563E+03  0.00000000000E+00 0. -1.
         -2    1    1    2    0  501  0.43171531364E+02 -0.91601461517E+02  0.11409599594E+04  0.11454449956E+04  0.00000000000E+00 0.  1.
<mgrwt>
<rscale>  0 0.65568581E+02</rscale>
<asrwt>0</asrwt>
<pdfrwt beam="2">  1        1 0.25264624E+00 0.42480857E+02</pdfrwt>
<pdfrwt beam="1">  1       -1 0.17717779E+00 0.10120414E+03</pdfrwt>
<totfact> 0.18382711E+00</totfact>
</mgrwt>
</event>
<event>
 7    1  0.4252091E-004  0.3422281E+02  0.7546771E-02  0.1611203E+00
          2   -1    0    0  503    0  0.00000000000E+00  0.00000000000E+00  0.76439971352E+02  0.76439971352E+02  0.00000000000E+00 0. -1.
          1   -1    0    0  502    0 -0.00000000000E+00 -0.00000000000E+00 -0.11264745660E+04  0.11264745660E+04  0.00000000000E+00 0. -1.
         25    2    1    2    0    0  0.58335610994E+02  0.73763905466E+00 -0.79334161689E+03  0.80524071866E+03  0.12497242206E+03 0.  0.
          4    1    3    3  501    0  0.39917104303E+02 -0.51119635331E+02 -0.61962427294E+03  0.62301079031E+03  0.12700000000E+01 0. -1.
         -4    1    3    3    0  501  0.18418506692E+02  0.51857274385E+02 -0.17371734395E+03  0.18222992835E+03  0.12700000000E+01 0. -1.
          2    1    1    2  502    0 -0.24288556131E+02  0.11226190643E+01 -0.32257544811E+03  0.32349051603E+03  0.00000000000E+00 0. -1.
          1    1    1    2  503    0 -0.34047054863E+02 -0.18602581190E+01  0.65882470318E+02  0.74183302705E+02  0.00000000000E+00 0. -1.
<mgrwt>
<rscale>  0 0.28846316E+02</rscale>
<asrwt>0</asrwt>
<pdfrwt beam="1">  1        2 0.11759997E-01 0.34222806E+02</pdfrwt>
<pdfrwt beam="2">  1        1 0.17330376E+00 0.24314486E+02</pdfrwt>
<totfact> 0.97506682E+02</totfact>
</mgrwt>
</event>
<event>
 7    1  0.4252091E-004  0.6897639E+02  0.7546771E-02  0.1365844E+00
          2   -1    0    0  503    0  0.00000000000E+00  0.00000000000E+00  0.79669727012E+03  0.79669727012E+03  0.00000000000E+00 0. -1.
         -2   -1    0    0    0  501 -0.00000000000E+00 -0.00000000000E+00 -0.38363498268E+03  0.38363498268E+03  0.00000000000E+00 0.  1.
         25    2    1    2    0    0 -0.88366236615E+02  0.29930422288E+02 -0.29556911882E+02  0.15875650949E+03  0.12500238523E+03 0.  0.
          4    1    3    3  502    0 -0.72513123199E+02 -0.21455836852E+02 -0.60364649263E+02  0.96767813615E+02  0.12700000000E+01 0.  1.
         -4    1    3    3    0  502 -0.15853113415E+02  0.51386259139E+02  0.30807737381E+02  0.61988695872E+02  0.12700000000E+01 0.  1.
          1    1    1    2  503    0  0.59238003757E+02  0.32778688446E+02  0.72637186463E+03  0.72952016369E+03  0.00000000000E+00 0. -1.
         -1    1    1    2    0  501  0.29128232858E+02 -0.62709110734E+02 -0.28375266531E+03  0.29205557962E+03  0.00000000000E+00 0.  1.
<mgrwt>
<rscale>  0 0.68336311E+02</rscale>
<asrwt>0</asrwt>
<pdfrwt beam="1">  1        2 0.12256881E+00 0.67702168E+02</pdfrwt>
<pdfrwt beam="2">  1       -2 0.59020767E-01 0.68976394E+02</pdfrwt>
<totfact> 0.10507292E+02</totfact>
</mgrwt>
</event>
<event>
 7    1  0.4252091E-004  0.1031814E+03  0.7546771E-02  0.1282530E+00
          1   -1    0    0  503    0  0.00000000000E+00  0.00000000000E+00  0.15056839556E+04  0.15056839556E+04  0.00000000000E+00 0. -1.
         -1   -1    0    0    0  501 -0.00000000000E+00 -0.00000000000E+00 -0.52626859512E+03  0.52626859512E+03  0.00000000000E+00 0.  1.
         25    2    1    2    0    0  0.71979605689E+02  0.59349225629E+02  0.75711910289E+03  0.77301855844E+03  0.12499984602E+03 0.  0.
          4    1    3    3  502    0  0.37460620310E+02 -0.84575366486E+01  0.56605454873E+03  0.56735720057E+03  0.12700000000E+01 0.  1.
         -4    1    3    3    0  502  0.34518985379E+02  0.67806762278E+02  0.19106455416E+03  0.20566135786E+03  0.12700000000E+01 0.  1.
          2    1    1    2  503    0 -0.12285898842E+03  0.20737991855E+02  0.73095666396E+03  0.74149985835E+03  0.00000000000E+00 0. -1.
         -2    1    1    2    0  501  0.50879382734E+02 -0.80087217484E+02 -0.50866040635E+03  0.51743413396E+03  0.00000000000E+00 0.  1.
<mgrwt>
<rscale>  0 0.98944959E+02</rscale>
<asrwt>0</asrwt>
<pdfrwt beam="1">  1        1 0.23164368E+00 0.10318144E+03</pdfrwt>
<pdfrwt beam="2">  1       -1 0.80964400E-01 0.94882422E+02</pdfrwt>
<totfact> 0.12971582E+01</totfact>
</mgrwt>
</event>
<event>
 7    1  0.4252091E-004  0.5366560E+02  0.7546771E-02  0.1438223E+00
          2   -1    0    0  503    0  0.00000000000E+00  0.00000000000E+00  0.60163158806E+03  0.60163158806E+03  0.00000000000E+00 0. -1.
          1   -1    0    0  502    0 -0.00000000000E+00 -0.00000000000E+00 -0.86254755430E+03  0.86254755430E+03  0.00000000000E+00 0. -1.
         25    2    1    2    0    0 -0.22094799522E+02 -0.86266458599E+01  0.31205091579E+03  0.33699858686E+03  0.12501869587E+03 0.  0.
          4    1    3    3  501    0  0.23316907749E+02  0.29709624469E+02  0.28624901548E+02  0.47406095195E+02  0.12700000000E+01 0.  1.
         -4    1    3    3    0  501 -0.45411707271E+02 -0.38336270329E+02  0.28342601424E+03  0.28959249167E+03  0.12700000000E+01 0.  1.
          2    1    1    2  502    0  0.26043908041E+01  0.53718043736E+02 -0.84703711412E+03  0.84874276655E+03  0.00000000000E+00 0. -1.
          1    1    1    2  503    0  0.19490408718E+02 -0.45091397876E+02  0.27407023209E+03  0.27843778895E+03  0.00000000000E+00 0. -1.
<mgrwt>
<rscale>  0 0.51344304E+02</rscale>
<asrwt>0</asrwt>
<pdfrwt beam="1">  1        2 0.92558707E-01 0.49123418E+02</pdfrwt>
<pdfrwt beam="2">  1        1 0.13269962E+00 0.53665597E+02</pdfrwt>
<totfact> 0.16002818E+02</totfact>
</mgrwt>
</event>
<event>
 7    1  0.4252091E-004  0.1329072E+03  0.7546771E-02  0.1272627E+00
          2   -1    0    0  503    0  0.00000000000E+00  0.00000000000E+00  0.10635159783E+04  0.10635159783E+04  0.00000000000E+00 0. -1.
          1   -1    0    0  502    0 -0.00000000000E+00 -0.00000000000E+00 -0.10563844000E+03  0.10563844000E+03  0.00000000000E+00 0. -1.
         25    2    1    2    0    0  0.14277122910E+03 -0.46290679282E+02  0.79383449271E+02  0.21084342693E+03  0.12500707106E+03 0.  0.
          4    1    3    3  501    0  0.15314769411E+03 -0.18557171941E+02  0.36193124325E+02  0.15846179347E+03  0.12700000000E+01 0. -1.
         -4    1    3    3    0  501 -0.10376465007E+02 -0.27733507340E+02  0.43190324946E+02  0.52381633464E+02  0.12700000000E+01 0. -1.
          2    1    1    2  502    0 -0.12536052057E+03 -0.32785299066E+02  0.72935643159E+02  0.14869345646E+03  0.00000000000E+00 0. -1.
          1    1    1    2  503    0 -0.17410708535E+02  0.79075978347E+02  0.80555844586E+03  0.80961753490E+03  0.00000000000E+00 0. -1.
<mgrwt>
<rscale>  0 0.10373762E+03</rscale>
<asrwt>0</asrwt>
<pdfrwt beam="1">  1        2 0.16361784E+00 0.80970014E+02</pdfrwt>
<pdfrwt beam="2">  1        1 0.16252068E-01 0.13290716E+03</pdfrwt>
<totfact> 0.11363850E+03</totfact>
</mgrwt>
</event>
<event>
 7    1  0.4252091E-004  0.6320412E+02  0.7546771E-02  0.1411987E+00
          2   -1    0    0  503    0  0.00000000000E+00  0.00000000000E+00  0.12672027236E+04  0.12672027236E+04  0.00000000000E+00 0. -1.
         -2   -1    0    0    0  501 -0.00000000000E+00 -0.00000000000E+00 -0.10786366009E+03  0.10786366009E+03  0.00000000000E+00 0.  1.
         25    2    1    2    0    0  0.40742919092E+02 -0.27674380981E+01  0.25183145442E+03  0.28411052633E+03  0.12502825907E+03 0.  0.
          4    1    3    3  502    0  0.46307784017E+00 -0.58259635302E+02  0.78992618363E+02  0.98162346153E+02  0.12700000000E+01 0.  1.
         -4    1    3    3    0  502  0.40279841251E+02  0.55492197203E+02  0.17283883606E+03  0.18594818018E+03  0.12700000000E+01 0.  1.
          1    1    1    2  503    0 -0.42156547404E+01 -0.50785141821E+02  0.98703860406E+03  0.98835323052E+03  0.00000000000E+00 0. -1.
         -1    1    1    2    0  501 -0.36527264351E+02  0.53552579920E+02 -0.79530995020E+02  0.10260262680E+03  0.00000000000E+00 0.  1.
<mgrwt>
<rscale>  0 0.56752710E+02</rscale>
<asrwt>0</asrwt>
<pdfrwt beam="1">  1        2 0.19495425E+00 0.50959811E+02</pdfrwt>
<pdfrwt beam="2">  1       -2 0.16594410E-01 0.63204121E+02</pdfrwt>
<totfact> 0.55857254E+02</totfact>
</mgrwt>
</event>
<event>
 7    1  0.4252091E-004  0.6901431E+02  0.7546771E-02  0.1454307E+00
          1   -1    0    0  502    0 -0.00000000000E+00  0.00000000000E+00  0.75373035056E+03  0.75373035056E+03  0.00000000000E+00 0. -1.
          2   -1    0    0  503    0  0.00000000000E+00 -0.00000000000E+00 -0.26019379497E+04  0.26019379497E+04  0.00000000000E+00 0. -1.
         25    2    1    2    0    0 -0.98477165668E+01  0.36571659942E+02 -0.55669187738E+03  0.57180964980E+03  0.12500386167E+03 0.  0.
          4    1    3    3  501    0 -0.75705813338E+01 -0.36438034986E+02 -0.66607564985E+02  0.76310056406E+02  0.12700000000E+01 0. -1.
         -4    1    3    3    0  501 -0.22771352330E+01  0.73009694928E+02 -0.49008431240E+03  0.49549959340E+03  0.12700000000E+01 0. -1.
          2    1    1    2  502    0 -0.42401354537E+01  0.33642251700E+02  0.74515659248E+03  0.74592769567E+03  0.00000000000E+00 0. -1.
          1    1    1    2  503    0  0.14087852020E+02 -0.70213911642E+02 -0.20366723143E+04  0.20379309548E+04  0.00000000000E+00 0. -1.
<mgrwt>
<rscale>  0 0.48375253E+02</rscale>
<asrwt>0</asrwt>
<pdfrwt beam="2">  1        2 0.40029815E+00 0.69014310E+02</pdfrwt>
<pdfrwt beam="1">  1        1 0.11595851E+00 0.33908404E+02</pdfrwt>
<totfact> 0.16233926E+01</totfact>
</mgrwt>
</event>
<event>
 7    1  0.4252091E-004  0.1712845E+03  0.7546771E-02  0.1253579E+00
          2   -1    0    0  503    0  0.00000000000E+00  0.00000000000E+00  0.30116068031E+03  0.30116068031E+03  0.00000000000E+00 0. -1.
          1   -1    0    0  502    0 -0.00000000000E+00 -0.00000000000E+00 -0.40072506433E+03  0.40072506433E+03  0.00000000000E+00 0. -1.
         25    2    1    2    0    0  0.39896013207E+02  0.13181418135E+03  0.95536025373E+02  0.20908681803E+03  0.12499398008E+03 0.  0.
          4    1    3    3  501    0  0.39128655231E+02  0.69239861931E+02 -0.16050202124E+02  0.81144513238E+02  0.12700000000E+01 0.  1.
         -4    1    3    3    0  501  0.76735797559E+00  0.62574319420E+02  0.11158622750E+03  0.12794230480E+03  0.12700000000E+01 0.  1.
          2    1    1    2  502    0 -0.11549038283E+03 -0.13565230297E+03 -0.30862465848E+03  0.35635481707E+03  0.00000000000E+00 0. -1.
          1    1    1    2  503    0  0.75594369623E+02  0.38381216179E+01  0.11352424909E+03  0.13644410954E+03  0.00000000000E+00 0. -1.
<mgrwt>
<rscale>  0 0.11386318E+03</rscale>
<asrwt>0</asrwt>
<pdfrwt beam="1">  1        2 0.46332412E-01 0.75691743E+02</pdfrwt>
<pdfrwt beam="2">  1        1 0.61650010E-01 0.17128451E+03</pdfrwt>
<totfact> 0.89494854E+02</totfact>
</mgrwt>
</event>
<event>
 7    1  0.4252091E-004  0.6908562E+02  0.7546771E-02  0.1374191E+00
         -2   -1    0    0    0  501 -0.00000000000E+00  0.00000000000E+00  0.91219921314E+03  0.91219921314E+03  0.00000000000E+00 0.  1.
          2   -1    0    0  503    0  0.00000000000E+00 -0.00000000000E+00 -0.71377541082E+03  0.71377541082E+03  0.00000000000E+00 0. -1.
         25    2    1    2    0    0 -0.20806448313E+02  0.11589401994E+03 -0.56009555541E+01  0.17181496515E+03  0.12499871759E+03 0.  0.
          4    1    3    3  502    0  0.28232913759E+02  0.74451590712E+02  0.43716026120E+02  0.90845146368E+02  0.12700000000E+01 0. -1.
         -4    1    3    3    0  502 -0.49039362071E+02  0.41442429228E+02 -0.49316981674E+02  0.80969818785E+02  0.12700000000E+01 0. -1.
          1    1    1    2  503    0 -0.17673075192E+02 -0.65907138363E+02 -0.62199900439E+03  0.62573065286E+03  0.00000000000E+00 0. -1.
         -1    1    1    2    0  501  0.38479523505E+02 -0.49986881577E+02  0.82602376226E+03  0.82842900594E+03  0.00000000000E+00 0.  1.
<mgrwt>
<rscale>  0 0.66015692E+02</rscale>
<asrwt>0</asrwt>
<pdfrwt beam="2">  1        2 0.10981160E+00 0.69085616E+02</pdfrwt>
<pdfrwt beam="1">  1       -2 0.14033834E+00 0.63082185E+02</pdfrwt>
<totfact> 0.17401399E+01</totfact>
</mgrwt>
</event>
<event>
 7    1  0.4252091E-004  0.1467492E+03  0.7546771E-02  0.1278711E+00
          1   -1    0    0  502    0 -0.00000000000E+00  0.00000000000E+00  0.37607480849E+03  0.37607480849E+03  0.00000000000E+00 0. -1.
          2   -1    0    0  503    0  0.00000000000E+00 -0.00000000000E+00 -0.55925570580E+03  0.55925570580E+03  0.00000000000E+00 0. -1.
         25    2    1    2    0    0 -0.19900091006E+03 -0.40008943380E+02 -0.27176465375E+03  0.36150157100E+03  0.12500112420E+03 0.  0.
          4    1    3    3  501    0 -0.94639205528E+02 -0.73668814877E+02 -0.19009088925E+03  0.22476617313E+03  0.12700000000E+01 0.  1.
         -4    1    3    3    0  501 -0.10436170454E+03  0.33659871497E+02 -0.81673764498E+02  0.13673539787E+03  0.12700000000E+01 0.  1.
          2    1    1    2  502    0  0.13210623643E+03  0.57643851163E+02  0.30999312590E+03  0.34186343675E+03  0.00000000000E+00 0. -1.
          1    1    1    2  503    0  0.66894673637E+02 -0.17634907783E+02 -0.22140936947E+03  0.23196550653E+03  0.00000000000E+00 0. -1.
<mgrwt>
<rscale>  0 0.10075775E+03</rscale>
<asrwt>0</asrwt>
<pdfrwt beam="2">  1        2 0.86039339E-01 0.69180108E+02</pdfrwt>
<pdfrwt beam="1">  1        1 0.57857663E-01 0.14674917E+03</pdfrwt>
<totfact> 0.50687295E+02</totfact>
</mgrwt>
</event>
<event>
 7    1  0.4252091E-004  0.8670677E+02  0.7546771E-02  0.1315588E+00
          2   -1    0    0  503    0  0.00000000000E+00  0.00000000000E+00  0.20476499885E+04  0.20476499885E+04  0.00000000000E+00 0. -1.
          1   -1    0    0  502    0 -0.00000000000E+00 -0.00000000000E+00 -0.41144329590E+03  0.41144329590E+03  0.00000000000E+00 0. -1.
         25    2    1    2    0    0 -0.16647594039E+02 -0.93938821515E+01  0.17544941661E+03  0.21627161947E+03  0.12500211275E+03 0.  0.
          4    1    3    3  501    0  0.45272013319E+02  0.59294143300E+01  0.23276076948E+02  0.51265015384E+02  0.12700000000E+01 0.  1.
         -4    1    3    3    0  501 -0.61919607358E+02 -0.15323296481E+02  0.15217333966E+03  0.16500660409E+03  0.12700000000E+01 0.  1.
          2    1    1    2  502    0  0.48548806603E+02 -0.71840640501E+02 -0.38518196059E+03  0.39482047441E+03  0.00000000000E+00 0. -1.
          1    1    1    2  503    0 -0.31901212565E+02  0.81234522652E+02  0.18459392366E+04  0.18480011905E+04  0.00000000000E+00 0. -1.
<mgrwt>
<rscale>  0 0.84940607E+02</rscale>
<asrwt>0</asrwt>
<pdfrwt beam="1">  1        2 0.31502307E+00 0.83210418E+02</pdfrwt>
<pdfrwt beam="2">  1        1 0.63298970E-01 0.86706772E+02</pdfrwt>
<totfact> 0.64825923E+01</totfact>
</mgrwt>
</event>
<event>
 7    1  0.4252091E-004  0.6135948E+02  0.7546771E-02  0.1479393E+00
          2   -1    0    0  503    0  0.00000000000E+00  0.00000000000E+00  0.18796580476E+04  0.18796580476E+04  0.00000000000E+00 0. -1.
          1   -1    0    0  502    0 -0.00000000000E+00 -0.00000000000E+00 -0.18420400749E+03  0.18420400749E+03  0.00000000000E+00 0. -1.
         25    2    1    2    0    0  0.19987195618E+02 -0.89006593673E+02  0.23682689766E+03  0.28290189470E+03  0.12499936346E+03 0.  0.
          4    1    3    3  501    0 -0.36992510537E+02 -0.38271169146E+02  0.18014465467E+03  0.18784791117E+03  0.12700000000E+01 0.  1.
         -4    1    3    3    0  501  0.56979706154E+02 -0.50735424527E+02  0.56682242983E+02  0.95053983530E+02  0.12700000000E+01 0.  1.
          2    1    1    2  502    0 -0.13826560659E+02  0.28681892619E+02 -0.15902024309E+03  0.16217663968E+03  0.00000000000E+00 0. -1.
          1    1    1    2  503    0 -0.61606349588E+01  0.60324701055E+02  0.16176473856E+04  0.16187835207E+04  0.00000000000E+00 0. -1.
<mgrwt>
<rscale>  0 0.44200945E+02</rscale>
<asrwt>0</asrwt>
<pdfrwt beam="1">  1        2 0.28917815E+00 0.61359478E+02</pdfrwt>
<pdfrwt beam="2">  1        1 0.28339079E-01 0.31840615E+02</pdfrwt>
<totfact> 0.21144836E+02</totfact>
</mgrwt>
</event>
<event>
 7    1  0.4252091E-004  0.5913015E+02  0.7546771E-02  0.1449509E+00
          2   -1    0    0  503    0  0.00000000000E+00  0.00000000000E+00  0.15259860416E+03  0.15259860416E+03  0.00000000000E+00 0. -1.
          1   -1    0    0  502    0 -0.00000000000E+00 -0.00000000000E+00 -0.27568912569E+04  0.27568912569E+04  0.00000000000E+00 0. -1.
         25    2    1    2    0    0  0.27962851258E+02  0.34526312577E+01 -0.24991933803E+03  0.28085780357E+03  0.12501035393E+03 0.  0.
          4    1    3    3  501    0  0.69680232956E+02 -0.12583925723E+02 -0.20739667293E+03  0.21915447268E+03  0.12700000000E+01 0. -1.
         -4    1    3    3    0  501 -0.41717381698E+02  0.16036556981E+02 -0.42522665100E+02  0.61703330889E+02  0.12700000000E+01 0. -1.
          2    1    1    2  502    0 -0.43357538163E+02 -0.41449049063E+02 -0.24880690039E+04  0.24887919294E+04  0.00000000000E+00 0. -1.
          1    1    1    2  503    0  0.15394686905E+02  0.37996417805E+02  0.13369568912E+03  0.13984012815E+03  0.00000000000E+00 0. -1.
<mgrwt>
<rscale>  0 0.49235529E+02</rscale>
<asrwt>0</asrwt>
<pdfrwt beam="1">  1        2 0.23476709E-01 0.40996636E+02</pdfrwt>
<pdfrwt beam="2">  1        1 0.42413710E+00 0.59130152E+02</pdfrwt>
<totfact> 0.40115499E+01</totfact>
</mgrwt>
</event>
<event>
 7    1  0.4252091E-004  0.5172392E+02  0.7546771E-02  0.1511246E+00
          1   -1    0    0  502    0 -0.00000000000E+00  0.00000000000E+00  0.26513325251E+02  0.26513325251E+02  0.00000000000E+00 0. -1.
          2   -1    0    0  503    0  0.00000000000E+00 -0.00000000000E+00 -0.27730474858E+04  0.27730474858E+04  0.00000000000E+00 0. -1.
         25    2    1    2    0    0 -0.61590793912E+02 -0.31562882772E+02 -0.69310824711E+03  0.70768242783E+03  0.12500293986E+03 0.  0.
          4    1    3    3  501    0 -0.84824439567E+02  0.86425081630E+01 -0.30144315205E+03  0.31327219045E+03  0.12700000000E+01 0.  1.
         -4    1    3    3    0  501  0.23233645655E+02 -0.40205390935E+02 -0.39166509507E+03  0.39441023737E+03  0.12700000000E+01 0.  1.
          2    1    1    2  502    0  0.51038348704E+02  0.31560521204E+01 -0.15088108148E+02  0.53315332793E+02  0.00000000000E+00 0. -1.
          1    1    1    2  503    0  0.10552445209E+02  0.28406830652E+02 -0.20383378052E+04  0.20385630504E+04  0.00000000000E+00 0. -1.
<mgrwt>
<rscale>  0 0.39590601E+02</rscale>
<asrwt>0</asrwt>
<pdfrwt beam="2">  1        2 0.42662254E+00 0.30303500E+02</pdfrwt>
<pdfrwt beam="1">  1        1 0.40789745E-02 0.51723915E+02</pdfrwt>
<totfact> 0.10076585E+03</totfact>
</mgrwt>
</event>
<event>
 7    1  0.4252091E-004  0.3982732E+02  0.7546771E-02  0.1544409E+00
          1   -1    0    0  502    0 -0.00000000000E+00  0.00000000000E+00  0.54092391124E+03  0.54092391124E+03  0.00000000000E+00 0. -1.
          2   -1    0    0  503    0  0.00000000000E+00 -0.00000000000E+00 -0.10071226169E+03  0.10071226169E+03  0.00000000000E+00 0. -1.
         25    2    1    2    0    0  0.53759679708E+02 -0.38311556295E+02 -0.29152126936E+02  0.14433301725E+03  0.12499717939E+03 0.  0.
          4    1    3    3  501    0 -0.27516795231E+02 -0.18674201598E+02  0.27628370308E+02  0.43253203014E+02  0.12700000000E+01 0. -1.
         -4    1    3    3    0  501  0.81276474939E+02 -0.19637354697E+02 -0.56780497243E+02  0.10107981423E+03  0.12700000000E+01 0. -1.
          2    1    1    2  502    0 -0.38087920285E+02  0.10870389885E+02  0.46346733670E+03  0.46515677705E+03  0.00000000000E+00 0. -1.
          1    1    1    2  503    0 -0.15671759423E+02  0.27441166409E+02  0.58964397825E+01  0.32146378636E+02  0.00000000000E+00 0. -1.
<mgrwt>
<rscale>  0 0.35476500E+02</rscale>
<asrwt>0</asrwt>
<pdfrwt beam="2">  1        2 0.15494195E-01 0.31600976E+02</pdfrwt>
<pdfrwt beam="1">  1        1 0.83219061E-01 0.39827317E+02</pdfrwt>
<totfact> 0.19572685E+03</totfact>
</mgrwt>
</event>
<event>
 7    1  0.4252091E-004  0.5390305E+02  0.7546771E-02  0.1440078E+00
         -2   -1    0    0    0  501 -0.00000000000E+00  0.00000000000E+00  0.10971593103E+03  0.10971593103E+03  0.00000000000E+00 0.  1.
          2   -1    0    0  503    0  0.00000000000E+00 -0.00000000000E+00 -0.22475853221E+04  0.22475853221E+04  0.00000000000E+00 0. -1.
         25    2    1    2    0    0 -0.27567672374E+02  0.32647090681E+01 -0.50166808100E+02  0.13752340715E+03  0.12500137597E+03 0.  0.
          4    1    3    3  502    0 -0.56783787993E+02 -0.48801314149E+01 -0.77815396333E+02  0.96462754823E+02  0.12700000000E+01 0. -1.
         -4    1    3    3    0  502  0.29216115619E+02  0.81448404830E+01  0.27648588233E+02  0.41060652329E+02  0.12700000000E+01 0. -1.
          1    1    1    2  503    0 -0.15364920541E+01  0.48208371718E+02 -0.21401769189E+04  0.21407203582E+04  0.00000000000E+00 0. -1.
         -1    1    1    2    0  501  0.29104164428E+02 -0.51473080786E+02  0.52474335960E+02  0.79057487736E+02  0.00000000000E+00 0.  1.
<mgrwt>
<rscale>  0 0.50989193E+02</rscale>
<asrwt>0</asrwt>
<pdfrwt beam="2">  1        2 0.34578236E+00 0.48232851E+02</pdfrwt>
<pdfrwt beam="1">  1       -2 0.16879374E-01 0.53903050E+02</pdfrwt>
<totfact> 0.17816935E+02</totfact>
</mgrwt>
</event>
<event>
 7    1  0.4252091E-004  0.1294712E+03  0.7546771E-02  0.1297096E+00
          2   -1    0    0  503    0  0.00000000000E+00  0.00000000000E+00  0.17993881059E+04  0.17993881059E+04  0.00000000000E+00 0. -1.
          1   -1    0    0  502    0 -0.00000000000E+00 -0.00000000000E+00 -0.12044453368E+04  0.12044453368E+04  0.00000000000E+00 0. -1.
         25    2    1    2    0    0  0.66198193638E+02 -0.16367264901E+02 -0.37726521502E+02  0.14730274706E+03  0.12499888266E+03 0.  0.
          4    1    3    3  501    0 -0.31380298935E+02  0.20873022323E+02 -0.13723803901E+02  0.40129314917E+02  0.12700000000E+01 0. -1.
         -4    1    3    3    0  501  0.97578492574E+02 -0.37240287225E+02 -0.24002717601E+02  0.10717343215E+03  0.12700000000E+01 0. -1.
          2    1    1    2  502    0 -0.13150279946E+03  0.25721302190E+02 -0.11072665178E+04  0.11153446611E+04  0.00000000000E+00 0. -1.
          1    1    1    2  503    0  0.65304605821E+02 -0.93540372885E+01  0.17399358084E+04  0.17411860345E+04  0.00000000000E+00 0. -1.
<mgrwt>
<rscale>  0 0.92419471E+02</rscale>
<asrwt>0</asrwt>
<pdfrwt beam="1">  1        2 0.27682894E+00 0.65971127E+02</pdfrwt>
<pdfrwt beam="2">  1        1 0.18529928E+00 0.12947116E+03</pdfrwt>
<totfact> 0.17955689E+01</totfact>
</mgrwt>
</event>
<event>
 7    1  0.4252091E-004  0.1210024E+03  0.7546771E-02  0.1321183E+00
          2   -1    0    0  503    0  0.00000000000E+00  0.00000000000E+00  0.12668369315E+04  0.12668369315E+04  0.00000000000E+00 0. -1.
          1   -1    0    0  502    0 -0.00000000000E+00 -0.00000000000E+00 -0.37774677712E+03  0.37774677712E+03  0.00000000000E+00 0. -1.
         25    2    1    2    0    0  0.11289494835E+03 -0.22889702679E+02  0.35417112672E+03  0.39284968635E+03  0.12499792484E+03 0.  0.
          4    1    3    3  501    0 -0.25211944001E+02  0.10603985168E+02  0.46957835836E+02  0.54357500570E+02  0.12700000000E+01 0.  1.
         -4    1    3    3    0  501  0.13810689235E+03 -0.33493687847E+02  0.30721329088E+03  0.33849218578E+03  0.12700000000E+01 0.  1.
          2    1    1    2  502    0 -0.11675173608E+03 -0.33691008584E+02 -0.34717089415E+03  0.36782289445E+03  0.00000000000E+00 0. -1.
          3    1    1    2  503    0  0.38567877298E+01  0.56580711263E+02  0.88208992185E+03  0.88391112785E+03  0.00000000000E+00 0. -1.
<mgrwt>
<rscale>  0 0.82838943E+02</rscale>
<asrwt>0</asrwt>
<pdfrwt beam="1">  1        2 0.19489799E+00 0.56712007E+02</pdfrwt>
<pdfrwt beam="2">  1        1 0.58114889E-01 0.12100243E+03</pdfrwt>
<totfact> 0.18333420E+02</totfact>
</mgrwt>
</event>
<event>
 7    1  0.4252091E-004  0.6827969E+02  0.7546771E-02  0.1394597E+00
          2   -1    0    0  503    0  0.00000000000E+00  0.00000000000E+00  0.80217574376E+03  0.80217574376E+03  0.00000000000E+00 0. -1.
          1   -1    0    0  502    0 -0.00000000000E+00 -0.00000000000E+00 -0.35644283995E+03  0.35644283995E+03  0.00000000000E+00 0. -1.
         25    2    1    2    0    0  0.28484394098E+02 -0.31154993542E+01 -0.17886292727E+03  0.22007269083E+03  0.12497589949E+03 0.  0.
          4    1    3    3  501    0  0.36613218213E+02  0.56120992242E+02 -0.11056186505E+03  0.12928894934E+03  0.12700000000E+01 0.  1.
         -4    1    3    3    0  501 -0.81288241151E+01 -0.59236491597E+02 -0.68301062223E+02  0.90783741490E+02  0.12700000000E+01 0.  1.
          2    1    1    2  502    0  0.22337726715E+02  0.49273115113E+02 -0.15075147021E+03  0.16016497644E+03  0.00000000000E+00 0. -1.
          1    1    1    2  503    0 -0.50822120812E+02 -0.46157615759E+02  0.77534730130E+03  0.77838091644E+03  0.00000000000E+00 0. -1.
<mgrwt>
<rscale>  0 0.60777742E+02</rscale>
<asrwt>0</asrwt>
<pdfrwt beam="1">  1        2 0.12341165E+00 0.68279695E+02</pdfrwt>
<pdfrwt beam="2">  1        1 0.54837360E-01 0.54100036E+02</pdfrwt>
<totfact> 0.36194204E+02</totfact>
</mgrwt>
</event>
<event>
 7    1  0.4252091E-004  0.9576350E+02  0.7546771E-02  0.1438510E+00
          2   -1    0    0  503    0  0.00000000000E+00  0.00000000000E+00  0.12838444166E+04  0.12838444166E+04  0.00000000000E+00 0. -1.
         -2   -1    0    0    0  501 -0.00000000000E+00 -0.00000000000E+00 -0.24198203798E+02  0.24198203798E+02  0.00000000000E+00 0.  1.
         25    2    1    2    0    0  0.93718771773E+02 -0.18979082745E+02  0.29560219023E+03  0.33488631049E+03  0.12499908927E+03 0.  0.
          4    1    3    3  502    0  0.84043459332E+02  0.21241728416E+02  0.27560833585E+03  0.28892227635E+03  0.12700000000E+01 0. -1.
         -4    1    3    3    0  502  0.96753124414E+01 -0.40220811161E+02  0.19993854383E+02  0.45964034140E+02  0.12700000000E+01 0. -1.
          1    1    1    2  503    0  0.45238290509E+01  0.27094428892E+02  0.36722986656E+03  0.36825581869E+03  0.00000000000E+00 0. -1.
         -1    1    1    2    0  501 -0.98242600824E+02 -0.81153461474E+01  0.59681415599E+03  0.60490049120E+03  0.00000000000E+00 0.  1.
<mgrwt>
<rscale>  0 0.51289129E+02</rscale>
<asrwt>0</asrwt>
<pdfrwt beam="1">  1        2 0.19751447E+00 0.27469494E+02</pdfrwt>
<pdfrwt beam="2">  1       -2 0.37228016E-02 0.95763496E+02</pdfrwt>
<totfact> 0.58228583E+03</totfact>
</mgrwt>
</event>
<event>
 7    1  0.4252091E-004  0.3258311E+02  0.7546771E-02  0.1575616E+00
          2   -1    0    0  503    0  0.00000000000E+00  0.00000000000E+00  0.52888620208E+03  0.52888620208E+03  0.00000000000E+00 0. -1.
          1   -1    0    0  502    0 -0.00000000000E+00 -0.00000000000E+00 -0.19216536232E+04  0.19216536232E+04  0.00000000000E+00 0. -1.
         25    2    1    2    0    0 -0.40974260537E+02 -0.23255486993E+02 -0.84515499881E+02  0.15807588347E+03  0.12500163005E+03 0.  0.
          4    1    3    3  501    0 -0.33752673195E+02 -0.73281829553E+02 -0.65952036317E+02  0.10421493888E+03  0.12700000000E+01 0.  1.
         -4    1    3    3    0  501 -0.72215873420E+01  0.50026342560E+02 -0.18563463564E+02  0.53860944599E+02  0.12700000000E+01 0.  1.
          2    1    1    2  502    0  0.30751770483E+02 -0.76711618483E+01 -0.17996792603E+04  0.17999583212E+04  0.00000000000E+00 0. -1.
          1    1    1    2  503    0  0.10222490054E+02  0.30926648841E+02  0.49142733898E+03  0.49250562068E+03  0.00000000000E+00 0. -1.
<mgrwt>
<rscale>  0 0.32135548E+02</rscale>
<asrwt>0</asrwt>
<pdfrwt beam="1">  1        2 0.81367108E-01 0.32583110E+02</pdfrwt>
<pdfrwt beam="2">  1        1 0.29563902E+00 0.31694134E+02</pdfrwt>
<totfact> 0.40791346E+01</totfact>
</mgrwt>
</event>
<event>
 7    1  0.4252091E-004  0.1682879E+03  0.7546771E-02  0.1337559E+00
          2   -1    0    0  503    0  0.00000000000E+00  0.00000000000E+00  0.11641363459E+04  0.11641363459E+04  0.00000000000E+00 0. -1.
          1   -1    0    0  502    0 -0.00000000000E+00 -0.00000000000E+00 -0.44506322290E+03  0.44506322290E+03  0.00000000000E+00 0. -1.
         25    2    1    2    0    0  0.13983703473E+03  0.57688279462E+02  0.18785162614E+03  0.27165279146E+03  0.12499868718E+03 0.  0.
          4    1    3    3  501    0  0.75303354108E+02 -0.33524290127E+02  0.99424210361E+02  0.12915595098E+03  0.12700000000E+01 0. -1.
         -4    1    3    3    0  501  0.64533680625E+02  0.91212569589E+02  0.88427415776E+02  0.14249684048E+03  0.12700000000E+01 0. -1.
          2    1    1    2  502    0 -0.16630156045E+03 -0.34325802051E+02 -0.38492744718E+03  0.42071796882E+03  0.00000000000E+00 0. -1.
          1    1    1    2  503    0  0.26464525718E+02 -0.23362477411E+02  0.91614894405E+03  0.91682880853E+03  0.00000000000E+00 0. -1.
<mgrwt>
<rscale>  0 0.77076386E+02</rscale>
<asrwt>0</asrwt>
<pdfrwt beam="1">  1        2 0.17909790E+00 0.35301225E+02</pdfrwt>
<pdfrwt beam="2">  1        1 0.68471266E-01 0.16828791E+03</pdfrwt>
<totfact> 0.17318553E+02</totfact>
</mgrwt>
</event>
<event>
 7    1  0.4252091E-004  0.3668511E+02  0.7546771E-02  0.1553960E+00
          1   -1    0    0  502    0 -0.00000000000E+00  0.00000000000E+00  0.24202767409E+04  0.24202767409E+04  0.00000000000E+00 0. -1.
          2   -1    0    0  503    0  0.00000000000E+00 -0.00000000000E+00 -0.13828651898E+04  0.13828651898E+04  0.00000000000E+00 0. -1.
         25    2    1    2    0    0  0.41066571221E+02 -0.35252988152E+02  0.55295221959E+03  0.56948207986E+03  0.12499778273E+03 0.  0.
          4    1    3    3  501    0 -0.26008316053E+02 -0.38109639159E+02  0.39719022088E+03  0.39986305351E+03  0.12700000000E+01 0.  1.
         -4    1    3    3    0  501  0.67074887274E+02  0.28566510066E+01  0.15576199871E+03  0.16961902635E+03  0.12700000000E+01 0.  1.
          2    1    1    2  502    0 -0.88027929845E+01  0.35440896235E+02  0.18586908921E+04  0.18590495902E+04  0.00000000000E+00 0. -1.
          1    1    1    2  503    0 -0.32263778237E+02 -0.18790808237E+00 -0.13742315606E+04  0.13746102607E+04  0.00000000000E+00 0. -1.
<mgrwt>
<rscale>  0 0.34403784E+02</rscale>
<asrwt>0</asrwt>
<pdfrwt beam="2">  1        2 0.21274849E+00 0.32264325E+02</pdfrwt>
<pdfrwt beam="1">  1        1 0.37235027E+00 0.36685110E+02</pdfrwt>
<totfact> 0.61271296E+00</totfact>
</mgrwt>
</event>
<event>
 7    1  0.4252091E-004  0.5090486E+02  0.7546771E-02  0.1499211E+00
          2   -1    0    0  503    0  0.00000000000E+00  0.00000000000E+00  0.32512945977E+03  0.32512945977E+03  0.00000000000E+00 0. -1.
         -2   -1    0    0    0  501 -0.00000000000E+00 -0.00000000000E+00 -0.92487376232E+02  0.92487376232E+02  0.00000000000E+00 0.  1.
         25    2    1    2    0    0  0.44288276447E+02  0.36444492935E+02  0.16872394202E+03  0.21767429535E+03  0.12499871100E+03 0.  0.
          4    1    3    3  502    0 -0.29394455435E+02  0.44169283386E+02  0.11339154963E+03  0.12519670935E+03  0.12700000000E+01 0.  1.
         -4    1    3    3    0  502  0.73682731882E+02 -0.77247904516E+01  0.55332392394E+02  0.92477586004E+02  0.12700000000E+01 0.  1.
          1    1    1    2  503    0  0.66667100706E+01 -0.32754433687E+02  0.11971265589E+03  0.12429166476E+03  0.00000000000E+00 0. -1.
         -1    1    1    2    0  501 -0.50954986518E+02 -0.36900592478E+01 -0.55794514372E+02  0.75650875886E+02  0.00000000000E+00 0.  1.
<mgrwt>
<rscale>  0 0.41249801E+02</rscale>
<asrwt>0</asrwt>
<pdfrwt beam="1">  1        2 0.50019916E-01 0.33426007E+02</pdfrwt>
<pdfrwt beam="2">  1       -2 0.14228827E-01 0.50904856E+02</pdfrwt>
<totfact> 0.33937475E+03</totfact>
</mgrwt>
</event>
<event>
 7    1  0.4252091E-004  0.5254482E+02  0.7546771E-02  0.1550474E+00
         -2   -1    0    0    0  501 -0.00000000000E+00  0.00000000000E+00  0.80820343288E+02  0.80820343288E+02  0.00000000000E+00 0.  1.
          2   -1    0    0  503    0  0.00000000000E+00 -0.00000000000E+00 -0.70844841080E+03  0.70844841080E+03  0.00000000000E+00 0. -1.
         25    2    1    2    0    0 -0.22973529849E+02  0.66048275462E+02 -0.46559603121E+03  0.48712738800E+03  0.12499308021E+03 0.  0.
          4    1    3    3  502    0  0.34283458365E+02  0.77451208493E+02 -0.28535630215E+03  0.29766403426E+03  0.12700000000E+01 0. -1.
         -4    1    3    3    0  502 -0.57256988214E+02 -0.11402933031E+02 -0.18023972906E+03  0.18946335375E+03  0.12700000000E+01 0. -1.
          1    1    1    2  503    0  0.22493012998E+02 -0.43018885326E+02 -0.22756129042E+03  0.23268154424E+03  0.00000000000E+00 0. -1.
         -1    1    1    2    0  501  0.48051685056E+00 -0.23029390136E+02  0.65529254117E+02  0.69459821852E+02  0.00000000000E+00 0.  1.
<mgrwt>
<rscale>  0 0.34789922E+02</rscale>
<asrwt>0</asrwt>
<pdfrwt beam="2">  1        2 0.10899206E+00 0.52544825E+02</pdfrwt>
<pdfrwt beam="1">  1       -2 0.12433899E-01 0.23034403E+02</pdfrwt>
<totfact> 0.17299099E+03</totfact>
</mgrwt>
</event>
<event>
 7    1  0.4252091E-004  0.1165987E+03  0.7546771E-02  0.1346747E+00
          1   -1    0    0  502    0 -0.00000000000E+00  0.00000000000E+00  0.12309143043E+03  0.12309143043E+03  0.00000000000E+00 0. -1.
          2   -1    0    0  503    0  0.00000000000E+00 -0.00000000000E+00 -0.20314382496E+04  0.20314382496E+04  0.00000000000E+00 0. -1.
         25    2    1    2    0    0 -0.71885005978E+02  0.12733637956E+03 -0.46896790524E+03  0.50689242747E+03  0.12500811668E+03 0.  0.
          4    1    3    3  501    0 -0.14247580471E+02  0.57167930797E+02 -0.36114096787E+03  0.36591744620E+03  0.12700000000E+01 0.  1.
         -4    1    3    3    0  501 -0.57637425507E+02  0.70168448762E+02 -0.10782693738E+03  0.14097498127E+03  0.12700000000E+01 0.  1.
          2    1    1    2  502    0  0.27511311342E+02 -0.11165004500E+03  0.71905076039E+02  0.13562059121E+03  0.00000000000E+00 0. -1.
          1    1    1    2  503    0  0.44373694636E+02 -0.15686334555E+02 -0.15112839899E+04  0.15120166613E+04  0.00000000000E+00 0. -1.
<mgrwt>
<rscale>  0 0.74078889E+02</rscale>
<asrwt>0</asrwt>
<pdfrwt beam="2">  1        2 0.31252891E+00 0.47064699E+02</pdfrwt>
<pdfrwt beam="1">  1        1 0.18937147E-01 0.11659868E+03</pdfrwt>
<totfact> 0.31494509E+02</totfact>
</mgrwt>
</event>
<event>
 7    1  0.4252091E-004  0.1202496E+03  0.7546771E-02  0.1423284E+00
          1   -1    0    0  502    0 -0.00000000000E+00  0.00000000000E+00  0.19703049665E+03  0.19703049665E+03  0.00000000000E+00 0. -1.
          2   -1    0    0  503    0  0.00000000000E+00 -0.00000000000E+00 -0.11105601585E+04  0.11105601585E+04  0.00000000000E+00 0. -1.
         25    2    1    2    0    0  0.73004405807E+01 -0.10640689367E+03  0.80056546817E+01  0.16451612073E+03  0.12500296005E+03 0.  0.
          4    1    3    3  501    0  0.51955318827E+02 -0.34558303941E+01  0.16943284294E+01  0.52113161169E+02  0.12700000000E+01 0. -1.
         -4    1    3    3    0  501 -0.44654878247E+02 -0.10295106327E+03  0.63113262522E+01  0.11240295956E+03  0.12700000000E+01 0. -1.
          2    1    1    2  502    0  0.65862461064E+01  0.12665056119E+03  0.74268703261E+02  0.14696796784E+03  0.00000000000E+00 0. -1.
          1    1    1    2  503    0 -0.13886686687E+02 -0.20243667528E+02 -0.99580401980E+03  0.99610656658E+03  0.00000000000E+00 0. -1.
<mgrwt>
<rscale>  0 0.54332215E+02</rscale>
<asrwt>0</asrwt>
<pdfrwt beam="2">  1        2 0.17085541E+00 0.24548852E+02</pdfrwt>
<pdfrwt beam="1">  1        1 0.30312384E-01 0.12024960E+03</pdfrwt>
<totfact> 0.52281044E+02</totfact>
</mgrwt>
</event>
<event>
 7    1  0.4252091E-004  0.2401158E+03  0.7546771E-02  0.1203803E+00
         -1   -1    0    0    0  501 -0.00000000000E+00  0.00000000000E+00  0.14577413913E+04  0.14577413913E+04  0.00000000000E+00 0.  1.
          1   -1    0    0  503    0  0.00000000000E+00 -0.00000000000E+00 -0.16024602815E+04  0.16024602815E+04  0.00000000000E+00 0. -1.
         25    2    1    2    0    0 -0.29992523468E+03  0.11482520137E+03 -0.71437513008E+02  0.35194897544E+03  0.12499915911E+03 0.  0.
          4    1    3    3  502    0 -0.35506869052E+02 -0.17898414672E+00 -0.51956764116E+02  0.62943530427E+02  0.12700000000E+01 0.  1.
         -4    1    3    3    0  502 -0.26441836563E+03  0.11500418552E+03 -0.19480748891E+02  0.28900544501E+03  0.12700000000E+01 0.  1.
          2    1    1    2  503    0  0.22586573881E+03 -0.63006055515E+02 -0.13793099328E+04  0.13991000628E+04  0.00000000000E+00 0. -1.
         -2    1    1    2    0  501  0.74059495879E+02 -0.51819145856E+02  0.13060285556E+04  0.13091526347E+04  0.00000000000E+00 0.  1.
<mgrwt>
<rscale>  0 0.14732157E+03</rscale>
<asrwt>0</asrwt>
<pdfrwt beam="2">  1        1 0.24653235E+00 0.24011583E+03</pdfrwt>
<pdfrwt beam="1">  1       -1 0.22426791E+00 0.90388234E+02</pdfrwt>
<totfact> 0.81097260E-01</totfact>
</mgrwt>
</event>
<event>
 7    1  0.4252091E-004  0.1164014E+03  0.7546771E-02  0.1286379E+00
         -1   -1    0    0    0  501 -0.00000000000E+00  0.00000000000E+00  0.10544965529E+04  0.10544965529E+04  0.00000000000E+00 0.  1.
          1   -1    0    0  503    0  0.00000000000E+00 -0.00000000000E+00 -0.21434811955E+04  0.21434811955E+04  0.00000000000E+00 0. -1.
         25    2    1    2    0    0 -0.27298377203E+02 -0.13630169663E+03 -0.91815982163E+02  0.20827446289E+03  0.12499889364E+03 0.  0.
          4    1    3    3  502    0 -0.96729595507E+01  0.18101351977E+02  0.96069402339E+01  0.22696503927E+02  0.12700000000E+01 0.  1.
         -4    1    3    3    0  502 -0.17625417652E+02 -0.15440304861E+03 -0.10142292240E+03  0.18557795897E+03  0.12700000000E+01 0.  1.
          2    1    1    2  503    0 -0.57850810328E+02  0.56842120429E+02 -0.19892030528E+04  0.19908557276E+04  0.00000000000E+00 0. -1.
         -2    1    1    2    0  501  0.85149187531E+02  0.79459576201E+02  0.99203439235E+03  0.99884755794E+03  0.00000000000E+00 0.  1.
<mgrwt>
<rscale>  0 0.97162405E+02</rscale>
<asrwt>0</asrwt>
<pdfrwt beam="2">  1        1 0.32976633E+00 0.81103285E+02</pdfrwt>
<pdfrwt beam="1">  1       -1 0.16223024E+00 0.11640136E+03</pdfrwt>
<totfact> 0.10484442E+00</totfact>
</mgrwt>
</event>
<event>
 7    1  0.4252091E-004  0.7239058E+02  0.7546771E-02  0.1393562E+00
          2   -1    0    0  503    0  0.00000000000E+00  0.00000000000E+00  0.10804465301E+04  0.10804465301E+04  0.00000000000E+00 0. -1.
          1   -1    0    0  502    0 -0.00000000000E+00 -0.00000000000E+00 -0.23455926351E+02  0.23455926351E+02  0.00000000000E+00 0. -1.
         25    2    1    2    0    0 -0.47978380564E+02 -0.13451629405E+02  0.29038449422E+03  0.32004491077E+03  0.12499087602E+03 0.  0.
          4    1    3    3  501    0  0.21310252748E+02  0.53483438300E+01  0.11579560645E+01  0.22038271624E+02  0.12700000000E+01 0.  1.
         -4    1    3    3    0  501 -0.69288633313E+02 -0.18799973235E+02  0.28922653816E+03  0.29800663915E+03  0.12700000000E+01 0.  1.
          2    1    1    2  502    0  0.98622783856E+02  0.43750045763E+01  0.33641100502E+03  0.35059657508E+03  0.00000000000E+00 0. -1.
          1    1    1    2  503    0 -0.50644403292E+02  0.90766248290E+01  0.43019510454E+03  0.43326097063E+03  0.00000000000E+00 0. -1.
<mgrwt>
<rscale>  0 0.61029439E+02</rscale>
<asrwt>0</asrwt>
<pdfrwt beam="1">  1        2 0.16622250E+00 0.51451343E+02</pdfrwt>
<pdfrwt beam="2">  1        1 0.36086049E-02 0.72390576E+02</pdfrwt>
<totfact> 0.80396311E+03</totfact>
</mgrwt>
</event>
<event>
 7    1  0.4252091E-004  0.9343343E+02  0.7546771E-02  0.1401935E+00
          2   -1    0    0  503    0  0.00000000000E+00  0.00000000000E+00  0.49503284735E+03  0.49503284735E+03  0.00000000000E+00 0. -1.
          1   -1    0    0  502    0 -0.00000000000E+00 -0.00000000000E+00 -0.15399227268E+03  0.15399227268E+03  0.00000000000E+00 0. -1.
         25    2    1    2    0    0  0.93458833454E+02 -0.65922262881E+02  0.30220441848E+03  0.34645994457E+03  0.12500673722E+03 0.  0.
          4    1    3    3  501    0  0.47240745990E+02  0.34654030111E+02  0.11125076930E+03  0.12574154626E+03  0.12700000000E+01 0.  1.
         -4    1    3    3    0  501  0.46218087464E+02 -0.10057629299E+03  0.19095364918E+03  0.22071839832E+03  0.12700000000E+01 0.  1.
          2    1    1    2  502    0 -0.87933902468E+02  0.29035588194E+02 -0.11306744495E+03  0.14614952512E+03  0.00000000000E+00 0. -1.
          1    1    1    2  503    0 -0.55249309856E+01  0.36886674687E+02  0.15190360114E+03  0.15641565034E+03  0.00000000000E+00 0. -1.
<mgrwt>
<rscale>  0 0.59032989E+02</rscale>
<asrwt>0</asrwt>
<pdfrwt beam="1">  1        2 0.76158899E-01 0.37298145E+02</pdfrwt>
<pdfrwt beam="2">  1        1 0.23691119E-01 0.93433434E+02</pdfrwt>
<totfact> 0.17508015E+03</totfact>
</mgrwt>
</event>
<event>
 7    1  0.4252091E-004  0.7997676E+02  0.7546771E-02  0.1365605E+00
          2   -1    0    0  503    0  0.00000000000E+00  0.00000000000E+00  0.17821462724E+04  0.17821462724E+04  0.00000000000E+00 0. -1.
          1   -1    0    0  502    0 -0.00000000000E+00 -0.00000000000E+00 -0.10898203842E+04  0.10898203842E+04  0.00000000000E+00 0. -1.
         25    2    1    2    0    0 -0.13827997520E+02 -0.12449259585E+03 -0.10251637034E+03  0.20450998820E+03  0.12500043659E+03 0.  0.
          4    1    3    3  501    0  0.22273741929E+02 -0.26923256574E+02 -0.93798192144E+02  0.10010342189E+03  0.12700000000E+01 0.  1.
         -4    1    3    3    0  501 -0.36101739449E+02 -0.97569339276E+02 -0.87181781994E+01  0.10440656631E+03  0.12700000000E+01 0.  1.
          2    1    1    2  502    0 -0.23049533915E+02  0.53774415586E+02 -0.93447325542E+03  0.93630296052E+03  0.00000000000E+00 0. -1.
          1    1    1    2  503    0  0.36877531435E+02  0.70718180264E+02  0.17293155139E+04  0.17311537078E+04  0.00000000000E+00 0. -1.
<mgrwt>
<rscale>  0 0.68404178E+02</rscale>
<asrwt>0</asrwt>
<pdfrwt beam="1">  1        2 0.27417635E+00 0.79976757E+02</pdfrwt>
<pdfrwt beam="2">  1        1 0.16766467E+00 0.58506143E+02</pdfrwt>
<totfact> 0.22817172E+01</totfact>
</mgrwt>
</event>
<event>
 7    1  0.4252091E-004  0.2318154E+03  0.7546771E-02  0.1194886E+00
         -2   -1    0    0    0  501  0.00000000000E+00  0.00000000000E+00  0.13921660072E+04  0.13921660072E+04  0.00000000000E+00 0.  1.
         -1   -1    0    0    0  502 -0.00000000000E+00 -0.00000000000E+00 -0.17398681983E+03  0.17398681983E+03  0.00000000000E+00 0.  1.
         25    2    1    2    0    0  0.16024019827E+03 -0.51811685142E+02  0.73230351966E+02  0.22214723280E+03  0.12500134692E+03 0.  0.
          4    1    3    3  503    0  0.15964108691E+03 -0.28560957908E+02  0.96911931512E+02  0.18892998787E+03  0.12700000000E+01 0.  1.
         -4    1    3    3    0  503  0.59911136379E+00 -0.23250727234E+02 -0.23681579546E+02  0.33217244935E+02  0.12700000000E+01 0.  1.
         -2    1    1    2    0  502  0.83335285711E+02  0.60798910111E+02 -0.56818727848E+02  0.11776945763E+03  0.00000000000E+00 0.  1.
         -1    1    1    2    0  501 -0.24357548398E+03 -0.89872249694E+01  0.12017675632E+04  0.12262361366E+04  0.00000000000E+00 0.  1.
<mgrwt>
<rscale>  0 0.15463918E+03</rscale>
<asrwt>0</asrwt>
<pdfrwt beam="1">  1       -2 0.21417938E+00 0.23181537E+03</pdfrwt>
<pdfrwt beam="2">  1       -1 0.26767204E-01 0.10315657E+03</pdfrwt>
<totfact> 0.10811065E+01</totfact>
</mgrwt>
</event>
<event>
 7    1  0.4252091E-004  0.8881331E+02  0.7546771E-02  0.1346660E+00
         -2   -1    0    0    0  501 -0.00000000000E+00  0.00000000000E+00  0.13947488546E+03  0.13947488546E+03  0.00000000000E+00 0.  1.
          2   -1    0    0  503    0  0.00000000000E+00 -0.00000000000E+00 -0.33187670219E+03  0.33187670219E+03  0.00000000000E+00 0. -1.
         25    2    1    2    0    0 -0.75677068935E+02 -0.56690051665E+01 -0.12153611212E+03  0.19014703930E+03  0.12500285446E+03 0.  0.
          4    1    3    3  502    0 -0.72280978149E+02  0.51043390597E+02 -0.63499880955E+02  0.10892114261E+03  0.12700000000E+01 0.  1.
         -4    1    3    3    0  502 -0.33960907859E+01 -0.56712395764E+02 -0.58036231165E+02  0.81225896694E+02  0.12700000000E+01 0.  1.
          3    1    1    2  503    0  0.82992267642E+02 -0.55732145448E+02 -0.15031825404E+03  0.18052525037E+03  0.00000000000E+00 0. -1.
         -1    1    1    2    0  501 -0.73151987076E+01  0.61401150614E+02  0.79452549432E+02  0.10067929797E+03  0.00000000000E+00 0.  1.
<mgrwt>
<rscale>  0 0.74106709E+02</rscale>
<asrwt>0</asrwt>
<pdfrwt beam="2">  1        2 0.51057954E-01 0.88813311E+02</pdfrwt>
<pdfrwt beam="1">  1       -2 0.21457675E-01 0.61835374E+02</pdfrwt>
<totfact> 0.17332732E+03</totfact>
</mgrwt>
</event>
<event>
 7    1  0.4252091E-004  0.1074886E+03  0.7546771E-02  0.1289470E+00
         -2   -1    0    0    0  501 -0.00000000000E+00  0.00000000000E+00  0.28574377541E+02  0.28574377541E+02  0.00000000000E+00 0.  1.
          2   -1    0    0  503    0  0.00000000000E+00 -0.00000000000E+00 -0.16335791180E+04  0.16335791180E+04  0.00000000000E+00 0. -1.
         25    2    1    2    0    0 -0.32522626588E+02 -0.25187909243E+02 -0.36351641228E+03  0.38660277586E+03  0.12500148917E+03 0.  0.
          4    1    3    3  502    0  0.34068404865E+02  0.29045168277E+02 -0.10372805534E+03  0.11298407133E+03  0.12700000000E+01 0. -1.
         -4    1    3    3    0  502 -0.66591031453E+02 -0.54233077520E+02 -0.25978835694E+03  0.27361870453E+03  0.12700000000E+01 0. -1.
          1    1    1    2  503    0 -0.95260676856E+02  0.49791654602E+02 -0.95334434425E+03  0.95938482589E+03  0.00000000000E+00 0. -1.
         -1    1    1    2    0  501  0.12778330344E+03 -0.24603745358E+02 -0.28814398393E+03  0.31616589380E+03  0.00000000000E+00 0.  1.
<mgrwt>
<rscale>  0 0.95761591E+02</rscale>
<asrwt>0</asrwt>
<pdfrwt beam="2">  1        2 0.25131987E+00 0.10748863E+03</pdfrwt>
<pdfrwt beam="1">  1       -2 0.43960581E-02 0.85313976E+02</pdfrwt>
<totfact> 0.26861100E+03</totfact>
</mgrwt>
</event>
<event>
 7    1  0.4252091E-004  0.3399619E+02  0.7546771E-02  0.1590098E+00
         -2   -1    0    0    0  501 -0.00000000000E+00  0.00000000000E+00  0.14208215087E+02  0.14208215087E+02  0.00000000000E+00 0. -1.
          2   -1    0    0  503    0  0.00000000000E+00 -0.00000000000E+00 -0.85548933187E+03  0.85548933187E+03  0.00000000000E+00 0.  1.
         25    2    1    2    0    0 -0.15464682421E+02 -0.20631108893E+02 -0.47614842014E+03  0.49295519158E+03  0.12499081503E+03 0.  0.
          4    1    3    3  502    0 -0.83367083623E+01 -0.72484778534E+02 -0.22995041094E+03  0.24125162843E+03  0.12700000000E+01 0.  1.
         -4    1    3    3    0  502 -0.71279740586E+01  0.51853669641E+02 -0.24619800920E+03  0.25170356315E+03  0.12700000000E+01 0.  1.
          1    1    1    2  503    0 -0.25722391021E+02  0.10512154762E+02 -0.39131906473E+02  0.47994300722E+02  0.00000000000E+00 0. -1.
         -1    1    1    2    0  501  0.41187073442E+02  0.10118954131E+02 -0.32600079016E+03  0.32874805465E+03  0.00000000000E+00 0.  1.
<mgrwt>
<rscale>  0 0.30735489E+02</rscale>
<asrwt>0</asrwt>
<pdfrwt beam="2">  1        2 0.13161377E+00 0.27787530E+02</pdfrwt>
<pdfrwt beam="1">  1       -2 0.21858787E-02 0.33996195E+02</pdfrwt>
<totfact> 0.18383148E+04</totfact>
</mgrwt>
</event>
<event>
 7    1  0.4252091E-004  0.1260629E+03  0.7546771E-02  0.1403030E+00
          2   -1    0    0  503    0  0.00000000000E+00  0.00000000000E+00  0.88541072925E+03  0.88541072925E+03  0.00000000000E+00 0. -1.
          1   -1    0    0  502    0 -0.00000000000E+00 -0.00000000000E+00 -0.67252038212E+03  0.67252038212E+03  0.00000000000E+00 0. -1.
         25    2    1    2    0    0 -0.14541808108E+03 -0.33117889056E+02  0.11324642457E+03  0.22516651160E+03  0.12502796642E+03 0.  0.
          4    1    3    3  501    0 -0.60764868561E+02 -0.58037434533E+02  0.31943094299E+01  0.84098332748E+02  0.12700000000E+01 0.  1.
         -4    1    3    3    0  501 -0.84653212516E+02  0.24919545476E+02  0.11005211514E+03  0.14106817885E+03  0.12700000000E+01 0.  1.
          2    1    1    2  502    0  0.22835749289E+02  0.15153741002E+02 -0.61089300529E+03  0.61150745803E+03  0.00000000000E+00 0. -1.
          1    1    1    2  503    0  0.12258233179E+03  0.17964148054E+02  0.71053692784E+03  0.72125714174E+03  0.00000000000E+00 0. -1.
<mgrwt>
<rscale>  0 0.58778579E+02</rscale>
<asrwt>0</asrwt>
<pdfrwt beam="1">  1        2 0.13621703E+00 0.12606286E+03</pdfrwt>
<pdfrwt beam="2">  1        1 0.10346467E+00 0.27406337E+02</pdfrwt>
<totfact> 0.14397621E+02</totfact>
</mgrwt>
</event>
<event>
 7    1  0.4252091E-004  0.1381795E+03  0.7546771E-02  0.1382061E+00
          1   -1    0    0  502    0 -0.00000000000E+00  0.00000000000E+00  0.10780248279E+04  0.10780248279E+04  0.00000000000E+00 0. -1.
          2   -1    0    0  503    0  0.00000000000E+00 -0.00000000000E+00 -0.41611662917E+03  0.41611662917E+03  0.00000000000E+00 0. -1.
         25    2    1    2    0    0  0.27312950949E+02  0.16230845652E+03  0.15873705233E+03  0.26060207986E+03  0.12500383955E+03 0.  0.
          4    1    3    3  501    0  0.34924097206E+02  0.47260538736E+02  0.12864014552E+03  0.14143249636E+03  0.12700000000E+01 0. -1.
         -4    1    3    3    0  501 -0.76111462572E+01  0.11504791778E+03  0.30096906807E+02  0.11916958350E+03  0.12700000000E+01 0. -1.
          2    1    1    2  502    0 -0.17969487616E+02 -0.13425002174E+03  0.86246223237E+03  0.87303326001E+03  0.00000000000E+00 0. -1.
          1    1    1    2  503    0 -0.93434633324E+01 -0.28058434773E+02 -0.35929108598E+03  0.36050611719E+03  0.00000000000E+00 0. -1.
<mgrwt>
<rscale>  0 0.63925070E+02</rscale>
<asrwt>0</asrwt>
<pdfrwt beam="2">  1        2 0.64017943E-01 0.29573232E+02</pdfrwt>
<pdfrwt beam="1">  1        1 0.16584997E+00 0.13817951E+03</pdfrwt>
<totfact> 0.15503440E+02</totfact>
</mgrwt>
</event>
<event>
 7    1  0.4252091E-004  0.7595891E+02  0.7546771E-02  0.1510234E+00
         -2   -1    0    0    0  501 -0.00000000000E+00  0.00000000000E+00  0.29614198541E+02  0.29614198541E+02  0.00000000000E+00 0.  1.
          2   -1    0    0  503    0  0.00000000000E+00 -0.00000000000E+00 -0.19302656581E+04  0.19302656581E+04  0.00000000000E+00 0. -1.
         25    2    1    2    0    0 -0.85943062479E+02 -0.37312833679E+02 -0.62013223146E+03  0.63950528081E+03  0.12499824852E+03 0.  0.
          4    1    3    3  502    0 -0.22658907106E+02 -0.74614531117E+02 -0.39701830402E+03  0.40460585877E+03  0.12700000000E+01 0. -1.
         -4    1    3    3    0  502 -0.63284155373E+02  0.37301697438E+02 -0.22311392745E+03  0.23489942204E+03  0.12700000000E+01 0. -1.
          1    1    1    2  503    0  0.20635084205E+02  0.24233114645E+01 -0.12312765717E+04  0.12314518566E+04  0.00000000000E+00 0. -1.
         -1    1    1    2    0  501  0.65307978275E+02  0.34889522215E+02 -0.49242656420E+02  0.88922719246E+02  0.00000000000E+00 0.  1.
<mgrwt>
<rscale>  0 0.39726438E+02</rscale>
<asrwt>0</asrwt>
<pdfrwt beam="2">  1        2 0.29696405E+00 0.20776890E+02</pdfrwt>
<pdfrwt beam="1">  1       -2 0.45560290E-02 0.75958909E+02</pdfrwt>
<totfact> 0.21533842E+03</totfact>
</mgrwt>
</event>
<event>
 7    1  0.4252091E-004  0.7820290E+02  0.7546771E-02  0.1446119E+00
          1   -1    0    0  502    0 -0.00000000000E+00  0.00000000000E+00  0.48387888461E+03  0.48387888461E+03  0.00000000000E+00 0. -1.
          2   -1    0    0  503    0  0.00000000000E+00 -0.00000000000E+00 -0.14741649367E+04  0.14741649367E+04  0.00000000000E+00 0. -1.
         25    2    1    2    0    0 -0.10579509775E+03 -0.17524756206E+02  0.15660581409E+03  0.22728146278E+03  0.12502704720E+03 0.  0.
          4    1    3    3  501    0 -0.28718767272E+02 -0.62113349476E+02  0.10194927828E+03  0.12279293147E+03  0.12700000000E+01 0. -1.
         -4    1    3    3    0  501 -0.77076330473E+02  0.44588593270E+02  0.54656535803E+02  0.10448853131E+03  0.12700000000E+01 0. -1.
          2    1    1    2  502    0  0.31274056802E+02 -0.56731955913E+01  0.29000790427E+03  0.29174447093E+03  0.00000000000E+00 0. -1.
          1    1    1    2  503    0  0.74521040943E+02  0.23197951797E+02 -0.14368997704E+04  0.14390178876E+04  0.00000000000E+00 0. -1.
<mgrwt>
<rscale>  0 0.49856161E+02</rscale>
<asrwt>0</asrwt>
<pdfrwt beam="2">  1        2 0.22679461E+00 0.78202900E+02</pdfrwt>
<pdfrwt beam="1">  1        1 0.74442905E-01 0.31784458E+02</pdfrwt>
<totfact> 0.10515087E+02</totfact>
</mgrwt>
</event>
<event>
 7    1  0.4252091E-004  0.5031916E+02  0.7546771E-02  0.1484780E+00
          2   -1    0    0  503    0  0.00000000000E+00  0.00000000000E+00  0.12853071082E+04  0.12853071082E+04  0.00000000000E+00 0. -1.
          1   -1    0    0  502    0 -0.00000000000E+00 -0.00000000000E+00 -0.11721275600E+04  0.11721275600E+04  0.00000000000E+00 0. -1.
         25    2    1    2    0    0 -0.83388413103E+02  0.26507188829E+02 -0.14092549587E+03  0.20770548968E+03  0.12500126622E+03 0.  0.
          4    1    3    3  501    0 -0.14487235990E+02  0.56039930498E+02 -0.12859440278E+02  0.59307098404E+02  0.12700000000E+01 0.  1.
         -4    1    3    3    0  501 -0.68901177113E+02 -0.29532741668E+02 -0.12806605559E+03  0.14839839127E+03  0.12700000000E+01 0.  1.
          2    1    1    2  502    0  0.34969606052E+02 -0.13208386169E+02 -0.99695817416E+03  0.99765872714E+03  0.00000000000E+00 0. -1.
          1    1    1    2  503    0  0.48418807052E+02 -0.13298802661E+02  0.12510632182E+04  0.12520704513E+04  0.00000000000E+00 0. -1.
<mgrwt>
<rscale>  0 0.43370240E+02</rscale>
<asrwt>0</asrwt>
<pdfrwt beam="1">  1        2 0.19773956E+00 0.50319162E+02</pdfrwt>
<pdfrwt beam="2">  1        1 0.18032732E+00 0.37380942E+02</pdfrwt>
<totfact> 0.38505897E+01</totfact>
</mgrwt>
</event>
<event>
 7    1  0.4252091E-004  0.4126590E+02  0.7546771E-02  0.1533827E+00
          2   -1    0    0  503    0  0.00000000000E+00  0.00000000000E+00  0.25680374542E+04  0.25680374542E+04  0.00000000000E+00 0. -1.
          1   -1    0    0  502    0 -0.00000000000E+00 -0.00000000000E+00 -0.10112720275E+02  0.10112720275E+02  0.00000000000E+00 0. -1.
         25    2    1    2    0    0 -0.28052683025E+01 -0.73140245380E+01  0.53656734985E+03  0.55099095357E+03  0.12500058204E+03 0.  0.
          4    1    3    3  501    0 -0.10871592328E+02  0.35784119623E+02  0.50010679621E+02  0.62460993533E+02  0.12700000000E+01 0.  1.
         -4    1    3    3    0  501  0.80663240254E+01 -0.43098144161E+02  0.48655667023E+03  0.48852996004E+03  0.12700000000E+01 0.  1.
          2    1    1    2  502    0 -0.35524326511E+02  0.22601805847E+02  0.16320831443E+03  0.16855198991E+03  0.00000000000E+00 0. -1.
          1    1    1    2  503    0  0.38329594813E+02 -0.15287781309E+02  0.18581490696E+04  0.18586072310E+04  0.00000000000E+00 0. -1.
<mgrwt>
<rscale>  0 0.36721077E+02</rscale>
<asrwt>0</asrwt>
<pdfrwt beam="1">  1        2 0.39508217E+00 0.41265895E+02</pdfrwt>
<pdfrwt beam="2">  1        1 0.15558052E-02 0.32676803E+02</pdfrwt>
<totfact> 0.41291523E+03</totfact>
</mgrwt>
</event>
<event>
 7    1  0.4252091E-004  0.6513752E+02  0.7546771E-02  0.1391864E+00
          2   -1    0    0  503    0  0.00000000000E+00  0.00000000000E+00  0.39353457194E+04  0.39353457194E+04  0.00000000000E+00 0. -1.
          1   -1    0    0  502    0 -0.00000000000E+00 -0.00000000000E+00 -0.40016059295E+02  0.40016059295E+02  0.00000000000E+00 0. -1.
         25    2    1    2    0    0  0.25074581854E+02 -0.74280244907E+02  0.18382757830E+03  0.23571441017E+03  0.12498966028E+03 0.  0.
          4    1    3    3  501    0  0.26331795065E+02 -0.10086754918E+03  0.18105117075E+03  0.20892286911E+03  0.12700000000E+01 0. -1.
         -4    1    3    3    0  501 -0.12572132116E+01  0.26587304270E+02  0.27764075566E+01  0.26791541059E+02  0.12700000000E+01 0. -1.
          2    1    1    2  502    0  0.30862731190E+02  0.59091866594E+02  0.66425831054E+02  0.94110296489E+02  0.00000000000E+00 0. -1.
          1    1    1    2  503    0 -0.55937313044E+02  0.15188378314E+02  0.36450762507E+04  0.36455370720E+04  0.00000000000E+00 0. -1.
<mgrwt>
<rscale>  0 0.61445456E+02</rscale>
<asrwt>0</asrwt>
<pdfrwt beam="1">  1        2 0.60543750E+00 0.57962659E+02</pdfrwt>
<pdfrwt beam="2">  1        1 0.61563199E-02 0.65137523E+02</pdfrwt>
<totfact> 0.10450210E+02</totfact>
</mgrwt>
</event>
<event>
 7    1  0.4252091E-004  0.5980129E+02  0.7546771E-02  0.1482488E+00
          1   -1    0    0  502    0 -0.00000000000E+00  0.00000000000E+00  0.11535762762E+03  0.11535762762E+03  0.00000000000E+00 0. -1.
          2   -1    0    0  503    0  0.00000000000E+00 -0.00000000000E+00 -0.42721898379E+03  0.42721898379E+03  0.00000000000E+00 0. -1.
         25    2    1    2    0    0 -0.30365454311E+02 -0.18158432211E+02 -0.49901193844E+02  0.13916714319E+03  0.12500230047E+03 0.  0.
          4    1    3    3  501    0 -0.44734932441E+02  0.33288960701E+02  0.12352688138E+02  0.57127671835E+02  0.12700000000E+01 0. -1.
         -4    1    3    3    0  501  0.14369478130E+02 -0.51447392912E+02 -0.62253881982E+02  0.82039471360E+02  0.12700000000E+01 0. -1.
          2    1    1    2  502    0 -0.61848340659E+01 -0.31360536532E+02  0.64080558171E+02  0.71610427729E+02  0.00000000000E+00 0. -1.
          1    1    1    2  503    0  0.36550288376E+02  0.49518968743E+02 -0.32604072049E+03  0.33179904048E+03  0.00000000000E+00 0. -1.
<mgrwt>
<rscale>  0 0.43720982E+02</rscale>
<asrwt>0</asrwt>
<pdfrwt beam="2">  1        2 0.65726000E-01 0.59801294E+02</pdfrwt>
<pdfrwt beam="1">  1        1 0.17747327E-01 0.31964596E+02</pdfrwt>
<totfact> 0.27753492E+03</totfact>
</mgrwt>
</event>
<event>
 7    1  0.4252091E-004  0.5756146E+02  0.7546771E-02  0.1504382E+00
          2   -1    0    0  503    0  0.00000000000E+00  0.00000000000E+00  0.18055360911E+04  0.18055360911E+04  0.00000000000E+00 0. -1.
          1   -1    0    0  502    0 -0.00000000000E+00 -0.00000000000E+00 -0.12205841429E+03  0.12205841429E+03  0.00000000000E+00 0. -1.
         25    2    1    2    0    0 -0.24378368081E+02  0.70726263257E+02  0.25048595154E+03  0.28976818593E+03  0.12500352202E+03 0.  0.
          4    1    3    3  501    0  0.95576733727E+01  0.16554798196E+02  0.21652773101E+03  0.21737359927E+03  0.12700000000E+01 0.  1.
         -4    1    3    3    0  501 -0.33936041454E+02  0.54171465061E+02  0.33958220524E+02  0.72394586659E+02  0.12700000000E+01 0.  1.
          2    1    1    2  502    0 -0.11455202950E+02 -0.26130528847E+02 -0.99886272132E+02  0.10388115119E+03  0.00000000000E+00 0. -1.
          1    1    1    2  503    0  0.35833571031E+02 -0.44595734410E+02  0.15328779974E+04  0.15339451683E+04  0.00000000000E+00 0. -1.
<mgrwt>
<rscale>  0 0.40525231E+02</rscale>
<asrwt>0</asrwt>
<pdfrwt beam="1">  1        2 0.27777476E+00 0.57561459E+02</pdfrwt>
<pdfrwt beam="2">  1        1 0.18778219E-01 0.28531145E+02</pdfrwt>
<totfact> 0.37668128E+02</totfact>
</mgrwt>
</event>
<event>
 7    1  0.4252091E-004  0.7365307E+02  0.7546771E-02  0.1418841E+00
         -1   -1    0    0    0  501 -0.00000000000E+00  0.00000000000E+00  0.67542337824E+02  0.67542337824E+02  0.00000000000E+00 0.  1.
          1   -1    0    0  503    0  0.00000000000E+00 -0.00000000000E+00 -0.20996678712E+04  0.20996678712E+04  0.00000000000E+00 0. -1.
         25    2    1    2    0    0 -0.17308776988E+02 -0.10693330284E+03 -0.10757728163E+03  0.19731396026E+03  0.12500240947E+03 0.  0.
          4    1    3    3  502    0 -0.51883725978E+02 -0.60975543318E+02 -0.11412925352E+03  0.13941677558E+03  0.12700000000E+01 0.  1.
         -4    1    3    3    0  502  0.34574948990E+02 -0.45957759526E+02  0.65519718871E+01  0.57897184681E+02  0.12700000000E+01 0.  1.
          2    1    1    2  503    0 -0.63718003053E+01  0.72888602935E+02 -0.19269666257E+04  0.19283551863E+04  0.00000000000E+00 0. -1.
         -2    1    1    2    0  501  0.23680577293E+02  0.34044699909E+02  0.24183739399E+01  0.41541062400E+02  0.00000000000E+00 0.  1.
<mgrwt>
<rscale>  0 0.55266965E+02</rscale>
<asrwt>0</asrwt>
<pdfrwt beam="2">  1        1 0.32302579E+00 0.73653066E+02</pdfrwt>
<pdfrwt beam="1">  1       -1 0.10391130E-01 0.41470608E+02</pdfrwt>
<totfact> 0.17426701E+02</totfact>
</mgrwt>
</event>
<event>
 7    1  0.4252091E-004  0.2239735E+03  0.7546771E-02  0.1222160E+00
          2   -1    0    0  503    0  0.00000000000E+00  0.00000000000E+00  0.61015021102E+03  0.61015021102E+03  0.00000000000E+00 0. -1.
          1   -1    0    0  502    0 -0.00000000000E+00 -0.00000000000E+00 -0.21149881414E+03  0.21149881414E+03  0.00000000000E+00 0. -1.
         25    2    1    2    0    0  0.17870133133E+03  0.12528002509E+03  0.28628122910E+03  0.38106383270E+03  0.12499380764E+03 0.  0.
          4    1    3    3  501    0  0.69916801642E+02  0.11799572028E+03  0.12012699181E+03  0.18232788108E+03  0.12700000000E+01 0. -1.
         -4    1    3    3    0  501  0.10878452969E+03  0.72843048094E+01  0.16615423729E+03  0.19873595162E+03  0.12700000000E+01 0. -1.
          2    1    1    2  502    0 -0.22080939151E+03 -0.57571720303E+02 -0.72353951413E+02  0.23938751982E+03  0.00000000000E+00 0. -1.
          1    1    1    2  503    0  0.42108060182E+02 -0.67708304789E+02  0.18472411919E+03  0.20119767265E+03  0.00000000000E+00 0. -1.
<mgrwt>
<rscale>  0 0.13363492E+03</rscale>
<asrwt>0</asrwt>
<pdfrwt beam="1">  1        2 0.93869263E-01 0.79733953E+02</pdfrwt>
<pdfrwt beam="2">  1        1 0.32538279E-01 0.22397348E+03</pdfrwt>
<totfact> 0.94304557E+02</totfact>
</mgrwt>
</event>
<event>
 7    1  0.4252091E-004  0.5903539E+02  0.7546771E-02  0.1528753E+00
         -2   -1    0    0    0  501 -0.00000000000E+00  0.00000000000E+00  0.13948168189E+02  0.13948168189E+02  0.00000000000E+00 0.  1.
          2   -1    0    0  503    0  0.00000000000E+00 -0.00000000000E+00 -0.13805482383E+04  0.13805482383E+04  0.00000000000E+00 0. -1.
         25    2    1    2    0    0  0.68689942450E+02 -0.88049017911E+01 -0.46262200235E+03  0.48418905865E+03  0.12499637180E+03 0.  0.
          4    1    3    3  502    0  0.67087452563E+02  0.49776932916E+02 -0.29558624175E+03  0.30716658112E+03  0.12700000000E+01 0.  1.
         -4    1    3    3    0  502  0.16024898872E+01 -0.58581834707E+02 -0.16703576060E+03  0.17702247753E+03  0.12700000000E+01 0.  1.
          1    1    1    2  503    0 -0.52355827952E+02  0.25863009318E+02 -0.84135050901E+03  0.84337459469E+03  0.00000000000E+00 0. -1.
         -1    1    1    2    0  501 -0.16334114498E+02 -0.17058107527E+02 -0.62627558766E+02  0.66932753162E+02  0.00000000000E+00 0.  1.
<mgrwt>
<rscale>  0 0.37339836E+02</rscale>
<asrwt>0</asrwt>
<pdfrwt beam="2">  1        2 0.21239204E+00 0.59035390E+02</pdfrwt>
<pdfrwt beam="1">  1       -2 0.21458719E-02 0.23617416E+02</pdfrwt>
<totfact> 0.87780321E+03</totfact>
</mgrwt>
</event>
<event>
 7    1  0.4252091E-004  0.1376036E+03  0.7546771E-02  0.1381452E+00
          2   -1    0    0  503    0  0.00000000000E+00  0.00000000000E+00  0.15385546984E+04  0.15385546984E+04  0.00000000000E+00 0. -1.
         -2   -1    0    0    0  501 -0.00000000000E+00 -0.00000000000E+00 -0.71552510160E+02  0.71552510160E+02  0.00000000000E+00 0.  1.
         25    2    1    2    0    0 -0.10501734749E+03  0.58033048229E+02  0.18836962734E+03  0.25593845272E+03  0.12499958846E+03 0.  0.
          4    1    3    3  502    0 -0.69052744616E+02  0.71346074656E+02  0.19324011983E+03  0.21725998416E+03  0.12700000000E+01 0.  1.
         -4    1    3    3    0  502 -0.35964602872E+02 -0.13313026428E+02 -0.48704924901E+01  0.38678468551E+02  0.12700000000E+01 0.  1.
          1    1    1    2  503    0 -0.28336935369E+02  0.93656515865E+01  0.11676770187E+04  0.11680583536E+04  0.00000000000E+00 0. -1.
         -1    1    1    2    0  501  0.13335428286E+03 -0.67398699815E+02  0.11095554222E+03  0.18611040229E+03  0.00000000000E+00 0.  1.
<mgrwt>
<rscale>  0 0.64083676E+02</rscale>
<asrwt>0</asrwt>
<pdfrwt beam="1">  1        2 0.23670070E+00 0.29844553E+02</pdfrwt>
<pdfrwt beam="2">  1       -2 0.11008080E-01 0.13760359E+03</pdfrwt>
<totfact> 0.86291892E+02</totfact>
</mgrwt>
</event>
<event>
 7    1  0.4252091E-004  0.1166901E+03  0.7546771E-02  0.1299103E+00
         -2   -1    0    0    0  501 -0.00000000000E+00  0.00000000000E+00  0.57750767881E+03  0.57750767881E+03  0.00000000000E+00 0.  1.
          2   -1    0    0  503    0  0.00000000000E+00 -0.00000000000E+00 -0.19326073924E+04  0.19326073924E+04  0.00000000000E+00 0. -1.
         25    2    1    2    0    0  0.27606853525E+02  0.74854270893E+02 -0.34068153070E+03  0.37155809194E+03  0.12500484030E+03 0.  0.
          4    1    3    3  502    0 -0.59509876398E+01  0.10309439976E+03 -0.25914289517E+03  0.27896329962E+03  0.12700000000E+01 0. -1.
         -4    1    3    3    0  502  0.33557841165E+02 -0.28240128870E+02 -0.81538635522E+02  0.92594792322E+02  0.12700000000E+01 0. -1.
          1    1    1    2  503    0 -0.61048563950E+02  0.37890776381E+02 -0.15695053844E+04  0.15711491939E+04  0.00000000000E+00 0. -1.
         -1    1    1    2    0  501  0.33441710425E+02 -0.11274504727E+03  0.55508720144E+03  0.56740778535E+03  0.00000000000E+00 0.  1.
<mgrwt>
<rscale>  0 0.91566131E+02</rscale>
<asrwt>0</asrwt>
<pdfrwt beam="2">  1        2 0.29732421E+00 0.71851500E+02</pdfrwt>
<pdfrwt beam="1">  1       -2 0.88847337E-01 0.11669007E+03</pdfrwt>
<totfact> 0.10795257E+01</totfact>
</mgrwt>
</event>
<event>
 7    1  0.4252091E-004  0.5464749E+02  0.7546771E-02  0.1478119E+00
         -1   -1    0    0    0  501 -0.00000000000E+00  0.00000000000E+00  0.12994615427E+03  0.12994615427E+03  0.00000000000E+00 0.  1.
          1   -1    0    0  503    0  0.00000000000E+00 -0.00000000000E+00 -0.11850068754E+03  0.11850068754E+03  0.00000000000E+00 0. -1.
         25    2    1    2    0    0  0.31428188440E+02 -0.51980105870E+02  0.50981090615E+02  0.14800011590E+03  0.12496119506E+03 0.  0.
          4    1    3    3  502    0  0.51783807142E+02 -0.24564198856E+02 -0.26621087956E+02  0.63208051477E+02  0.12700000000E+01 0. -1.
         -4    1    3    3    0  502 -0.20355618702E+02 -0.27415907013E+02  0.77602178572E+02  0.84792064423E+02  0.12700000000E+01 0. -1.
          2    1    1    2  503    0 -0.50869960812E+02  0.21592372340E+02 -0.31045797616E+02  0.63386315604E+02  0.00000000000E+00 0. -1.
         -2    1    1    2    0  501  0.19441772372E+02  0.30387733530E+02 -0.84898262613E+01  0.37060410305E+02  0.00000000000E+00 0.  1.
<mgrwt>
<rscale>  0 0.44400469E+02</rscale>
<asrwt>0</asrwt>
<pdfrwt beam="2">  1        1 0.18230875E-01 0.54647492E+02</pdfrwt>
<pdfrwt beam="1">  1       -1 0.19991716E-01 0.36074879E+02</pdfrwt>
<totfact> 0.50569303E+03</totfact>
</mgrwt>
</event>
<event>
 7    1  0.4252091E-004  0.1444095E+03  0.7546771E-02  0.1357615E+00
          1   -1    0    0  502    0 -0.00000000000E+00  0.00000000000E+00  0.42096039405E+03  0.42096039405E+03  0.00000000000E+00 0. -1.
          2   -1    0    0  503    0  0.00000000000E+00 -0.00000000000E+00 -0.58225572066E+03  0.58225572066E+03  0.00000000000E+00 0. -1.
         25    2    1    2    0    0  0.10418460199E+03 -0.82074684320E+02 -0.21892160799E+03  0.28485570664E+03  0.12500167224E+03 0.  0.
          4    1    3    3  501    0 -0.62408171884E+01 -0.50576695541E+02 -0.19198291134E+02  0.54471434840E+02  0.12700000000E+01 0.  1.
         -4    1    3    3    0  501  0.11042541918E+03 -0.31497988779E+02 -0.19972331686E+03  0.23038427180E+03  0.12700000000E+01 0.  1.
          2    1    1    2  502    0  0.31517235894E+02  0.14388787154E+02  0.36973858222E+03  0.37135830748E+03  0.00000000000E+00 0. -1.
          1    1    1    2  503    0 -0.13570183788E+03  0.67685897166E+02 -0.31211230083E+03  0.34700210059E+03  0.00000000000E+00 0. -1.
<mgrwt>
<rscale>  0 0.70733799E+02</rscale>
<asrwt>0</asrwt>
<pdfrwt beam="2">  1        2 0.89577803E-01 0.14440951E+03</pdfrwt>
<pdfrwt beam="1">  1        1 0.64763138E-01 0.34646405E+02</pdfrwt>
<totfact> 0.42251387E+02</totfact>
</mgrwt>
</event>
<event>
 7    1  0.4252091E-004  0.5077796E+02  0.7546771E-02  0.1536314E+00
         -2   -1    0    0    0  501 -0.00000000000E+00  0.00000000000E+00  0.90350299335E+02  0.90350299335E+02  0.00000000000E+00 0.  1.
          2   -1    0    0  503    0  0.00000000000E+00 -0.00000000000E+00 -0.27171948412E+04  0.27171948412E+04  0.00000000000E+00 0. -1.
         25    2    1    2    0    0 -0.16855468284E+02 -0.53235015273E+02 -0.83415573401E+03  0.84531704453E+03  0.12500817383E+03 0.  0.
          4    1    3    3  502    0  0.26285293473E+02 -0.20676599557E+02 -0.55663095056E+02  0.64949453219E+02  0.12700000000E+01 0. -1.
         -4    1    3    3    0  502 -0.43140761757E+02 -0.32558415716E+02 -0.77849263896E+03  0.78036759131E+03  0.12700000000E+01 0. -1.
          1    1    1    2  503    0  0.36211121665E+02  0.35686535513E+02 -0.18750926054E+04  0.18757817178E+04  0.00000000000E+00 0. -1.
         -1    1    1    2    0  501 -0.19355653381E+02  0.17548479760E+02  0.82403797513E+02  0.86446378202E+02  0.00000000000E+00 0.  1.
<mgrwt>
<rscale>  0 0.36423164E+02</rscale>
<asrwt>0</asrwt>
<pdfrwt beam="2">  1        2 0.41802995E+00 0.50777957E+02</pdfrwt>
<pdfrwt beam="1">  1       -2 0.13900047E-01 0.26126432E+02</pdfrwt>
<totfact> 0.13174423E+02</totfact>
</mgrwt>
</event>
<event>
 7    1  0.4252091E-004  0.3700144E+02  0.7546771E-02  0.1545317E+00
          1   -1    0    0  502    0 -0.00000000000E+00  0.00000000000E+00  0.50231879891E+01  0.50231879891E+01  0.00000000000E+00 0. -1.
          2   -1    0    0  503    0  0.00000000000E+00 -0.00000000000E+00 -0.22056498120E+04  0.22056498120E+04  0.00000000000E+00 0. -1.
         25    2    1    2    0    0  0.35411824924E+02  0.19497568789E+02 -0.15151037494E+04  0.15207877249E+04  0.12498711965E+03 0.  0.
          4    1    3    3  501    0 -0.35049132286E+02  0.21182956154E+02 -0.10051599495E+04  0.10059946800E+04  0.12700000000E+01 0. -1.
         -4    1    3    3    0  501  0.70460957210E+02 -0.16853873658E+01 -0.50994379993E+03  0.51479304483E+03  0.12700000000E+01 0. -1.
          2    1    1    2  502    0  0.12238411505E+01 -0.33793225905E+02 -0.20645422713E+03  0.20920522891E+03  0.00000000000E+00 0. -1.
          1    1    1    2  503    0 -0.36635666074E+02  0.14295657116E+02 -0.47906864748E+03  0.48068004622E+03  0.00000000000E+00 0. -1.
<mgrwt>
<rscale>  0 0.35372557E+02</rscale>
<asrwt>0</asrwt>
<pdfrwt beam="2">  1        2 0.33933032E+00 0.37001441E+02</pdfrwt>
<pdfrwt beam="1">  1        1 0.77279911E-03 0.33815380E+02</pdfrwt>
<totfact> 0.16323318E+04</totfact>
</mgrwt>
</event>
<event>
 7    1  0.4252091E-004  0.4798262E+02  0.7546771E-02  0.1552296E+00
          2   -1    0    0  503    0  0.00000000000E+00  0.00000000000E+00  0.13897108919E+04  0.13897108919E+04  0.00000000000E+00 0. -1.
         -2   -1    0    0    0  501 -0.00000000000E+00 -0.00000000000E+00 -0.10776303075E+03  0.10776303075E+03  0.00000000000E+00 0.  1.
         25    2    1    2    0    0  0.48409868628E+02  0.22319848566E+02 -0.49319212401E+02  0.14456289383E+03  0.12499741813E+03 0.  0.
          4    1    3    3  502    0 -0.83864238734E+01 -0.34480140769E+02 -0.53396256199E+02  0.64124763461E+02  0.12700000000E+01 0.  1.
         -4    1    3    3    0  502  0.56796292502E+02  0.56799989335E+02  0.40770437986E+01  0.80438130364E+02  0.12700000000E+01 0.  1.
          1    1    1    2  503    0 -0.47915464259E+02  0.26068499758E+01  0.13266963740E+04  0.13275639179E+04  0.00000000000E+00 0. -1.
         -1    1    1    2    0  501 -0.49440436954E+00 -0.24926698542E+02  0.45706995357E+01  0.25347110883E+02  0.00000000000E+00 0.  1.
<mgrwt>
<rscale>  0 0.34587332E+02</rscale>
<asrwt>0</asrwt>
<pdfrwt beam="1">  1        2 0.21380166E+00 0.47982620E+02</pdfrwt>
<pdfrwt beam="2">  1       -2 0.16578929E-01 0.24931601E+02</pdfrwt>
<totfact> 0.45870764E+02</totfact>
</mgrwt>
</event>
<event>
 7    1  0.4252091E-004  0.1121721E+03  0.7546771E-02  0.1342226E+00
         -1   -1    0    0    0  501 -0.00000000000E+00  0.00000000000E+00  0.13577184567E+04  0.13577184567E+04  0.00000000000E+00 0.  1.
          1   -1    0    0  503    0  0.00000000000E+00 -0.00000000000E+00 -0.67125700408E+03  0.67125700408E+03  0.00000000000E+00 0. -1.
         25    2    1    2    0    0 -0.87078326683E+02 -0.12030548928E+03 -0.16800460352E+03  0.25672566325E+03  0.12500589441E+03 0.  0.
          4    1    3    3  502    0 -0.10289856073E+03 -0.13585349609E+03 -0.13745697385E+03  0.21895277747E+03  0.12700000000E+01 0. -1.
         -4    1    3    3    0  502  0.15820234049E+02  0.15548006816E+02 -0.30547629678E+02  0.37772885782E+02  0.12700000000E+01 0. -1.
          2    1    1    2  503    0 -0.56977116989E+00  0.50859190393E+02 -0.45509223547E+03  0.45792567593E+03  0.00000000000E+00 0. -1.
         -2    1    1    2    0  501  0.87648097853E+02  0.69446298884E+02  0.13095582917E+04  0.13143241216E+04  0.00000000000E+00 0.  1.
<mgrwt>
<rscale>  0 0.75533690E+02</rscale>
<asrwt>0</asrwt>
<pdfrwt beam="2">  1        1 0.10327031E+00 0.50862382E+02</pdfrwt>
<pdfrwt beam="1">  1       -1 0.20887976E+00 0.11217206E+03</pdfrwt>
<totfact> 0.51228282E+00</totfact>
</mgrwt>
</event>
<event>
 7    1  0.4252091E-004  0.4124010E+02  0.7546771E-02  0.1591676E+00
          1   -1    0    0  502    0 -0.00000000000E+00  0.00000000000E+00  0.82161434304E+03  0.82161434304E+03  0.00000000000E+00 0. -1.
          2   -1    0    0  503    0  0.00000000000E+00 -0.00000000000E+00 -0.82636733308E+03  0.82636733308E+03  0.00000000000E+00 0. -1.
         25    2    1    2    0    0 -0.33557856388E+01  0.50668251805E+02  0.77412613138E+02  0.15555032304E+03  0.12499862914E+03 0.  0.
          4    1    3    3  501    0  0.45249405944E+02 -0.17150963553E+00  0.71931173937E+02  0.84989674890E+02  0.12700000000E+01 0.  1.
         -4    1    3    3    0  501 -0.48605191583E+02  0.50839761441E+02  0.54814392005E+01  0.70560648154E+02  0.12700000000E+01 0.  1.
          2    1    1    2  502    0  0.18930572969E+02 -0.12504407808E+02  0.70441059719E+03  0.70477586241E+03  0.00000000000E+00 0. -1.
          1    1    1    2  503    0 -0.15574787330E+02 -0.38163843997E+02 -0.78657620037E+03  0.78765549067E+03  0.00000000000E+00 0. -1.
<mgrwt>
<rscale>  0 0.30588210E+02</rscale>
<asrwt>0</asrwt>
<pdfrwt beam="2">  1        2 0.12713344E+00 0.41240102E+02</pdfrwt>
<pdfrwt beam="1">  1        1 0.12640221E+00 0.22687591E+02</pdfrwt>
<totfact> 0.12650007E+02</totfact>
</mgrwt>
</event>
<event>
 7    1  0.4252091E-004  0.9627336E+02  0.7546771E-02  0.1352245E+00
         -2   -1    0    0    0  501 -0.00000000000E+00  0.00000000000E+00  0.30125737196E+03  0.30125737196E+03  0.00000000000E+00 0.  1.
          2   -1    0    0  503    0  0.00000000000E+00 -0.00000000000E+00 -0.91298574287E+02  0.91298574287E+02  0.00000000000E+00 0. -1.
         25    2    1    2    0    0 -0.93505436075E+02 -0.57382204128E+02  0.18449716306E+03  0.24839772378E+03  0.12500496820E+03 0.  0.
          4    1    3    3  502    0 -0.18028045125E+02 -0.32020694288E+02 -0.10104926500E+02  0.38132108692E+02  0.12700000000E+01 0.  1.
         -4    1    3    3    0  502 -0.75477390950E+02 -0.25361509840E+02  0.19460208956E+03  0.21026561509E+03  0.12700000000E+01 0.  1.
          1    1    1    2  503    0  0.50938415375E+02 -0.19059670259E+02  0.10583558750E+02  0.55407624991E+02  0.00000000000E+00 0. -1.
         -1    1    1    2    0  501  0.42567020700E+02  0.76441874387E+02  0.14878075859E+02  0.88750597476E+02  0.00000000000E+00 0.  1.
<mgrwt>
<rscale>  0 0.72360632E+02</rscale>
<asrwt>0</asrwt>
<pdfrwt beam="2">  1        2 0.14045935E-01 0.54387436E+02</pdfrwt>
<pdfrwt beam="1">  1       -2 0.46347288E-01 0.96273356E+02</pdfrwt>
<totfact> 0.17427233E+03</totfact>
</mgrwt>
</event>
<event>
 7    1  0.4252091E-004  0.8165995E+02  0.7546771E-02  0.1386564E+00
          1   -1    0    0  502    0 -0.00000000000E+00  0.00000000000E+00  0.21666593368E+04  0.21666593368E+04  0.00000000000E+00 0. -1.
          2   -1    0    0  503    0  0.00000000000E+00 -0.00000000000E+00 -0.62377113890E+03  0.62377113890E+03  0.00000000000E+00 0. -1.
         25    2    1    2    0    0  0.56912407481E+02 -0.25447657006E+02  0.27462405616E+03  0.30810926693E+03  0.12500537099E+03 0.  0.
          4    1    3    3  501    0 -0.10456554860E+02 -0.11809810129E+02 -0.76551947342E+01  0.17579137102E+02  0.12700000000E+01 0. -1.
         -4    1    3    3    0  501  0.67368962341E+02 -0.13637846877E+02  0.28227925090E+03  0.29053012983E+03  0.12700000000E+01 0. -1.
          2    1    1    2  502    0  0.23302292921E+02  0.42248761914E+02  0.18722142433E+04  0.18728358517E+04  0.00000000000E+00 0. -1.
          1    1    1    2  503    0 -0.80214700402E+02 -0.16801104907E+02 -0.60395010154E+03  0.60948535704E+03  0.00000000000E+00 0. -1.
<mgrwt>
<rscale>  0 0.62769431E+02</rscale>
<asrwt>0</asrwt>
<pdfrwt beam="2">  1        2 0.95964792E-01 0.81659950E+02</pdfrwt>
<pdfrwt beam="1">  1        1 0.33333220E+00 0.48248883E+02</pdfrwt>
<totfact> 0.22441867E+01</totfact>
</mgrwt>
</event>
<event>
 7    1  0.4252091E-004  0.6004035E+02  0.7546771E-02  0.1425687E+00
          1   -1    0    0  502    0 -0.00000000000E+00  0.00000000000E+00  0.36927449037E+03  0.36927449037E+03  0.00000000000E+00 0. -1.
          2   -1    0    0  503    0  0.00000000000E+00 -0.00000000000E+00 -0.23185650557E+04  0.23185650557E+04  0.00000000000E+00 0. -1.
         25    2    1    2    0    0 -0.20146817808E+02  0.95291537901E+02  0.63443748343E+02  0.17067988151E+03  0.12498056363E+03 0.  0.
          4    1    3    3  501    0  0.46909806686E+02  0.12860602567E+02  0.37118197325E+02  0.61198844224E+02  0.12700000000E+01 0.  1.
         -4    1    3    3    0  501 -0.67056624493E+02  0.82430935334E+02  0.26325551018E+02  0.10948103728E+03  0.12700000000E+01 0.  1.
          2    1    1    2  502    0 -0.14167967581E+02 -0.46146145481E+02  0.24950231102E+03  0.25412910351E+03  0.00000000000E+00 0. -1.
          1    1    1    2  503    0  0.34314785389E+02 -0.49145392420E+02 -0.22622366247E+04  0.22630305611E+04  0.00000000000E+00 0. -1.
<mgrwt>
<rscale>  0 0.53835632E+02</rscale>
<asrwt>0</asrwt>
<pdfrwt beam="2">  1        2 0.35670230E+00 0.60040351E+02</pdfrwt>
<pdfrwt beam="1">  1        1 0.56811462E-01 0.48272125E+02</pdfrwt>
<totfact> 0.56635205E+01</totfact>
</mgrwt>
</event>
<event>
 7    1  0.4252091E-004  0.7940940E+02  0.7546771E-02  0.1332732E+00
          2   -1    0    0  503    0  0.00000000000E+00  0.00000000000E+00  0.39343163239E+03  0.39343163239E+03  0.00000000000E+00 0. -1.
          1   -1    0    0  502    0 -0.00000000000E+00 -0.00000000000E+00 -0.92807619852E+02  0.92807619852E+02  0.00000000000E+00 0. -1.
         25    2    1    2    0    0  0.32937058867E+02 -0.80279816589E+02  0.70524267197E+02  0.16771738889E+03  0.12500300586E+03 0.  0.
          4    1    3    3  501    0  0.25338064599E+02 -0.10705933683E+03  0.22661492139E+02  0.11233376717E+03  0.12700000000E+01 0. -1.
         -4    1    3    3    0  501  0.75989942674E+01  0.26779520245E+02  0.47862775058E+02  0.55383621719E+02  0.12700000000E+01 0. -1.
          2    1    1    2  502    0 -0.78448501975E+02  0.12316067808E+02  0.56240840637E+01  0.79608311814E+02  0.00000000000E+00 0. -1.
          1    1    1    2  503    0  0.45511443108E+02  0.67963748781E+02  0.22447566127E+03  0.23891355153E+03  0.00000000000E+00 0. -1.
<mgrwt>
<rscale>  0 0.78717157E+02</rscale>
<asrwt>0</asrwt>
<pdfrwt beam="1">  1        2 0.60527943E-01 0.78030948E+02</pdfrwt>
<pdfrwt beam="2">  1        1 0.14278096E-01 0.79409401E+02</pdfrwt>
<totfact> 0.41627617E+03</totfact>
</mgrwt>
</event>
<event>
 7    1  0.4252091E-004  0.8088499E+02  0.7546771E-02  0.1388381E+00
          1   -1    0    0  503    0  0.00000000000E+00  0.00000000000E+00  0.27713523282E+03  0.27713523282E+03  0.00000000000E+00 0. -1.
         -1   -1    0    0    0  501 -0.00000000000E+00 -0.00000000000E+00 -0.12652371438E+03  0.12652371438E+03  0.00000000000E+00 0.  1.
         25    2    1    2    0    0 -0.72885893903E+02 -0.10713472577E+02  0.71251064602E+02  0.16164034809E+03  0.12499502350E+03 0.  0.
          4    1    3    3  502    0 -0.44113291236E+02 -0.17599789143E+02  0.10589504844E+03  0.11606510770E+03  0.12700000000E+01 0.  1.
         -4    1    3    3    0  502 -0.28772602667E+02  0.68863165658E+01 -0.34643983840E+02  0.45575240388E+02  0.12700000000E+01 0.  1.
          2    1    1    2  503    0  0.10884424409E+02 -0.46752052952E+02  0.13334033403E+03  0.14171757065E+03  0.00000000000E+00 0. -1.
         -2    1    1    2    0  501  0.62001469494E+02  0.57465525529E+02 -0.53979880198E+02  0.10030102846E+03  0.00000000000E+00 0.  1.
<mgrwt>
<rscale>  0 0.62311067E+02</rscale>
<asrwt>0</asrwt>
<pdfrwt beam="1">  1        1 0.42636190E-01 0.48002345E+02</pdfrwt>
<pdfrwt beam="2">  1       -1 0.19465187E-01 0.80884987E+02</pdfrwt>
<totfact> 0.19499925E+03</totfact>
</mgrwt>
</event>
<event>
 7    1  0.4252091E-004  0.1323635E+03  0.7546771E-02  0.1251721E+00
          2   -1    0    0  503    0  0.00000000000E+00  0.00000000000E+00  0.45207232153E+03  0.45207232153E+03  0.00000000000E+00 0. -1.
          1   -1    0    0  502    0 -0.00000000000E+00 -0.00000000000E+00 -0.71334529488E+03  0.71334529488E+03  0.00000000000E+00 0. -1.
         25    2    1    2    0    0 -0.24535309996E+02 -0.15534389408E+03 -0.13240042016E+03  0.24060167593E+03  0.12500235333E+03 0.  0.
          4    1    3    3  501    0  0.27155855081E+02 -0.98811071568E+02 -0.19750783425E+02  0.10436845632E+03  0.12700000000E+01 0.  1.
         -4    1    3    3    0  501 -0.51691165077E+02 -0.56532822507E+02 -0.11264963674E+03  0.13623321961E+03  0.12700000000E+01 0.  1.
          2    1    1    2  502    0 -0.66814251709E+02  0.11521448291E+03 -0.51193306901E+03  0.52897446861E+03  0.00000000000E+00 0. -1.
          1    1    1    2  503    0  0.91349561705E+02  0.40129411161E+02  0.38306051582E+03  0.39584147186E+03  0.00000000000E+00 0. -1.
<mgrwt>
<rscale>  0 0.11491999E+03</rscale>
<asrwt>0</asrwt>
<pdfrwt beam="1">  1        2 0.69549588E-01 0.99775308E+02</pdfrwt>
<pdfrwt beam="2">  1        1 0.10974543E+00 0.13236345E+03</pdfrwt>
<totfact> 0.27225919E+02</totfact>
</mgrwt>
</event>
<event>
 7    1  0.4252091E-004  0.1447739E+03  0.7546771E-02  0.1277422E+00
          2   -1    0    0  503    0  0.00000000000E+00  0.00000000000E+00  0.80331155594E+03  0.80331155594E+03  0.00000000000E+00 0. -1.
          1   -1    0    0  502    0 -0.00000000000E+00 -0.00000000000E+00 -0.23493015679E+03  0.23493015679E+03  0.00000000000E+00 0. -1.
         25    2    1    2    0    0  0.16797259416E+02 -0.90967421319E+02  0.92061500450E+02  0.18071174413E+03  0.12499677970E+03 0.  0.
          4    1    3    3  501    0  0.31750129468E+02 -0.11668063314E+03  0.54130505452E+02  0.13249213332E+03  0.12700000000E+01 0.  1.
         -4    1    3    3    0  501 -0.14952870052E+02  0.25713211821E+02  0.37930994998E+02  0.48219610808E+02  0.12700000000E+01 0.  1.
          2    1    1    2  502    0  0.50190703304E+02 -0.50206897059E+02 -0.17440818461E+03  0.18830309098E+03  0.00000000000E+00 0. -1.
          1    1    1    2  503    0 -0.66987962720E+02  0.14117431838E+03  0.65072808332E+03  0.66922687763E+03  0.00000000000E+00 0. -1.
<mgrwt>
<rscale>  0 0.10137929E+03</rscale>
<asrwt>0</asrwt>
<pdfrwt beam="1">  1        2 0.12358639E+00 0.14477386E+03</pdfrwt>
<pdfrwt beam="2">  1        1 0.36143101E-01 0.70991825E+02</pdfrwt>
<totfact> 0.58124402E+02</totfact>
</mgrwt>
</event>
<event>
 7    1  0.4252091E-004  0.7879338E+02  0.7546771E-02  0.1383464E+00
          2   -1    0    0  503    0  0.00000000000E+00  0.00000000000E+00  0.74708769728E+03  0.74708769728E+03  0.00000000000E+00 0. -1.
         -2   -1    0    0    0  501 -0.00000000000E+00 -0.00000000000E+00 -0.54283865820E+03  0.54283865820E+03  0.00000000000E+00 0.  1.
         25    2    1    2    0    0  0.51233112151E+02  0.98984536812E+02  0.64523312351E+02  0.17948088506E+03  0.12500943947E+03 0.  0.
          4    1    3    3  502    0  0.59092826829E+02  0.12601721019E+03  0.56074885413E+02  0.15006100467E+03  0.12700000000E+01 0.  1.
         -4    1    3    3    0  502 -0.78597146784E+01 -0.27032673379E+02  0.84484269380E+01  0.29419880397E+02  0.12700000000E+01 0.  1.
          1    1    1    2  503    0 -0.46017564650E+01 -0.77662130392E+02  0.62129859610E+03  0.62615056351E+03  0.00000000000E+00 0. -1.
         -1    1    1    2    0  501 -0.46631355686E+02 -0.21322406420E+02 -0.48157286937E+03  0.48429490692E+03  0.00000000000E+00 0.  1.
<mgrwt>
<rscale>  0 0.63562040E+02</rscale>
<asrwt>0</asrwt>
<pdfrwt beam="1">  1        2 0.11493657E+00 0.78793385E+02</pdfrwt>
<pdfrwt beam="2">  1       -2 0.83513640E-01 0.51275027E+02</pdfrwt>
<totfact> 0.54717346E+01</totfact>
</mgrwt>
</event>
<event>
 7    1  0.4252091E-004  0.1874161E+03  0.7546771E-02  0.1338540E+00
          1   -1    0    0  502    0 -0.00000000000E+00  0.00000000000E+00  0.92937647467E+03  0.92937647467E+03  0.00000000000E+00 0. -1.
          2   -1    0    0  503    0  0.00000000000E+00 -0.00000000000E+00 -0.15636758776E+03  0.15636758776E+03  0.00000000000E+00 0. -1.
         25    2    1    2    0    0  0.78162944752E+02 -0.14739163198E+03  0.30766748626E+03  0.37164251570E+03  0.12500055305E+03 0.  0.
          4    1    3    3  501    0  0.84093209316E+02 -0.12781035752E+03  0.31474048146E+03  0.34995762445E+03  0.12700000000E+01 0. -1.
         -4    1    3    3    0  501 -0.59302645644E+01 -0.19581274458E+02 -0.70729952019E+01  0.21684891245E+02  0.12700000000E+01 0. -1.
          2    1    1    2  502    0 -0.95103404603E+02  0.17386462670E+03  0.57071359689E+03  0.60414201614E+03  0.00000000000E+00 0. -1.
          1    1    1    2  503    0  0.16940459851E+02 -0.26472994716E+02 -0.10537219624E+03  0.10995953060E+03  0.00000000000E+00 0. -1.
<mgrwt>
<rscale>  0 0.76748623E+02</rscale>
<asrwt>0</asrwt>
<pdfrwt beam="2">  1        2 0.24056552E-01 0.31429264E+02</pdfrwt>
<pdfrwt beam="1">  1        1 0.14298099E+00 0.18741613E+03</pdfrwt>
<totfact> 0.52811942E+02</totfact>
</mgrwt>
</event>
<event>
 7    1  0.4252091E-004  0.6073264E+02  0.7546771E-02  0.1409161E+00
         -1   -1    0    0    0  501 -0.00000000000E+00  0.00000000000E+00  0.22633590493E+02  0.22633590493E+02  0.00000000000E+00 0.  1.
          1   -1    0    0  503    0  0.00000000000E+00 -0.00000000000E+00 -0.27261564332E+04  0.27261564332E+04  0.00000000000E+00 0. -1.
         25    2    1    2    0    0  0.64440270975E+02 -0.90414334889E+02 -0.17987916690E+04  0.18065445366E+04  0.12499757535E+03 0.  0.
          4    1    3    3  502    0 -0.99619800216E+00 -0.99868080144E+02 -0.97483932110E+03  0.97994282522E+03  0.12700000000E+01 0.  1.
         -4    1    3    3    0  502  0.65436468978E+02  0.94537452549E+01 -0.82395234791E+03  0.82660171140E+03  0.12700000000E+01 0.  1.
          2    1    1    2  503    0 -0.40514773368E+02  0.36025657189E+02 -0.87338404439E+03  0.87506513119E+03  0.00000000000E+00 0. -1.
         -2    1    1    2    0  501 -0.23925497607E+02  0.54388677700E+02 -0.31347129287E+02  0.67180355851E+02  0.00000000000E+00 0.  1.
<mgrwt>
<rscale>  0 0.57381495E+02</rscale>
<asrwt>0</asrwt>
<pdfrwt beam="2">  1        1 0.41940857E+00 0.54215264E+02</pdfrwt>
<pdfrwt beam="1">  1       -1 0.34820917E-02 0.60732637E+02</pdfrwt>
<totfact> 0.37216892E+02</totfact>
</mgrwt>
</event>
<event>
 7    1  0.4252091E-004  0.1629020E+03  0.7546771E-02  0.1321217E+00
          1   -1    0    0  502    0 -0.00000000000E+00  0.00000000000E+00  0.73669568470E+03  0.73669568470E+03  0.00000000000E+00 0. -1.
          2   -1    0    0  503    0  0.00000000000E+00 -0.00000000000E+00 -0.10538750929E+04  0.10538750929E+04  0.00000000000E+00 0. -1.
         25    2    1    2    0    0  0.12514548041E+03  0.33939545147E+02 -0.26326651171E+02  0.18201859755E+03  0.12499757318E+03 0.  0.
          4    1    3    3  501    0  0.14450792399E+03  0.43237213932E+02 -0.40583894033E+02  0.15620711290E+03  0.12700000000E+01 0.  1.
         -4    1    3    3    0  501 -0.19362443578E+02 -0.92976687851E+01  0.14257242861E+02  0.25811484656E+02  0.12700000000E+01 0.  1.
          2    1    1    2  502    0 -0.16509345505E+03 -0.20612556189E+02  0.64786668265E+03  0.66888860422E+03  0.00000000000E+00 0. -1.
          1    1    1    2  503    0  0.39947974638E+02 -0.13326988958E+02 -0.93871943971E+03  0.93966357586E+03  0.00000000000E+00 0. -1.
<mgrwt>
<rscale>  0 0.82826232E+02</rscale>
<asrwt>0</asrwt>
<pdfrwt beam="2">  1        2 0.16213463E+00 0.42112342E+02</pdfrwt>
<pdfrwt beam="1">  1        1 0.11333780E+00 0.16290200E+03</pdfrwt>
<totfact> 0.98873441E+01</totfact>
</mgrwt>
</event>
<event>
 7    1  0.4252091E-004  0.8045521E+02  0.7546771E-02  0.1418725E+00
          2   -1    0    0  503    0  0.00000000000E+00  0.00000000000E+00  0.17642664041E+04  0.17642664041E+04  0.00000000000E+00 0. -1.
         -2   -1    0    0    0  501 -0.00000000000E+00 -0.00000000000E+00 -0.16385064473E+03  0.16385064473E+03  0.00000000000E+00 0.  1.
         25    2    1    2    0    0 -0.14222704608E+02 -0.97434550721E+02  0.14415485651E+03  0.21469920242E+03  0.12497738941E+03 0.  0.
          4    1    3    3  502    0 -0.60100491868E+02 -0.11147403643E+02  0.49848889605E+02  0.78885096347E+02  0.12700000000E+01 0.  1.
         -4    1    3    3    0  502  0.45877787261E+02 -0.86287147078E+02  0.94305966903E+02  0.13581410607E+03  0.12700000000E+01 0.  1.
          1    1    1    2  503    0 -0.18419770969E+02  0.77983467841E+02  0.15809950177E+04  0.15830243066E+04  0.00000000000E+00 0. -1.
         -1    1    1    2    0  501  0.32642475577E+02  0.19451082880E+02 -0.12473411482E+03  0.13039353986E+03  0.00000000000E+00 0.  1.
<mgrwt>
<rscale>  0 0.55291651E+02</rscale>
<asrwt>0</asrwt>
<pdfrwt beam="1">  1        2 0.27142559E+00 0.80455214E+02</pdfrwt>
<pdfrwt beam="2">  1       -2 0.25207793E-01 0.37998366E+02</pdfrwt>
<totfact> 0.14746397E+02</totfact>
</mgrwt>
</event>
<event>
 7    1  0.4252091E-004  0.1160099E+03  0.7546771E-02  0.1367276E+00
          1   -1    0    0  502    0 -0.00000000000E+00  0.00000000000E+00  0.10874492357E+04  0.10874492357E+04  0.00000000000E+00 0. -1.
          2   -1    0    0  503    0  0.00000000000E+00 -0.00000000000E+00 -0.13106398180E+04  0.13106398180E+04  0.00000000000E+00 0. -1.
         25    2    1    2    0    0  0.81057681810E+02 -0.38423152711E+02  0.90059341154E+02  0.17830576810E+03  0.12504229511E+03 0.  0.
          4    1    3    3  501    0  0.99149811013E+02 -0.94444867770E+01  0.10154432007E+03  0.14224185457E+03  0.12700000000E+01 0.  1.
         -4    1    3    3    0  501 -0.18092129203E+02 -0.28978665934E+02 -0.11484978914E+02  0.36063913530E+02  0.12700000000E+01 0.  1.
          2    1    1    2  502    0 -0.89823900051E+02  0.77222254244E+02  0.94927236935E+03  0.95663453878E+03  0.00000000000E+00 0. -1.
          1    1    1    2  503    0  0.87662182406E+01 -0.38799101533E+02 -0.12625222927E+04  0.12631487468E+04  0.00000000000E+00 0. -1.
<mgrwt>
<rscale>  0 0.67930378E+02</rscale>
<asrwt>0</asrwt>
<pdfrwt beam="2">  1        2 0.20163689E+00 0.39777090E+02</pdfrwt>
<pdfrwt beam="1">  1        1 0.16729988E+00 0.11600990E+03</pdfrwt>
<totfact> 0.39833025E+01</totfact>
</mgrwt>
</event>
<event>
 7    1  0.4252091E-004  0.9817809E+02  0.7546771E-02  0.1377573E+00
          1   -1    0    0  502    0 -0.00000000000E+00  0.00000000000E+00  0.10527662868E+04  0.10527662868E+04  0.00000000000E+00 0. -1.
          2   -1    0    0  503    0  0.00000000000E+00 -0.00000000000E+00 -0.66313694932E+03  0.66313694932E+03  0.00000000000E+00 0. -1.
         25    2    1    2    0    0 -0.32532379351E+02 -0.82963840940E+02 -0.10651220795E+03  0.18690635615E+03  0.12509109047E+03 0.  0.
          4    1    3    3  501    0 -0.43973675440E+02 -0.67435278236E+02 -0.19157273707E+01  0.80538709909E+02  0.12700000000E+01 0.  1.
         -4    1    3    3    0  501  0.11441296088E+02 -0.15528562704E+02 -0.10459648058E+03  0.10636764624E+03  0.12700000000E+01 0.  1.
          2    1    1    2  502    0  0.72500247059E+02  0.66635827822E+02  0.10092664279E+04  0.10140588453E+04  0.00000000000E+00 0. -1.
          1    1    1    2  503    0 -0.39967867708E+02  0.16328013118E+02 -0.51312488248E+03  0.51493803461E+03  0.00000000000E+00 0. -1.
<mgrwt>
<rscale>  0 0.65105963E+02</rscale>
<asrwt>0</asrwt>
<pdfrwt beam="2">  1        2 0.10202107E+00 0.43174465E+02</pdfrwt>
<pdfrwt beam="1">  1        1 0.16196404E+00 0.98178086E+02</pdfrwt>
<totfact> 0.10099323E+02</totfact>
</mgrwt>
</event>
<event>
 7    1  0.4252091E-004  0.7800569E+02  0.7546771E-02  0.1379793E+00
          2   -1    0    0  503    0  0.00000000000E+00  0.00000000000E+00  0.73425069785E+03  0.73425069785E+03  0.00000000000E+00 0. -1.
          1   -1    0    0  502    0 -0.00000000000E+00 -0.00000000000E+00 -0.12257676646E+03  0.12257676646E+03  0.00000000000E+00 0. -1.
         25    2    1    2    0    0 -0.29572803330E+02  0.50912609987E+02  0.19434671333E+03  0.23845268611E+03  0.12498957547E+03 0.  0.
          4    1    3    3  501    0  0.26553341640E+02  0.36470008286E+02  0.11408935494E+02  0.46550168268E+02  0.12700000000E+01 0. -1.
         -4    1    3    3    0  501 -0.56126144970E+02  0.14442601700E+02  0.18293777784E+03  0.19190251784E+03  0.12700000000E+01 0. -1.
          2    1    1    2  502    0 -0.15834683463E+02 -0.78943576618E+02 -0.82750692302E+02  0.11545779561E+03  0.00000000000E+00 0. -1.
          1    1    1    2  503    0  0.45407486793E+02  0.28030966632E+02  0.50007791036E+03  0.50291698259E+03  0.00000000000E+00 0. -1.
<mgrwt>
<rscale>  0 0.64518154E+02</rscale>
<asrwt>0</asrwt>
<pdfrwt beam="1">  1        2 0.11296164E+00 0.53362674E+02</pdfrwt>
<pdfrwt beam="2">  1        1 0.18857965E-01 0.78005690E+02</pdfrwt>
<totfact> 0.14959463E+03</totfact>
</mgrwt>
</event>
<event>
 7    1  0.4252091E-004  0.1936062E+03  0.7546771E-02  0.1238089E+00
         -1   -1    0    0    0  501 -0.00000000000E+00  0.00000000000E+00  0.11298032121E+03  0.11298032121E+03  0.00000000000E+00 0.  1.
          1   -1    0    0  503    0  0.00000000000E+00 -0.00000000000E+00 -0.17322923878E+04  0.17322923878E+04  0.00000000000E+00 0. -1.
         25    2    1    2    0    0 -0.37281846618E+02  0.22622974532E+03 -0.21055156635E+03  0.33545115757E+03  0.12500273304E+03 0.  0.
          4    1    3    3  502    0 -0.47641344339E+02  0.15858761737E+02 -0.46868940071E+02  0.68698678719E+02  0.12700000000E+01 0.  1.
         -4    1    3    3    0  502  0.10359497721E+02  0.21037098358E+03 -0.16368262628E+03  0.26675247885E+03  0.12700000000E+01 0.  1.
          2    1    1    2  503    0  0.90097628607E+02 -0.16848716608E+03 -0.14181888720E+04  0.14310014621E+04  0.00000000000E+00 0. -1.
         -2    1    1    2    0  501 -0.52815781988E+02 -0.57742579236E+02  0.94283718040E+01  0.78820089309E+02  0.00000000000E+00 0.  1.
<mgrwt>
<rscale>  0 0.12308734E+03</rscale>
<asrwt>0</asrwt>
<pdfrwt beam="2">  1        1 0.26650650E+00 0.19360625E+03</pdfrwt>
<pdfrwt beam="1">  1       -1 0.17381589E-01 0.78254152E+02</pdfrwt>
<totfact> 0.12688989E+02</totfact>
</mgrwt>
</event>
<event>
 7    1  0.4252091E-004  0.7774608E+02  0.7546771E-02  0.1376453E+00
          1   -1    0    0  502    0 -0.00000000000E+00  0.00000000000E+00  0.98854658487E+02  0.98854658487E+02  0.00000000000E+00 0. -1.
          2   -1    0    0  503    0  0.00000000000E+00 -0.00000000000E+00 -0.45999916394E+03  0.45999916394E+03  0.00000000000E+00 0. -1.
         25    2    1    2    0    0 -0.26003484106E+02 -0.16020399625E+02 -0.14389855660E+03  0.19304558018E+03  0.12500786793E+03 0.  0.
          4    1    3    3  501    0 -0.71742826787E+02 -0.43877512262E+01 -0.12059266858E+03  0.14039405319E+03  0.12700000000E+01 0. -1.
         -4    1    3    3    0  501  0.45739342680E+02 -0.11632648398E+02 -0.23305888022E+02  0.52651526987E+02  0.12700000000E+01 0. -1.
          2    1    1    2  502    0  0.63616250591E+02  0.56181076825E+02  0.46231078847E+02  0.96647055743E+02  0.00000000000E+00 0. -1.
          3    1    1    2  503    0 -0.37612766485E+02 -0.40160677200E+02 -0.26347702770E+03  0.26916118651E+03  0.00000000000E+00 0. -1.
<mgrwt>
<rscale>  0 0.65405443E+02</rscale>
<asrwt>0</asrwt>
<pdfrwt beam="2">  1        2 0.70769103E-01 0.55023633E+02</pdfrwt>
<pdfrwt beam="1">  1        1 0.15208409E-01 0.77746084E+02</pdfrwt>
<totfact> 0.32651139E+03</totfact>
</mgrwt>
</event>
<event>
 7    1  0.4252091E-004  0.8021709E+02  0.7546771E-02  0.1418961E+00
         -2   -1    0    0    0  501 -0.00000000000E+00  0.00000000000E+00  0.19962219895E+03  0.19962219895E+03  0.00000000000E+00 0.  1.
          2   -1    0    0  503    0  0.00000000000E+00 -0.00000000000E+00 -0.20321035619E+04  0.20321035619E+04  0.00000000000E+00 0. -1.
         25    2    1    2    0    0 -0.49460689945E+02  0.44284677889E+02 -0.18051035621E+02  0.14268451582E+03  0.12500215447E+03 0.  0.
          4    1    3    3  502    0 -0.81973584278E+02  0.15180453525E+02  0.18898090598E+02  0.85491902639E+02  0.12700000000E+01 0. -1.
         -4    1    3    3    0  502  0.32512894333E+02  0.29104224364E+02 -0.36949126219E+02  0.57192613178E+02  0.12700000000E+01 0. -1.
          1    1    1    2  503    0  0.78154271879E+02 -0.19307635946E+02 -0.19482535110E+04  0.19499160541E+04  0.00000000000E+00 0. -1.
         -1    1    1    2    0  501 -0.28693581934E+02 -0.24977041943E+02  0.13382318365E+03  0.13912519093E+03  0.00000000000E+00 0.  1.
<mgrwt>
<rscale>  0 0.55241271E+02</rscale>
<asrwt>0</asrwt>
<pdfrwt beam="2">  1        2 0.31263132E+00 0.80217091E+02</pdfrwt>
<pdfrwt beam="1">  1       -2 0.30711108E-01 0.38041744E+02</pdfrwt>
<totfact> 0.77205479E+01</totfact>
</mgrwt>
</event>
<event>
 7    1  0.4252091E-004  0.7360747E+02  0.7546771E-02  0.1467197E+00
          1   -1    0    0  502    0 -0.00000000000E+00  0.00000000000E+00  0.24958658659E+03  0.24958658659E+03  0.00000000000E+00 0. -1.
          2   -1    0    0  503    0  0.00000000000E+00 -0.00000000000E+00 -0.10704220624E+04  0.10704220624E+04  0.00000000000E+00 0. -1.
         25    2    1    2    0    0  0.80482612323E+02 -0.97093477374E+01 -0.46601853488E+03  0.48925483965E+03  0.12500120380E+03 0.  0.
          4    1    3    3  501    0 -0.13969007836E+02 -0.71722878114E+01 -0.28156660000E+03  0.28200698223E+03  0.12700000000E+01 0. -1.
         -4    1    3    3    0  501  0.94451620159E+02 -0.25370599259E+01 -0.18445193488E+03  0.20724785742E+03  0.12700000000E+01 0. -1.
          2    1    1    2  502    0 -0.65122382857E+02  0.34252824565E+02  0.23191498856E+03  0.24330791738E+03  0.00000000000E+00 0. -1.
          1    1    1    2  503    0 -0.15360229466E+02 -0.24543476828E+02 -0.58673192947E+03  0.58744589195E+03  0.00000000000E+00 0. -1.
<mgrwt>
<rscale>  0 0.46165044E+02</rscale>
<asrwt>0</asrwt>
<pdfrwt beam="2">  1        2 0.16468032E+00 0.28953737E+02</pdfrwt>
<pdfrwt beam="1">  1        1 0.38397936E-01 0.73607469E+02</pdfrwt>
<totfact> 0.40408922E+02</totfact>
</mgrwt>
</event>
<event>
 7    1  0.4252091E-004  0.4994016E+02  0.7546771E-02  0.1464926E+00
          1   -1    0    0  502    0 -0.00000000000E+00  0.00000000000E+00  0.12865335446E+03  0.12865335446E+03  0.00000000000E+00 0. -1.
          2   -1    0    0  503    0  0.00000000000E+00 -0.00000000000E+00 -0.29675896240E+04  0.29675896240E+04  0.00000000000E+00 0. -1.
         25    2    1    2    0    0 -0.19610447667E+02 -0.14898435388E+02  0.17817983771E+02  0.12864712979E+03  0.12500428162E+03 0.  0.
          4    1    3    3  501    0  0.38694469785E+02  0.33340095637E+02  0.92412603696E+00  0.51100791363E+02  0.12700000000E+01 0.  1.
         -4    1    3    3    0  501 -0.58304917452E+02 -0.48238531025E+02  0.16893857734E+02  0.77546338429E+02  0.12700000000E+01 0.  1.
          2    1    1    2  502    0  0.58447051455E+02 -0.44265303103E+01  0.39714814269E+02  0.70801966546E+02  0.00000000000E+00 0. -1.
          1    1    1    2  503    0 -0.38836603788E+02  0.19324965699E+02 -0.28964690676E+04  0.28967938821E+04  0.00000000000E+00 0. -1.
<mgrwt>
<rscale>  0 0.46544101E+02</rscale>
<asrwt>0</asrwt>
<pdfrwt beam="2">  1        2 0.45655224E+00 0.43378982E+02</pdfrwt>
<pdfrwt beam="1">  1        1 0.19792824E-01 0.49940162E+02</pdfrwt>
<totfact> 0.97048769E+01</totfact>
</mgrwt>
</event>
<event>
 7    1  0.4252091E-004  0.6844744E+02  0.7546771E-02  0.1423476E+00
         -1   -1    0    0    0  501 -0.00000000000E+00  0.00000000000E+00  0.94918100590E+02  0.94918100590E+02  0.00000000000E+00 0.  1.
          3   -1    0    0  503    0  0.00000000000E+00 -0.00000000000E+00 -0.69525526799E+03  0.69525526799E+03  0.00000000000E+00 0. -1.
         25    2    1    2    0    0  0.93131545053E+02 -0.98727528871E+01 -0.26144640756E+03  0.30455404572E+03  0.12501194665E+03 0.  0.
          4    1    3    3  502    0  0.15781832260E+01 -0.32400293181E+02 -0.70160466647E+01  0.33213061757E+02  0.12700000000E+01 0. -1.
         -4    1    3    3    0  502  0.91553361827E+02  0.22527540294E+02 -0.25443036090E+03  0.27134098397E+03  0.12700000000E+01 0. -1.
          2    1    1    2  503    0 -0.57099802466E+02  0.33457588428E+02 -0.40299512305E+03  0.40839302990E+03  0.00000000000E+00 0. -1.
         -2    1    1    2    0  501 -0.36031742587E+02 -0.23584835541E+02  0.64104363214E+02  0.77226292960E+02  0.00000000000E+00 0.  1.
<mgrwt>
<rscale>  0 0.54292159E+02</rscale>
<asrwt>0</asrwt>
<pdfrwt beam="2">  1        3 0.10696235E+00 0.68447435E+02</pdfrwt>
<pdfrwt beam="1">  1       -1 0.14602785E-01 0.43064265E+02</pdfrwt>
<totfact> 0.10619796E+02</totfact>
</mgrwt>
</event>
<event>
 7    1  0.4252091E-004  0.8402608E+02  0.7546771E-02  0.1318643E+00
         -1   -1    0    0    0  501 -0.00000000000E+00  0.00000000000E+00  0.26318158581E+03  0.26318158581E+03  0.00000000000E+00 0.  1.
          1   -1    0    0  503    0  0.00000000000E+00 -0.00000000000E+00 -0.26305377760E+03  0.26305377760E+03  0.00000000000E+00 0. -1.
         25    2    1    2    0    0  0.58354629297E+01 -0.44214971111E+01  0.63277024492E+02  0.14029518012E+03  0.12500061388E+03 0.  0.
          4    1    3    3  502    0  0.34690875563E+02 -0.24765209487E+02  0.87583331900E+02  0.97412655107E+02  0.12700000000E+01 0.  1.
         -4    1    3    3    0  502 -0.28855412633E+02  0.20343712376E+02 -0.24306307408E+02  0.42882525011E+02  0.12700000000E+01 0.  1.
          2    1    1    2  503    0 -0.48559864218E+02  0.76774847475E+02 -0.20321961182E+03  0.22259974898E+03  0.00000000000E+00 0. -1.
         -2    1    1    2    0  501  0.42724401288E+02 -0.72353350364E+02  0.14007039554E+03  0.16334043431E+03  0.00000000000E+00 0.  1.
<mgrwt>
<rscale>  0 0.83784026E+02</rscale>
<asrwt>0</asrwt>
<pdfrwt beam="2">  1        1 0.40469812E-01 0.83542671E+02</pdfrwt>
<pdfrwt beam="1">  1       -1 0.40489475E-01 0.84026078E+02</pdfrwt>
<totfact> 0.62430756E+02</totfact>
</mgrwt>
</event>
<event>
 7    1  0.4252091E-004  0.5433839E+02  0.7546771E-02  0.1454831E+00
          2   -1    0    0  503    0  0.00000000000E+00  0.00000000000E+00  0.23186667634E+04  0.23186667634E+04  0.00000000000E+00 0. -1.
         -2   -1    0    0    0  501 -0.00000000000E+00 -0.00000000000E+00 -0.18593191065E+03  0.18593191065E+03  0.00000000000E+00 0.  1.
         25    2    1    2    0    0  0.95842433866E+02 -0.73066924880E+01  0.25151474304E+03  0.29685696516E+03  0.12500092764E+03 0.  0.
          4    1    3    3  502    0  0.97341985887E+02  0.94551347521E+01  0.26012878573E+03  0.27790908559E+03  0.12700000000E+01 0.  1.
         -4    1    3    3    0  502 -0.14995520214E+01 -0.16761827240E+02 -0.86140426860E+01  0.18947879567E+02  0.12700000000E+01 0.  1.
          1    1    1    2  503    0 -0.42879559218E+02 -0.13824549737E+01  0.20398382636E+04  0.20402893691E+04  0.00000000000E+00 0. -1.
         -1    1    1    2    0  501 -0.52962874648E+02  0.86891474618E+01 -0.15861815390E+03  0.16745233985E+03  0.00000000000E+00 0.  1.
<mgrwt>
<rscale>  0 0.48282677E+02</rscale>
<asrwt>0</asrwt>
<pdfrwt beam="1">  1        2 0.35671794E+00 0.42901839E+02</pdfrwt>
<pdfrwt beam="2">  1       -2 0.28604911E-01 0.54338391E+02</pdfrwt>
<totfact> 0.68936748E+01</totfact>
</mgrwt>
</event>
<event>
 7    1  0.4252091E-004  0.7669544E+02  0.7546771E-02  0.1370355E+00
          2   -1    0    0  503    0  0.00000000000E+00  0.00000000000E+00  0.17083705483E+04  0.17083705483E+04  0.00000000000E+00 0. -1.
         -2   -1    0    0    0  501 -0.00000000000E+00 -0.00000000000E+00 -0.56070353768E+02  0.56070353768E+02  0.00000000000E+00 0.  1.
         25    2    1    2    0    0 -0.32602463395E+02  0.22878221619E+02  0.33816133742E+03  0.36272469465E+03  0.12501911989E+03 0.  0.
          4    1    3    3  502    0 -0.10586654531E+02 -0.49822211100E+02  0.92747548560E+02  0.10582084217E+03  0.12700000000E+01 0. -1.
         -4    1    3    3    0  502 -0.22015808865E+02  0.72700432719E+02  0.24541378886E+03  0.25690385249E+03  0.12700000000E+01 0. -1.
          1    1    1    2  503    0 -0.48664507903E+02 -0.32735106973E+02  0.13184370250E+04  0.13197408876E+04  0.00000000000E+00 0. -1.
         -1    1    1    2    0  501  0.81266971298E+02  0.98568853539E+01 -0.42981678680E+01  0.81975319822E+02  0.00000000000E+00 0.  1.
<mgrwt>
<rscale>  0 0.67068525E+02</rscale>
<asrwt>0</asrwt>
<pdfrwt beam="1">  1        2 0.26282620E+00 0.58649992E+02</pdfrwt>
<pdfrwt beam="2">  1       -2 0.86262096E-02 0.76695443E+02</pdfrwt>
<totfact> 0.94002811E+02</totfact>
</mgrwt>
</event>
<event>
 7    1  0.4252091E-004  0.9426146E+02  0.7546771E-02  0.1393515E+00
          1   -1    0    0  502    0 -0.00000000000E+00  0.00000000000E+00  0.46605820213E+03  0.46605820213E+03  0.00000000000E+00 0. -1.
          2   -1    0    0  503    0  0.00000000000E+00 -0.00000000000E+00 -0.13027807038E+03  0.13027807038E+03  0.00000000000E+00 0. -1.
         25    2    1    2    0    0 -0.45388281029E+02 -0.43913058089E+02  0.10969843420E+03  0.17790473410E+03  0.12501158036E+03 0.  0.
          4    1    3    3  501    0 -0.40692634803E+02 -0.37975053282E+02 -0.11177702981E+02  0.56785113744E+02  0.12700000000E+01 0.  1.
         -4    1    3    3    0  501 -0.46956462261E+01 -0.59380048071E+01  0.12087613718E+03  0.12111962035E+03  0.12700000000E+01 0.  1.
          2    1    1    2  502    0  0.80191420850E+02  0.62654050782E+02  0.30967289443E+03  0.32596548223E+03  0.00000000000E+00 0. -1.
          1    1    1    2  503    0 -0.34803139821E+02 -0.18740992693E+02 -0.83591196889E+02  0.92466056182E+02  0.00000000000E+00 0. -1.
<mgrwt>
<rscale>  0 0.61040900E+02</rscale>
<asrwt>0</asrwt>
<pdfrwt beam="2">  1        2 0.20042780E-01 0.39528260E+02</pdfrwt>
<pdfrwt beam="1">  1        1 0.71701261E-01 0.94261460E+02</pdfrwt>
<totfact> 0.17703332E+03</totfact>
</mgrwt>
</event>
<event>
 7    1  0.4252091E-004  0.7976755E+02  0.7546771E-02  0.1374829E+00
          2   -1    0    0  503    0  0.00000000000E+00  0.00000000000E+00  0.37620720749E+03  0.37620720749E+03  0.00000000000E+00 0. -1.
         -2   -1    0    0    0  501 -0.00000000000E+00 -0.00000000000E+00 -0.87646967306E+03  0.87646967306E+03  0.00000000000E+00 0.  1.
         25    2    1    2    0    0  0.31114714616E+01 -0.55461087704E+02 -0.54724134606E+03  0.56406260884E+03  0.12493167073E+03 0.  0.
          4    1    3    3  502    0 -0.31193101307E+01 -0.35970318892E+01 -0.47435882878E+03  0.47438442225E+03  0.12700000000E+01 0. -1.
         -4    1    3    3    0  502  0.62307815924E+01 -0.51864055815E+02 -0.72882517281E+02  0.89678186590E+02  0.12700000000E+01 0. -1.
          1    1    1    2  503    0 -0.23136577310E+02 -0.49178161360E+02  0.35683703955E+03  0.36095216519E+03  0.00000000000E+00 0. -1.
         -1    1    1    2    0  501  0.20025105849E+02  0.10463924906E+03 -0.30985815906E+03  0.32766210652E+03  0.00000000000E+00 0.  1.
<mgrwt>
<rscale>  0 0.65842777E+02</rscale>
<asrwt>0</asrwt>
<pdfrwt beam="1">  1        2 0.57878033E-01 0.54348806E+02</pdfrwt>
<pdfrwt beam="2">  1       -2 0.13484148E+00 0.79767553E+02</pdfrwt>
<totfact> 0.38007115E+01</totfact>
</mgrwt>
</event>
<event>
 7    1  0.4252091E-004  0.7524152E+02  0.7546771E-02  0.1371875E+00
          1   -1    0    0  502    0 -0.00000000000E+00  0.00000000000E+00  0.33484302615E+03  0.33484302615E+03  0.00000000000E+00 0. -1.
          2   -1    0    0  503    0  0.00000000000E+00 -0.00000000000E+00 -0.22595251571E+04  0.22595251571E+04  0.00000000000E+00 0. -1.
         25    2    1    2    0    0 -0.53218179421E+01  0.36624637310E+02  0.48585520392E+02  0.13912251261E+03  0.12499933967E+03 0.  0.
          4    1    3    3  501    0  0.92409350193E+01  0.61449319307E+02 -0.19542968109E+02  0.65153313237E+02  0.12700000000E+01 0. -1.
         -4    1    3    3    0  501 -0.14562752961E+02 -0.24824681997E+02  0.68128488500E+02  0.73969199370E+02  0.12700000000E+01 0. -1.
          2    1    1    2  502    0  0.61408669658E+02 -0.55054764784E+02  0.23352626030E+03  0.24766220156E+03  0.00000000000E+00 0. -1.
          1    1    1    2  503    0 -0.56086851716E+02  0.18430127474E+02 -0.22067939116E+04  0.22075834691E+04  0.00000000000E+00 0. -1.
<mgrwt>
<rscale>  0 0.66648760E+02</rscale>
<asrwt>0</asrwt>
<pdfrwt beam="2">  1        2 0.34761925E+00 0.59037315E+02</pdfrwt>
<pdfrwt beam="1">  1        1 0.51514313E-01 0.75241518E+02</pdfrwt>
<totfact> 0.68294943E+01</totfact>
</mgrwt>
</event>
<event>
 7    1  0.4252091E-004  0.5951349E+02  0.7546771E-02  0.1445239E+00
         -2   -1    0    0    0  501 -0.00000000000E+00  0.00000000000E+00  0.82340440075E+02  0.82340440075E+02  0.00000000000E+00 0.  1.
          2   -1    0    0  503    0  0.00000000000E+00 -0.00000000000E+00 -0.31797665853E+04  0.31797665853E+04  0.00000000000E+00 0. -1.
         25    2    1    2    0    0 -0.18840083220E+02  0.94955240399E+02 -0.13098250770E+04  0.13193338591E+04  0.12501461130E+03 0.  0.
          4    1    3    3  502    0 -0.10638188764E+02  0.11918438433E+03 -0.12221556523E+04  0.12280000570E+04  0.12700000000E+01 0.  1.
         -4    1    3    3    0  502 -0.82018944557E+01 -0.24229143935E+02 -0.87669424645E+02  0.91333802100E+02  0.12700000000E+01 0.  1.
          1    1    1    2  503    0  0.19106328845E+02 -0.52916877887E+02 -0.18590355219E+04  0.18598866416E+04  0.00000000000E+00 0. -1.
         -1    1    1    2    0  501 -0.26624562508E+00 -0.42038362512E+02  0.71434453664E+02  0.82886524717E+02  0.00000000000E+00 0.  1.
<mgrwt>
<rscale>  0 0.50018993E+02</rscale>
<asrwt>0</asrwt>
<pdfrwt beam="2">  1        2 0.48919487E+00 0.59513486E+02</pdfrwt>
<pdfrwt beam="1">  1       -2 0.12667760E-01 0.42039206E+02</pdfrwt>
<totfact> 0.85367531E+01</totfact>
</mgrwt>
</event>
<event>
 7    1  0.4252091E-004  0.1348431E+03  0.7546771E-02  0.1299995E+00
          2   -1    0    0  503    0  0.00000000000E+00  0.00000000000E+00  0.11920415380E+04  0.11920415380E+04  0.00000000000E+00 0. -1.
          1   -1    0    0  502    0 -0.00000000000E+00 -0.00000000000E+00 -0.30026403721E+04  0.30026403721E+04  0.00000000000E+00 0. -1.
         25    2    1    2    0    0 -0.30944292067E+02  0.14676277310E+03  0.28254784365E+03  0.34344446497E+03  0.12499582306E+03 0.  0.
          4    1    3    3  501    0  0.18499197756E+02  0.54667564432E+02  0.20404838733E+02  0.61226899825E+02  0.12700000000E+01 0.  1.
         -4    1    3    3    0  501 -0.49443489822E+02  0.92095208667E+02  0.26214300492E+03  0.28221756514E+03  0.12700000000E+01 0.  1.
          2    1    1    2  502    0 -0.48230456221E+02 -0.38430384217E+02 -0.29667492713E+04  0.29673901513E+04  0.00000000000E+00 0. -1.
          3    1    1    2  503    0  0.79174748288E+02 -0.10833238888E+03  0.87360259362E+03  0.88384729384E+03  0.00000000000E+00 0. -1.
<mgrwt>
<rscale>  0 0.91190168E+02</rscale>
<asrwt>0</asrwt>
<pdfrwt beam="1">  1        2 0.18339101E+00 0.13484312E+03</pdfrwt>
<pdfrwt beam="2">  1        1 0.46194467E+00 0.61669047E+02</pdfrwt>
<totfact> 0.26803139E+00</totfact>
</mgrwt>
</event>
<event>
 7    1  0.4252091E-004  0.4490435E+02  0.7546771E-02  0.1489634E+00
          2   -1    0    0  503    0  0.00000000000E+00  0.00000000000E+00  0.14898092871E+03  0.14898092871E+03  0.00000000000E+00 0. -1.
          1   -1    0    0  502    0 -0.00000000000E+00 -0.00000000000E+00 -0.14755336982E+04  0.14755336982E+04  0.00000000000E+00 0. -1.
         25    2    1    2    0    0  0.28612950975E+02  0.12278179872E+02 -0.89288402367E+02  0.15673511293E+03  0.12499608859E+03 0.  0.
          4    1    3    3  501    0 -0.41376197609E+02 -0.24618712226E+02 -0.45702131352E+02  0.66395545260E+02  0.12700000000E+01 0.  1.
         -4    1    3    3    0  501  0.69989148584E+02  0.36896892098E+02 -0.43586271015E+02  0.90339567671E+02  0.12700000000E+01 0.  1.
          2    1    1    2  502    0 -0.47469919517E+01 -0.44987488213E+02 -0.13485748139E+04  0.13493333305E+04  0.00000000000E+00 0. -1.
          1    1    1    2  503    0 -0.23865959023E+02  0.32709308341E+02  0.11131044672E+03  0.11844618357E+03  0.00000000000E+00 0. -1.
<mgrwt>
<rscale>  0 0.42640368E+02</rscale>
<asrwt>0</asrwt>
<pdfrwt beam="1">  1        2 0.22920143E-01 0.40490528E+02</pdfrwt>
<pdfrwt beam="2">  1        1 0.22700518E+00 0.44904355E+02</pdfrwt>
<totfact> 0.26768720E+02</totfact>
</mgrwt>
</event>
<event>
 7    1  0.4252091E-004  0.5586562E+02  0.7546771E-02  0.1538733E+00
         -1   -1    0    0    0  501 -0.00000000000E+00  0.00000000000E+00  0.40448044536E+03  0.40448044536E+03  0.00000000000E+00 0.  1.
          1   -1    0    0  503    0  0.00000000000E+00 -0.00000000000E+00 -0.35568094113E+02  0.35568094113E+02  0.00000000000E+00 0. -1.
         25    2    1    2    0    0  0.25866493857E+02 -0.30909161535E+02  0.16196769835E+03  0.20852553125E+03  0.12499964041E+03 0.  0.
          4    1    3    3  502    0 -0.49524913869E+02 -0.17784954512E+02  0.47955152867E+02  0.71206258764E+02  0.12700000000E+01 0. -1.
         -4    1    3    3    0  502  0.75391407725E+02 -0.13124207024E+02  0.11401254549E+03  0.13731927249E+03  0.12700000000E+01 0. -1.
          2    1    1    2  503    0 -0.43956280028E+02  0.45712703977E+02  0.78244948634E+02  0.10071781295E+03  0.00000000000E+00 0. -1.
         -2    1    1    2    0  501  0.18089786171E+02 -0.14803542442E+02  0.12869970426E+03  0.13080519527E+03  0.00000000000E+00 0.  1.
<mgrwt>
<rscale>  0 0.36136580E+02</rscale>
<asrwt>0</asrwt>
<pdfrwt beam="2">  1        1 0.54720148E-02 0.55865620E+02</pdfrwt>
<pdfrwt beam="1">  1       -1 0.62227758E-01 0.23374885E+02</pdfrwt>
<totfact> 0.36048670E+03</totfact>
</mgrwt>
</event>
<event>
 7    1  0.4252091E-004  0.1186430E+03  0.7546771E-02  0.1264502E+00
          1   -1    0    0  502    0 -0.00000000000E+00  0.00000000000E+00  0.14193912222E+04  0.14193912222E+04  0.00000000000E+00 0. -1.
          2   -1    0    0  503    0  0.00000000000E+00 -0.00000000000E+00 -0.25670921797E+04  0.25670921797E+04  0.00000000000E+00 0. -1.
         25    2    1    2    0    0  0.42494619391E+02 -0.81833508999E+02 -0.70920721763E+03  0.72602281979E+03  0.12502696287E+03 0.  0.
          4    1    3    3  501    0  0.14597478399E+02 -0.10544276455E+03 -0.62803606315E+03  0.63699464086E+03  0.12700000000E+01 0. -1.
         -4    1    3    3    0  501  0.27897140992E+02  0.23609255554E+02 -0.81171154485E+02  0.89028178931E+02  0.12700000000E+01 0. -1.
          2    1    1    2  502    0  0.52446771273E+02  0.10666988568E+03  0.14071741058E+04  0.14121855729E+04  0.00000000000E+00 0. -1.
          1    1    1    2  503    0 -0.94941390664E+02 -0.24836376682E+02 -0.18456678457E+04  0.18482750092E+04  0.00000000000E+00 0. -1.
<mgrwt>
<rscale>  0 0.10790352E+03</rscale>
<asrwt>0</asrwt>
<pdfrwt beam="2">  1        2 0.39493726E+00 0.98136198E+02</pdfrwt>
<pdfrwt beam="1">  1        1 0.21836788E+00 0.11864297E+03</pdfrwt>
<totfact> 0.50560860E+00</totfact>
</mgrwt>
</event>
<event>
 7    1  0.4252091E-004  0.7599936E+02  0.7546771E-02  0.1345080E+00
         -1   -1    0    0    0  501 -0.00000000000E+00  0.00000000000E+00  0.37817679276E+03  0.37817679276E+03  0.00000000000E+00 0.  1.
          1   -1    0    0  503    0  0.00000000000E+00 -0.00000000000E+00 -0.12059277801E+03  0.12059277801E+03  0.00000000000E+00 0. -1.
         25    2    1    2    0    0 -0.17827419339E+02 -0.31726932707E+01  0.19846032531E+03  0.23524137632E+03  0.12499648614E+03 0.  0.
          4    1    3    3  502    0 -0.61152779147E+02 -0.41942331361E+01  0.45756031561E+02  0.76501511836E+02  0.12700000000E+01 0. -1.
         -4    1    3    3    0  502  0.43325359808E+02  0.10215398654E+01  0.15270429375E+03  0.15873986449E+03  0.12700000000E+01 0. -1.
          2    1    1    2  503    0  0.55375177376E+02 -0.59719138111E+02 -0.74994796583E+02  0.11071136003E+03  0.00000000000E+00 0. -1.
         -2    1    1    2    0  501 -0.37547758037E+02  0.62891831382E+02  0.13411848602E+03  0.15281683441E+03  0.00000000000E+00 0.  1.
<mgrwt>
<rscale>  0 0.74610817E+02</rscale>
<asrwt>0</asrwt>
<pdfrwt beam="2">  1        1 0.18552735E-01 0.75999364E+02</pdfrwt>
<pdfrwt beam="1">  1       -1 0.58181045E-01 0.73247639E+02</pdfrwt>
<totfact> 0.85013449E+02</totfact>
</mgrwt>
</event>
<event>
 7    1  0.4252091E-004  0.9339811E+02  0.7546771E-02  0.1322557E+00
          1   -1    0    0  503    0  0.00000000000E+00  0.00000000000E+00  0.12354329923E+04  0.12354329923E+04  0.00000000000E+00 0. -1.
         -1   -1    0    0    0  501 -0.00000000000E+00 -0.00000000000E+00 -0.29631430517E+03  0.29631430517E+03  0.00000000000E+00 0.  1.
         25    2    1    2    0    0 -0.78438377679E+01  0.12408435945E+03  0.49577707837E+02  0.18314071927E+03  0.12499647951E+03 0.  0.
          4    1    3    3  502    0  0.43284153523E+02  0.61680914069E+02 -0.18468791714E+02  0.77593571087E+02  0.12700000000E+01 0. -1.
         -4    1    3    3    0  502 -0.51127991291E+02  0.62403445383E+02  0.68046499551E+02  0.10554714819E+03  0.12700000000E+01 0. -1.
          2    1    1    2  503    0 -0.50467430045E+02 -0.52161398730E+02  0.11085009078E+04  0.11108744464E+04  0.00000000000E+00 0. -1.
         -2    1    1    2    0  501  0.58311267813E+02 -0.71922960722E+02 -0.21895992848E+03  0.23773213185E+03  0.00000000000E+00 0.  1.
<mgrwt>
<rscale>  0 0.82333356E+02</rscale>
<asrwt>0</asrwt>
<pdfrwt beam="1">  1        1 0.19006661E+00 0.72579426E+02</pdfrwt>
<pdfrwt beam="2">  1       -1 0.45586817E-01 0.93398114E+02</pdfrwt>
<totfact> 0.59471661E+01</totfact>
</mgrwt>
</event>
<event>
 7    1  0.4252091E-004  0.4047057E+02  0.7546771E-02  0.1540743E+00
          2   -1    0    0  503    0  0.00000000000E+00  0.00000000000E+00  0.15190896266E+03  0.15190896266E+03  0.00000000000E+00 0. -1.
         -2   -1    0    0    0  501 -0.00000000000E+00 -0.00000000000E+00 -0.12813064056E+03  0.12813064056E+03  0.00000000000E+00 0.  1.
         25    2    1    2    0    0 -0.18743775624E+02 -0.38546653737E+02  0.18324184035E+02  0.13341056021E+03  0.12500171285E+03 0.  0.
          4    1    3    3  502    0  0.51580700448E+02 -0.18340870788E+01  0.15941459727E+02  0.54034022360E+02  0.12700000000E+01 0. -1.
         -4    1    3    3    0  502 -0.70324476072E+02 -0.36712566658E+02  0.23827243078E+01  0.79376537847E+02  0.12700000000E+01 0. -1.
          1    1    1    2  503    0  0.31842561709E+02 -0.54180441909E+00  0.66057302708E+02  0.73333549821E+02  0.00000000000E+00 0. -1.
         -1    1    1    2    0  501 -0.13098786085E+02  0.39088458156E+02 -0.60603164645E+02  0.73295493196E+02  0.00000000000E+00 0.  1.
<mgrwt>
<rscale>  0 0.35900878E+02</rscale>
<asrwt>0</asrwt>
<pdfrwt beam="1">  1        2 0.23370610E-01 0.31847171E+02</pdfrwt>
<pdfrwt beam="2">  1       -2 0.19712406E-01 0.40470567E+02</pdfrwt>
<totfact> 0.43030360E+03</totfact>
</mgrwt>
</event>
<event>
 7    1  0.4252091E-004  0.3035489E+02  0.7546771E-02  0.1612624E+00
          1   -1    0    0  502    0 -0.00000000000E+00  0.00000000000E+00  0.56946389758E+03  0.56946389758E+03  0.00000000000E+00 0. -1.
          2   -1    0    0  503    0  0.00000000000E+00 -0.00000000000E+00 -0.75792450322E+03  0.75792450322E+03  0.00000000000E+00 0. -1.
         25    2    1    2    0    0  0.18553996444E+02  0.50050547296E+02  0.25108440742E+02  0.13822001789E+03  0.12500012592E+03 0.  0.
          4    1    3    3  501    0 -0.37696558452E+02 -0.20524401849E+02  0.21170826549E+02  0.47875864349E+02  0.12700000000E+01 0. -1.
         -4    1    3    3    0  501  0.56250554896E+02  0.70574949145E+02  0.39376141927E+01  0.90344153538E+02  0.12700000000E+01 0. -1.
          2    1    1    2  502    0 -0.18651459216E+02 -0.19774507040E+02  0.48709380779E+03  0.48785170456E+03  0.00000000000E+00 0. -1.
          1    1    1    2  503    0  0.97462772070E-01 -0.30276040256E+02 -0.70066285417E+03  0.70131667834E+03  0.00000000000E+00 0. -1.
<mgrwt>
<rscale>  0 0.28725127E+02</rscale>
<asrwt>0</asrwt>
<pdfrwt beam="2">  1        2 0.11660377E+00 0.30354893E+02</pdfrwt>
<pdfrwt beam="1">  1        1 0.87609830E-01 0.27182863E+02</pdfrwt>
<totfact> 0.22729806E+02</totfact>
</mgrwt>
</event>
<event>
 7    1  0.4252091E-004  0.1448114E+03  0.7546771E-02  0.1289416E+00
          2   -1    0    0  503    0  0.00000000000E+00  0.00000000000E+00  0.28719488177E+03  0.28719488177E+03  0.00000000000E+00 0. -1.
          1   -1    0    0  502    0 -0.00000000000E+00 -0.00000000000E+00 -0.93348470398E+03  0.93348470398E+03  0.00000000000E+00 0. -1.
         25    2    1    2    0    0 -0.84276444527E+02 -0.11362297253E+03  0.96948701052E+02  0.21223289812E+03  0.12502421134E+03 0.  0.
          4    1    3    3  501    0  0.28453428508E+02  0.34356221031E+00  0.14038020098E+02  0.31755228500E+02  0.12700000000E+01 0.  1.
         -4    1    3    3    0  501 -0.11272987303E+03 -0.11396653474E+03  0.82910680954E+02  0.18047766962E+03  0.12700000000E+01 0.  1.
          2    1    1    2  502    0  0.28007830180E+02  0.14274424389E+03 -0.86181474441E+03  0.87400515525E+03  0.00000000000E+00 0. -1.
          1    1    1    2  503    0  0.56268614347E+02 -0.29121271357E+02  0.11857622115E+03  0.13444153238E+03  0.00000000000E+00 0. -1.
<mgrwt>
<rscale>  0 0.95785820E+02</rscale>
<asrwt>0</asrwt>
<pdfrwt beam="1">  1        2 0.44183828E-01 0.63357757E+02</pdfrwt>
<pdfrwt beam="2">  1        1 0.14361303E+00 0.14481137E+03</pdfrwt>
<totfact> 0.28887547E+02</totfact>
</mgrwt>
</event>
<event>
 7    1  0.4252091E-004  0.1160034E+03  0.7546771E-02  0.1262443E+00
          2   -1    0    0  503    0  0.00000000000E+00  0.00000000000E+00  0.10772745875E+04  0.10772745875E+04  0.00000000000E+00 0. -1.
          1   -1    0    0  502    0 -0.00000000000E+00 -0.00000000000E+00 -0.23601585178E+04  0.23601585178E+04  0.00000000000E+00 0. -1.
         25    2    1    2    0    0  0.25776661991E+02  0.60693507853E+02 -0.51882059682E+03  0.53772645642E+03  0.12500716800E+03 0.  0.
          4    1    3    3  501    0  0.99147040435E+01  0.87433469067E+02 -0.21495450675E+03  0.23227131924E+03  0.12700000000E+01 0.  1.
         -4    1    3    3    0  501  0.15861957947E+02 -0.26739961214E+02 -0.30386609007E+03  0.30545513718E+03  0.12700000000E+01 0.  1.
          2    1    1    2  502    0 -0.97587055973E+02  0.31054605836E+02 -0.18272688963E+04  0.18301363997E+04  0.00000000000E+00 0. -1.
          1    1    1    2  503    0  0.71810393982E+02 -0.91748113689E+02  0.10632055628E+04  0.10695702491E+04  0.00000000000E+00 0. -1.
<mgrwt>
<rscale>  0 0.10899449E+03</rscale>
<asrwt>0</asrwt>
<pdfrwt beam="1">  1        2 0.16573455E+00 0.11600336E+03</pdfrwt>
<pdfrwt beam="2">  1        1 0.36310131E+00 0.10240909E+03</pdfrwt>
<totfact> 0.75953637E+00</totfact>
</mgrwt>
</event>
<event>
 7    1  0.4252091E-004  0.1499252E+03  0.7546771E-02  0.1233567E+00
          2   -1    0    0  503    0  0.00000000000E+00  0.00000000000E+00  0.83162366117E+03  0.83162366117E+03  0.00000000000E+00 0. -1.
          1   -1    0    0  502    0 -0.00000000000E+00 -0.00000000000E+00 -0.11449883809E+04  0.11449883809E+04  0.00000000000E+00 0. -1.
         25    2    1    2    0    0 -0.53027027912E+02  0.21687310702E+03 -0.14908999324E+03  0.29613885991E+03  0.12499835208E+03 0.  0.
          4    1    3    3  501    0 -0.64500188851E+02  0.12299935364E+03 -0.26653291197E+02  0.14142533786E+03  0.12700000000E+01 0.  1.
         -4    1    3    3    0  501  0.11473160939E+02  0.93873753380E+02 -0.12243670204E+03  0.15471352204E+03  0.12700000000E+01 0.  1.
          2    1    1    2  502    0 -0.23292316725E+02 -0.14354751083E+03 -0.91289653804E+03  0.92440711218E+03  0.00000000000E+00 0. -1.
          1    1    1    2  503    0  0.76319344637E+02 -0.73325596197E+02  0.74862181156E+03  0.75606606997E+03  0.00000000000E+00 0. -1.
<mgrwt>
<rscale>  0 0.12596629E+03</rscale>
<asrwt>0</asrwt>
<pdfrwt beam="1">  1        2 0.12794210E+00 0.10583613E+03</pdfrwt>
<pdfrwt beam="2">  1        1 0.17615206E+00 0.14992523E+03</pdfrwt>
<totfact> 0.62863510E+01</totfact>
</mgrwt>
</event>
<event>
 7    1  0.4252091E-004  0.8119417E+02  0.7546771E-02  0.1431196E+00
         -2   -1    0    0    0  501 -0.00000000000E+00  0.00000000000E+00  0.50867623749E+03  0.50867623749E+03  0.00000000000E+00 0.  1.
          2   -1    0    0  503    0  0.00000000000E+00 -0.00000000000E+00 -0.38542625171E+03  0.38542625171E+03  0.00000000000E+00 0. -1.
         25    2    1    2    0    0  0.37419938251E+02  0.45918768629E+02 -0.18508713961E+01  0.13833291647E+03  0.12499513976E+03 0.  0.
          4    1    3    3  502    0  0.23197240987E+02 -0.42334692330E+02  0.56396665771E+01  0.48618483143E+02  0.12700000000E+01 0. -1.
         -4    1    3    3    0  502  0.14222697265E+02  0.88253460959E+02 -0.74905379732E+01  0.89714433330E+02  0.12700000000E+01 0. -1.
          1    1    1    2  503    0 -0.71493901932E+02 -0.42630384876E+02 -0.30915585515E+03  0.32016569227E+03  0.00000000000E+00 0. -1.
         -1    1    1    2    0  501  0.34073963681E+02 -0.32883837531E+01  0.43425671233E+03  0.43560388046E+03  0.00000000000E+00 0.  1.
<mgrwt>
<rscale>  0 0.52720594E+02</rscale>
<asrwt>0</asrwt>
<pdfrwt beam="2">  1        2 0.59296346E-01 0.81194173E+02</pdfrwt>
<pdfrwt beam="1">  1       -2 0.78257883E-01 0.34232272E+02</pdfrwt>
<totfact> 0.13049597E+02</totfact>
</mgrwt>
</event>
<event>
 7    1  0.4252091E-004  0.1232135E+03  0.7546771E-02  0.1299575E+00
          2   -1    0    0  503    0  0.00000000000E+00  0.00000000000E+00  0.43154844698E+03  0.43154844698E+03  0.00000000000E+00 0. -1.
          1   -1    0    0  502    0 -0.00000000000E+00 -0.00000000000E+00 -0.10237073929E+04  0.10237073929E+04  0.00000000000E+00 0. -1.
         25    2    1    2    0    0  0.61744539502E+02  0.98195247590E+02 -0.13652617509E+03  0.21844917296E+03  0.12500379944E+03 0.  0.
          4    1    3    3  501    0  0.69773063566E+02  0.61506589872E+01 -0.92662087391E+02  0.11616361885E+03  0.12700000000E+01 0.  1.
         -4    1    3    3    0  501 -0.80285240640E+01  0.92044588603E+02 -0.43864087700E+02  0.10228555411E+03  0.12700000000E+01 0.  1.
          2    1    1    2  502    0 -0.11350740406E+03 -0.54481408938E+02 -0.83854611882E+03  0.84794560443E+03  0.00000000000E+00 0. -1.
          1    1    1    2  503    0  0.51762864558E+02 -0.43713838652E+02  0.38291334799E+03  0.38886106247E+03  0.00000000000E+00 0. -1.
<mgrwt>
<rscale>  0 0.91366970E+02</rscale>
<asrwt>0</asrwt>
<pdfrwt beam="1">  1        2 0.66392069E-01 0.67751707E+02</pdfrwt>
<pdfrwt beam="2">  1        1 0.15749345E+00 0.12321347E+03</pdfrwt>
<totfact> 0.16416985E+02</totfact>
</mgrwt>
</event>
<event>
 7    1  0.4252091E-004  0.5138876E+02  0.7546771E-02  0.1444153E+00
          1   -1    0    0  502    0 -0.00000000000E+00  0.00000000000E+00  0.99758390346E+03  0.99758390346E+03  0.00000000000E+00 0. -1.
          2   -1    0    0  503    0  0.00000000000E+00 -0.00000000000E+00 -0.76778949370E+03  0.76778949370E+03  0.00000000000E+00 0. -1.
         25    2    1    2    0    0  0.60371692873E+02 -0.48056084746E+02  0.70919115700E+02  0.16312002612E+03  0.12499797346E+03 0.  0.
          4    1    3    3  501    0  0.93213797126E+02 -0.58866301296E+01  0.43688267327E+02  0.10312003681E+03  0.12700000000E+01 0.  1.
         -4    1    3    3    0  501 -0.32842104253E+02 -0.42169454617E+02  0.27230848374E+02  0.59999989314E+02  0.12700000000E+01 0.  1.
          2    1    1    2  502    0 -0.90533890580E+01  0.48237437446E+02  0.87896656802E+03  0.88033575522E+03  0.00000000000E+00 0. -1.
          1    1    1    2  503    0 -0.51318303815E+02 -0.18135269920E+00 -0.72009127396E+03  0.72191761582E+03  0.00000000000E+00 0. -1.
<mgrwt>
<rscale>  0 0.50220949E+02</rscale>
<asrwt>0</asrwt>
<pdfrwt beam="2">  1        2 0.11812146E+00 0.51388765E+02</pdfrwt>
<pdfrwt beam="1">  1        1 0.15347445E+00 0.49079672E+02</pdfrwt>
<totfact> 0.97464179E+01</totfact>
</mgrwt>
</event>
<event>
 7    1  0.4252091E-004  0.1924603E+03  0.7546771E-02  0.1308223E+00
          1   -1    0    0  502    0 -0.00000000000E+00  0.00000000000E+00  0.28367265282E+04  0.28367265282E+04  0.00000000000E+00 0. -1.
          2   -1    0    0  503    0  0.00000000000E+00 -0.00000000000E+00 -0.23978224388E+03  0.23978224388E+03  0.00000000000E+00 0. -1.
         25    2    1    2    0    0  0.80553136054E+02  0.14137452691E+03  0.29635660870E+02  0.20731563175E+03  0.12500373670E+03 0.  0.
          4    1    3    3  501    0  0.89047113164E+01  0.74218565968E+02  0.68785221848E+02  0.10159089065E+03  0.12700000000E+01 0.  1.
         -4    1    3    3    0  501  0.71648424738E+02  0.67155960938E+02 -0.39149560978E+02  0.10572474110E+03  0.12700000000E+01 0.  1.
          2    1    1    2  502    0 -0.11894476581E+03 -0.15285259304E+03  0.27120757628E+04  0.27189826619E+04  0.00000000000E+00 0. -1.
          1    1    1    2  503    0  0.38391629759E+02  0.11478066137E+02 -0.14476713927E+03  0.15021047850E+03  0.00000000000E+00 0. -1.
<mgrwt>
<rscale>  0 0.87818143E+02</rscale>
<asrwt>0</asrwt>
<pdfrwt beam="2">  1        2 0.36889578E-01 0.40070728E+02</pdfrwt>
<pdfrwt beam="1">  1        1 0.43641944E+00 0.19246035E+03</pdfrwt>
<totfact> 0.18314482E+01</totfact>
</mgrwt>
</event>
<event>
 7    1  0.4252091E-004  0.2265145E+02  0.7546771E-02  0.1704285E+00
          1   -1    0    0  503    0  0.00000000000E+00  0.00000000000E+00  0.22590011182E+03  0.22590011182E+03  0.00000000000E+00 0. -1.
         -1   -1    0    0    0  501 -0.00000000000E+00 -0.00000000000E+00 -0.12330094437E+04  0.12330094437E+04  0.00000000000E+00 0.  1.
         25    2    1    2    0    0  0.64359746469E+01  0.24258580331E+02 -0.15967462033E+02  0.12848753872E+03  0.12499674905E+03 0.  0.
          4    1    3    3  502    0  0.23498864663E+02 -0.47158302201E+02  0.24997308128E+01  0.52763279476E+02  0.12700000000E+01 0.  1.
         -4    1    3    3    0  502 -0.17062890016E+02  0.71416882531E+02 -0.18467192846E+02  0.75724259242E+02  0.12700000000E+01 0.  1.
          2    1    1    2  503    0 -0.21204322106E+02 -0.81977391130E+01  0.16877536521E+03  0.17029958926E+03  0.00000000000E+00 0. -1.
         -2    1    1    2    0  501  0.14768347459E+02 -0.16060841218E+02 -0.11599172350E+04  0.11601224275E+04  0.00000000000E+00 0.  1.
<mgrwt>
<rscale>  0 0.22231164E+02</rscale>
<asrwt>0</asrwt>
<pdfrwt beam="1">  1        1 0.34753864E-01 0.22651448E+02</pdfrwt>
<pdfrwt beam="2">  1       -1 0.18969376E+00 0.21818678E+02</pdfrwt>
<totfact> 0.29595917E+01</totfact>
</mgrwt>
</event>
<event>
 7    1  0.4252091E-004  0.8558507E+02  0.7546771E-02  0.1366525E+00
          2   -1    0    0  503    0  0.00000000000E+00  0.00000000000E+00  0.14913466358E+03  0.14913466358E+03  0.00000000000E+00 0. -1.
          1   -1    0    0  502    0 -0.00000000000E+00 -0.00000000000E+00 -0.36245107437E+03  0.36245107437E+03  0.00000000000E+00 0. -1.
         25    2    1    2    0    0 -0.41384721878E+02  0.17611764055E+02 -0.36509681904E+02  0.13777313172E+03  0.12500243803E+03 0.  0.
          4    1    3    3  501    0 -0.85427657777E+02  0.12548314804E+02 -0.35623591126E+02  0.93413050814E+02  0.12700000000E+01 0. -1.
         -4    1    3    3    0  501  0.44042935900E+02  0.50634492507E+01 -0.88609077841E+00  0.44360080904E+02  0.12700000000E+01 0. -1.
          2    1    1    2  502    0 -0.54248296559E+02  0.87468057769E+00 -0.24755251014E+03  0.25342826997E+03  0.00000000000E+00 0. -1.
          1    1    1    2  503    0  0.95633018437E+02 -0.18486444633E+02  0.70745781251E+02  0.12038433625E+03  0.00000000000E+00 0. -1.
<mgrwt>
<rscale>  0 0.68142848E+02</rscale>
<asrwt>0</asrwt>
<pdfrwt beam="1">  1        2 0.22943795E-01 0.85585069E+02</pdfrwt>
<pdfrwt beam="2">  1        1 0.55761703E-01 0.54255348E+02</pdfrwt>
<totfact> 0.21668581E+03</totfact>
</mgrwt>
</event>
<event>
 7    1  0.4252091E-004  0.7709153E+02  0.7546771E-02  0.1339216E+00
          1   -1    0    0  502    0 -0.00000000000E+00  0.00000000000E+00  0.56448521554E+03  0.56448521554E+03  0.00000000000E+00 0. -1.
          2   -1    0    0  503    0  0.00000000000E+00 -0.00000000000E+00 -0.87839940541E+02  0.87839940541E+02  0.00000000000E+00 0. -1.
         25    2    1    2    0    0 -0.23446017557E+02  0.18407270868E+02  0.23812084012E+03  0.27058119078E+03  0.12499641173E+03 0.  0.
          4    1    3    3  501    0 -0.64248439544E+02 -0.24536591220E+02  0.11639642482E+03  0.13520224444E+03  0.12700000000E+01 0. -1.
         -4    1    3    3    0  501  0.40802421988E+02  0.42943862088E+02  0.12172441530E+03  0.13537894634E+03  0.12700000000E+01 0. -1.
          2    1    1    2  502    0  0.47945413576E+02  0.60368377218E+02  0.27928270176E+03  0.28972733932E+03  0.00000000000E+00 0. -1.
          1    1    1    2  503    0 -0.24499396019E+02 -0.78775648086E+02 -0.40758266878E+02  0.92016625974E+02  0.00000000000E+00 0. -1.
<mgrwt>
<rscale>  0 0.76523708E+02</rscale>
<asrwt>0</asrwt>
<pdfrwt beam="2">  1        2 0.13513837E-01 0.75960070E+02</pdfrwt>
<pdfrwt beam="1">  1        1 0.86843877E-01 0.77091528E+02</pdfrwt>
<totfact> 0.22398214E+03</totfact>
</mgrwt>
</event>
<event>
 7    1  0.4252091E-004  0.6398909E+02  0.7546771E-02  0.1403724E+00
          1   -1    0    0  502    0 -0.00000000000E+00  0.00000000000E+00  0.21335079532E+03  0.21335079532E+03  0.00000000000E+00 0. -1.
          2   -1    0    0  503    0  0.00000000000E+00 -0.00000000000E+00 -0.75512209820E+03  0.75512209820E+03  0.00000000000E+00 0. -1.
         25    2    1    2    0    0 -0.13469695392E+02  0.59513355844E+02 -0.40354335621E+02  0.14482716351E+03  0.12499265046E+03 0.  0.
          4    1    3    3  501    0 -0.76871569442E+01 -0.40771011224E+00  0.42050218622E+02  0.42767889772E+02  0.12700000000E+01 0.  1.
         -4    1    3    3    0  501 -0.57825384480E+01  0.59921065956E+02 -0.82404554243E+02  0.10205927374E+03  0.12700000000E+01 0.  1.
          2    1    1    2  502    0 -0.39744698882E+02 -0.52324135206E+02  0.15326975756E+03  0.16676053129E+03  0.00000000000E+00 0. -1.
          1    1    1    2  503    0  0.53214394274E+02 -0.71892206372E+01 -0.65468672482E+03  0.65688519872E+03  0.00000000000E+00 0. -1.
<mgrwt>
<rscale>  0 0.58618045E+02</rscale>
<asrwt>0</asrwt>
<pdfrwt beam="2">  1        2 0.11617263E+00 0.53697827E+02</pdfrwt>
<pdfrwt beam="1">  1        1 0.32823199E-01 0.63989092E+02</pdfrwt>
<totfact> 0.72812893E+02</totfact>
</mgrwt>
</event>
<event>
 7    1  0.4252091E-004  0.1808884E+03  0.7546771E-02  0.1386050E+00
         -1   -1    0    0    0  501 -0.00000000000E+00  0.00000000000E+00  0.11950975657E+03  0.11950975657E+03  0.00000000000E+00 0.  1.
          1   -1    0    0  503    0  0.00000000000E+00 -0.00000000000E+00 -0.17165220079E+04  0.17165220079E+04  0.00000000000E+00 0. -1.
         25    2    1    2    0    0  0.18723722213E+03  0.20904419115E+01 -0.43542312344E+02  0.22930841989E+03  0.12499708465E+03 0.  0.
          4    1    3    3  502    0  0.41479562947E+02  0.51581992266E+02 -0.35598966513E+02  0.75167515492E+02  0.12700000000E+01 0. -1.
         -4    1    3    3    0  502  0.14575765918E+03 -0.49491550355E+02 -0.79433458315E+01  0.15414090440E+03  0.12700000000E+01 0. -1.
          2    1    1    2  503    0 -0.17919865586E+03 -0.22431699791E+02 -0.15693419440E+04  0.15796991728E+04  0.00000000000E+00 0. -1.
         -2    1    1    2    0  501 -0.80385662699E+01  0.20341257880E+02  0.15872004969E+02  0.27024171802E+02  0.00000000000E+00 0.  1.
<mgrwt>
<rscale>  0 0.62899886E+02</rscale>
<asrwt>0</asrwt>
<pdfrwt beam="2">  1        1 0.26408030E+00 0.18088843E+03</pdfrwt>
<pdfrwt beam="1">  1       -1 0.18386117E-01 0.21872021E+02</pdfrwt>
<totfact> 0.11161111E+02</totfact>
</mgrwt>
</event>
<event>
 7    1  0.4252091E-004  0.8750577E+02  0.7546771E-02  0.1324598E+00
          2   -1    0    0  503    0  0.00000000000E+00  0.00000000000E+00  0.29025913237E+03  0.29025913237E+03  0.00000000000E+00 0. -1.
         -2   -1    0    0    0  501 -0.00000000000E+00 -0.00000000000E+00 -0.70857697383E+03  0.70857697383E+03  0.00000000000E+00 0.  1.
         25    2    1    2    0    0  0.14836750496E+01  0.35769153006E+02  0.11151975485E+03  0.17129651411E+03  0.12499682566E+03 0.  0.
          4    1    3    3  502    0 -0.33786366844E+01 -0.41376867761E+02  0.75139876099E+02  0.85854960555E+02  0.12700000000E+01 0. -1.
         -4    1    3    3    0  502  0.48623117340E+01  0.77146020768E+02  0.36379878755E+02  0.85441553555E+02  0.12700000000E+01 0. -1.
          1    1    1    2  503    0 -0.74613779997E+02  0.14837908819E+02  0.13597735709E+03  0.15581149298E+03  0.00000000000E+00 0. -1.
         -3    1    1    2    0  501  0.73130104948E+02 -0.50607061826E+02 -0.66581495340E+03  0.67172809911E+03  0.00000000000E+00 0.  1.
<mgrwt>
<rscale>  0 0.81590359E+02</rscale>
<asrwt>0</asrwt>
<pdfrwt beam="1">  1        2 0.44655252E-01 0.76074830E+02</pdfrwt>
<pdfrwt beam="2">  1       -2 0.10901184E+00 0.87505771E+02</pdfrwt>
<totfact> 0.82376564E+01</totfact>
</mgrwt>
</event>
<event>
 7    1  0.4252091E-004  0.1248108E+03  0.7546771E-02  0.1291844E+00
          2   -1    0    0  503    0  0.00000000000E+00  0.00000000000E+00  0.30381246562E+03  0.30381246562E+03  0.00000000000E+00 0. -1.
          1   -1    0    0  502    0 -0.00000000000E+00 -0.00000000000E+00 -0.27039380573E+04  0.27039380573E+04  0.00000000000E+00 0. -1.
         25    2    1    2    0    0  0.23556060780E+02 -0.52621051003E+02 -0.29101663896E+02  0.14072251066E+03  0.12502821745E+03 0.  0.
          4    1    3    3  501    0  0.73311494432E+02 -0.44772322393E+02 -0.27876920859E+02  0.90320937135E+02  0.12700000000E+01 0. -1.
         -4    1    3    3    0  501 -0.49755433651E+02 -0.78487286097E+01 -0.12247430364E+01  0.50401573528E+02  0.12700000000E+01 0. -1.
          2    1    1    2  502    0 -0.77111595198E+02  0.10053323172E+03 -0.26122527415E+04  0.26153235965E+04  0.00000000000E+00 0. -1.
          1    1    1    2  503    0  0.53555534418E+02 -0.47912180722E+02  0.24122881374E+03  0.25170441575E+03  0.00000000000E+00 0. -1.
<mgrwt>
<rscale>  0 0.94703915E+02</rscale>
<asrwt>0</asrwt>
<pdfrwt beam="1">  1        2 0.46740380E-01 0.71859393E+02</pdfrwt>
<pdfrwt beam="2">  1        1 0.41599047E+00 0.12481084E+03</pdfrwt>
<totfact> 0.19011352E+01</totfact>
</mgrwt>
</event>
<event>
 7    1  0.4252091E-004  0.5683480E+02  0.7546771E-02  0.1556042E+00
         -1   -1    0    0    0  502 -0.00000000000E+00  0.00000000000E+00  0.85868298101E+02  0.85868298101E+02  0.00000000000E+00 0.  1.
         -2   -1    0    0    0  501  0.00000000000E+00 -0.00000000000E+00 -0.31826940680E+03  0.31826940680E+03  0.00000000000E+00 0.  1.
         25    2    1    2    0    0 -0.31784888733E+02 -0.59236073891E+02 -0.11351229971E+03  0.18173981656E+03  0.12500050854E+03 0.  0.
          4    1    3    3  503    0  0.34044913830E+02 -0.19475594089E+01  0.50735889093E+01  0.34499323903E+02  0.12700000000E+01 0.  1.
         -4    1    3    3    0  503 -0.65829802562E+02 -0.57288514482E+02 -0.11858588862E+03  0.14724049265E+03  0.12700000000E+01 0.  1.
         -2    1    1    2    0  502  0.11728071401E+02  0.54757623003E+02  0.35724833465E+02  0.66424458311E+02  0.00000000000E+00 0.  1.
         -1    1    1    2    0  501  0.20056817332E+02  0.44784508879E+01 -0.15461364245E+03  0.15597343003E+03  0.00000000000E+00 0.  1.
<mgrwt>
<rscale>  0 0.34175965E+02</rscale>
<asrwt>0</asrwt>
<pdfrwt beam="2">  1       -2 0.48964524E-01 0.20550729E+02</pdfrwt>
<pdfrwt beam="1">  1       -1 0.13210507E-01 0.56834801E+02</pdfrwt>
<totfact> 0.10582818E+03</totfact>
</mgrwt>
</event>
<event>
 7    1  0.4252091E-004  0.1158321E+03  0.7546771E-02  0.1365163E+00
          1   -1    0    0  502    0 -0.00000000000E+00  0.00000000000E+00  0.20989260571E+03  0.20989260571E+03  0.00000000000E+00 0. -1.
          2   -1    0    0  503    0  0.00000000000E+00 -0.00000000000E+00 -0.14066852999E+04  0.14066852999E+04  0.00000000000E+00 0. -1.
         25    2    1    2    0    0 -0.41432056320E+02  0.13066866833E+03 -0.84745501728E+02  0.20395539662E+03  0.12500035029E+03 0.  0.
          4    1    3    3  501    0 -0.10316957796E+02  0.46398456041E+02  0.31502597844E+02  0.57037557031E+02  0.12700000000E+01 0. -1.
         -4    1    3    3    0  501 -0.31115098524E+02  0.84270212294E+02 -0.11624809957E+03  0.14691783959E+03  0.12700000000E+01 0. -1.
          2    1    1    2  502    0  0.61248580446E+02 -0.95296480906E+02  0.12856226061E+03  0.17135070100E+03  0.00000000000E+00 0. -1.
          1    1    1    2  503    0 -0.19816524126E+02 -0.35372187429E+02 -0.12406094531E+04  0.12412718080E+04  0.00000000000E+00 0. -1.
<mgrwt>
<rscale>  0 0.68530263E+02</rscale>
<asrwt>0</asrwt>
<pdfrwt beam="2">  1        2 0.21641313E+00 0.40544867E+02</pdfrwt>
<pdfrwt beam="1">  1        1 0.32291169E-01 0.11583210E+03</pdfrwt>
<totfact> 0.33002139E+02</totfact>
</mgrwt>
</event>
<event>
 7    1  0.4252091E-004  0.1519240E+03  0.7546771E-02  0.1257188E+00
          2   -1    0    0  503    0  0.00000000000E+00  0.00000000000E+00  0.47063121456E+03  0.47063121456E+03  0.00000000000E+00 0. -1.
          1   -1    0    0  502    0 -0.00000000000E+00 -0.00000000000E+00 -0.93861962281E+03  0.93861962281E+03  0.00000000000E+00 0. -1.
         25    2    1    2    0    0 -0.20707201501E+03 -0.15259458420E+02 -0.13829579991E+03  0.27903293385E+03  0.12498791713E+03 0.  0.
          4    1    3    3  501    0 -0.19457071978E+03  0.17798633642E+02 -0.14464539634E+03  0.24310174812E+03  0.12700000000E+01 0.  1.
         -4    1    3    3    0  501 -0.12501295230E+02 -0.33058092062E+02  0.63495964344E+01  0.35931185732E+02  0.12700000000E+01 0.  1.
          2    1    1    2  502    0  0.63038423793E+02  0.52974518619E+02 -0.71365962837E+03  0.71839418682E+03  0.00000000000E+00 0. -1.
          1    1    1    2  503    0  0.14403359122E+03 -0.37715060199E+02  0.38396702002E+03  0.41182371669E+03  0.00000000000E+00 0. -1.
<mgrwt>
<rscale>  0 0.11184663E+03</rscale>
<asrwt>0</asrwt>
<pdfrwt beam="1">  1        2 0.72404802E-01 0.15192399E+03</pdfrwt>
<pdfrwt beam="2">  1        1 0.14440302E+00 0.82341621E+02</pdfrwt>
<totfact> 0.17565196E+02</totfact>
</mgrwt>
</event>
<event>
 7    1  0.4252091E-004  0.4719946E+02  0.7546771E-02  0.1496174E+00
          2   -1    0    0  503    0  0.00000000000E+00  0.00000000000E+00  0.14967000699E+04  0.14967000699E+04  0.00000000000E+00 0. -1.
         -2   -1    0    0    0  501 -0.00000000000E+00 -0.00000000000E+00 -0.41814842632E+03  0.41814842632E+03  0.00000000000E+00 0.  1.
         25    2    1    2    0    0  0.17637204726E+02  0.16007304644E+02  0.24482541015E+03  0.27592239847E+03  0.12500553480E+03 0.  0.
          4    1    3    3  502    0  0.54809356236E+02 -0.81190540853E+01  0.21610573006E+03  0.22309926947E+03  0.12700000000E+01 0.  1.
         -4    1    3    3    0  502 -0.37172151511E+02  0.24126358729E+02  0.28719680085E+02  0.52823129002E+02  0.12700000000E+01 0.  1.
          1    1    1    2  503    0  0.29317714032E+02 -0.22263140700E+02  0.12346574925E+04  0.12352061770E+04  0.00000000000E+00 0. -1.
         -3    1    1    2    0  501 -0.46954918757E+02  0.62558360563E+01 -0.40093125912E+03  0.40371992076E+03  0.00000000000E+00 0.  1.
<mgrwt>
<rscale>  0 0.41683813E+02</rscale>
<asrwt>0</asrwt>
<pdfrwt beam="1">  1        2 0.23026155E+00 0.36812712E+02</pdfrwt>
<pdfrwt beam="2">  1       -2 0.64330528E-01 0.47199463E+02</pdfrwt>
<totfact> 0.38036525E+01</totfact>
</mgrwt>
</event>
<event>
 7    1  0.4252091E-004  0.5774491E+02  0.7546771E-02  0.1437050E+00
          2   -1    0    0  503    0  0.00000000000E+00  0.00000000000E+00  0.22855544193E+04  0.22855544193E+04  0.00000000000E+00 0. -1.
          1   -1    0    0  502    0 -0.00000000000E+00 -0.00000000000E+00 -0.44506198648E+03  0.44506198648E+03  0.00000000000E+00 0. -1.
         25    2    1    2    0    0  0.84831692080E+02 -0.55457697602E+02  0.22561909617E+02  0.16250108007E+03  0.12500235620E+03 0.  0.
          4    1    3    3  501    0  0.44768835900E+02 -0.92230076726E+02 -0.26129674335E+01  0.10256254784E+03  0.12700000000E+01 0.  1.
         -4    1    3    3    0  501  0.40062856180E+02  0.36772379124E+02  0.25174877051E+02  0.59938532233E+02  0.12700000000E+01 0.  1.
          2    1    1    2  502    0 -0.43317716149E+02  0.15645324359E+02 -0.37329979370E+03  0.37613021240E+03  0.00000000000E+00 0. -1.
          1    1    1    2  503    0 -0.41513975931E+02  0.39812373243E+02  0.21912303169E+04  0.21919851133E+04  0.00000000000E+00 0. -1.
<mgrwt>
<rscale>  0 0.51570613E+02</rscale>
<asrwt>0</asrwt>
<pdfrwt beam="1">  1        2 0.35162375E+00 0.57744909E+02</pdfrwt>
<pdfrwt beam="2">  1        1 0.68471076E-01 0.46056495E+02</pdfrwt>
<totfact> 0.47193956E+01</totfact>
</mgrwt>
</event>
<event>
 7    1  0.4252091E-004  0.1447021E+03  0.7546771E-02  0.1341485E+00
          1   -1    0    0  502    0 -0.00000000000E+00  0.00000000000E+00  0.11076531112E+04  0.11076531112E+04  0.00000000000E+00 0. -1.
          2   -1    0    0  503    0  0.00000000000E+00 -0.00000000000E+00 -0.24523516442E+03  0.24523516442E+03  0.00000000000E+00 0. -1.
         25    2    1    2    0    0  0.57375238329E+02  0.13865243672E+03  0.98213771753E+02  0.21860158333E+03  0.12499716434E+03 0.  0.
          4    1    3    3  501    0  0.43573166610E+02 -0.80670889309E+01  0.59483879705E+01  0.44729129118E+02  0.12700000000E+01 0.  1.
         -4    1    3    3    0  501  0.13802071719E+02  0.14671952565E+03  0.92265383783E+02  0.17387245422E+03  0.12700000000E+01 0.  1.
          2    1    1    2  502    0 -0.88690715766E+02 -0.11428133245E+03  0.94152854326E+03  0.95257664457E+03  0.00000000000E+00 0. -1.
          1    1    1    2  503    0  0.31315477437E+02 -0.24371104266E+02 -0.17732436826E+03  0.18171004768E+03  0.00000000000E+00 0. -1.
<mgrwt>
<rscale>  0 0.75775822E+02</rscale>
<asrwt>0</asrwt>
<pdfrwt beam="2">  1        2 0.37728487E-01 0.39681354E+02</pdfrwt>
<pdfrwt beam="1">  1        1 0.17040817E+00 0.14470210E+03</pdfrwt>
<totfact> 0.25158740E+02</totfact>
</mgrwt>
</event>
<event>
 7    1  0.4252091E-004  0.1085190E+03  0.7546771E-02  0.1348438E+00
          2   -1    0    0  503    0  0.00000000000E+00  0.00000000000E+00  0.93168402073E+03  0.93168402073E+03  0.00000000000E+00 0. -1.
          1   -1    0    0  502    0 -0.00000000000E+00 -0.00000000000E+00 -0.13470752323E+04  0.13470752323E+04  0.00000000000E+00 0. -1.
         25    2    1    2    0    0 -0.57264937404E+02  0.13737508560E+03 -0.16259535483E+03  0.25340456788E+03  0.12500175363E+03 0.  0.
          4    1    3    3  501    0 -0.41943887640E+02  0.58764707288E+02 -0.15735676034E+03  0.17313388882E+03  0.12700000000E+01 0. -1.
         -4    1    3    3    0  501 -0.15321049764E+02  0.78610378316E+02 -0.52385944895E+01  0.80270679062E+02  0.12700000000E+01 0. -1.
          2    1    1    2  502    0 -0.54733378229E+01 -0.49540471808E+02 -0.11352399422E+04  0.11363335524E+04  0.00000000000E+00 0. -1.
          1    1    1    2  503    0  0.62738275227E+02 -0.87834613796E+02  0.88244408548E+03  0.88902113280E+03  0.00000000000E+00 0. -1.
<mgrwt>
<rscale>  0 0.73544504E+02</rscale>
<asrwt>0</asrwt>
<pdfrwt beam="1">  1        2 0.14333600E+00 0.10851900E+03</pdfrwt>
<pdfrwt beam="2">  1        1 0.20724234E+00 0.49841908E+02</pdfrwt>
<totfact> 0.43594611E+01</totfact>
</mgrwt>
</event>
<event>
 7    1  0.4252091E-004  0.6530139E+02  0.7546771E-02  0.1415115E+00
          1   -1    0    0  502    0 -0.00000000000E+00  0.00000000000E+00  0.22097397736E+04  0.22097397736E+04  0.00000000000E+00 0. -1.
          2   -1    0    0  503    0  0.00000000000E+00 -0.00000000000E+00 -0.10399093868E+04  0.10399093868E+04  0.00000000000E+00 0. -1.
         25    2    1    2    0    0 -0.86454441537E+02 -0.67093079800E+02  0.15069741107E+04  0.15161041003E+04  0.12499928429E+03 0.  0.
          4    1    3    3  501    0 -0.53635566104E+01  0.21486330476E+02  0.68932966327E+03  0.68968647058E+03  0.12700000000E+01 0.  1.
         -4    1    3    3    0  501 -0.81090884926E+02 -0.88579410276E+02  0.81764444738E+03  0.82641762976E+03  0.12700000000E+01 0.  1.
          2    1    1    2  502    0  0.27197606124E+02  0.39721118657E+02  0.69634002552E+03  0.69800208323E+03  0.00000000000E+00 0. -1.
          1    1    1    2  503    0  0.59256835413E+02  0.27371961143E+02 -0.10334837494E+04  0.10355429769E+04  0.00000000000E+00 0. -1.
<mgrwt>
<rscale>  0 0.56068003E+02</rscale>
<asrwt>0</asrwt>
<pdfrwt beam="2">  1        2 0.15998606E+00 0.65301395E+02</pdfrwt>
<pdfrwt beam="1">  1        1 0.33995997E+00 0.48140181E+02</pdfrwt>
<totfact> 0.11411844E+01</totfact>
</mgrwt>
</event>
<event>
 7    1  0.4252091E-004  0.8039757E+02  0.7546771E-02  0.1338261E+00
          1   -1    0    0  502    0 -0.00000000000E+00  0.00000000000E+00  0.48016051018E+03  0.48016051018E+03  0.00000000000E+00 0. -1.
          2   -1    0    0  503    0  0.00000000000E+00 -0.00000000000E+00 -0.72753369318E+03  0.72753369318E+03  0.00000000000E+00 0. -1.
         25    2    1    2    0    0 -0.12112730744E+03 -0.71559485291E+02 -0.17140636733E+03  0.25455333099E+03  0.12499868405E+03 0.  0.
          4    1    3    3  501    0 -0.10965153017E+03 -0.94787939587E+02 -0.93612910827E+02  0.17254912788E+03  0.12700000000E+01 0.  1.
         -4    1    3    3    0  501 -0.11475777271E+02  0.23228454296E+02 -0.77793456506E+02  0.82004203113E+02  0.12700000000E+01 0.  1.
          2    1    1    2  502    0  0.48148517273E+02  0.63314856143E+02  0.43231942942E+03  0.43957609099E+03  0.00000000000E+00 0. -1.
          1    1    1    2  503    0  0.72978790164E+02  0.82446291486E+01 -0.50828624508E+03  0.51356478137E+03  0.00000000000E+00 0. -1.
<mgrwt>
<rscale>  0 0.76841661E+02</rscale>
<asrwt>0</asrwt>
<pdfrwt beam="2">  1        2 0.11192826E+00 0.73443024E+02</pdfrwt>
<pdfrwt beam="1">  1        1 0.73870848E-01 0.80397573E+02</pdfrwt>
<totfact> 0.27927114E+02</totfact>
</mgrwt>
</event>
<event>
 7    1  0.4252091E-004  0.8493800E+02  0.7546771E-02  0.1429032E+00
          2   -1    0    0  503    0  0.00000000000E+00  0.00000000000E+00  0.75495608545E+02  0.75495608545E+02  0.00000000000E+00 0. -1.
          1   -1    0    0  502    0 -0.00000000000E+00 -0.00000000000E+00 -0.20326584138E+04  0.20326584138E+04  0.00000000000E+00 0. -1.
         25    2    1    2    0    0 -0.16887721094E+02 -0.10845838142E+03 -0.10519778200E+03  0.19683123382E+03  0.12501018217E+03 0.  0.
          4    1    3    3  501    0 -0.49295823628E+02 -0.73623773916E+02 -0.84557788347E+01  0.89014894307E+02  0.12700000000E+01 0.  1.
         -4    1    3    3    0  501  0.32408102534E+02 -0.34834607503E+02 -0.96742003165E+02  0.10781633951E+03  0.12700000000E+01 0.  1.
          2    1    1    2  502    0  0.16541795573E+01  0.33223585673E+02 -0.18316049543E+04  0.18319069987E+04  0.00000000000E+00 0. -1.
          1    1    1    2  503    0  0.15233541537E+02  0.75234795747E+02 -0.20360068953E+02  0.79415789907E+02  0.00000000000E+00 0. -1.
<mgrwt>
<rscale>  0 0.53154874E+02</rscale>
<asrwt>0</asrwt>
<pdfrwt beam="1">  1        2 0.11614710E-01 0.84938003E+02</pdfrwt>
<pdfrwt beam="2">  1        1 0.31271665E+00 0.33264740E+02</pdfrwt>
<totfact> 0.28520914E+02</totfact>
</mgrwt>
</event>
<event>
 7    1  0.4252091E-004  0.8811512E+02  0.7546771E-02  0.1379210E+00
          1   -1    0    0  502    0 -0.00000000000E+00  0.00000000000E+00  0.19925959569E+02  0.19925959569E+02  0.00000000000E+00 0. -1.
          2   -1    0    0  503    0  0.00000000000E+00 -0.00000000000E+00 -0.16013131302E+04  0.16013131302E+04  0.00000000000E+00 0. -1.
         25    2    1    2    0    0  0.45285789330E+02 -0.41425058221E+02 -0.45493147849E+03  0.47577418724E+03  0.12502635307E+03 0.  0.
          4    1    3    3  501    0  0.87913681116E+02 -0.27442299314E+02 -0.26289370797E+03  0.27856168026E+03  0.12700000000E+01 0. -1.
         -4    1    3    3    0  501 -0.42627891787E+02 -0.13982758906E+02 -0.19203777051E+03  0.19721250698E+03  0.12700000000E+01 0. -1.
          2    1    1    2  502    0 -0.89150697036E+02  0.59559458058E+02 -0.31742468784E+03  0.33504269619E+03  0.00000000000E+00 0. -1.
          1    1    1    2  503    0  0.43864907706E+02 -0.18134399838E+02 -0.80903100433E+03  0.81042220636E+03  0.00000000000E+00 0. -1.
<mgrwt>
<rscale>  0 0.64671788E+02</rscale>
<asrwt>0</asrwt>
<pdfrwt beam="2">  1        2 0.24635587E+00 0.47465636E+02</pdfrwt>
<pdfrwt beam="1">  1        1 0.30655322E-02 0.88115120E+02</pdfrwt>
<totfact> 0.55928612E+03</totfact>
</mgrwt>
</event>
<event>
 7    1  0.4252091E-004  0.7231875E+02  0.7546771E-02  0.1462525E+00
         -2   -1    0    0    0  501 -0.00000000000E+00  0.00000000000E+00  0.44398550212E+02  0.44398550212E+02  0.00000000000E+00 0.  1.
          2   -1    0    0  503    0  0.00000000000E+00 -0.00000000000E+00 -0.12858851678E+04  0.12858851678E+04  0.00000000000E+00 0. -1.
         25    2    1    2    0    0  0.40131252017E+02 -0.20012059877E+02 -0.76933504200E+03  0.78071261136E+03  0.12499909901E+03 0.  0.
          4    1    3    3  502    0 -0.25343076769E+02  0.12661392493E+01 -0.55515966980E+03  0.55574071879E+03  0.12700000000E+01 0. -1.
         -4    1    3    3    0  502  0.65474328787E+02 -0.21278199126E+02 -0.21417537220E+03  0.22497189257E+03  0.12700000000E+01 0. -1.
          1    1    1    2  503    0  0.30469344258E+02 -0.80536342596E+00 -0.47493565004E+03  0.47591270337E+03  0.00000000000E+00 0. -1.
         -1    1    1    2    0  501 -0.70600596276E+02  0.20817423303E+02  0.27840744291E+01  0.73658403308E+02  0.00000000000E+00 0.  1.
<mgrwt>
<rscale>  0 0.46949703E+02</rscale>
<asrwt>0</asrwt>
<pdfrwt beam="2">  1        2 0.19782848E+00 0.30479986E+02</pdfrwt>
<pdfrwt beam="1">  1       -2 0.68305464E-02 0.72318754E+02</pdfrwt>
<totfact> 0.22780801E+03</totfact>
</mgrwt>
</event>
<event>
 7    1  0.4252091E-004  0.4895620E+02  0.7546771E-02  0.1457662E+00
         -2   -1    0    0    0  501 -0.00000000000E+00  0.00000000000E+00  0.59999035524E+03  0.59999035524E+03  0.00000000000E+00 0.  1.
          2   -1    0    0  503    0  0.00000000000E+00 -0.00000000000E+00 -0.23327500866E+04  0.23327500866E+04  0.00000000000E+00 0. -1.
         25    2    1    2    0    0  0.62262875757E+02 -0.35620063023E+02 -0.63512135662E+03  0.65126863521E+03  0.12500497182E+03 0.  0.
          4    1    3    3  502    0  0.35629116574E+02 -0.81430032443E+02 -0.34019440422E+03  0.35161645253E+03  0.12700000000E+01 0. -1.
         -4    1    3    3    0  502  0.26633759183E+02  0.45809969419E+02 -0.29492695241E+03  0.29965218267E+03  0.12700000000E+01 0. -1.
          1    1    1    2  503    0 -0.47868363411E+02 -0.87472515268E+01 -0.16882850780E+04  0.16889862046E+04  0.00000000000E+00 0. -1.
         -1    1    1    2    0  501 -0.14394512346E+02  0.44367314550E+02  0.59064670326E+03  0.59248560207E+03  0.00000000000E+00 0.  1.
<mgrwt>
<rscale>  0 0.47786106E+02</rscale>
<asrwt>0</asrwt>
<pdfrwt beam="2">  1        2 0.35888463E+00 0.48956201E+02</pdfrwt>
<pdfrwt beam="1">  1       -2 0.92306209E-01 0.46643977E+02</pdfrwt>
<totfact> 0.67091671E+00</totfact>
</mgrwt>
</event>
<event>
 7    1  0.4252091E-004  0.7891515E+02  0.7546771E-02  0.1343762E+00
          2   -1    0    0  503    0  0.00000000000E+00  0.00000000000E+00  0.17798910781E+03  0.17798910781E+03  0.00000000000E+00 0. -1.
          1   -1    0    0  502    0 -0.00000000000E+00 -0.00000000000E+00 -0.12556914751E+04  0.12556914751E+04  0.00000000000E+00 0. -1.
         25    2    1    2    0    0  0.39273573867E+02  0.33763669867E+02 -0.41684398307E+03  0.43825481025E+03  0.12500389385E+03 0.  0.
          4    1    3    3  501    0 -0.30139619859E+02 -0.11431512604E+02 -0.24900023689E+03  0.25108127576E+03  0.12700000000E+01 0.  1.
         -4    1    3    3    0  501  0.69413193726E+02  0.45195182471E+02 -0.16784374618E+03  0.18717353449E+03  0.12700000000E+01 0.  1.
          2    1    1    2  502    0  0.27456399167E+02 -0.75890999396E+02 -0.81673429122E+03  0.82071200802E+03  0.00000000000E+00 0. -1.
          1    1    1    2  503    0 -0.66729973034E+02  0.42127329529E+02  0.15587590697E+03  0.17471376468E+03  0.00000000000E+00 0. -1.
<mgrwt>
<rscale>  0 0.75035233E+02</rscale>
<asrwt>0</asrwt>
<pdfrwt beam="1">  1        2 0.27382940E-01 0.78915152E+02</pdfrwt>
<pdfrwt beam="2">  1        1 0.19318330E+00 0.71346073E+02</pdfrwt>
<totfact> 0.29952218E+02</totfact>
</mgrwt>
</event>
<event>
 7    1  0.4252091E-004  0.7473738E+02  0.7546771E-02  0.1380493E+00
         -2   -1    0    0    0  501 -0.00000000000E+00  0.00000000000E+00  0.30913337406E+03  0.30913337406E+03  0.00000000000E+00 0.  1.
          2   -1    0    0  503    0  0.00000000000E+00 -0.00000000000E+00 -0.53547784096E+03  0.53547784096E+03  0.00000000000E+00 0. -1.
         25    2    1    2    0    0  0.25657557934E+02 -0.50745672485E+00 -0.87433919640E+02  0.15467975623E+03  0.12499027519E+03 0.  0.
          4    1    3    3  502    0  0.28868118975E+02 -0.60352856038E+02 -0.54389538433E+02  0.86230332923E+02  0.12700000000E+01 0.  1.
         -4    1    3    3    0  502 -0.32105610403E+01  0.59845399313E+02 -0.33044381208E+02  0.68449423304E+02  0.12700000000E+01 0.  1.
          1    1    1    2  503    0 -0.79138544366E+02  0.14883082512E+02 -0.40765917742E+03  0.41553630441E+03  0.00000000000E+00 0. -1.
         -1    1    1    2    0  501  0.53480986431E+02 -0.14375625787E+02  0.26874863017E+03  0.27439515438E+03  0.00000000000E+00 0.  1.
<mgrwt>
<rscale>  0 0.64334353E+02</rscale>
<asrwt>0</asrwt>
<pdfrwt beam="2">  1        2 0.82381206E-01 0.74737380E+02</pdfrwt>
<pdfrwt beam="1">  1       -2 0.47558981E-01 0.55379369E+02</pdfrwt>
<totfact> 0.25151904E+02</totfact>
</mgrwt>
</event>
<event>
 7    1  0.4252091E-004  0.2445914E+02  0.7546771E-02  0.1686342E+00
          1   -1    0    0  503    0  0.00000000000E+00  0.00000000000E+00  0.11148542368E+04  0.11148542368E+04  0.00000000000E+00 0. -1.
         -1   -1    0    0    0  501 -0.00000000000E+00 -0.00000000000E+00 -0.35092007930E+02  0.35092007930E+02  0.00000000000E+00 0.  1.
         25    2    1    2    0    0  0.88762015829E+01 -0.44546233849E+02  0.20739721900E+03  0.24637651116E+03  0.12499849958E+03 0.  0.
          4    1    3    3  502    0 -0.55529695644E+01  0.31780355208E+02  0.13953610396E+03  0.14322277632E+03  0.12700000000E+01 0. -1.
         -4    1    3    3    0  502  0.14429171147E+02 -0.76326589057E+02  0.67861115045E+02  0.10315373484E+03  0.12700000000E+01 0. -1.
          2    1    1    2  503    0 -0.11374943300E+01  0.22208800208E+02  0.87879069784E+03  0.87907201941E+03  0.00000000000E+00 0. -1.
         -2    1    1    2    0  501 -0.77387072529E+01  0.22337433641E+02 -0.64256879967E+01  0.24497714135E+02  0.00000000000E+00 0.  1.
<mgrwt>
<rscale>  0 0.23322094E+02</rscale>
<asrwt>0</asrwt>
<pdfrwt beam="1">  1        1 0.17151601E+00 0.22237911E+02</pdfrwt>
<pdfrwt beam="2">  1       -1 0.53987713E-02 0.24459135E+02</pdfrwt>
<totfact> 0.19600741E+03</totfact>
</mgrwt>
</event>
<event>
 7    1  0.4252091E-004  0.4092696E+02  0.7546771E-02  0.1571225E+00
         -2   -1    0    0    0  501 -0.00000000000E+00  0.00000000000E+00  0.11835651203E+02  0.11835651203E+02  0.00000000000E+00 0.  1.
          2   -1    0    0  503    0  0.00000000000E+00 -0.00000000000E+00 -0.21495233590E+04  0.21495233590E+04  0.00000000000E+00 0. -1.
         25    2    1    2    0    0  0.36079865022E+01  0.20379330309E+02 -0.15436578444E+04  0.15488498824E+04  0.12501233105E+03 0.  0.
          4    1    3    3  502    0 -0.41025570793E+02  0.51775929821E+02 -0.10740534681E+04  0.10760837837E+04  0.12700000000E+01 0. -1.
         -4    1    3    3    0  502  0.44633557295E+02 -0.31396599512E+02 -0.46960437635E+03  0.47276609870E+03  0.12700000000E+01 0. -1.
          1    1    1    2  503    0  0.23277762158E+02  0.11428822193E+02 -0.55444109276E+03  0.55504720298E+03  0.00000000000E+00 0. -1.
         -1    1    1    2    0  501 -0.26885748660E+02 -0.31808152502E+02 -0.39588770641E+02  0.57461924851E+02  0.00000000000E+00 0.  1.
<mgrwt>
<rscale>  0 0.32577919E+02</rscale>
<asrwt>0</asrwt>
<pdfrwt beam="2">  1        2 0.33069587E+00 0.25932069E+02</pdfrwt>
<pdfrwt beam="1">  1       -2 0.18208696E-02 0.40926963E+02</pdfrwt>
<totfact> 0.56455486E+03</totfact>
</mgrwt>
</event>
<event>
 7    1  0.4252091E-004  0.1077811E+03  0.7546771E-02  0.1270535E+00
          1   -1    0    0  502    0 -0.00000000000E+00  0.00000000000E+00  0.13761877656E+04  0.13761877656E+04  0.00000000000E+00 0. -1.
          2   -1    0    0  503    0  0.00000000000E+00 -0.00000000000E+00 -0.57663908954E+03  0.57663908954E+03  0.00000000000E+00 0. -1.
         25    2    1    2    0    0  0.15717513703E+02 -0.63595608077E+02  0.60278321290E+03  0.61908200744E+03  0.12499395414E+03 0.  0.
          4    1    3    3  501    0  0.40297753486E+02 -0.89351276989E+02  0.51673254911E+03  0.52594838135E+03  0.12700000000E+01 0. -1.
         -4    1    3    3    0  501 -0.24580239784E+02  0.25755668912E+02  0.86050663790E+02  0.93133626084E+02  0.12700000000E+01 0. -1.
          2    1    1    2  502    0  0.73535908740E+02  0.12401573792E+03  0.75324714512E+03  0.76692157015E+03  0.00000000000E+00 0. -1.
          1    1    1    2  503    0 -0.89253422443E+02 -0.60420129844E+02 -0.55648168202E+03  0.56682327751E+03  0.00000000000E+00 0. -1.
<mgrwt>
<rscale>  0 0.10478939E+03</rscale>
<asrwt>0</asrwt>
<pdfrwt beam="2">  1        2 0.88713706E-01 0.10778110E+03</pdfrwt>
<pdfrwt beam="1">  1        1 0.21172119E+00 0.10188072E+03</pdfrwt>
<totfact> 0.69638912E+01</totfact>
</mgrwt>
</event>
<event>
 7    1  0.4252091E-004  0.6784390E+02  0.7546771E-02  0.1384350E+00
          2   -1    0    0  503    0  0.00000000000E+00  0.00000000000E+00  0.21518253090E+03  0.21518253090E+03  0.00000000000E+00 0. -1.
          1   -1    0    0  502    0 -0.00000000000E+00 -0.00000000000E+00 -0.44748813225E+03  0.44748813225E+03  0.00000000000E+00 0. -1.
         25    2    1    2    0    0  0.19832907853E+02  0.10061957860E+03 -0.12211149039E+03  0.20261816992E+03  0.12500105146E+03 0.  0.
          4    1    3    3  501    0  0.71187759858E+02  0.76608877465E+02 -0.72317162383E+02  0.12715345900E+03  0.12700000000E+01 0. -1.
         -4    1    3    3    0  501 -0.51354852005E+02  0.24010701134E+02 -0.49794328008E+02  0.75464710926E+02  0.12700000000E+01 0. -1.
          2    1    1    2  502    0 -0.45699566009E+02 -0.47454191414E+02 -0.27613921470E+03  0.28388944417E+03  0.00000000000E+00 0. -1.
          1    1    1    2  503    0  0.25866658156E+02 -0.53165387185E+02  0.16594510374E+03  0.17616304906E+03  0.00000000000E+00 0. -1.
<mgrwt>
<rscale>  0 0.63334033E+02</rscale>
<asrwt>0</asrwt>
<pdfrwt beam="1">  1        2 0.33105005E-01 0.59123958E+02</pdfrwt>
<pdfrwt beam="2">  1        1 0.68844327E-01 0.67843898E+02</pdfrwt>
<totfact> 0.11161574E+03</totfact>
</mgrwt>
</event>
<event>
 7    1  0.4252091E-004  0.4232366E+02  0.7546771E-02  0.1608037E+00
          1   -1    0    0  502    0 -0.00000000000E+00  0.00000000000E+00  0.19246232298E+02  0.19246232298E+02  0.00000000000E+00 0. -1.
          2   -1    0    0  503    0  0.00000000000E+00 -0.00000000000E+00 -0.76974472160E+03  0.76974472160E+03  0.00000000000E+00 0. -1.
         25    2    1    2    0    0  0.46044424767E+02  0.27355458255E+02 -0.45947927270E+03  0.47917937701E+03  0.12499305247E+03 0.  0.
          4    1    3    3  501    0  0.56792583238E+02  0.70396300265E+02 -0.33612473720E+03  0.34808402500E+03  0.12700000000E+01 0.  1.
         -4    1    3    3    0  501 -0.10748158471E+02 -0.43040842010E+02 -0.12335453550E+03  0.13109535201E+03  0.12700000000E+01 0.  1.
          2    1    1    2  502    0 -0.19623943551E+02  0.40328346838E+01 -0.47133586070E+01  0.20581026832E+02  0.00000000000E+00 0. -1.
          1    1    1    2  503    0 -0.26420481215E+02 -0.31388292939E+02 -0.28630585800E+03  0.28923055005E+03  0.00000000000E+00 0. -1.
<mgrwt>
<rscale>  0 0.29118965E+02</rscale>
<asrwt>0</asrwt>
<pdfrwt beam="2">  1        2 0.11842225E+00 0.42323664E+02</pdfrwt>
<pdfrwt beam="1">  1        1 0.29609591E-02 0.20034044E+02</pdfrwt>
<totfact> 0.13467071E+04</totfact>
</mgrwt>
</event>
<event>
 7    1  0.4252091E-004  0.1109690E+03  0.7546771E-02  0.1359530E+00
          1   -1    0    0  502    0 -0.00000000000E+00  0.00000000000E+00  0.19591694236E+04  0.19591694236E+04  0.00000000000E+00 0. -1.
          2   -1    0    0  503    0  0.00000000000E+00 -0.00000000000E+00 -0.18066286154E+04  0.18066286154E+04  0.00000000000E+00 0. -1.
         25    2    1    2    0    0  0.29050400426E+02 -0.14015387650E+03  0.17109165419E+03  0.25570445298E+03  0.12500151311E+03 0.  0.
          4    1    3    3  501    0  0.40168443943E+02 -0.75086889564E+02  0.16946559568E+03  0.18966218889E+03  0.12700000000E+01 0.  1.
         -4    1    3    3    0  501 -0.11118043517E+02 -0.65066986935E+02  0.16260585029E+01  0.66042264095E+02  0.12700000000E+01 0.  1.
          2    1    1    2  502    0  0.32682496398E+01  0.10975883682E+03  0.17437652112E+04  0.17472191607E+04  0.00000000000E+00 0. -1.
          1    1    1    2  503    0 -0.32318650066E+02  0.30395039682E+02 -0.17623160572E+04  0.17628744252E+04  0.00000000000E+00 0. -1.
<mgrwt>
<rscale>  0 0.70165970E+02</rscale>
<asrwt>0</asrwt>
<pdfrwt beam="2">  1        2 0.27794286E+00 0.44366131E+02</pdfrwt>
<pdfrwt beam="1">  1        1 0.30141068E+00 0.11096896E+03</pdfrwt>
<totfact> 0.61402006E+00</totfact>
</mgrwt>
</event>
<event>
 7    1  0.4252091E-004  0.5546912E+02  0.7546771E-02  0.1431165E+00
          2   -1    0    0  503    0  0.00000000000E+00  0.00000000000E+00  0.75995719357E+03  0.75995719357E+03  0.00000000000E+00 0. -1.
         -2   -1    0    0    0  501 -0.00000000000E+00 -0.00000000000E+00 -0.48369683864E+02  0.48369683864E+02  0.00000000000E+00 0.  1.
         25    2    1    2    0    0  0.16545424395E+02  0.11157050417E+02  0.16915811154E+03  0.21127514477E+03  0.12499795702E+03 0.  0.
          4    1    3    3  502    0  0.10110406391E+02  0.48618809552E+02  0.16581594116E+03  0.17309693296E+03  0.12700000000E+01 0.  1.
         -4    1    3    3    0  502  0.64350180039E+01 -0.37461759135E+02  0.33421703802E+01  0.38178211810E+02  0.12700000000E+01 0.  1.
          1    1    1    2  503    0 -0.34351703797E+02  0.43552076687E+02  0.53633520449E+03  0.53919595187E+03  0.00000000000E+00 0. -1.
         -1    1    1    2    0  501  0.17806279403E+02 -0.54709127104E+02  0.60941936829E+01  0.57855780794E+02  0.00000000000E+00 0.  1.
<mgrwt>
<rscale>  0 0.52726941E+02</rscale>
<asrwt>0</asrwt>
<pdfrwt beam="1">  1        2 0.11691648E+00 0.55469117E+02</pdfrwt>
<pdfrwt beam="2">  1       -2 0.74414904E-02 0.50120327E+02</pdfrwt>
<totfact> 0.37135752E+03</totfact>
</mgrwt>
</event>
<event>
 7    1  0.4252091E-004  0.8886977E+02  0.7546771E-02  0.1456119E+00
          1   -1    0    0  502    0 -0.00000000000E+00  0.00000000000E+00  0.54722165543E+03  0.54722165543E+03  0.00000000000E+00 0. -1.
          2   -1    0    0  503    0  0.00000000000E+00 -0.00000000000E+00 -0.16895094009E+04  0.16895094009E+04  0.00000000000E+00 0. -1.
         25    2    1    2    0    0 -0.91561670776E+02 -0.60646302914E+02 -0.31302882914E+02  0.16931531183E+03  0.12500516281E+03 0.  0.
          4    1    3    3  501    0 -0.16614375874E+02 -0.54491580365E+02  0.36817072706E+02  0.67841576920E+02  0.12700000000E+01 0.  1.
         -4    1    3    3    0  501 -0.74947294902E+02 -0.61547225493E+01 -0.68119955620E+02  0.10147373491E+03  0.12700000000E+01 0.  1.
          2    1    1    2  502    0  0.65648542680E+02  0.58702732739E+02  0.47405351548E+03  0.48216436774E+03  0.00000000000E+00 0. -1.
          1    1    1    2  503    0  0.25913128096E+02  0.19435701754E+01 -0.15850383781E+04  0.15852513768E+04  0.00000000000E+00 0. -1.
<mgrwt>
<rscale>  0 0.48055824E+02</rscale>
<asrwt>0</asrwt>
<pdfrwt beam="2">  1        2 0.25992452E+00 0.25985913E+02</pdfrwt>
<pdfrwt beam="1">  1        1 0.84187948E-01 0.88869774E+02</pdfrwt>
<totfact> 0.76474663E+01</totfact>
</mgrwt>
</event>
<event>
 7    1  0.4252091E-004  0.9009536E+02  0.7546771E-02  0.1384860E+00
         -2   -1    0    0    0  501 -0.00000000000E+00  0.00000000000E+00  0.58454907100E+02  0.58454907100E+02  0.00000000000E+00 0.  1.
          2   -1    0    0  503    0  0.00000000000E+00 -0.00000000000E+00 -0.74243340520E+03  0.74243340520E+03  0.00000000000E+00 0. -1.
         25    2    1    2    0    0  0.48505573496E+02 -0.20656635765E+02 -0.15012024157E+03  0.20233873093E+03  0.12500155137E+03 0.  0.
          4    1    3    3  502    0  0.29583991525E+02 -0.31710407130E+02 -0.16832177304E+03  0.17382345829E+03  0.12700000000E+01 0. -1.
         -4    1    3    3    0  502  0.18921581971E+02  0.11053771365E+02  0.18201531469E+02  0.28515272636E+02  0.12700000000E+01 0. -1.
          1    1    1    2  503    0 -0.92449495265E+02  0.26557220752E+02 -0.54451748721E+03  0.55294799848E+03  0.00000000000E+00 0. -1.
         -1    1    1    2    0  501  0.43943921769E+02 -0.59005849878E+01  0.10659230674E+02  0.45601582892E+02  0.00000000000E+00 0.  1.
<mgrwt>
<rscale>  0 0.63203446E+02</rscale>
<asrwt>0</asrwt>
<pdfrwt beam="2">  1        2 0.11422053E+00 0.90095363E+02</pdfrwt>
<pdfrwt beam="1">  1       -2 0.89930625E-02 0.44338304E+02</pdfrwt>
<totfact> 0.27931699E+03</totfact>
</mgrwt>
</event>
<event>
 7    1  0.4252091E-004  0.5586714E+02  0.7546771E-02  0.1548462E+00
          1   -1    0    0  503    0  0.00000000000E+00  0.00000000000E+00  0.11066340377E+03  0.11066340377E+03  0.00000000000E+00 0. -1.
         -3   -1    0    0    0  501 -0.00000000000E+00 -0.00000000000E+00 -0.19587852308E+03  0.19587852308E+03  0.00000000000E+00 0.  1.
         25    2    1    2    0    0 -0.41650925773E+02 -0.29954355979E+02 -0.69419652746E+02  0.15190840564E+03  0.12500004983E+03 0.  0.
          4    1    3    3  502    0  0.37703909786E+02  0.38796911391E+01 -0.51223291230E+02  0.63734412062E+02  0.12700000000E+01 0. -1.
         -4    1    3    3    0  502 -0.79354835559E+02 -0.33834047118E+02 -0.18196361516E+02  0.88173993577E+02  0.12700000000E+01 0. -1.
          2    1    1    2  503    0  0.29694978112E+02  0.48358344875E+02  0.55898742948E+02  0.79655449954E+02  0.00000000000E+00 0. -1.
         -2    1    1    2    0  501  0.11955947660E+02 -0.18403988896E+02 -0.71694209517E+02  0.74978071261E+02  0.00000000000E+00 0.  1.
<mgrwt>
<rscale>  0 0.35015591E+02</rscale>
<asrwt>0</asrwt>
<pdfrwt beam="1">  1        1 0.17025139E-01 0.55867143E+02</pdfrwt>
<pdfrwt beam="2">  1       -3 0.30135157E-01 0.21946560E+02</pdfrwt>
<totfact> 0.13838532E+03</totfact>
</mgrwt>
</event>
<event>
 7    1  0.4252091E-004  0.1011609E+03  0.7546771E-02  0.1377316E+00
          2   -1    0    0  503    0  0.00000000000E+00  0.00000000000E+00  0.49613170448E+03  0.49613170448E+03  0.00000000000E+00 0. -1.
         -2   -1    0    0    0  501 -0.00000000000E+00 -0.00000000000E+00 -0.58869133896E+02  0.58869133896E+02  0.00000000000E+00 0.  1.
         25    2    1    2    0    0 -0.47100366726E+02 -0.51807882357E+02  0.23200002046E+03  0.27267564651E+03  0.12500198992E+03 0.  0.
          4    1    3    3  502    0 -0.83602407888E+02 -0.52177219244E+02  0.20431353320E+03  0.22684236280E+03  0.12700000000E+01 0. -1.
         -4    1    3    3    0  502  0.36502041162E+02  0.36933688617E+00  0.27686487266E+02  0.45833283713E+02  0.12700000000E+01 0. -1.
          1    1    1    2  503    0 -0.27583199096E+02 -0.31659169170E+02  0.15313426025E+03  0.15878676749E+03  0.00000000000E+00 0. -1.
         -1    1    1    2    0  501  0.74683565822E+02  0.83467051527E+02  0.52128289871E+02  0.12353842438E+03  0.00000000000E+00 0.  1.
<mgrwt>
<rscale>  0 0.65174504E+02</rscale>
<asrwt>0</asrwt>
<pdfrwt beam="1">  1        2 0.76327952E-01 0.41989711E+02</pdfrwt>
<pdfrwt beam="2">  1       -2 0.90567902E-02 0.10116087E+03</pdfrwt>
<totfact> 0.46882863E+03</totfact>
</mgrwt>
</event>
<event>
 7    1  0.4252091E-004  0.7703705E+02  0.7546771E-02  0.1431480E+00
          2   -1    0    0  503    0  0.00000000000E+00  0.00000000000E+00  0.57254013026E+02  0.57254013026E+02  0.00000000000E+00 0. -1.
          1   -1    0    0  502    0 -0.00000000000E+00 -0.00000000000E+00 -0.66148454653E+03  0.66148454653E+03  0.00000000000E+00 0. -1.
         25    2    1    2    0    0 -0.47427365659E+02 -0.25141272655E+02 -0.15478958916E+03  0.20607429356E+03  0.12500143580E+03 0.  0.
          4    1    3    3  501    0 -0.74802352566E+02 -0.12366627316E+02 -0.15840903415E+03  0.17562277876E+03  0.12700000000E+01 0. -1.
         -4    1    3    3    0  501  0.27374986907E+02 -0.12774645339E+02  0.36194449878E+01  0.30451514802E+02  0.12700000000E+01 0. -1.
          2    1    1    2  502    0 -0.15012736747E+02 -0.32722696001E+02 -0.42154682697E+03  0.42308141584E+03  0.00000000000E+00 0. -1.
          1    1    1    2  503    0  0.62440102406E+02  0.57863968657E+02 -0.27894117368E+02  0.89582850150E+02  0.00000000000E+00 0. -1.
<mgrwt>
<rscale>  0 0.52664046E+02</rscale>
<asrwt>0</asrwt>
<pdfrwt beam="1">  1        2 0.88083090E-02 0.77037046E+02</pdfrwt>
<pdfrwt beam="2">  1        1 0.10176686E+00 0.36002182E+02</pdfrwt>
<totfact> 0.31120633E+03</totfact>
</mgrwt>
</event>
<event>
 7    1  0.4252091E-004  0.2000185E+03  0.7546771E-02  0.1244639E+00
          1   -1    0    0  502    0 -0.00000000000E+00  0.00000000000E+00  0.93566169825E+02  0.93566169825E+02  0.00000000000E+00 0. -1.
          2   -1    0    0  503    0  0.00000000000E+00 -0.00000000000E+00 -0.29700037179E+04  0.29700037179E+04  0.00000000000E+00 0. -1.
         25    2    1    2    0    0 -0.23522990841E+03 -0.34299441815E+02 -0.15979673684E+04  0.16203810515E+04  0.12500191943E+03 0.  0.
          4    1    3    3  501    0 -0.13327657613E+03 -0.36800114541E+02 -0.12543144723E+04  0.12619125574E+04  0.12700000000E+01 0.  1.
         -4    1    3    3    0  501 -0.10195333227E+03  0.25006727265E+01 -0.34365289612E+03  0.35846849406E+03  0.12700000000E+01 0.  1.
          2    1    1    2  502    0  0.54468048100E+02  0.45359297576E+02  0.59789616968E+02  0.92730968061E+02  0.00000000000E+00 0. -1.
          1    1    1    2  503    0  0.18076186031E+03 -0.11059855761E+02 -0.13382597966E+04  0.13504578682E+04  0.00000000000E+00 0. -1.
<mgrwt>
<rscale>  0 0.11907004E+03</rscale>
<asrwt>0</asrwt>
<pdfrwt beam="2">  1        2 0.45692357E+00 0.20001847E+03</pdfrwt>
<pdfrwt beam="1">  1        1 0.14394798E-01 0.70881832E+02</pdfrwt>
<totfact> 0.11447087E+02</totfact>
</mgrwt>
</event>
<event>
 7    1  0.4252091E-004  0.8953151E+02  0.7546771E-02  0.1331380E+00
          1   -1    0    0  502    0 -0.00000000000E+00  0.00000000000E+00  0.56383016934E+03  0.56383016934E+03  0.00000000000E+00 0. -1.
          2   -1    0    0  503    0  0.00000000000E+00 -0.00000000000E+00 -0.99053031390E+03  0.99053031390E+03  0.00000000000E+00 0. -1.
         25    2    1    2    0    0  0.56241970859E+02  0.10882328546E+03  0.15629151832E+03  0.23464140356E+03  0.12499553120E+03 0.  0.
          4    1    3    3  501    0 -0.13921207172E+02  0.78394206448E+02  0.13241259994E+03  0.15451265688E+03  0.12700000000E+01 0. -1.
         -4    1    3    3    0  501  0.70163178031E+02  0.30429079017E+02  0.23878918383E+02  0.80128746679E+02  0.12700000000E+01 0. -1.
          2    1    1    2  502    0  0.10280495990E+02 -0.86923558066E+02  0.36184972197E+03  0.37228566294E+03  0.00000000000E+00 0. -1.
          1    1    1    2  503    0 -0.66522466849E+02 -0.21899727399E+02 -0.94484138484E+03  0.94743341674E+03  0.00000000000E+00 0. -1.
<mgrwt>
<rscale>  0 0.79185212E+02</rscale>
<asrwt>0</asrwt>
<pdfrwt beam="2">  1        2 0.15238928E+00 0.70034539E+02</pdfrwt>
<pdfrwt beam="1">  1        1 0.86743103E-01 0.89531506E+02</pdfrwt>
<totfact> 0.15465875E+02</totfact>
</mgrwt>
</event>
<event>
 7    1  0.4252091E-004  0.5639483E+02  0.7546771E-02  0.1556937E+00
          1   -1    0    0  503    0  0.00000000000E+00  0.00000000000E+00  0.37025419536E+03  0.37025419536E+03  0.00000000000E+00 0. -1.
         -1   -1    0    0    0  501 -0.00000000000E+00 -0.00000000000E+00 -0.10573941030E+03  0.10573941030E+03  0.00000000000E+00 0.  1.
         25    2    1    2    0    0 -0.55747395054E+02 -0.20799683878E+02  0.16682027987E+03  0.21678436469E+03  0.12500422431E+03 0.  0.
          4    1    3    3  502    0  0.33175770419E+02 -0.26229864806E+02  0.24550726184E+02  0.48918182783E+02  0.12700000000E+01 0.  1.
         -4    1    3    3    0  502 -0.88923165474E+02  0.54301809277E+01  0.14226955369E+03  0.16786618191E+03  0.12700000000E+01 0.  1.
          2    1    1    2  503    0  0.12978309484E+02 -0.15989148298E+02  0.16789299490E+03  0.16915125514E+03  0.00000000000E+00 0. -1.
         -2    1    1    2    0  501  0.42769085570E+02  0.36788832176E+02 -0.70198489704E+02  0.90057985821E+02  0.00000000000E+00 0.  1.
<mgrwt>
<rscale>  0 0.34078776E+02</rscale>
<asrwt>0</asrwt>
<pdfrwt beam="1">  1        1 0.56962183E-01 0.20593431E+02</pdfrwt>
<pdfrwt beam="2">  1       -1 0.16267602E-01 0.56394829E+02</pdfrwt>
<totfact> 0.17976165E+03</totfact>
</mgrwt>
</event>
<event>
 7    1  0.4252091E-004  0.3938190E+02  0.7546771E-02  0.1583781E+00
          1   -1    0    0  502    0 -0.00000000000E+00  0.00000000000E+00  0.86056307804E+03  0.86056307804E+03  0.00000000000E+00 0. -1.
          2   -1    0    0  503    0  0.00000000000E+00 -0.00000000000E+00 -0.56825731392E+03  0.56825731392E+03  0.00000000000E+00 0. -1.
         25    2    1    2    0    0  0.36338252599E+02 -0.23308896556E+02 -0.53821793224E+03  0.55422404542E+03  0.12498790613E+03 0.  0.
          4    1    3    3  501    0  0.87856604616E+01 -0.73973316035E+02 -0.29623951690E+03  0.30546473379E+03  0.12700000000E+01 0.  1.
         -4    1    3    3    0  501  0.27552592138E+02  0.50664419479E+02 -0.24197841534E+03  0.24875931163E+03  0.12700000000E+01 0.  1.
          2    1    1    2  502    0 -0.39358846133E+02 -0.14402244828E+01  0.84489886716E+03  0.84581634457E+03  0.00000000000E+00 0. -1.
          1    1    1    2  503    0  0.30205935339E+01  0.24749121039E+02 -0.14375170811E+02  0.28780001969E+02  0.00000000000E+00 0. -1.
<mgrwt>
<rscale>  0 0.31335281E+02</rscale>
<asrwt>0</asrwt>
<pdfrwt beam="2">  1        2 0.87424202E-01 0.24932769E+02</pdfrwt>
<pdfrwt beam="1">  1        1 0.13239432E+00 0.39381901E+02</pdfrwt>
<totfact> 0.17585569E+02</totfact>
</mgrwt>
</event>
<event>
 7    1  0.4252091E-004  0.1075421E+03  0.7546771E-02  0.1314046E+00
          2   -1    0    0  503    0  0.00000000000E+00  0.00000000000E+00  0.51727818553E+03  0.51727818553E+03  0.00000000000E+00 0. -1.
          1   -1    0    0  502    0 -0.00000000000E+00 -0.00000000000E+00 -0.25307787779E+03  0.25307787779E+03  0.00000000000E+00 0. -1.
         25    2    1    2    0    0 -0.11110754692E+02 -0.16649955104E+03  0.11193261411E+03  0.23664349272E+03  0.12500273269E+03 0.  0.
          4    1    3    3  501    0  0.33968496415E+01  0.20095819402E+02  0.47591867023E+01  0.20967672808E+02  0.12700000000E+01 0.  1.
         -4    1    3    3    0  501 -0.14507604333E+02 -0.18659537044E+03  0.10717342741E+03  0.21567581991E+03  0.12700000000E+01 0.  1.
          2    1    1    2  502    0  0.24840129133E+02  0.99872057079E+02 -0.17306003301E+03  0.20134854066E+03  0.00000000000E+00 0. -1.
          1    1    1    2  503    0 -0.13729374441E+02  0.66627493959E+02  0.32532772664E+03  0.33236402994E+03  0.00000000000E+00 0. -1.
<mgrwt>
<rscale>  0 0.85532469E+02</rscale>
<asrwt>0</asrwt>
<pdfrwt beam="1">  1        2 0.79581259E-01 0.68027338E+02</pdfrwt>
<pdfrwt beam="2">  1        1 0.38935058E-01 0.10754211E+03</pdfrwt>
<totfact> 0.90136473E+02</totfact>
</mgrwt>
</event>
<event>
 7    1  0.4252091E-004  0.3829868E+02  0.7546771E-02  0.1608989E+00
          1   -1    0    0  503    0  0.00000000000E+00  0.00000000000E+00  0.21053040875E+03  0.21053040875E+03  0.00000000000E+00 0. -1.
         -1   -1    0    0    0  501 -0.00000000000E+00 -0.00000000000E+00 -0.57908519469E+03  0.57908519469E+03  0.00000000000E+00 0.  1.
         25    2    1    2    0    0  0.24178297788E-01  0.56915136207E+02 -0.14040159514E+03  0.19640474973E+03  0.12499153766E+03 0.  0.
          4    1    3    3  502    0 -0.31248783638E+02 -0.23372537461E+02 -0.86129715256E+02  0.94565864541E+02  0.12700000000E+01 0.  1.
         -4    1    3    3    0  502  0.31272961935E+02  0.80287673668E+02 -0.54271879882E+02  0.10183888519E+03  0.12700000000E+01 0.  1.
          2    1    1    2  503    0  0.92624690900E+01 -0.36955379155E+02  0.18024110926E+03  0.18422364357E+03  0.00000000000E+00 0. -1.
         -2    1    1    2    0  501 -0.92866473878E+01 -0.19959757052E+02 -0.40839430007E+03  0.40898721013E+03  0.00000000000E+00 0.  1.
<mgrwt>
<rscale>  0 0.29036571E+02</rscale>
<asrwt>0</asrwt>
<pdfrwt beam="1">  1        1 0.32389294E-01 0.38298683E+02</pdfrwt>
<pdfrwt beam="2">  1       -1 0.89090028E-01 0.22014398E+02</pdfrwt>
<totfact> 0.19030324E+02</totfact>
</mgrwt>
</event>
<event>
 7    1  0.4252091E-004  0.9013186E+02  0.7546771E-02  0.1387795E+00
          2   -1    0    0  503    0  0.00000000000E+00  0.00000000000E+00  0.20404105430E+04  0.20404105430E+04  0.00000000000E+00 0. -1.
         -2   -1    0    0    0  501 -0.00000000000E+00 -0.00000000000E+00 -0.74433194076E+03  0.74433194076E+03  0.00000000000E+00 0.  1.
         25    2    1    2    0    0 -0.11321207731E+03 -0.37817666763E+02  0.12027615456E+03  0.21056599465E+03  0.12499813750E+03 0.  0.
          4    1    3    3  502    0 -0.75507707863E+02 -0.12624329623E+02  0.14118866234E+03  0.16061332111E+03  0.12700000000E+01 0. -1.
         -4    1    3    3    0  502 -0.37704369444E+02 -0.25193337140E+02 -0.20912507784E+02  0.49952673535E+02  0.12700000000E+01 0. -1.
          1    1    1    2  503    0  0.23506757653E+02  0.36341850405E+02  0.18718602148E+04  0.18723605320E+04  0.00000000000E+00 0. -1.
         -1    1    1    2    0  501  0.89705319654E+02  0.14758163577E+01 -0.69605776719E+03  0.70181595713E+03  0.00000000000E+00 0.  1.
<mgrwt>
<rscale>  0 0.62458401E+02</rscale>
<asrwt>0</asrwt>
<pdfrwt beam="1">  1        2 0.31390931E+00 0.43281610E+02</pdfrwt>
<pdfrwt beam="2">  1       -2 0.11451261E+00 0.90131857E+02</pdfrwt>
<totfact> 0.57024844E+00</totfact>
</mgrwt>
</event>
<event>
 7    1  0.4252091E-004  0.1249581E+03  0.7546771E-02  0.1421815E+00
         -2   -1    0    0    0  501 -0.00000000000E+00  0.00000000000E+00  0.81147230328E+03  0.81147230328E+03  0.00000000000E+00 0.  1.
          2   -1    0    0  503    0  0.00000000000E+00 -0.00000000000E+00 -0.58369705165E+03  0.58369705165E+03  0.00000000000E+00 0. -1.
         25    2    1    2    0    0 -0.90568456145E+01 -0.14643643696E+03 -0.30882749210E+03  0.36403795714E+03  0.12499423124E+03 0.  0.
          4    1    3    3  502    0  0.43214179537E+02 -0.12185749987E+03 -0.16934699552E+03  0.21306509188E+03  0.12700000000E+01 0.  1.
         -4    1    3    3    0  502 -0.52271025151E+02 -0.24578937085E+02 -0.13948049658E+03  0.15097286526E+03  0.12700000000E+01 0.  1.
          1    1    1    2  503    0  0.97829678972E+01  0.21796275673E+02 -0.24171686773E+03  0.24289468549E+03  0.00000000000E+00 0. -1.
         -1    1    1    2    0  501 -0.72612228267E+00  0.12464016128E+03  0.77831961145E+03  0.78823671230E+03  0.00000000000E+00 0.  1.
<mgrwt>
<rscale>  0 0.54638678E+02</rscale>
<asrwt>0</asrwt>
<pdfrwt beam="2">  1        2 0.89799546E-01 0.23891088E+02</pdfrwt>
<pdfrwt beam="1">  1       -2 0.12484189E+00 0.12495811E+03</pdfrwt>
<totfact> 0.28837796E+01</totfact>
</mgrwt>
</event>
<event>
 7    1  0.4252091E-004  0.1385788E+03  0.7546771E-02  0.1284141E+00
          2   -1    0    0  503    0  0.00000000000E+00  0.00000000000E+00  0.16686874581E+04  0.16686874581E+04  0.00000000000E+00 0. -1.
         -2   -1    0    0    0  501 -0.00000000000E+00 -0.00000000000E+00 -0.93366805398E+02  0.93366805398E+02  0.00000000000E+00 0.  1.
         25    2    1    2    0    0 -0.57058176062E+02  0.18846718338E+03  0.38258720847E+03  0.44807848511E+03  0.12500336821E+03 0.  0.
          4    1    3    3  502    0  0.27887218779E+02  0.12206680251E+02  0.98679359290E+02  0.10327598396E+03  0.12700000000E+01 0.  1.
         -4    1    3    3    0  502 -0.84945394841E+02  0.17626050312E+03  0.28390784918E+03  0.34480250114E+03  0.12700000000E+01 0.  1.
          1    1    1    2  503    0  0.58418947753E+02 -0.11890252459E+03  0.12285831558E+04  0.12357051244E+04  0.00000000000E+00 0. -1.
         -1    1    1    2    0  501 -0.13607716908E+01 -0.69564658786E+02 -0.35849711576E+02  0.78270653962E+02  0.00000000000E+00 0.  1.
<mgrwt>
<rscale>  0 0.98193859E+02</rscale>
<asrwt>0</asrwt>
<pdfrwt beam="1">  1        2 0.25672113E+00 0.13857884E+03</pdfrwt>
<pdfrwt beam="2">  1       -2 0.14364125E-01 0.69577967E+02</pdfrwt>
<totfact> 0.40709613E+02</totfact>
</mgrwt>
</event>
<event>
 7    1  0.4252091E-004  0.1052427E+03  0.7546771E-02  0.1335428E+00
          2   -1    0    0  503    0  0.00000000000E+00  0.00000000000E+00  0.57866948891E+02  0.57866948891E+02  0.00000000000E+00 0. -1.
          1   -1    0    0  502    0 -0.00000000000E+00 -0.00000000000E+00 -0.21926125607E+04  0.21926125607E+04  0.00000000000E+00 0. -1.
         25    2    1    2    0    0 -0.17207694554E+02 -0.51221317307E+02 -0.29512556074E+03  0.32502890421E+03  0.12499985550E+03 0.  0.
          4    1    3    3  501    0  0.37404807083E+02 -0.61661510645E+02 -0.10846847112E+03  0.13026236454E+03  0.12700000000E+01 0.  1.
         -4    1    3    3    0  501 -0.54612501637E+02  0.10440193338E+02 -0.18665708962E+03  0.19476653968E+03  0.12700000000E+01 0.  1.
          2    1    1    2  502    0  0.46427301245E+02  0.10075022818E+03 -0.18608482271E+04  0.18641518788E+04  0.00000000000E+00 0. -1.
          1    1    1    2  503    0 -0.29219606691E+02 -0.49528910871E+02  0.21228176031E+02  0.61298726617E+02  0.00000000000E+00 0. -1.
<mgrwt>
<rscale>  0 0.77794908E+02</rscale>
<asrwt>0</asrwt>
<pdfrwt beam="1">  1        2 0.89026087E-02 0.57505638E+02</pdfrwt>
<pdfrwt beam="2">  1        1 0.33732497E+00 0.10524268E+03</pdfrwt>
<totfact> 0.25945355E+02</totfact>
</mgrwt>
</event>
<event>
 7    1  0.4252091E-004  0.7315586E+02  0.7546771E-02  0.1396132E+00
          1   -1    0    0  502    0 -0.00000000000E+00  0.00000000000E+00  0.25547338019E+02  0.25547338019E+02  0.00000000000E+00 0. -1.
          2   -1    0    0  503    0  0.00000000000E+00 -0.00000000000E+00 -0.10168915074E+04  0.10168915074E+04  0.00000000000E+00 0. -1.
         25    2    1    2    0    0  0.10008382481E+02  0.52207697831E+02 -0.41899927978E+03  0.44046726142E+03  0.12500080196E+03 0.  0.
          4    1    3    3  501    0 -0.48686959910E+02  0.71868069515E+00 -0.90083840549E+02  0.10240921734E+03  0.12700000000E+01 0. -1.
         -4    1    3    3    0  501  0.58695342391E+02  0.51489017136E+02 -0.32891543923E+03  0.33805804408E+03  0.12700000000E+01 0. -1.
          2    1    1    2  502    0 -0.45072586377E+02  0.21365006074E+02 -0.41442126326E+02  0.64849451514E+02  0.00000000000E+00 0. -1.
          1    1    1    2  503    0  0.35064203896E+02 -0.73572703904E+02 -0.53090276331E+03  0.53712213252E+03  0.00000000000E+00 0. -1.
<mgrwt>
<rscale>  0 0.60406995E+02</rscale>
<asrwt>0</asrwt>
<pdfrwt beam="2">  1        2 0.15644485E+00 0.73155865E+02</pdfrwt>
<pdfrwt beam="1">  1        1 0.39303596E-02 0.49879871E+02</pdfrwt>
<totfact> 0.73078607E+03</totfact>
</mgrwt>
</event>
<event>
 7    1  0.4252091E-004  0.5834545E+02  0.7546771E-02  0.1528980E+00
         -2   -1    0    0    0  501 -0.00000000000E+00  0.00000000000E+00  0.75753144555E+02  0.75753144555E+02  0.00000000000E+00 0.  1.
          2   -1    0    0  503    0  0.00000000000E+00 -0.00000000000E+00 -0.46665667023E+03  0.46665667023E+03  0.00000000000E+00 0. -1.
         25    2    1    2    0    0  0.55088181876E+02 -0.16189405266E+02 -0.21472482830E+03  0.25500423356E+03  0.12499441036E+03 0.  0.
          4    1    3    3  502    0 -0.13271339985E+02  0.43493138878E+02 -0.88911958812E+02  0.99873574654E+02  0.12700000000E+01 0. -1.
         -4    1    3    3    0  502  0.68359521862E+02 -0.59682544144E+02 -0.12581286949E+03  0.15513065891E+03  0.12700000000E+01 0. -1.
          1    1    1    2  503    0 -0.10150486141E+02 -0.21594169072E+02 -0.21545247935E+03  0.21676971967E+03  0.00000000000E+00 0. -1.
         -1    1    1    2    0  501 -0.44937695735E+02  0.37783574338E+02  0.39273781971E+02  0.70635861558E+02  0.00000000000E+00 0.  1.
<mgrwt>
<rscale>  0 0.37311827E+02</rscale>
<asrwt>0</asrwt>
<pdfrwt beam="2">  1        2 0.71793333E-01 0.23860857E+02</pdfrwt>
<pdfrwt beam="1">  1       -2 0.11654330E-01 0.58345450E+02</pdfrwt>
<totfact> 0.32597667E+03</totfact>
</mgrwt>
</event>
<event>
 7    1  0.4252091E-004  0.1106642E+03  0.7546771E-02  0.1285314E+00
          2   -1    0    0  503    0  0.00000000000E+00  0.00000000000E+00  0.23990824007E+04  0.23990824007E+04  0.00000000000E+00 0. -1.
          1   -1    0    0  502    0 -0.00000000000E+00 -0.00000000000E+00 -0.43246938896E+03  0.43246938896E+03  0.00000000000E+00 0. -1.
         25    2    1    2    0    0 -0.89932614605E+01 -0.19043019638E+03  0.47766205272E+03  0.52927379240E+03  0.12500068907E+03 0.  0.
          4    1    3    3  501    0 -0.37124460666E+02 -0.17712968929E+03  0.45795316450E+03  0.49241838530E+03  0.12700000000E+01 0.  1.
         -4    1    3    3    0  501  0.28131199205E+02 -0.13300507091E+02  0.19708888223E+02  0.36855407101E+02  0.12700000000E+01 0.  1.
          2    1    1    2  502    0 -0.84454462261E+01  0.85753503461E+02 -0.40059339069E+03  0.40975609036E+03  0.00000000000E+00 0. -1.
          1    1    1    2  503    0  0.17438707687E+02  0.10467669292E+03  0.18895443497E+04  0.18925219069E+04  0.00000000000E+00 0. -1.
<mgrwt>
<rscale>  0 0.97651200E+02</rscale>
<asrwt>0</asrwt>
<pdfrwt beam="1">  1        2 0.36908959E+00 0.11066423E+03</pdfrwt>
<pdfrwt beam="2">  1        1 0.66533754E-01 0.86168375E+02</pdfrwt>
<totfact> 0.38905953E+01</totfact>
</mgrwt>
</event>
<event>
 7    1  0.4252091E-004  0.6851449E+02  0.7546771E-02  0.1385419E+00
         -2   -1    0    0    0  501 -0.00000000000E+00  0.00000000000E+00  0.16745461205E+04  0.16745461205E+04  0.00000000000E+00 0.  1.
          2   -1    0    0  503    0  0.00000000000E+00 -0.00000000000E+00 -0.10277464477E+03  0.10277464477E+03  0.00000000000E+00 0. -1.
         25    2    1    2    0    0  0.12805275294E+01 -0.13632435242E+02  0.23335390114E+03  0.26507338595E+03  0.12498949443E+03 0.  0.
          4    1    3    3  502    0  0.90189368975E+01  0.39723799875E+02  0.19419793687E+03  0.19842825676E+03  0.12700000000E+01 0.  1.
         -4    1    3    3    0  502 -0.77384093681E+01 -0.53356235117E+02  0.39155964273E+02  0.66645129181E+02  0.12700000000E+01 0.  1.
          1    1    1    2  503    0  0.12347995754E+02 -0.56712000254E+02 -0.76216295952E+02  0.95800040400E+02  0.00000000000E+00 0. -1.
         -3    1    1    2    0  501 -0.13628523283E+02  0.70344435496E+02  0.14146338705E+04  0.14164473389E+04  0.00000000000E+00 0.  1.
<mgrwt>
<rscale>  0 0.63060521E+02</rscale>
<asrwt>0</asrwt>
<pdfrwt beam="2">  1        2 0.15811485E-01 0.58040710E+02</pdfrwt>
<pdfrwt beam="1">  1       -2 0.25762246E+00 0.68514486E+02</pdfrwt>
<totfact> 0.25252689E+01</totfact>
</mgrwt>
</event>
<event>
 7    1  0.4252091E-004  0.5525603E+02  0.7546771E-02  0.1462220E+00
          2   -1    0    0  503    0  0.00000000000E+00  0.00000000000E+00  0.15747367585E+04  0.15747367585E+04  0.00000000000E+00 0. -1.
         -2   -1    0    0    0  501 -0.00000000000E+00 -0.00000000000E+00 -0.31291063937E+02  0.31291063937E+02  0.00000000000E+00 0.  1.
         25    2    1    2    0    0  0.18898593004E+01  0.26700751779E+02  0.35761826044E+03  0.37977792970E+03  0.12499581582E+03 0.  0.
          4    1    3    3  502    0 -0.71004956001E+01 -0.44348009407E+02  0.22100853112E+03  0.22552948079E+03  0.12700000000E+01 0. -1.
         -4    1    3    3    0  502  0.89903549005E+01  0.71048761186E+02  0.13660972932E+03  0.15424844891E+03  0.12700000000E+01 0. -1.
          1    1    1    2  503    0  0.34735276779E+02  0.19795806806E+02  0.11616106785E+04  0.11622984909E+04  0.00000000000E+00 0. -1.
         -1    1    1    2    0  501 -0.36625136080E+02 -0.46496558585E+02  0.24216755653E+02  0.63951401919E+02  0.00000000000E+00 0.  1.
<mgrwt>
<rscale>  0 0.47001544E+02</rscale>
<asrwt>0</asrwt>
<pdfrwt beam="1">  1        2 0.24226713E+00 0.39980163E+02</pdfrwt>
<pdfrwt beam="2">  1       -2 0.48140110E-02 0.55256031E+02</pdfrwt>
<totfact> 0.26251117E+03</totfact>
</mgrwt>
</event>
<event>
 7    1  0.4252091E-004  0.5823451E+02  0.7546771E-02  0.1489360E+00
          1   -1    0    0  502    0 -0.00000000000E+00  0.00000000000E+00  0.32590182270E+03  0.32590182270E+03  0.00000000000E+00 0. -1.
          2   -1    0    0  503    0  0.00000000000E+00 -0.00000000000E+00 -0.21836847422E+03  0.21836847422E+03  0.00000000000E+00 0. -1.
         25    2    1    2    0    0  0.64147496766E+02  0.56668830272E+02 -0.19649711653E+02  0.15276852393E+03  0.12500341224E+03 0.  0.
          4    1    3    3  501    0 -0.20290830177E+02  0.31685801714E+01 -0.45133893210E+02  0.49602811471E+02  0.12700000000E+01 0. -1.
         -4    1    3    3    0  501  0.84438326944E+02  0.53500250101E+02  0.25484181557E+02  0.10316571246E+03  0.12700000000E+01 0. -1.
          2    1    1    2  502    0 -0.34984530814E+02 -0.45351924818E+02  0.25425977812E+03  0.26063144333E+03  0.00000000000E+00 0. -1.
          1    1    1    2  503    0 -0.29162965953E+02 -0.11316905454E+02 -0.12707671799E+03  0.13087032967E+03  0.00000000000E+00 0. -1.
<mgrwt>
<rscale>  0 0.42681145E+02</rscale>
<asrwt>0</asrwt>
<pdfrwt beam="2">  1        2 0.33595150E-01 0.31281799E+02</pdfrwt>
<pdfrwt beam="1">  1        1 0.50138742E-01 0.58234508E+02</pdfrwt>
<totfact> 0.15939549E+03</totfact>
</mgrwt>
</event>
<event>
 7    1  0.4252091E-004  0.1492475E+03  0.7546771E-02  0.1290592E+00
          1   -1    0    0  502    0 -0.00000000000E+00  0.00000000000E+00  0.66674179323E+03  0.66674179323E+03  0.00000000000E+00 0. -1.
          2   -1    0    0  503    0  0.00000000000E+00 -0.00000000000E+00 -0.10335593303E+04  0.10335593303E+04  0.00000000000E+00 0. -1.
         25    2    1    2    0    0 -0.10619961308E+03 -0.31361739177E+02 -0.67646083091E+03  0.69676860067E+03  0.12500124248E+03 0.  0.
          4    1    3    3  501    0 -0.36130956941E+02 -0.74674658510E+02 -0.29063296450E+03  0.30224308698E+03  0.12700000000E+01 0. -1.
         -4    1    3    3    0  501 -0.70068656138E+02  0.43312919332E+02 -0.38582786640E+03  0.39452551368E+03  0.12700000000E+01 0. -1.
          2    1    1    2  502    0  0.14938105277E+03 -0.11441565072E+02  0.64527454099E+03  0.66243855684E+03  0.00000000000E+00 0. -1.
          1    1    1    2  503    0 -0.43181439688E+02  0.42803304250E+02 -0.33563124715E+03  0.34109396602E+03  0.00000000000E+00 0. -1.
<mgrwt>
<rscale>  0 0.95259623E+02</rscale>
<asrwt>0</asrwt>
<pdfrwt beam="2">  1        2 0.15900913E+00 0.60800983E+02</pdfrwt>
<pdfrwt beam="1">  1        1 0.10257566E+00 0.14924752E+03</pdfrwt>
<totfact> 0.11515542E+02</totfact>
</mgrwt>
</event>
<event>
 7    1  0.4252091E-004  0.5179640E+02  0.7546771E-02  0.1466188E+00
         -2   -1    0    0    0  501 -0.00000000000E+00  0.00000000000E+00  0.31134283918E+02  0.31134283918E+02  0.00000000000E+00 0.  1.
          2   -1    0    0  503    0  0.00000000000E+00 -0.00000000000E+00 -0.70910893104E+03  0.70910893104E+03  0.00000000000E+00 0. -1.
         25    2    1    2    0    0  0.71992631755E+02 -0.39014405134E+02 -0.51990511119E+03  0.54095567239E+03  0.12500660785E+03 0.  0.
          4    1    3    3  502    0 -0.22805450075E+02  0.22666695681E+02 -0.17632859679E+03  0.17924077268E+03  0.12700000000E+01 0. -1.
         -4    1    3    3    0  502  0.94798081830E+02 -0.61681100815E+02 -0.34357651441E+03  0.36171489970E+03  0.12700000000E+01 0. -1.
          1    1    1    2  503    0 -0.42377752435E+02  0.10019331994E+02 -0.15111271050E+03  0.15726192225E+03  0.00000000000E+00 0. -1.
         -1    1    1    2    0  501 -0.29614879320E+02  0.28995073140E+02 -0.69568254302E+01  0.42025620324E+02  0.00000000000E+00 0.  1.
<mgrwt>
<rscale>  0 0.46332967E+02</rscale>
<asrwt>0</asrwt>
<pdfrwt beam="2">  1        2 0.10909367E+00 0.51796398E+02</pdfrwt>
<pdfrwt beam="1">  1       -2 0.47898904E-02 0.41445812E+02</pdfrwt>
<totfact> 0.75465908E+03</totfact>
</mgrwt>
</event>
<event>
 7    1  0.4252091E-004  0.6288250E+02  0.7546771E-02  0.1420797E+00
          1   -1    0    0  502    0 -0.00000000000E+00  0.00000000000E+00  0.15359385576E+03  0.15359385576E+03  0.00000000000E+00 0. -1.
          2   -1    0    0  503    0  0.00000000000E+00 -0.00000000000E+00 -0.59736806197E+03  0.59736806197E+03  0.00000000000E+00 0. -1.
         25    2    1    2    0    0  0.22556457132E+02  0.12208208036E+02  0.98653049743E+01  0.12794224405E+03  0.12495623021E+03 0.  0.
          4    1    3    3  501    0 -0.44724994936E+02 -0.22925882819E+02 -0.52195245371E+01  0.50544807957E+02  0.12700000000E+01 0. -1.
         -4    1    3    3    0  501  0.67281452067E+02  0.35134090855E+02  0.15084829511E+02  0.77397436094E+02  0.12700000000E+01 0. -1.
          2    1    1    2  502    0 -0.68847013933E+02 -0.24317013827E+02  0.67650682865E+02  0.99538150380E+02  0.00000000000E+00 0. -1.
          1    1    1    2  503    0  0.46290556801E+02  0.12108805791E+02 -0.52129019404E+03  0.52348152330E+03  0.00000000000E+00 0. -1.
<mgrwt>
<rscale>  0 0.54852593E+02</rscale>
<asrwt>0</asrwt>
<pdfrwt beam="2">  1        2 0.91902779E-01 0.47848081E+02</pdfrwt>
<pdfrwt beam="1">  1        1 0.23629824E-01 0.62882500E+02</pdfrwt>
<totfact> 0.14170878E+03</totfact>
</mgrwt>
</event>
<event>
 7    1  0.4252091E-004  0.1004882E+03  0.7546771E-02  0.1469463E+00
          2   -1    0    0  503    0  0.00000000000E+00  0.00000000000E+00  0.38501469425E+03  0.38501469425E+03  0.00000000000E+00 0. -1.
         -2   -1    0    0    0  501 -0.00000000000E+00 -0.00000000000E+00 -0.55014058703E+02  0.55014058703E+02  0.00000000000E+00 0.  1.
         25    2    1    2    0    0  0.73613359316E+02  0.60144067837E+02  0.14369338983E+03  0.21285874631E+03  0.12499928013E+03 0.  0.
          4    1    3    3  502    0  0.16954266785E+02 -0.27429874345E+02 -0.34893128056E+01  0.32459719232E+02  0.12700000000E+01 0.  1.
         -4    1    3    3    0  502  0.56659092531E+02  0.87573942182E+02  0.14718270263E+03  0.18039902707E+03  0.12700000000E+01 0.  1.
          1    1    1    2  503    0 -0.48321360075E+01  0.20299080024E+02  0.52975775249E+02  0.56937114007E+02  0.00000000000E+00 0. -1.
         -1    1    1    2    0  501 -0.68781223308E+02 -0.80443147861E+02  0.13333147047E+03  0.17023289264E+03  0.00000000000E+00 0.  1.
<mgrwt>
<rscale>  0 0.45790995E+02</rscale>
<asrwt>0</asrwt>
<pdfrwt beam="1">  1        2 0.59233028E-01 0.20866293E+02</pdfrwt>
<pdfrwt beam="2">  1       -2 0.84637016E-02 0.10048815E+03</pdfrwt>
<totfact> 0.67275017E+03</totfact>
</mgrwt>
</event>
<event>
 7    1  0.4252091E-004  0.5240949E+02  0.7546771E-02  0.1435276E+00
          2   -1    0    0  503    0  0.00000000000E+00  0.00000000000E+00  0.15209462398E+04  0.15209462398E+04  0.00000000000E+00 0. -1.
          1   -1    0    0  502    0 -0.00000000000E+00 -0.00000000000E+00 -0.17010262110E+03  0.17010262110E+03  0.00000000000E+00 0. -1.
         25    2    1    2    0    0  0.13635425056E+01  0.78073580945E+00  0.16706302345E+03  0.20867537558E+03  0.12503155510E+03 0.  0.
          4    1    3    3  501    0 -0.31623481794E+02  0.18625589758E+02  0.16716314374E+03  0.17114931119E+03  0.12700000000E+01 0. -1.
         -4    1    3    3    0  501  0.32987024299E+02 -0.17844853949E+02 -0.10012029003E+00  0.37526064390E+02  0.12700000000E+01 0. -1.
          2    1    1    2  502    0 -0.17591979667E+02  0.49368788293E+02 -0.14415793360E+03  0.15338925916E+03  0.00000000000E+00 0. -1.
          1    1    1    2  503    0  0.16228437161E+02 -0.50149524102E+02  0.13279385288E+04  0.13289842261E+04  0.00000000000E+00 0. -1.
<mgrwt>
<rscale>  0 0.51915297E+02</rscale>
<asrwt>0</asrwt>
<pdfrwt beam="1">  1        2 0.23399172E+00 0.51425760E+02</pdfrwt>
<pdfrwt beam="2">  1        1 0.26169635E-01 0.52409493E+02</pdfrwt>
<totfact> 0.36092582E+02</totfact>
</mgrwt>
</event>
<event>
 7    1  0.4252091E-004  0.4565030E+02  0.7546771E-02  0.1528358E+00
          1   -1    0    0  502    0 -0.00000000000E+00  0.00000000000E+00  0.71409755293E+03  0.71409755293E+03  0.00000000000E+00 0. -1.
          2   -1    0    0  503    0  0.00000000000E+00 -0.00000000000E+00 -0.15646679390E+03  0.15646679390E+03  0.00000000000E+00 0. -1.
         25    2    1    2    0    0  0.72248867525E+02 -0.10934133992E+02  0.17680515505E+01  0.14480655102E+03  0.12500542815E+03 0.  0.
          4    1    3    3  501    0  0.18713928499E+02 -0.16118640214E+02 -0.58803048681E+02  0.63792108575E+02  0.12700000000E+01 0. -1.
         -4    1    3    3    0  501  0.53534939026E+02  0.51845062215E+01  0.60571100231E+02  0.81014442444E+02  0.12700000000E+01 0. -1.
          2    1    1    2  502    0 -0.45228615328E+02 -0.34748443638E+01  0.63721784644E+03  0.63883040473E+03  0.00000000000E+00 0. -1.
          1    1    1    2  503    0 -0.27020252198E+02  0.14408978356E+02 -0.81355138959E+02  0.86927391086E+02  0.00000000000E+00 0. -1.
<mgrwt>
<rscale>  0 0.37388605E+02</rscale>
<asrwt>0</asrwt>
<pdfrwt beam="2">  1        2 0.24071815E-01 0.30622095E+02</pdfrwt>
<pdfrwt beam="1">  1        1 0.10986116E+00 0.45650300E+02</pdfrwt>
<totfact> 0.84017715E+02</totfact>
</mgrwt>
</event>
<event>
 7    1  0.4252091E-004  0.2492428E+03  0.7546771E-02  0.1227272E+00
          1   -1    0    0  502    0 -0.00000000000E+00  0.00000000000E+00  0.25105424685E+03  0.25105424685E+03  0.00000000000E+00 0. -1.
          2   -1    0    0  503    0  0.00000000000E+00 -0.00000000000E+00 -0.13998449455E+04  0.13998449455E+04  0.00000000000E+00 0. -1.
         25    2    1    2    0    0  0.26521193321E+03 -0.80239540603E+02 -0.46745866670E+03  0.55760042224E+03  0.12499948965E+03 0.  0.
          4    1    3    3  501    0  0.39732731341E+02 -0.70469467535E+01 -0.18255581985E+03  0.18696681433E+03  0.12700000000E+01 0.  1.
         -4    1    3    3    0  501  0.22547920187E+03 -0.73192593849E+02 -0.28490284685E+03  0.37063360791E+03  0.12700000000E+01 0.  1.
          2    1    1    2  502    0 -0.24567719004E+03  0.15173900287E+02  0.13052020294E+03  0.27860913899E+03  0.00000000000E+00 0. -1.
          1    1    1    2  503    0 -0.19534743173E+02  0.65065640316E+02 -0.81185223490E+03  0.81468963112E+03  0.00000000000E+00 0. -1.
<mgrwt>
<rscale>  0 0.13012406E+03</rscale>
<asrwt>0</asrwt>
<pdfrwt beam="2">  1        2 0.21536076E+00 0.67934849E+02</pdfrwt>
<pdfrwt beam="1">  1        1 0.38623730E-01 0.24924278E+03</pdfrwt>
<totfact> 0.25676342E+02</totfact>
</mgrwt>
</event>
<event>
 7    1  0.4252091E-004  0.7348468E+02  0.7546771E-02  0.1415730E+00
          1   -1    0    0  502    0 -0.00000000000E+00  0.00000000000E+00  0.36031692332E+02  0.36031692332E+02  0.00000000000E+00 0. -1.
          2   -1    0    0  503    0  0.00000000000E+00 -0.00000000000E+00 -0.12171655946E+04  0.12171655946E+04  0.00000000000E+00 0. -1.
         25    2    1    2    0    0  0.12527679587E+01 -0.59656474767E+02 -0.27540781026E+03  0.30827761790E+03  0.12500065335E+03 0.  0.
          4    1    3    3  501    0 -0.84050227508E+01 -0.23398966080E+02 -0.26905067206E+03  0.27019998715E+03  0.12700000000E+01 0. -1.
         -4    1    3    3    0  501  0.96577907095E+01 -0.36257508688E+02 -0.63571382042E+01  0.38077630753E+02  0.12700000000E+01 0. -1.
          2    1    1    2  502    0  0.40394536726E+02  0.68500898549E+02 -0.63896184862E+02  0.10201379387E+03  0.00000000000E+00 0. -1.
          1    1    1    2  503    0 -0.41647304684E+02 -0.88444237822E+01 -0.84182990713E+03  0.84290587515E+03  0.00000000000E+00 0. -1.
<mgrwt>
<rscale>  0 0.55934684E+02</rscale>
<asrwt>0</asrwt>
<pdfrwt beam="2">  1        2 0.18725626E+00 0.42576071E+02</pdfrwt>
<pdfrwt beam="1">  1        1 0.55433369E-02 0.73484678E+02</pdfrwt>
<totfact> 0.38674417E+03</totfact>
</mgrwt>
</event>
<event>
 7    1  0.4252091E-004  0.8772144E+02  0.7546771E-02  0.1329915E+00
          1   -1    0    0  503    0  0.00000000000E+00  0.00000000000E+00  0.16227571574E+04  0.16227571574E+04  0.00000000000E+00 0. -1.
         -1   -1    0    0    0  501 -0.00000000000E+00 -0.00000000000E+00 -0.37063549394E+03  0.37063549394E+03  0.00000000000E+00 0.  1.
         25    2    1    2    0    0 -0.57933108888E+01 -0.13540988126E+03 -0.89342537932E+02  0.20489612295E+03  0.12502373264E+03 0.  0.
          4    1    3    3  502    0 -0.29501385298E+02 -0.16835116468E+02 -0.75974008869E+02  0.83231098783E+02  0.12700000000E+01 0.  1.
         -4    1    3    3    0  502  0.23708074409E+02 -0.11857476479E+03 -0.13368529062E+02  0.12166502417E+03  0.12700000000E+01 0.  1.
          2    1    1    2  503    0 -0.35208487086E+02  0.63268635640E+02  0.15564082670E+04  0.15580915414E+04  0.00000000000E+00 0. -1.
         -2    1    1    2    0  501  0.41001797974E+02  0.72141245617E+02 -0.21494406552E+03  0.23040498706E+03  0.00000000000E+00 0.  1.
<mgrwt>
<rscale>  0 0.79696395E+02</rscale>
<asrwt>0</asrwt>
<pdfrwt beam="1">  1        1 0.24965494E+00 0.72405510E+02</pdfrwt>
<pdfrwt beam="2">  1       -1 0.57020846E-01 0.87721437E+02</pdfrwt>
<totfact> 0.22417321E+01</totfact>
</mgrwt>
</event>
<event>
 7    1  0.4252091E-004  0.6222582E+02  0.7546771E-02  0.1458139E+00
          2   -1    0    0  503    0  0.00000000000E+00  0.00000000000E+00  0.13774401699E+04  0.13774401699E+04  0.00000000000E+00 0. -1.
          1   -1    0    0  502    0 -0.00000000000E+00 -0.00000000000E+00 -0.24609001887E+03  0.24609001887E+03  0.00000000000E+00 0. -1.
         25    2    1    2    0    0 -0.48475579270E+02  0.84112132274E+02  0.83923410147E+02  0.17914565313E+03  0.12500117472E+03 0.  0.
          4    1    3    3  501    0 -0.74879128194E+02  0.10011661362E+03  0.54201999561E+02  0.13627064915E+03  0.12700000000E+01 0.  1.
         -4    1    3    3    0  501  0.26403548924E+02 -0.16004481348E+02  0.29721410586E+02  0.42875003979E+02  0.12700000000E+01 0.  1.
          2    1    1    2  502    0  0.11579486377E+02 -0.34688256088E+02 -0.19602352826E+03  0.19940557476E+03  0.00000000000E+00 0. -1.
          1    1    1    2  503    0  0.36896092893E+02 -0.49423876186E+02  0.12434502691E+04  0.12449789608E+04  0.00000000000E+00 0. -1.
<mgrwt>
<rscale>  0 0.47703185E+02</rscale>
<asrwt>0</asrwt>
<pdfrwt beam="1">  1        2 0.21191387E+00 0.62225822E+02</pdfrwt>
<pdfrwt beam="2">  1        1 0.37860003E-01 0.36569928E+02</pdfrwt>
<totfact> 0.26747298E+02</totfact>
</mgrwt>
</event>
<event>
 7    1  0.4252091E-004  0.9879887E+02  0.7546771E-02  0.1395279E+00
          2   -1    0    0  503    0  0.00000000000E+00  0.00000000000E+00  0.36721233978E+03  0.36721233978E+03  0.00000000000E+00 0. -1.
          1   -1    0    0  502    0 -0.00000000000E+00 -0.00000000000E+00 -0.82379854585E+03  0.82379854585E+03  0.00000000000E+00 0. -1.
         25    2    1    2    0    0 -0.59784127005E+02 -0.17372317575E+02  0.14919041478E+03  0.20434692533E+03  0.12499578702E+03 0.  0.
          4    1    3    3  501    0 -0.65814244816E+02 -0.20898270652E+02  0.15904237954E+02  0.70871787206E+02  0.12700000000E+01 0.  1.
         -4    1    3    3    0  501  0.60301178111E+01  0.35259530776E+01  0.13328617682E+03  0.13347513813E+03  0.12700000000E+01 0.  1.
          2    1    1    2  502    0  0.95438181166E+02  0.27933991480E+02 -0.79126283404E+03  0.79748707002E+03  0.00000000000E+00 0. -1.
          3    1    1    2  503    0 -0.35654054161E+02 -0.10561673905E+02  0.18548621319E+03  0.18917689028E+03  0.00000000000E+00 0. -1.
<mgrwt>
<rscale>  0 0.60612576E+02</rscale>
<asrwt>0</asrwt>
<pdfrwt beam="1">  1        2 0.56494207E-01 0.37185488E+02</pdfrwt>
<pdfrwt beam="2">  1        1 0.12673824E+00 0.98798873E+02</pdfrwt>
<totfact> 0.27788431E+02</totfact>
</mgrwt>
</event>
<event>
 7    1  0.4252091E-004  0.1093499E+03  0.7546771E-02  0.1365211E+00
          2   -1    0    0  503    0  0.00000000000E+00  0.00000000000E+00  0.17068525794E+03  0.17068525794E+03  0.00000000000E+00 0. -1.
         -2   -1    0    0    0  501 -0.00000000000E+00 -0.00000000000E+00 -0.39766060124E+03  0.39766060124E+03  0.00000000000E+00 0.  1.
         25    2    1    2    0    0 -0.71079890845E+02  0.29196086949E+02 -0.22062194579E+03  0.26495705648E+03  0.12499374562E+03 0.  0.
          4    1    3    3  502    0  0.33293128907E+02 -0.10298519438E+02 -0.46139295054E+02  0.57835450920E+02  0.12700000000E+01 0.  1.
         -4    1    3    3    0  502 -0.10437301975E+03  0.39494606387E+02 -0.17448265073E+03  0.20712160556E+03  0.12700000000E+01 0.  1.
          1    1    1    2  503    0  0.11151241528E+03 -0.14762745091E+02  0.12324768217E+03  0.16686206448E+03  0.00000000000E+00 0. -1.
         -1    1    1    2    0  501 -0.40432524434E+02 -0.14433341857E+02 -0.12960107969E+03  0.13652673821E+03  0.00000000000E+00 0.  1.
<mgrwt>
<rscale>  0 0.68516807E+02</rscale>
<asrwt>0</asrwt>
<pdfrwt beam="1">  1        2 0.26259271E-01 0.10934994E+03</pdfrwt>
<pdfrwt beam="2">  1       -2 0.61178553E-01 0.42931462E+02</pdfrwt>
<totfact> 0.51471287E+02</totfact>
</mgrwt>
</event>
<event>
 7    1  0.4252091E-004  0.4473882E+02  0.7546771E-02  0.1588737E+00
         -1   -1    0    0    0  501 -0.00000000000E+00  0.00000000000E+00  0.22373167700E+02  0.22373167700E+02  0.00000000000E+00 0.  1.
          1   -1    0    0  503    0  0.00000000000E+00 -0.00000000000E+00 -0.24390781271E+04  0.24390781271E+04  0.00000000000E+00 0. -1.
         25    2    1    2    0    0  0.16843870316E+02 -0.18707912817E+02 -0.93714828918E+03  0.94578267242E+03  0.12499698225E+03 0.  0.
          4    1    3    3  502    0  0.57655162123E+02 -0.30145427649E+02 -0.28840325826E+03  0.29565337273E+03  0.12700000000E+01 0.  1.
         -4    1    3    3    0  502 -0.40811291807E+02  0.11437514832E+02 -0.64874503092E+03  0.65012929970E+03  0.12700000000E+01 0.  1.
          2    1    1    2  503    0 -0.32936599935E+02  0.32648563211E+02 -0.14908476201E+04  0.14915687629E+04  0.00000000000E+00 0. -1.
         -2    1    1    2    0  501  0.16092729619E+02 -0.13940650394E+02  0.11290949803E+02  0.24099859490E+02  0.00000000000E+00 0.  1.
<mgrwt>
<rscale>  0 0.30863341E+02</rscale>
<asrwt>0</asrwt>
<pdfrwt beam="2">  1        1 0.37524292E+00 0.44738821E+02</pdfrwt>
<pdfrwt beam="1">  1       -1 0.34420246E-02 0.21291258E+02</pdfrwt>
<totfact> 0.51136788E+02</totfact>
</mgrwt>
</event>
<event>
 7    1  0.4252091E-004  0.9466575E+02  0.7546771E-02  0.1390833E+00
          2   -1    0    0  503    0  0.00000000000E+00  0.00000000000E+00  0.34001579149E+04  0.34001579149E+04  0.00000000000E+00 0. -1.
          1   -1    0    0  502    0 -0.00000000000E+00 -0.00000000000E+00 -0.51583633045E+03  0.51583633045E+03  0.00000000000E+00 0. -1.
         25    2    1    2    0    0  0.64893072079E+02 -0.30451387616E+02  0.68708290426E+03  0.70203097469E+03  0.12500469707E+03 0.  0.
          4    1    3    3  501    0  0.27416458021E+02 -0.47326508271E+02  0.62606387872E+03  0.62844972249E+03  0.12700000000E+01 0. -1.
         -4    1    3    3    0  501  0.37476614057E+02  0.16875120655E+02  0.61019025537E+02  0.73581252203E+02  0.12700000000E+01 0. -1.
          2    1    1    2  502    0 -0.94781953771E+02  0.35473953975E+01 -0.50378720954E+03  0.51263803533E+03  0.00000000000E+00 0. -1.
          1    1    1    2  503    0  0.29888881692E+02  0.26903992218E+02  0.27010258897E+04  0.27013252353E+04  0.00000000000E+00 0. -1.
<mgrwt>
<rscale>  0 0.61700028E+02</rscale>
<asrwt>0</asrwt>
<pdfrwt beam="1">  1        2 0.52310121E+00 0.40214053E+02</pdfrwt>
<pdfrwt beam="2">  1        1 0.79359437E-01 0.94665750E+02</pdfrwt>
<totfact> 0.10218325E+01</totfact>
</mgrwt>
</event>
<event>
 7    1  0.4252091E-004  0.1001241E+03  0.7546771E-02  0.1351100E+00
          2   -1    0    0  503    0  0.00000000000E+00  0.00000000000E+00  0.11111249659E+04  0.11111249659E+04  0.00000000000E+00 0. -1.
         -2   -1    0    0    0  501 -0.00000000000E+00 -0.00000000000E+00 -0.15385097909E+03  0.15385097909E+03  0.00000000000E+00 0.  1.
         25    2    1    2    0    0  0.91153199374E+02 -0.33186946608E+01  0.38819443090E+03  0.41788954136E+03  0.12496732816E+03 0.  0.
          4    1    3    3  502    0  0.44073651661E+02 -0.60707700405E+02  0.24999622639E+03  0.26101271573E+03  0.12700000000E+01 0. -1.
         -4    1    3    3    0  502  0.47079547713E+02  0.57389005744E+02  0.13819820450E+03  0.15687682563E+03  0.12700000000E+01 0. -1.
          1    1    1    2  503    0 -0.67492976712E+01 -0.52374564431E+02  0.68854600669E+03  0.69056806424E+03  0.00000000000E+00 0. -1.
         -1    1    1    2    0  501 -0.84403901703E+02  0.55693259092E+02 -0.11946645073E+03  0.15651833944E+03  0.00000000000E+00 0.  1.
<mgrwt>
<rscale>  0 0.72713963E+02</rscale>
<asrwt>0</asrwt>
<pdfrwt beam="1">  1        2 0.17094230E+00 0.52807651E+02</pdfrwt>
<pdfrwt beam="2">  1       -2 0.23669382E-01 0.10012413E+03</pdfrwt>
<totfact> 0.37989982E+02</totfact>
</mgrwt>
</event>
<event>
 7    1  0.4252091E-004  0.1234011E+03  0.7546771E-02  0.1290323E+00
         -2   -1    0    0    0  501 -0.00000000000E+00  0.00000000000E+00  0.13962474095E+03  0.13962474095E+03  0.00000000000E+00 0.  1.
          2   -1    0    0  503    0  0.00000000000E+00 -0.00000000000E+00 -0.64102242667E+03  0.64102242667E+03  0.00000000000E+00 0. -1.
         25    2    1    2    0    0  0.10785769914E+03 -0.89205379592E+01 -0.22378304335E+02  0.16684709479E+03  0.12499722106E+03 0.  0.
          4    1    3    3  502    0  0.71160950223E+02  0.54056415054E+02  0.36296769017E+01  0.89446991562E+02  0.12700000000E+01 0.  1.
         -4    1    3    3    0  502  0.36696748919E+02 -0.62976953013E+02 -0.26007981237E+02  0.77400103230E+02  0.12700000000E+01 0.  1.
          1    1    1    2  503    0 -0.97088978208E+02  0.81851431045E+02 -0.51594850561E+03  0.53134620249E+03  0.00000000000E+00 0. -1.
         -1    1    1    2    0  501 -0.10768720934E+02 -0.72930893086E+02  0.36929124238E+02  0.82453870339E+02  0.00000000000E+00 0.  1.
<mgrwt>
<rscale>  0 0.95379931E+02</rscale>
<asrwt>0</asrwt>
<pdfrwt beam="2">  1        2 0.98618834E-01 0.12340109E+03</pdfrwt>
<pdfrwt beam="1">  1       -2 0.21480730E-01 0.73721642E+02</pdfrwt>
<totfact> 0.85157128E+02</totfact>
</mgrwt>
</event>
<event>
 7    1  0.4252091E-004  0.8755676E+02  0.7546771E-02  0.1394623E+00
          2   -1    0    0  503    0  0.00000000000E+00  0.00000000000E+00  0.17755531972E+04  0.17755531972E+04  0.00000000000E+00 0. -1.
         -2   -1    0    0    0  501 -0.00000000000E+00 -0.00000000000E+00 -0.44583288464E+02  0.44583288464E+02  0.00000000000E+00 0.  1.
         25    2    1    2    0    0  0.58593227246E+02  0.70379616867E+02  0.78398706284E+03  0.79915402060E+03  0.12499990875E+03 0.  0.
          4    1    3    3  502    0  0.83156515364E+02  0.87253186619E+02  0.53641367487E+03  0.54979029467E+03  0.12700000000E+01 0. -1.
         -4    1    3    3    0  502 -0.24563288118E+02 -0.16873569752E+02  0.24757338797E+03  0.24936372594E+03  0.12700000000E+01 0. -1.
          1    1    1    2  503    0  0.22252452679E+02 -0.35832716012E+02  0.93059509974E+03  0.93155053263E+03  0.00000000000E+00 0. -1.
         -1    1    1    2    0  501 -0.80845679925E+02 -0.34546900855E+02  0.16387746199E+02  0.89431932478E+02  0.00000000000E+00 0.  1.
<mgrwt>
<rscale>  0 0.60771267E+02</rscale>
<asrwt>0</asrwt>
<pdfrwt beam="1">  1        2 0.27316198E+00 0.42180033E+02</pdfrwt>
<pdfrwt beam="2">  1       -2 0.68589688E-02 0.87556757E+02</pdfrwt>
<totfact> 0.12915410E+03</totfact>
</mgrwt>
</event>
<event>
 7    1  0.4252091E-004  0.3658098E+02  0.7546771E-02  0.1589175E+00
          1   -1    0    0  502    0 -0.00000000000E+00  0.00000000000E+00  0.34446278881E+03  0.34446278881E+03  0.00000000000E+00 0. -1.
          2   -1    0    0  503    0  0.00000000000E+00 -0.00000000000E+00 -0.38690059750E+03  0.38690059750E+03  0.00000000000E+00 0. -1.
         25    2    1    2    0    0 -0.98281437038E-01 -0.10791427973E+02  0.22301448048E+03  0.25588123633E+03  0.12499313592E+03 0.  0.
          4    1    3    3  501    0  0.37888099702E+02 -0.49737538505E+01  0.10131645358E+02  0.39553880519E+02  0.12700000000E+01 0. -1.
         -4    1    3    3    0  501 -0.37986381139E+02 -0.58176741225E+01  0.21288283512E+03  0.21632735581E+03  0.12700000000E+01 0. -1.
          2    1    1    2  502    0  0.35706129954E+01 -0.25723261810E+02  0.10248341564E+03  0.10572268421E+03  0.00000000000E+00 0. -1.
          1    1    1    2  503    0 -0.34723315583E+01  0.36514689783E+02 -0.36793570481E+03  0.36975946577E+03  0.00000000000E+00 0. -1.
<mgrwt>
<rscale>  0 0.30822140E+02</rscale>
<asrwt>0</asrwt>
<pdfrwt beam="2">  1        2 0.59523168E-01 0.36580984E+02</pdfrwt>
<pdfrwt beam="1">  1        1 0.52994276E-01 0.25969896E+02</pdfrwt>
<totfact> 0.84033044E+02</totfact>
</mgrwt>
</event>
<event>
 7    1  0.4252091E-004  0.1083522E+03  0.7546771E-02  0.1291982E+00
         -1   -1    0    0    0  501 -0.00000000000E+00  0.00000000000E+00  0.36582857610E+03  0.36582857610E+03  0.00000000000E+00 0.  1.
          1   -1    0    0  503    0  0.00000000000E+00 -0.00000000000E+00 -0.29549026589E+03  0.29549026589E+03  0.00000000000E+00 0. -1.
         25    2    1    2    0    0 -0.23435876214E+02  0.27088072805E+02  0.85746151822E+02  0.15576792204E+03  0.12501295534E+03 0.  0.
          4    1    3    3  502    0 -0.20318620991E+02  0.60382428173E+01  0.11646060928E+03  0.11838071274E+03  0.12700000000E+01 0. -1.
         -4    1    3    3    0  502 -0.31172552236E+01  0.21049829988E+02 -0.30714457455E+02  0.37387209302E+02  0.12700000000E+01 0. -1.
          2    1    1    2  503    0  0.97378134926E+02 -0.64056534290E+02 -0.23968484175E+03  0.26652310240E+03  0.00000000000E+00 0. -1.
         -2    1    1    2    0  501 -0.73942258712E+02  0.36968461485E+02  0.22427700014E+03  0.23902781755E+03  0.00000000000E+00 0.  1.
<mgrwt>
<rscale>  0 0.94643231E+02</rscale>
<asrwt>0</asrwt>
<pdfrwt beam="2">  1        1 0.45460041E-01 0.10835218E+03</pdfrwt>
<pdfrwt beam="1">  1       -1 0.56281319E-01 0.82668765E+02</pdfrwt>
<totfact> 0.30095071E+02</totfact>
</mgrwt>
</event>
<event>
 7    1  0.4252091E-004  0.1135402E+03  0.7546771E-02  0.1402524E+00
          2   -1    0    0  503    0  0.00000000000E+00  0.00000000000E+00  0.22292581382E+04  0.22292581382E+04  0.00000000000E+00 0. -1.
         -2   -1    0    0    0  501 -0.00000000000E+00 -0.00000000000E+00 -0.60479328490E+03  0.60479328490E+03  0.00000000000E+00 0.  1.
         25    2    1    2    0    0 -0.16759806796E+02  0.14290231242E+03  0.16583439074E+04  0.16692607127E+04  0.12499939891E+03 0.  0.
          4    1    3    3  502    0 -0.56551001118E+02  0.32748326025E+02  0.38176323845E+03  0.38731802400E+03  0.12700000000E+01 0. -1.
         -4    1    3    3    0  502  0.39791194323E+02  0.11015398639E+03  0.12765806689E+04  0.12819426887E+04  0.12700000000E+01 0. -1.
          1    1    1    2  503    0  0.58473819214E+01 -0.29986004257E+02  0.55966737500E+03  0.56050060033E+03  0.00000000000E+00 0. -1.
         -1    1    1    2    0  501  0.10912424874E+02 -0.11291630816E+03 -0.59354642909E+03  0.60429011009E+03  0.00000000000E+00 0.  1.
<mgrwt>
<rscale>  0 0.58896070E+02</rscale>
<asrwt>0</asrwt>
<pdfrwt beam="1">  1        2 0.34296279E+00 0.30550815E+02</pdfrwt>
<pdfrwt beam="2">  1       -2 0.93045122E-01 0.11354025E+03</pdfrwt>
<totfact> 0.77610235E+00</totfact>
</mgrwt>
</event>
<event>
 7    1  0.4252091E-004  0.8004872E+02  0.7546771E-02  0.1364905E+00
          2   -1    0    0  503    0  0.00000000000E+00  0.00000000000E+00  0.62123549923E+03  0.62123549923E+03  0.00000000000E+00 0. -1.
         -2   -1    0    0    0  501 -0.00000000000E+00 -0.00000000000E+00 -0.17905538167E+03  0.17905538167E+03  0.00000000000E+00 0.  1.
         25    2    1    2    0    0 -0.31900801214E+02 -0.10263627213E+03  0.25593817271E+03  0.30443580820E+03  0.12499979036E+03 0.  0.
          4    1    3    3  502    0 -0.38752772119E+02 -0.12473418336E+03  0.24735633293E+03  0.27972694219E+03  0.12700000000E+01 0. -1.
         -4    1    3    3    0  502  0.68519709052E+01  0.22097911225E+02  0.85818397799E+01  0.24708866016E+02  0.12700000000E+01 0. -1.
          1    1    1    2  503    0  0.58825997650E+02  0.50367900641E+02  0.33082807365E+03  0.33977144926E+03  0.00000000000E+00 0. -1.
         -1    1    1    2    0  501 -0.26925196436E+02  0.52268371490E+02 -0.14458612881E+03  0.15608362344E+03  0.00000000000E+00 0.  1.
<mgrwt>
<rscale>  0 0.68604158E+02</rscale>
<asrwt>0</asrwt>
<pdfrwt beam="1">  1        2 0.95574691E-01 0.80048721E+02</pdfrwt>
<pdfrwt beam="2">  1       -2 0.27546982E-01 0.58795824E+02</pdfrwt>
<totfact> 0.57827214E+02</totfact>
</mgrwt>
</event>
<event>
 7    1  0.4252091E-004  0.6429295E+02  0.7546771E-02  0.1474136E+00
         -2   -1    0    0    0  501 -0.00000000000E+00  0.00000000000E+00  0.37436040556E+03  0.37436040556E+03  0.00000000000E+00 0.  1.
          2   -1    0    0  503    0  0.00000000000E+00 -0.00000000000E+00 -0.12840903974E+04  0.12840903974E+04  0.00000000000E+00 0. -1.
         25    2    1    2    0    0  0.23227445854E+01  0.35149994460E+02  0.19959833298E+03  0.23812292090E+03  0.12498845417E+03 0.  0.
          4    1    3    3  502    0  0.55056512882E+02  0.21382986207E+02  0.16052425459E+03  0.17104999538E+03  0.12700000000E+01 0.  1.
         -4    1    3    3    0  502 -0.52733768297E+02  0.13767008252E+02  0.39074078396E+02  0.67072925518E+02  0.12700000000E+01 0.  1.
          1    1    1    2  503    0  0.11921452459E+02 -0.63293212678E+02 -0.12623990849E+04  0.12640409809E+04  0.00000000000E+00 0. -1.
         -1    1    1    2    0  501 -0.14244197044E+02  0.28143218218E+02  0.15307076009E+03  0.15628690117E+03  0.00000000000E+00 0.  1.
<mgrwt>
<rscale>  0 0.45032978E+02</rscale>
<asrwt>0</asrwt>
<pdfrwt beam="2">  1        2 0.19755237E+00 0.64292949E+02</pdfrwt>
<pdfrwt beam="1">  1       -2 0.57593908E-01 0.31542636E+02</pdfrwt>
<totfact> 0.58045840E+01</totfact>
</mgrwt>
</event>
<event>
 7    1  0.4252091E-004  0.1081951E+03  0.7546771E-02  0.1334868E+00
          2   -1    0    0  503    0  0.00000000000E+00  0.00000000000E+00  0.30902869182E+04  0.30902869182E+04  0.00000000000E+00 0. -1.
         -2   -1    0    0    0  501 -0.00000000000E+00 -0.00000000000E+00 -0.65139849614E+02  0.65139849614E+02  0.00000000000E+00 0.  1.
         25    2    1    2    0    0  0.12926844500E+03  0.45880049257E+02  0.93980410471E+03  0.95795201680E+03  0.12500000592E+03 0.  0.
          4    1    3    3  502    0  0.10653505391E+03 -0.18900396549E+02  0.70700544332E+03  0.71523789922E+03  0.12700000000E+01 0. -1.
         -4    1    3    3    0  502  0.22733391099E+02  0.64780445806E+02  0.23279866139E+03  0.24271411758E+03  0.12700000000E+01 0. -1.
          1    1    1    2  503    0 -0.49820944333E+02  0.26028662409E+02  0.20894812537E+04  0.20902371941E+04  0.00000000000E+00 0. -1.
         -1    1    1    2    0  501 -0.79447500671E+02 -0.71908711666E+02 -0.41382898534E+01  0.10723755694E+03  0.00000000000E+00 0.  1.
<mgrwt>
<rscale>  0 0.77985241E+02</rscale>
<asrwt>0</asrwt>
<pdfrwt beam="1">  1        2 0.47542864E+00 0.56210477E+02</pdfrwt>
<pdfrwt beam="2">  1       -2 0.10021518E-01 0.10819509E+03</pdfrwt>
<totfact> 0.14942196E+02</totfact>
</mgrwt>
</event>
<event>
 7    1  0.4252091E-004  0.4721409E+02  0.7546771E-02  0.1519560E+00
          2   -1    0    0  503    0  0.00000000000E+00  0.00000000000E+00  0.10355614464E+04  0.10355614464E+04  0.00000000000E+00 0. -1.
         -2   -1    0    0    0  501 -0.00000000000E+00 -0.00000000000E+00 -0.20134988072E+03  0.20134988072E+03  0.00000000000E+00 0.  1.
         25    2    1    2    0    0  0.16089083655E+02  0.50460374367E+02  0.23087756244E+02  0.13770816984E+03  0.12500155023E+03 0.  0.
          4    1    3    3  502    0 -0.51920976610E+02  0.17196795045E+02  0.28700963586E+02  0.61780869067E+02  0.12700000000E+01 0. -1.
         -4    1    3    3    0  502  0.68010060265E+02  0.33263579322E+02 -0.56132073415E+01  0.75927300776E+02  0.12700000000E+01 0. -1.
          1    1    1    2  503    0 -0.38048785862E+02 -0.28027537087E+02  0.95286052958E+03  0.95403167756E+03  0.00000000000E+00 0. -1.
         -1    1    1    2    0  501  0.21959702207E+02 -0.22432837280E+02 -0.14173672010E+03  0.14517147976E+03  0.00000000000E+00 0.  1.
<mgrwt>
<rscale>  0 0.38498663E+02</rscale>
<asrwt>0</asrwt>
<pdfrwt beam="1">  1        2 0.15931714E+00 0.47214091E+02</pdfrwt>
<pdfrwt beam="2">  1       -2 0.30976905E-01 0.31392049E+02</pdfrwt>
<totfact> 0.25389391E+02</totfact>
</mgrwt>
</event>
<event>
 7    1  0.4252091E-004  0.8330274E+02  0.7546771E-02  0.1329085E+00
         -1   -1    0    0    0  501 -0.00000000000E+00  0.00000000000E+00  0.15820288990E+03  0.15820288990E+03  0.00000000000E+00 0.  1.
          1   -1    0    0  503    0  0.00000000000E+00 -0.00000000000E+00 -0.26104590172E+03  0.26104590172E+03  0.00000000000E+00 0. -1.
         25    2    1    2    0    0  0.93234901097E+02  0.83909469356E+01 -0.80336958842E+02  0.17561947426E+03  0.12500007205E+03 0.  0.
          4    1    3    3  502    0  0.33524142446E+02 -0.56968476833E+02 -0.46540380742E+02  0.80851069375E+02  0.12700000000E+01 0. -1.
         -4    1    3    3    0  502  0.59710758651E+02  0.65359423769E+02 -0.33796578100E+02  0.94768404890E+02  0.12700000000E+01 0. -1.
          2    1    1    2  503    0 -0.44414622339E+02  0.62660924840E+02 -0.10110475084E+03  0.12696936962E+03  0.00000000000E+00 0. -1.
         -2    1    1    2    0  501 -0.48820278758E+02 -0.71051871776E+02  0.78598697854E+02  0.11665994773E+03  0.00000000000E+00 0.  1.
<mgrwt>
<rscale>  0 0.79988061E+02</rscale>
<asrwt>0</asrwt>
<pdfrwt beam="2">  1        1 0.40160908E-01 0.76805274E+02</pdfrwt>
<pdfrwt beam="1">  1       -1 0.24338906E-01 0.83302742E+02</pdfrwt>
<totfact> 0.14734748E+03</totfact>
</mgrwt>
</event>
<event>
 7    1  0.4252091E-004  0.3113108E+02  0.7546771E-02  0.1601505E+00
          1   -1    0    0  502    0 -0.00000000000E+00  0.00000000000E+00  0.16255178249E+03  0.16255178249E+03  0.00000000000E+00 0. -1.
          2   -1    0    0  503    0  0.00000000000E+00 -0.00000000000E+00 -0.86176962183E+03  0.86176962183E+03  0.00000000000E+00 0. -1.
         25    2    1    2    0    0 -0.15649729932E+02  0.54305472107E+02 -0.40588022089E+03  0.42843350004E+03  0.12499004721E+03 0.  0.
          4    1    3    3  501    0 -0.22711995376E+02  0.72053596003E+01 -0.45575850302E+01  0.24292723648E+02  0.12700000000E+01 0. -1.
         -4    1    3    3    0  501  0.70622654441E+01  0.47100112506E+02 -0.40132263586E+03  0.40414077639E+03  0.12700000000E+01 0. -1.
          2    1    1    2  502    0  0.55441904267E+00 -0.28316329265E+02  0.14943562262E+03  0.15209578295E+03  0.00000000000E+00 0. -1.
          1    1    1    2  503    0  0.15095310889E+02 -0.25989142842E+02 -0.44277324106E+03  0.44379212133E+03  0.00000000000E+00 0. -1.
<mgrwt>
<rscale>  0 0.29693215E+02</rscale>
<asrwt>0</asrwt>
<pdfrwt beam="2">  1        2 0.13257994E+00 0.31131085E+02</pdfrwt>
<pdfrwt beam="1">  1        1 0.25007966E-01 0.28321756E+02</pdfrwt>
<totfact> 0.86068851E+02</totfact>
</mgrwt>
</event>
<event>
 7    1  0.4252091E-004  0.5044862E+03  0.7546771E-02  0.1218613E+00
          2   -1    0    0  503    0  0.00000000000E+00  0.00000000000E+00  0.12271999868E+04  0.12271999868E+04  0.00000000000E+00 0. -1.
          1   -1    0    0  502    0 -0.00000000000E+00 -0.00000000000E+00 -0.13860331304E+04  0.13860331304E+04  0.00000000000E+00 0. -1.
         25    2    1    2    0    0  0.36116736207E+03  0.38824319670E+03 -0.14184483598E+03  0.56295640179E+03  0.12500123846E+03 0.  0.
          4    1    3    3  501    0  0.19718500878E+03  0.20672942162E+03 -0.11845782145E+02  0.28593865934E+03  0.12700000000E+01 0. -1.
         -4    1    3    3    0  501  0.16398235329E+03  0.18151377509E+03 -0.12999905384E+03  0.27701774246E+03  0.12700000000E+01 0. -1.
          2    1    1    2  502    0 -0.34989399038E+03 -0.35327461362E+03 -0.97346330480E+03  0.10930963191E+04  0.00000000000E+00 0. -1.
          1    1    1    2  503    0 -0.11273371686E+02 -0.34968583078E+02  0.95647499722E+03  0.95718039628E+03  0.00000000000E+00 0. -1.
<mgrwt>
<rscale>  0 0.13614424E+03</rscale>
<asrwt>0</asrwt>
<pdfrwt beam="1">  1        2 0.18880000E+00 0.36740859E+02</pdfrwt>
<pdfrwt beam="2">  1        1 0.21323587E+00 0.50448616E+03</pdfrwt>
<totfact> 0.24640815E+01</totfact>
</mgrwt>
</event>
<event>
 7    1  0.4252091E-004  0.8512308E+02  0.7546771E-02  0.1450374E+00
          2   -1    0    0  503    0  0.00000000000E+00  0.00000000000E+00  0.19519827775E+04  0.19519827775E+04  0.00000000000E+00 0. -1.
          1   -1    0    0  502    0 -0.00000000000E+00 -0.00000000000E+00 -0.79909110292E+03  0.79909110292E+03  0.00000000000E+00 0. -1.
         25    2    1    2    0    0  0.19822831517E+02 -0.95038032613E+02 -0.84619693913E+02  0.17946426159E+03  0.12498702452E+03 0.  0.
          4    1    3    3  501    0  0.15316242464E+02  0.29026703380E+02 -0.88468629957E+01  0.34014947849E+02  0.12700000000E+01 0. -1.
         -4    1    3    3    0  501  0.45065890526E+01 -0.12406473599E+03 -0.75772830918E+02  0.14544931374E+03  0.12700000000E+01 0. -1.
          2    1    1    2  502    0 -0.26384462501E+02  0.10226914892E+02 -0.66579862292E+03  0.66639968182E+03  0.00000000000E+00 0. -1.
          1    1    1    2  503    0  0.65616309843E+01  0.84811117721E+02  0.19033099914E+04  0.19052099371E+04  0.00000000000E+00 0. -1.
<mgrwt>
<rscale>  0 0.49078938E+02</rscale>
<asrwt>0</asrwt>
<pdfrwt beam="1">  1        2 0.30030504E+00 0.85123084E+02</pdfrwt>
<pdfrwt beam="2">  1        1 0.12293709E+00 0.28297167E+02</pdfrwt>
<totfact> 0.31533752E+01</totfact>
</mgrwt>
</event>
<event>
 7    1  0.4252091E-004  0.5513881E+02  0.7546771E-02  0.1512041E+00
          1   -1    0    0  502    0 -0.00000000000E+00  0.00000000000E+00  0.16727956837E+02  0.16727956837E+02  0.00000000000E+00 0. -1.
          2   -1    0    0  503    0  0.00000000000E+00 -0.00000000000E+00 -0.18916078346E+04  0.18916078346E+04  0.00000000000E+00 0. -1.
         25    2    1    2    0    0  0.19405665434E+02  0.46952781632E+02 -0.82758505213E+03  0.83851305773E+03  0.12500394362E+03 0.  0.
          4    1    3    3  501    0  0.45814508336E+02  0.78556390409E+02 -0.48449011029E+03  0.49295269095E+03  0.12700000000E+01 0. -1.
         -4    1    3    3    0  501 -0.26408842902E+02 -0.31603608777E+02 -0.34309494185E+03  0.34556036678E+03  0.12700000000E+01 0. -1.
          2    1    1    2  502    0  0.75307414755E+01 -0.55547418483E+02 -0.59955172473E+02  0.82078319144E+02  0.00000000000E+00 0. -1.
          1    1    1    2  503    0 -0.26936406909E+02  0.85946368511E+01 -0.98733965313E+03  0.98774441454E+03  0.00000000000E+00 0. -1.
<mgrwt>
<rscale>  0 0.39484338E+02</rscale>
<asrwt>0</asrwt>
<pdfrwt beam="2">  1        2 0.29101654E+00 0.28274331E+02</pdfrwt>
<pdfrwt beam="1">  1        1 0.25735323E-02 0.55138808E+02</pdfrwt>
<totfact> 0.51353506E+03</totfact>
</mgrwt>
</event>
<event>
 7    1  0.4252091E-004  0.7372977E+02  0.7546771E-02  0.1404672E+00
         -2   -1    0    0    0  501 -0.00000000000E+00  0.00000000000E+00  0.37347171369E+02  0.37347171369E+02  0.00000000000E+00 0.  1.
          2   -1    0    0  503    0  0.00000000000E+00 -0.00000000000E+00 -0.19580292951E+04  0.19580292951E+04  0.00000000000E+00 0. -1.
         25    2    1    2    0    0 -0.25801442420E+02  0.35463264191E+02 -0.79120589188E+03  0.80221764170E+03  0.12499209488E+03 0.  0.
          4    1    3    3  502    0  0.16140613088E+02  0.70516530318E+02 -0.33352024902E+03  0.34127770195E+03  0.12700000000E+01 0.  1.
         -4    1    3    3    0  502 -0.41942055508E+02 -0.35053266127E+02 -0.45768564285E+03  0.46093993976E+03  0.12700000000E+01 0.  1.
          1    1    1    2  503    0  0.71681796661E+02 -0.41356077041E+02 -0.11421916766E+04  0.11451857627E+04  0.00000000000E+00 0. -1.
         -1    1    1    2    0  501 -0.45880354241E+02  0.58928128493E+01  0.12715444720E+02  0.47973062056E+02  0.00000000000E+00 0.  1.
<mgrwt>
<rscale>  0 0.58399792E+02</rscale>
<asrwt>0</asrwt>
<pdfrwt beam="2">  1        2 0.30123540E+00 0.73729772E+02</pdfrwt>
<pdfrwt beam="1">  1       -2 0.57457164E-02 0.46257239E+02</pdfrwt>
<totfact> 0.12110910E+03</totfact>
</mgrwt>
</event>
<event>
 7    1  0.4252091E-004  0.7457150E+02  0.7546771E-02  0.1480325E+00
          2   -1    0    0  503    0  0.00000000000E+00  0.00000000000E+00  0.35140756712E+03  0.35140756712E+03  0.00000000000E+00 0. -1.
          1   -1    0    0  502    0 -0.00000000000E+00 -0.00000000000E+00 -0.49284904240E+03  0.49284904240E+03  0.00000000000E+00 0. -1.
         25    2    1    2    0    0  0.10391583131E+02 -0.90958326853E+02  0.92190571952E+02  0.18029321399E+03  0.12500055692E+03 0.  0.
          4    1    3    3  501    0 -0.30209223223E+02 -0.83921210550E+02  0.11840473353E+02  0.89984312283E+02  0.12700000000E+01 0. -1.
         -4    1    3    3    0  501  0.40600806354E+02 -0.70371163028E+01  0.80350098600E+02  0.90308901707E+02  0.12700000000E+01 0. -1.
          2    1    1    2  502    0  0.13196780951E+02  0.22433602506E+02 -0.44230195647E+03  0.44306708549E+03  0.00000000000E+00 0. -1.
          1    1    1    2  503    0 -0.23588364083E+02  0.68524724347E+02  0.20866990924E+03  0.22089631004E+03  0.00000000000E+00 0. -1.
<mgrwt>
<rscale>  0 0.44055607E+02</rscale>
<asrwt>0</asrwt>
<pdfrwt beam="1">  1        2 0.54062703E-01 0.74571501E+02</pdfrwt>
<pdfrwt beam="2">  1        1 0.75822929E-01 0.26027323E+02</pdfrwt>
<totfact> 0.60815706E+02</totfact>
</mgrwt>
</event>
<event>
 7    1  0.4252091E-004  0.8063058E+02  0.7546771E-02  0.1416509E+00
          1   -1    0    0  502    0 -0.00000000000E+00  0.00000000000E+00  0.29712451884E+03  0.29712451884E+03  0.00000000000E+00 0. -1.
          2   -1    0    0  503    0  0.00000000000E+00 -0.00000000000E+00 -0.79188099114E+03  0.79188099114E+03  0.00000000000E+00 0. -1.
         25    2    1    2    0    0  0.10875882912E+03  0.39432945488E+02  0.60798340240E+02  0.18084412600E+03  0.12499887852E+03 0.  0.
          4    1    3    3  501    0  0.24417391014E+02  0.17284853980E+02  0.85180087371E+02  0.90289730012E+02  0.12700000000E+01 0.  1.
         -4    1    3    3    0  501  0.84341438109E+02  0.22148091508E+02 -0.24381747131E+02  0.90554395989E+02  0.12700000000E+01 0.  1.
          2    1    1    2  502    0 -0.30259963801E+02 -0.23915369662E+02  0.17197366328E+03  0.17624571251E+03  0.00000000000E+00 0. -1.
          1    1    1    2  503    0 -0.78498865322E+02 -0.15517575826E+02 -0.72752847582E+03  0.73191567147E+03  0.00000000000E+00 0. -1.
<mgrwt>
<rscale>  0 0.55766346E+02</rscale>
<asrwt>0</asrwt>
<pdfrwt beam="2">  1        2 0.12182784E+00 0.80630580E+02</pdfrwt>
<pdfrwt beam="1">  1        1 0.45711464E-01 0.38569552E+02</pdfrwt>
<totfact> 0.45376509E+02</totfact>
</mgrwt>
</event>
<event>
 7    1  0.4252091E-004  0.5457152E+02  0.7546771E-02  0.1510451E+00
         -2   -1    0    0    0  501 -0.00000000000E+00  0.00000000000E+00  0.10132514091E+04  0.10132514091E+04  0.00000000000E+00 0.  1.
          2   -1    0    0  503    0  0.00000000000E+00 -0.00000000000E+00 -0.36774661648E+03  0.36774661648E+03  0.00000000000E+00 0. -1.
         25    2    1    2    0    0  0.37086229370E+02 -0.56550048378E+02 -0.64756334978E+02  0.15617702615E+03  0.12499833678E+03 0.  0.
          4    1    3    3  502    0 -0.93791563823E+01 -0.58111580874E+02  0.17724325735E+02  0.61487307868E+02  0.12700000000E+01 0. -1.
         -4    1    3    3    0  502  0.46465385752E+02  0.15615324965E+01 -0.82480660712E+02  0.94689718282E+02  0.12700000000E+01 0. -1.
          1    1    1    2  503    0  0.90118046178E+01  0.27435039892E+02 -0.25569845322E+03  0.25732390681E+03  0.00000000000E+00 0. -1.
         -1    1    1    2    0  501 -0.46098033988E+02  0.29115008486E+02  0.96595958082E+03  0.96749709262E+03  0.00000000000E+00 0.  1.
<mgrwt>
<rscale>  0 0.39697280E+02</rscale>
<asrwt>0</asrwt>
<pdfrwt beam="2">  1        2 0.56576403E-01 0.28877223E+02</pdfrwt>
<pdfrwt beam="1">  1       -2 0.15588483E+00 0.54571521E+02</pdfrwt>
<totfact> 0.27503242E+01</totfact>
</mgrwt>
</event>
<event>
 7    1  0.4252091E-004  0.4150572E+02  0.7546771E-02  0.1507087E+00
          1   -1    0    0  503    0  0.00000000000E+00  0.00000000000E+00  0.17569060505E+03  0.17569060505E+03  0.00000000000E+00 0. -1.
         -1   -1    0    0    0  501 -0.00000000000E+00 -0.00000000000E+00 -0.15670995934E+03  0.15670995934E+03  0.00000000000E+00 0.  1.
         25    2    1    2    0    0  0.68018303007E+02 -0.26989103545E+02 -0.13815521558E+01  0.14487545275E+03  0.12502834426E+03 0.  0.
          4    1    3    3  502    0  0.60865275179E+02  0.32222188751E+02 -0.34076250027E+02  0.76848258838E+02  0.12700000000E+01 0. -1.
         -4    1    3    3    0  502  0.71530278282E+01 -0.59211292296E+02  0.32694697871E+02  0.68027193911E+02  0.12700000000E+01 0. -1.
          2    1    1    2  503    0 -0.40015045941E+02  0.68403527419E-01  0.95166176259E+02  0.10323666831E+03  0.00000000000E+00 0. -1.
         -2    1    1    2    0  501 -0.28003257066E+02  0.26920700018E+02 -0.74803978396E+02  0.84288443333E+02  0.00000000000E+00 0.  1.
<mgrwt>
<rscale>  0 0.40153146E+02</rscale>
<asrwt>0</asrwt>
<pdfrwt beam="1">  1        1 0.27029324E-01 0.41505725E+02</pdfrwt>
<pdfrwt beam="2">  1       -1 0.24109224E-01 0.38844646E+02</pdfrwt>
<totfact> 0.23182116E+03</totfact>
</mgrwt>
</event>
<event>
 7    1  0.4252091E-004  0.1066442E+03  0.7546771E-02  0.1281623E+00
          2   -1    0    0  503    0  0.00000000000E+00  0.00000000000E+00  0.14044880409E+04  0.14044880409E+04  0.00000000000E+00 0. -1.
          1   -1    0    0  502    0 -0.00000000000E+00 -0.00000000000E+00 -0.25594599685E+03  0.25594599685E+03  0.00000000000E+00 0. -1.
         25    2    1    2    0    0  0.62088647229E+02 -0.12018504057E+03  0.30782070727E+03  0.35872110241E+03  0.12501118908E+03 0.  0.
          4    1    3    3  501    0  0.20345035123E+02  0.17318659596E+02  0.10960222043E+02  0.28906673824E+02  0.12700000000E+01 0. -1.
         -4    1    3    3    0  501  0.41743612106E+02 -0.13750370017E+03  0.29686048523E+03  0.32981442858E+03  0.12700000000E+01 0. -1.
          2    1    1    2  502    0  0.38706261579E+02  0.84116976700E+02 -0.21838794816E+03  0.23720694837E+03  0.00000000000E+00 0. -1.
          1    1    1    2  503    0 -0.10079490881E+03  0.36068063870E+02  0.10591092849E+04  0.10645059870E+04  0.00000000000E+00 0. -1.
<mgrwt>
<rscale>  0 0.99371666E+02</rscale>
<asrwt>0</asrwt>
<pdfrwt beam="1">  1        2 0.21607508E+00 0.10664425E+03</pdfrwt>
<pdfrwt beam="2">  1        1 0.39376308E-01 0.92595035E+02</pdfrwt>
<totfact> 0.23978507E+02</totfact>
</mgrwt>
</event>
<event>
 7    1  0.4252091E-004  0.4174706E+02  0.7546771E-02  0.1503698E+00
          1   -1    0    0  503    0  0.00000000000E+00  0.00000000000E+00  0.17388300081E+04  0.17388300081E+04  0.00000000000E+00 0. -1.
         -1   -1    0    0    0  501 -0.00000000000E+00 -0.00000000000E+00 -0.53879859516E+02  0.53879859516E+02  0.00000000000E+00 0.  1.
         25    2    1    2    0    0  0.52090248018E+02  0.29068684263E+02  0.45554868371E+03  0.47614065703E+03  0.12500775855E+03 0.  0.
          4    1    3    3  502    0  0.71020135466E+02  0.50274193926E+02  0.42720605527E+03  0.43597933526E+03  0.12700000000E+01 0.  1.
         -4    1    3    3    0  502 -0.18929887448E+02 -0.21205509662E+02  0.28342628443E+02  0.40161321764E+02  0.12700000000E+01 0.  1.
          2    1    1    2  503    0 -0.40690366783E+02  0.87748968289E+01  0.12636113315E+04  0.12642967618E+04  0.00000000000E+00 0. -1.
         -2    1    1    2    0  501 -0.11399881236E+02 -0.37843581092E+02 -0.34209866671E+02  0.52272448763E+02  0.00000000000E+00 0.  1.
<mgrwt>
<rscale>  0 0.40619982E+02</rscale>
<asrwt>0</asrwt>
<pdfrwt beam="1">  1        1 0.26751227E+00 0.41747059E+02</pdfrwt>
<pdfrwt beam="2">  1       -1 0.82892105E-02 0.39523334E+02</pdfrwt>
<totfact> 0.43313460E+02</totfact>
</mgrwt>
</event>
<event>
 7    1  0.4252091E-004  0.5226274E+02  0.7546771E-02  0.1476887E+00
          1   -1    0    0  503    0  0.00000000000E+00  0.00000000000E+00  0.71204381051E+03  0.71204381051E+03  0.00000000000E+00 0. -1.
         -1   -1    0    0    0  501 -0.00000000000E+00 -0.00000000000E+00 -0.15549250706E+03  0.15549250706E+03  0.00000000000E+00 0.  1.
         25    2    1    2    0    0  0.14983892858E+02  0.31112142679E+01  0.12059382601E+02  0.12650617463E+03  0.12499674720E+03 0.  0.
          4    1    3    3  502    0 -0.47228276050E+02  0.31634408831E+02 -0.76916029075E+00  0.56863436304E+02  0.12700000000E+01 0. -1.
         -4    1    3    3    0  502  0.62212168908E+02 -0.28523194563E+02  0.12828542891E+02  0.69642738322E+02  0.12700000000E+01 0. -1.
          2    1    1    2  503    0 -0.48938023550E+02 -0.20288877978E+02  0.63793779131E+03  0.64013373158E+03  0.00000000000E+00 0. -1.
         -2    1    1    2    0  501  0.33954130692E+02  0.17177663710E+02 -0.93445870463E+02  0.10089641137E+03  0.00000000000E+00 0.  1.
<mgrwt>
<rscale>  0 0.44594868E+02</rscale>
<asrwt>0</asrwt>
<pdfrwt beam="1">  1        1 0.10954520E+00 0.52262744E+02</pdfrwt>
<pdfrwt beam="2">  1       -1 0.23921925E-01 0.38052005E+02</pdfrwt>
<totfact> 0.42013675E+02</totfact>
</mgrwt>
</event>
<event>
 7    1  0.4252091E-004  0.4840108E+02  0.7546771E-02  0.1472026E+00
          2   -1    0    0  503    0  0.00000000000E+00  0.00000000000E+00  0.16982484755E+04  0.16982484755E+04  0.00000000000E+00 0. -1.
          1   -1    0    0  502    0 -0.00000000000E+00 -0.00000000000E+00 -0.87910096282E+03  0.87910096282E+03  0.00000000000E+00 0. -1.
         25    2    1    2    0    0  0.80934145912E+02  0.31550596466E+02 -0.37119421628E+03  0.40119097253E+03  0.12499309631E+03 0.  0.
          4    1    3    3  501    0  0.70660233117E+02  0.40406605749E+02 -0.96894799745E+02  0.12655345689E+03  0.12700000000E+01 0. -1.
         -4    1    3    3    0  501  0.10273912795E+02 -0.88560092829E+01 -0.27429941654E+03  0.27463751564E+03  0.12700000000E+01 0. -1.
          2    1    1    2  502    0 -0.32768083420E+02 -0.27119094274E+02 -0.49164243637E+03  0.49347895376E+03  0.00000000000E+00 0. -1.
          1    1    1    2  503    0 -0.48166062492E+02 -0.44315021924E+01  0.16819841653E+04  0.16826795120E+04  0.00000000000E+00 0. -1.
<mgrwt>
<rscale>  0 0.45373129E+02</rscale>
<asrwt>0</asrwt>
<pdfrwt beam="1">  1        2 0.26126900E+00 0.48401081E+02</pdfrwt>
<pdfrwt beam="2">  1        1 0.13524630E+00 0.42534604E+02</pdfrwt>
<totfact> 0.37975512E+01</totfact>
</mgrwt>
</event>
<event>
 7    1  0.4252091E-004  0.6443860E+02  0.7546771E-02  0.1482839E+00
         -2   -1    0    0    0  501 -0.00000000000E+00  0.00000000000E+00  0.20020848584E+03  0.20020848584E+03  0.00000000000E+00 0.  1.
          2   -1    0    0  503    0  0.00000000000E+00 -0.00000000000E+00 -0.10718842626E+03  0.10718842626E+03  0.00000000000E+00 0. -1.
         25    2    1    2    0    0 -0.40740036456E+02  0.16871612951E+02  0.72620830123E+02  0.15118341432E+03  0.12505294040E+03 0.  0.
          4    1    3    3  502    0 -0.82949214026E+02 -0.75451879631E+01  0.52178066974E+02  0.98293771634E+02  0.12700000000E+01 0. -1.
         -4    1    3    3    0  502  0.42209177570E+02  0.24416800914E+02  0.20442763149E+02  0.52889642683E+02  0.12700000000E+01 0. -1.
          1    1    1    2  503    0 -0.22117021118E+02  0.19658905482E+02 -0.48003704113E+02  0.56391407116E+02  0.00000000000E+00 0. -1.
         -1    1    1    2    0  501  0.62857057575E+02 -0.36530518432E+02  0.68402933573E+02  0.99822090668E+02  0.00000000000E+00 0.  1.
<mgrwt>
<rscale>  0 0.43667049E+02</rscale>
<asrwt>0</asrwt>
<pdfrwt beam="2">  1        2 0.16490527E-01 0.29591134E+02</pdfrwt>
<pdfrwt beam="1">  1       -2 0.30801305E-01 0.64438599E+02</pdfrwt>
<totfact> 0.29708463E+03</totfact>
</mgrwt>
</event>
<event>
 7    1  0.4252091E-004  0.1501151E+03  0.7546771E-02  0.1316646E+00
          1   -1    0    0  502    0 -0.00000000000E+00  0.00000000000E+00  0.17175413545E+04  0.17175413545E+04  0.00000000000E+00 0. -1.
          2   -1    0    0  503    0  0.00000000000E+00 -0.00000000000E+00 -0.73720887666E+02  0.73720887666E+02  0.00000000000E+00 0. -1.
         25    2    1    2    0    0  0.19661512331E+02 -0.14917277106E+03  0.36394930907E+03  0.41318723446E+03  0.12500200181E+03 0.  0.
          4    1    3    3  501    0  0.19710671248E+00  0.15741898361E+02  0.32911276251E+01  0.16133525223E+02  0.12700000000E+01 0.  1.
         -4    1    3    3    0  501  0.19464405618E+02 -0.16491466942E+03  0.36065818144E+03  0.39705370923E+03  0.12700000000E+01 0.  1.
          2    1    1    2  502    0 -0.47607661878E+02  0.50492633706E-02  0.12101101757E+04  0.12110462942E+04  0.00000000000E+00 0. -1.
          1    1    1    2  503    0  0.27946149547E+02  0.14916772180E+03  0.69760982078E+02  0.16702871346E+03  0.00000000000E+00 0. -1.
<mgrwt>
<rscale>  0 0.84537736E+02</rscale>
<asrwt>0</asrwt>
<pdfrwt beam="2">  1        2 0.11341676E-01 0.15011510E+03</pdfrwt>
<pdfrwt beam="1">  1        1 0.26423710E+00 0.47607662E+02</pdfrwt>
<totfact> 0.44814518E+02</totfact>
</mgrwt>
</event>
<event>
 7    1  0.4252091E-004  0.5074655E+02  0.7546771E-02  0.1448855E+00
          1   -1    0    0  502    0 -0.00000000000E+00  0.00000000000E+00  0.76886570188E+03  0.76886570188E+03  0.00000000000E+00 0. -1.
          2   -1    0    0  503    0  0.00000000000E+00 -0.00000000000E+00 -0.23374246185E+03  0.23374246185E+03  0.00000000000E+00 0. -1.
         25    2    1    2    0    0  0.87201289617E+01  0.70183072184E+02  0.37165321989E+02  0.14834808312E+03  0.12499675330E+03 0.  0.
          4    1    3    3  501    0 -0.52973029405E+02  0.19890153596E+02 -0.74597466059E+01  0.57087833851E+02  0.12700000000E+01 0.  1.
         -4    1    3    3    0  501  0.61693158366E+02  0.50292918588E+02  0.44625068595E+02  0.91260249267E+02  0.12700000000E+01 0.  1.
          2    1    1    2  502    0 -0.38743798656E+02 -0.32731560361E+02  0.67190251016E+03  0.67381408425E+03  0.00000000000E+00 0. -1.
          1    1    1    2  503    0  0.30023669695E+02 -0.37451511823E+02 -0.17394459211E+03  0.18044599637E+03  0.00000000000E+00 0. -1.
<mgrwt>
<rscale>  0 0.49354367E+02</rscale>
<asrwt>0</asrwt>
<pdfrwt beam="2">  1        2 0.35960379E-01 0.48000380E+02</pdfrwt>
<pdfrwt beam="1">  1        1 0.11828703E+00 0.50746546E+02</pdfrwt>
<totfact> 0.50474677E+02</totfact>
</mgrwt>
</event>
<event>
 7    1  0.4252091E-004  0.1277534E+03  0.7546771E-02  0.1293854E+00
          2   -1    0    0  503    0  0.00000000000E+00  0.00000000000E+00  0.27793712910E+03  0.27793712910E+03  0.00000000000E+00 0. -1.
         -2   -1    0    0    0  501 -0.00000000000E+00 -0.00000000000E+00 -0.15347861634E+03  0.15347861634E+03  0.00000000000E+00 0.  1.
         25    2    1    2    0    0  0.35229533860E+01 -0.16832780618E+03  0.11541063783E+03  0.23935420032E+03  0.12499662537E+03 0.  0.
          4    1    3    3  502    0 -0.31135082979E+02 -0.19653822920E+01 -0.42532352557E+01  0.31511252431E+02  0.12700000000E+01 0.  1.
         -4    1    3    3    0  502  0.34658036365E+02 -0.16636242389E+03  0.11966387308E+03  0.20784294789E+03  0.12700000000E+01 0.  1.
          1    1    1    2  503    0  0.20653063090E+02  0.10380740489E+03  0.44213261939E+02  0.11470544388E+03  0.00000000000E+00 0. -1.
         -1    1    1    2    0  501 -0.24176016476E+02  0.64520401293E+02 -0.35165386997E+02  0.77356101235E+02  0.00000000000E+00 0.  1.
<mgrwt>
<rscale>  0 0.93820855E+02</rscale>
<asrwt>0</asrwt>
<pdfrwt beam="1">  1        2 0.42759558E-01 0.12775344E+03</pdfrwt>
<pdfrwt beam="2">  1       -2 0.23612095E-01 0.68901103E+02</pdfrwt>
<totfact> 0.17878323E+03</totfact>
</mgrwt>
</event>
<event>
 7    1  0.4252091E-004  0.1193543E+03  0.7546771E-02  0.1325222E+00
         -2   -1    0    0    0  501 -0.00000000000E+00  0.00000000000E+00  0.75924014759E+02  0.75924014759E+02  0.00000000000E+00 0.  1.
          2   -1    0    0  503    0  0.00000000000E+00 -0.00000000000E+00 -0.15916082045E+04  0.15916082045E+04  0.00000000000E+00 0. -1.
         25    2    1    2    0    0  0.11549791583E+03 -0.51843269582E+02 -0.52535190928E+03  0.55465946769E+03  0.12500001337E+03 0.  0.
          4    1    3    3  502    0  0.11343307816E+03 -0.79586305226E+02 -0.33885489506E+03  0.36609465443E+03  0.12700000000E+01 0.  1.
         -4    1    3    3    0  502  0.20648376755E+01  0.27743035645E+02 -0.18649701423E+03  0.18856481325E+03  0.12700000000E+01 0.  1.
          1    1    1    2  503    0 -0.77184289053E+02  0.91951645637E+02 -0.10348251180E+04  0.10417655900E+04  0.00000000000E+00 0. -1.
         -1    1    1    2    0  501 -0.38313626782E+02 -0.40108376055E+02  0.44492837591E+02  0.71107161551E+02  0.00000000000E+00 0.  1.
<mgrwt>
<rscale>  0 0.81364949E+02</rscale>
<asrwt>0</asrwt>
<pdfrwt beam="2">  1        2 0.24486279E+00 0.11935430E+03</pdfrwt>
<pdfrwt beam="1">  1       -2 0.11680618E-01 0.55467250E+02</pdfrwt>
<totfact> 0.61661596E+02</totfact>
</mgrwt>
</event>
<event>
 7    1  0.4252091E-004  0.7143189E+02  0.7546771E-02  0.1357283E+00
          1   -1    0    0  502    0 -0.00000000000E+00  0.00000000000E+00  0.13216200040E+03  0.13216200040E+03  0.00000000000E+00 0. -1.
          2   -1    0    0  503    0  0.00000000000E+00 -0.00000000000E+00 -0.28810133499E+04  0.28810133499E+04  0.00000000000E+00 0. -1.
         25    2    1    2    0    0 -0.20774092448E+02  0.11261452099E+03 -0.50314218733E+03  0.53093119148E+03  0.12498910416E+03 0.  0.
          4    1    3    3  501    0  0.18565236762E+02  0.12616983419E+03 -0.39356037348E+03  0.41370868440E+03  0.12700000000E+01 0.  1.
         -4    1    3    3    0  501 -0.39339329210E+02 -0.13555313203E+02 -0.10958181384E+03  0.11722250707E+03  0.12700000000E+01 0.  1.
          2    1    1    2  502    0 -0.30156048763E+02 -0.64244865521E+02  0.10704896753E+03  0.12843781170E+03  0.00000000000E+00 0. -1.
          1    1    1    2  503    0  0.50930141210E+02 -0.48369655467E+02 -0.23527581297E+04  0.23538063471E+04  0.00000000000E+00 0. -1.
<mgrwt>
<rscale>  0 0.70832882E+02</rscale>
<asrwt>0</asrwt>
<pdfrwt beam="2">  1        2 0.44323281E+00 0.70238898E+02</pdfrwt>
<pdfrwt beam="1">  1        1 0.20332616E-01 0.71431889E+02</pdfrwt>
<totfact> 0.97887787E+01</totfact>
</mgrwt>
</event>
<event>
 7    1  0.4252091E-004  0.1390716E+03  0.7546771E-02  0.1267642E+00
          1   -1    0    0  502    0 -0.00000000000E+00  0.00000000000E+00  0.19073230545E+03  0.19073230545E+03  0.00000000000E+00 0. -1.
          2   -1    0    0  503    0  0.00000000000E+00 -0.00000000000E+00 -0.23451249108E+04  0.23451249108E+04  0.00000000000E+00 0. -1.
         25    2    1    2    0    0 -0.30222116575E+02 -0.72729582890E+02 -0.94038951648E+03  0.95192454557E+03  0.12499971680E+03 0.  0.
          4    1    3    3  501    0  0.18791543573E+02 -0.90672612231E+02 -0.68685696168E+03  0.69307196122E+03  0.12700000000E+01 0.  1.
         -4    1    3    3    0  501 -0.49013660148E+02  0.17943029341E+02 -0.25353255480E+03  0.25885258435E+03  0.12700000000E+01 0.  1.
          2    1    1    2  502    0  0.10988436855E+03  0.88462941393E+02  0.15668999662E+03  0.21083648046E+03  0.00000000000E+00 0. -1.
          1    1    1    2  503    0 -0.79662251979E+02 -0.15733358503E+02 -0.13706930855E+04  0.13730961902E+04  0.00000000000E+00 0. -1.
<mgrwt>
<rscale>  0 0.10626742E+03</rscale>
<asrwt>0</asrwt>
<pdfrwt beam="2">  1        2 0.36078844E+00 0.81201065E+02</pdfrwt>
<pdfrwt beam="1">  1        1 0.29343432E-01 0.13907163E+03</pdfrwt>
<totfact> 0.11875288E+02</totfact>
</mgrwt>
</event>
<event>
 7    1  0.4252091E-004  0.3906854E+02  0.7546771E-02  0.1537108E+00
          2   -1    0    0  503    0  0.00000000000E+00  0.00000000000E+00  0.53809677598E+03  0.53809677598E+03  0.00000000000E+00 0. -1.
          1   -1    0    0  502    0 -0.00000000000E+00 -0.00000000000E+00 -0.28574039502E+02  0.28574039502E+02  0.00000000000E+00 0. -1.
         25    2    1    2    0    0  0.21673826054E+02  0.11795521341E+02  0.40540654742E+03  0.42494556552E+03  0.12496149766E+03 0.  0.
          4    1    3    3  501    0  0.71129140835E+02 -0.12168612596E+02  0.24269436315E+03  0.25319872948E+03  0.12700000000E+01 0. -1.
         -4    1    3    3    0  501 -0.49455314781E+02  0.23964133937E+02  0.16271218428E+03  0.17174683603E+03  0.12700000000E+01 0. -1.
          2    1    1    2  502    0  0.28927534102E+02 -0.17446041701E+02  0.10875775409E+02  0.35488717799E+02  0.00000000000E+00 0. -1.
          1    1    1    2  503    0 -0.50601360156E+02  0.56505203607E+01  0.93240413643E+02  0.10623653216E+03  0.00000000000E+00 0. -1.
<mgrwt>
<rscale>  0 0.36328784E+02</rscale>
<asrwt>0</asrwt>
<pdfrwt beam="1">  1        2 0.82784112E-01 0.39068541E+02</pdfrwt>
<pdfrwt beam="2">  1        1 0.43960065E-02 0.33781157E+02</pdfrwt>
<totfact> 0.12922270E+04</totfact>
</mgrwt>
</event>
<event>
 7    1  0.4252091E-004  0.4083770E+02  0.7546771E-02  0.1540134E+00
          1   -1    0    0  502    0 -0.00000000000E+00  0.00000000000E+00  0.62690061308E+03  0.62690061308E+03  0.00000000000E+00 0. -1.
          2   -1    0    0  503    0  0.00000000000E+00 -0.00000000000E+00 -0.26167536698E+04  0.26167536698E+04  0.00000000000E+00 0. -1.
         25    2    1    2    0    0  0.27041237732E+02  0.32541541643E+02 -0.13937986908E+04  0.14000317040E+04  0.12499520402E+03 0.  0.
          4    1    3    3  501    0 -0.38667567051E+02  0.38970087738E+02 -0.92204507048E+03  0.92367882588E+03  0.12700000000E+01 0.  1.
         -4    1    3    3    0  501  0.65708804784E+02 -0.64285460947E+01 -0.47175362036E+03  0.47635287808E+03  0.12700000000E+01 0.  1.
          2    1    1    2  502    0  0.14646487763E+02 -0.28097932050E+02  0.62302115272E+03  0.62382639422E+03  0.00000000000E+00 0. -1.
          1    1    1    2  503    0 -0.41687725495E+02 -0.44436095929E+01 -0.12190755186E+04  0.12197961847E+04  0.00000000000E+00 0. -1.
<mgrwt>
<rscale>  0 0.35972075E+02</rscale>
<asrwt>0</asrwt>
<pdfrwt beam="2">  1        2 0.40257748E+00 0.40837695E+02</pdfrwt>
<pdfrwt beam="1">  1        1 0.96446249E-01 0.31686170E+02</pdfrwt>
<totfact> 0.22159908E+01</totfact>
</mgrwt>
</event>
<event>
 7    1  0.4252091E-004  0.9034602E+02  0.7546771E-02  0.1401945E+00
          1   -1    0    0  502    0 -0.00000000000E+00  0.00000000000E+00  0.12979277758E+04  0.12979277758E+04  0.00000000000E+00 0. -1.
          2   -1    0    0  503    0  0.00000000000E+00 -0.00000000000E+00 -0.21379319599E+04  0.21379319599E+04  0.00000000000E+00 0. -1.
         25    2    1    2    0    0 -0.65531580668E+02 -0.43703041081E+01  0.26034626600E+03  0.29617791755E+03  0.12501077155E+03 0.  0.
          4    1    3    3  501    0 -0.54177223504E+02  0.42294305104E+02  0.22830678884E+03  0.23843150489E+03  0.12700000000E+01 0.  1.
         -4    1    3    3    0  501 -0.11354357163E+02 -0.46664609212E+02  0.32039477159E+02  0.57746412669E+02  0.12700000000E+01 0.  1.
          2    1    1    2  502    0  0.86122459833E+02  0.36983816047E+02  0.10173358454E+04  0.10216443134E+04  0.00000000000E+00 0. -1.
          1    1    1    2  503    0 -0.20590879165E+02 -0.32613511939E+02 -0.21176862955E+04  0.21180375048E+04  0.00000000000E+00 0. -1.
<mgrwt>
<rscale>  0 0.59030699E+02</rscale>
<asrwt>0</asrwt>
<pdfrwt beam="2">  1        2 0.32891261E+00 0.38569748E+02</pdfrwt>
<pdfrwt beam="1">  1        1 0.19968120E+00 0.90346025E+02</pdfrwt>
<totfact> 0.11641803E+01</totfact>
</mgrwt>
</event>
<event>
 7    1  0.4252091E-004  0.1464707E+03  0.7546771E-02  0.1317374E+00
          2   -1    0    0  503    0  0.00000000000E+00  0.00000000000E+00  0.14299095461E+03  0.14299095461E+03  0.00000000000E+00 0. -1.
          1   -1    0    0  502    0 -0.00000000000E+00 -0.00000000000E+00 -0.52306171088E+03  0.52306171088E+03  0.00000000000E+00 0. -1.
         25    2    1    2    0    0 -0.57866194389E+02  0.92517253940E+02 -0.16809809613E+03  0.23618243658E+03  0.12496893493E+03 0.  0.
          4    1    3    3  501    0 -0.41912386747E+02  0.12260465185E+03 -0.14762564377E+03  0.19642681186E+03  0.12700000000E+01 0. -1.
         -4    1    3    3    0  501 -0.15953807642E+02 -0.30087397911E+02 -0.20472452359E+02  0.39755624721E+02  0.12700000000E+01 0. -1.
          2    1    1    2  502    0 -0.31737182644E+02  0.36640510947E+02 -0.26079934285E+03  0.26526604199E+03  0.00000000000E+00 0. -1.
          1    1    1    2  503    0  0.89603377033E+02 -0.12915776489E+03  0.48826682712E+02  0.16460418692E+03  0.00000000000E+00 0. -1.
<mgrwt>
<rscale>  0 0.84262053E+02</rscale>
<asrwt>0</asrwt>
<pdfrwt beam="1">  1        2 0.21998608E-01 0.14647074E+03</pdfrwt>
<pdfrwt beam="2">  1        1 0.80471034E-01 0.48474486E+02</pdfrwt>
<totfact> 0.14728970E+03</totfact>
</mgrwt>
</event>
<event>
 7    1  0.4252091E-004  0.6047015E+02  0.7546771E-02  0.1453092E+00
          1   -1    0    0  502    0 -0.00000000000E+00  0.00000000000E+00  0.21588533765E+04  0.21588533765E+04  0.00000000000E+00 0. -1.
          2   -1    0    0  503    0  0.00000000000E+00 -0.00000000000E+00 -0.27384273367E+03  0.27384273367E+03  0.00000000000E+00 0. -1.
         25    2    1    2    0    0  0.15459252552E+02 -0.87136867319E+02  0.26372875447E+03  0.30497463405E+03  0.12499939739E+03 0.  0.
          4    1    3    3  501    0  0.83927205527E+01 -0.10380651784E+03  0.11504677689E+03  0.15518893220E+03  0.12700000000E+01 0.  1.
         -4    1    3    3    0  501  0.70665319994E+01  0.16669650523E+02  0.14868197758E+03  0.14978570186E+03  0.12700000000E+01 0.  1.
          2    1    1    2  502    0  0.15807221293E+02  0.35703042407E+02  0.18707181200E+04  0.18711255597E+04  0.00000000000E+00 0. -1.
          1    1    1    2  503    0 -0.31266473845E+02  0.51433824912E+02 -0.24943623159E+03  0.25659591650E+03  0.00000000000E+00 0. -1.
<mgrwt>
<rscale>  0 0.48591215E+02</rscale>
<asrwt>0</asrwt>
<pdfrwt beam="2">  1        2 0.42129653E-01 0.60470151E+02</pdfrwt>
<pdfrwt beam="1">  1        1 0.33213128E+00 0.39045813E+02</pdfrwt>
<totfact> 0.55918712E+01</totfact>
</mgrwt>
</event>
<event>
 7    1  0.4252091E-004  0.1042352E+03  0.7546771E-02  0.1366638E+00
          2   -1    0    0  503    0  0.00000000000E+00  0.00000000000E+00  0.11712517584E+04  0.11712517584E+04  0.00000000000E+00 0. -1.
          1   -1    0    0  502    0 -0.00000000000E+00 -0.00000000000E+00 -0.10298680491E+04  0.10298680491E+04  0.00000000000E+00 0. -1.
         25    2    1    2    0    0 -0.13188718181E+03  0.17943310043E+02 -0.16418705280E+02  0.18333243750E+03  0.12500007062E+03 0.  0.
          4    1    3    3  501    0 -0.15511612916E+03  0.16496805791E+02 -0.25969660549E+02  0.15814295525E+03  0.12700000000E+01 0. -1.
         -4    1    3    3    0  501  0.23228947347E+02  0.14465042522E+01  0.95509552683E+01  0.25189482248E+02  0.12700000000E+01 0. -1.
          2    1    1    2  502    0  0.94478745692E+02 -0.42054783052E+02 -0.92665965696E+03  0.93241243986E+03  0.00000000000E+00 0. -1.
          1    1    1    2  503    0  0.37408436118E+02  0.24111473008E+02  0.10844620715E+04  0.10853749301E+04  0.00000000000E+00 0. -1.
<mgrwt>
<rscale>  0 0.68110621E+02</rscale>
<asrwt>0</asrwt>
<pdfrwt beam="1">  1        2 0.18019258E+00 0.44505665E+02</pdfrwt>
<pdfrwt beam="2">  1        1 0.15844124E+00 0.10423520E+03</pdfrwt>
<totfact> 0.51586350E+01</totfact>
</mgrwt>
</event>
<event>
 7    1  0.4252091E-004  0.1263244E+03  0.7546771E-02  0.1245082E+00
          1   -1    0    0  502    0 -0.00000000000E+00  0.00000000000E+00  0.25371335635E+03  0.25371335635E+03  0.00000000000E+00 0. -1.
          2   -1    0    0  503    0  0.00000000000E+00 -0.00000000000E+00 -0.36127175502E+03  0.36127175502E+03  0.00000000000E+00 0. -1.
         25    2    1    2    0    0  0.81234587033E+02  0.12941019889E+03  0.64916116446E+01  0.19751850350E+03  0.12500144198E+03 0.  0.
          4    1    3    3  501    0  0.16751995966E+02  0.12077163109E+03  0.34431582418E+02  0.12670265590E+03  0.12700000000E+01 0. -1.
         -4    1    3    3    0  501  0.64482591067E+02  0.86385678022E+01 -0.27939970773E+02  0.70815847599E+02  0.12700000000E+01 0. -1.
          2    1    1    2  502    0  0.30421892525E+02 -0.12528259190E+03  0.10846063067E+03  0.16847827095E+03  0.00000000000E+00 0. -1.
          1    1    1    2  503    0 -0.11165647956E+03 -0.41276069924E+01 -0.22251064098E+03  0.24898833691E+03  0.00000000000E+00 0. -1.
<mgrwt>
<rscale>  0 0.11880477E+03</rscale>
<asrwt>0</asrwt>
<pdfrwt beam="2">  1        2 0.55580270E-01 0.11173275E+03</pdfrwt>
<pdfrwt beam="1">  1        1 0.39032824E-01 0.12632441E+03</pdfrwt>
<totfact> 0.13112804E+03</totfact>
</mgrwt>
</event>
<event>
 7    1  0.4252091E-004  0.2464798E+02  0.7546771E-02  0.1674567E+00
          1   -1    0    0  502    0 -0.00000000000E+00  0.00000000000E+00  0.15558881749E+04  0.15558881749E+04  0.00000000000E+00 0. -1.
          2   -1    0    0  503    0  0.00000000000E+00 -0.00000000000E+00 -0.59741531174E+03  0.59741531174E+03  0.00000000000E+00 0. -1.
         25    2    1    2    0    0 -0.23305596272E+01  0.17216251954E+01 -0.20023163897E+03  0.23606388417E+03  0.12500021065E+03 0.  0.
          4    1    3    3  501    0  0.20017394898E+02  0.59642144418E+02 -0.10254213754E+03  0.12030953562E+03  0.12700000000E+01 0. -1.
         -4    1    3    3    0  501 -0.22347954525E+02 -0.57920519223E+02 -0.97689501429E+02  0.11575434855E+03  0.12700000000E+01 0. -1.
          2    1    1    2  502    0 -0.44186105576E+01 -0.24259449152E+02  0.15375082438E+04  0.15377059682E+04  0.00000000000E+00 0. -1.
          1    1    1    2  503    0  0.67491701848E+01  0.22537823956E+02 -0.37880374167E+03  0.37953363423E+03  0.00000000000E+00 0. -1.
<mgrwt>
<rscale>  0 0.24080804E+02</rscale>
<asrwt>0</asrwt>
<pdfrwt beam="2">  1        2 0.91910049E-01 0.23526683E+02</pdfrwt>
<pdfrwt beam="1">  1        1 0.23936741E+00 0.24647977E+02</pdfrwt>
<totfact> 0.61649907E+01</totfact>
</mgrwt>
</event>
<event>
 7    1  0.4252091E-004  0.1163923E+03  0.7546771E-02  0.1329781E+00
         -1   -1    0    0    0  501 -0.00000000000E+00  0.00000000000E+00  0.17108465394E+03  0.17108465394E+03  0.00000000000E+00 0.  1.
          1   -1    0    0  503    0  0.00000000000E+00 -0.00000000000E+00 -0.27598548154E+04  0.27598548154E+04  0.00000000000E+00 0. -1.
         25    2    1    2    0    0  0.45570439965E+02  0.12726494370E+03  0.97379668744E+02  0.20828253190E+03  0.12500312923E+03 0.  0.
          4    1    3    3  502    0 -0.22129873180E+01 -0.23169576201E+02  0.26381651222E+02  0.35204133215E+02  0.12700000000E+01 0.  1.
         -4    1    3    3    0  502  0.47783427283E+02  0.15043451990E+03  0.70998017522E+02  0.17307839869E+03  0.12700000000E+01 0.  1.
          2    1    1    2  503    0 -0.33727821849E+01 -0.54530017039E+02 -0.26057292907E+04  0.26063019846E+04  0.00000000000E+00 0. -1.
         -2    1    1    2    0  501 -0.42197657780E+02 -0.72734926660E+02 -0.80420539515E+02  0.11635495286E+03  0.00000000000E+00 0.  1.
<mgrwt>
<rscale>  0 0.79743345E+02</rscale>
<asrwt>0</asrwt>
<pdfrwt beam="2">  1        1 0.42459301E+00 0.54634224E+02</pdfrwt>
<pdfrwt beam="1">  1       -1 0.26320718E-01 0.11639226E+03</pdfrwt>
<totfact> 0.17320150E+01</totfact>
</mgrwt>
</event>
<event>
 7    1  0.4252091E-004  0.4638616E+02  0.7546771E-02  0.1525519E+00
          1   -1    0    0  503    0  0.00000000000E+00  0.00000000000E+00  0.49619702479E+03  0.49619702479E+03  0.00000000000E+00 0. -1.
         -1   -1    0    0    0  501 -0.00000000000E+00 -0.00000000000E+00 -0.37020147355E+02  0.37020147355E+02  0.00000000000E+00 0.  1.
         25    2    1    2    0    0 -0.32974424711E+01 -0.51958212163E+02  0.17959115374E+03  0.22491780224E+03  0.12499802528E+03 0.  0.
          4    1    3    3  502    0  0.48149143722E+02 -0.76968578072E+01  0.22354723856E+02  0.53655644996E+02  0.12700000000E+01 0.  1.
         -4    1    3    3    0  502 -0.51446586193E+02 -0.44261354355E+02  0.15723642989E+03  0.17126215724E+03  0.12700000000E+01 0.  1.
          2    1    1    2  503    0 -0.26398122208E+02  0.15688883420E+02  0.25209321638E+03  0.25395667281E+03  0.00000000000E+00 0. -1.
         -2    1    1    2    0  501  0.29695564679E+02  0.36269328742E+02  0.27492507307E+02  0.54342697090E+02  0.00000000000E+00 0.  1.
<mgrwt>
<rscale>  0 0.37741778E+02</rscale>
<asrwt>0</asrwt>
<pdfrwt beam="1">  1        1 0.76337999E-01 0.30708336E+02</pdfrwt>
<pdfrwt beam="2">  1       -1 0.56954076E-02 0.46386159E+02</pdfrwt>
<totfact> 0.59108035E+03</totfact>
</mgrwt>
</event>
<event>
 7    1  0.4252091E-004  0.7663841E+02  0.7546771E-02  0.1457024E+00
          1   -1    0    0  502    0 -0.00000000000E+00  0.00000000000E+00  0.66112477579E+03  0.66112477579E+03  0.00000000000E+00 0. -1.
          2   -1    0    0  503    0  0.00000000000E+00 -0.00000000000E+00 -0.10603492026E+04  0.10603492026E+04  0.00000000000E+00 0. -1.
         25    2    1    2    0    0 -0.42845227609E+02  0.48089115222E+02 -0.85285240707E+01  0.14087418378E+03  0.12499809359E+03 0.  0.
          4    1    3    3  501    0  0.28116987879E+02  0.39442685668E+02 -0.39926424999E+02  0.62785529968E+02  0.12700000000E+01 0.  1.
         -4    1    3    3    0  501 -0.70962215488E+02  0.86464295537E+01  0.31397900928E+02  0.78088653809E+02  0.12700000000E+01 0.  1.
          2    1    1    2  502    0  0.25864953615E+02 -0.72741962574E+02  0.59221855453E+03  0.59722960851E+03  0.00000000000E+00 0. -1.
          1    1    1    2  503    0  0.16980273994E+02  0.24652847353E+02 -0.98291445728E+03  0.98337018610E+03  0.00000000000E+00 0. -1.
<mgrwt>
<rscale>  0 0.47897347E+02</rscale>
<asrwt>0</asrwt>
<pdfrwt beam="2">  1        2 0.16313065E+00 0.29934806E+02</pdfrwt>
<pdfrwt beam="1">  1        1 0.10171150E+00 0.76638409E+02</pdfrwt>
<totfact> 0.12029777E+02</totfact>
</mgrwt>
</event>
<event>
 7    1  0.4252091E-004  0.1650365E+03  0.7546771E-02  0.1374550E+00
          2   -1    0    0  503    0  0.00000000000E+00  0.00000000000E+00  0.84923763123E+03  0.84923763123E+03  0.00000000000E+00 0. -1.
          1   -1    0    0  502    0 -0.00000000000E+00 -0.00000000000E+00 -0.53887969131E+02  0.53887969131E+02  0.00000000000E+00 0. -1.
         25    2    1    2    0    0  0.95972689361E+02  0.13094524830E+03  0.25198285272E+03  0.32477345641E+03  0.12500009905E+03 0.  0.
          4    1    3    3  501    0  0.82910621733E+01  0.58783881295E-01 -0.13599070698E+02  0.15977884445E+02  0.12700000000E+01 0.  1.
         -4    1    3    3    0  501  0.87681627187E+02  0.13088646442E+03  0.26558192342E+03  0.30879557196E+03  0.12700000000E+01 0.  1.
          2    1    1    2  502    0  0.24477360216E+02 -0.96987915757E+01  0.55812790747E+02  0.61711225334E+02  0.00000000000E+00 0. -1.
          1    1    1    2  503    0 -0.12045004958E+03 -0.12124645673E+03  0.48755401863E+03  0.51664091862E+03  0.00000000000E+00 0. -1.
<mgrwt>
<rscale>  0 0.65918283E+02</rscale>
<asrwt>0</asrwt>
<pdfrwt beam="1">  1        2 0.13065193E+00 0.26328838E+02</pdfrwt>
<pdfrwt beam="2">  1        1 0.82904574E-02 0.16503653E+03</pdfrwt>
<totfact> 0.39249614E+03</totfact>
</mgrwt>
</event>
<event>
 7    1  0.4252091E-004  0.1270787E+03  0.7546771E-02  0.1273575E+00
          2   -1    0    0  503    0  0.00000000000E+00  0.00000000000E+00  0.14852603721E+04  0.14852603721E+04  0.00000000000E+00 0. -1.
          1   -1    0    0  502    0 -0.00000000000E+00 -0.00000000000E+00 -0.20511079699E+03  0.20511079699E+03  0.00000000000E+00 0. -1.
         25    2    1    2    0    0  0.46419311532E+02  0.11623841572E+03  0.17212243624E+03  0.24681378630E+03  0.12499916111E+03 0.  0.
          4    1    3    3  501    0  0.36922268188E+02  0.45324527569E+02 -0.20550184078E+01  0.58509851206E+02  0.12700000000E+01 0. -1.
         -4    1    3    3    0  501  0.94970433446E+01  0.70913888149E+02  0.17417745465E+03  0.18830393509E+03  0.12700000000E+01 0. -1.
          2    1    1    2  502    0  0.65944249795E+02 -0.51895082119E+02 -0.15374712170E+03  0.17515684702E+03  0.00000000000E+00 0. -1.
          1    1    1    2  503    0 -0.11236356133E+03 -0.64343333598E+02  0.12617742606E+04  0.12684005358E+04  0.00000000000E+00 0. -1.
<mgrwt>
<rscale>  0 0.10326577E+03</rscale>
<asrwt>0</asrwt>
<pdfrwt beam="1">  1        2 0.22850159E+00 0.12707868E+03</pdfrwt>
<pdfrwt beam="2">  1        1 0.31555508E-01 0.83915098E+02</pdfrwt>
<totfact> 0.28107167E+02</totfact>
</mgrwt>
</event>
<event>
 7    1  0.4252091E-004  0.5384279E+02  0.7546771E-02  0.1475907E+00
          2   -1    0    0  503    0  0.00000000000E+00  0.00000000000E+00  0.66720349360E+02  0.66720349360E+02  0.00000000000E+00 0. -1.
          1   -1    0    0  502    0 -0.00000000000E+00 -0.00000000000E+00 -0.58326398942E+03  0.58326398942E+03  0.00000000000E+00 0. -1.
         25    2    1    2    0    0 -0.10272431557E+02 -0.19625277049E+02 -0.10078655686E+03  0.16209463298E+03  0.12500426253E+03 0.  0.
          4    1    3    3  501    0 -0.36820068734E+02 -0.53984717073E+02 -0.16711553702E+02  0.67460774278E+02  0.12700000000E+01 0.  1.
         -4    1    3    3    0  501  0.26547637177E+02  0.34359440024E+02 -0.84075003154E+02  0.94633858707E+02  0.12700000000E+01 0.  1.
          2    1    1    2  502    0  0.15060573860E+01  0.55770515488E+02 -0.43998067076E+03  0.44350378718E+03  0.00000000000E+00 0. -1.
          1    1    1    2  503    0  0.87663741710E+01 -0.36145238439E+02  0.24223587547E+02  0.44385918618E+02  0.00000000000E+00 0. -1.
<mgrwt>
<rscale>  0 0.44750204E+02</rscale>
<asrwt>0</asrwt>
<pdfrwt beam="1">  1        2 0.10264669E-01 0.37193112E+02</pdfrwt>
<pdfrwt beam="2">  1        1 0.89732920E-01 0.53842786E+02</pdfrwt>
<totfact> 0.28512281E+03</totfact>
</mgrwt>
</event>
<event>
 7    1  0.4252091E-004  0.5154049E+02  0.7546771E-02  0.1575890E+00
          1   -1    0    0  502    0 -0.00000000000E+00  0.00000000000E+00  0.71668593699E+03  0.71668593699E+03  0.00000000000E+00 0. -1.
          2   -1    0    0  503    0  0.00000000000E+00 -0.00000000000E+00 -0.28582909115E+02  0.28582909115E+02  0.00000000000E+00 0. -1.
         25    2    1    2    0    0  0.58634086322E+01  0.44484203223E+02  0.15887259752E+03  0.20707243500E+03  0.12500106880E+03 0.  0.
          4    1    3    3  501    0  0.60077765217E+02 -0.24788449777E+01  0.84731924560E+02  0.10390666237E+03  0.12700000000E+01 0.  1.
         -4    1    3    3    0  501 -0.54214356585E+02  0.46963048200E+02  0.74140672956E+02  0.10316577263E+03  0.12700000000E+01 0.  1.
          2    1    1    2  502    0  0.13250193905E+02 -0.50380507611E+02  0.50041377216E+03  0.50311798472E+03  0.00000000000E+00 0. -1.
          3    1    1    2  503    0 -0.19113602537E+02  0.58963043882E+01  0.28816658208E+02  0.35078426385E+02  0.00000000000E+00 0. -1.
<mgrwt>
<rscale>  0 0.32108158E+02</rscale>
<asrwt>0</asrwt>
<pdfrwt beam="2">  1        2 0.43973711E-02 0.20002405E+02</pdfrwt>
<pdfrwt beam="1">  1        1 0.11025936E+00 0.51540493E+02</pdfrwt>
<totfact> 0.56040111E+03</totfact>
</mgrwt>
</event>
<event>
 7    1  0.4252091E-004  0.9962829E+02  0.7546771E-02  0.1300457E+00
          1   -1    0    0  502    0 -0.00000000000E+00  0.00000000000E+00  0.24437495167E+03  0.24437495167E+03  0.00000000000E+00 0. -1.
          2   -1    0    0  503    0  0.00000000000E+00 -0.00000000000E+00 -0.22619512352E+03  0.22619512352E+03  0.00000000000E+00 0. -1.
         25    2    1    2    0    0 -0.46791891152E+02 -0.33001215637E+02 -0.15296554345E+02  0.13833536732E+03  0.12499651181E+03 0.  0.
          4    1    3    3  501    0  0.48219164201E+01  0.15396399483E+02 -0.54903404925E+02  0.57238944499E+02  0.12700000000E+01 0.  1.
         -4    1    3    3    0  501 -0.51613807572E+02 -0.48397615120E+02  0.39606850581E+02  0.81096422821E+02  0.12700000000E+01 0.  1.
          2    1    1    2  502    0  0.75443086251E+02 -0.65070251698E+02  0.14822247302E+03  0.17859366850E+03  0.00000000000E+00 0. -1.
          3    1    1    2  503    0 -0.28651195099E+02  0.98071467335E+02 -0.11474609053E+03  0.15364103937E+03  0.00000000000E+00 0. -1.
<mgrwt>
<rscale>  0 0.90996207E+02</rscale>
<asrwt>0</asrwt>
<pdfrwt beam="2">  1        2 0.34799250E-01 0.83112029E+02</pdfrwt>
<pdfrwt beam="1">  1        1 0.37596146E-01 0.99628294E+02</pdfrwt>
<totfact> 0.22360075E+03</totfact>
</mgrwt>
</event>
<event>
 7    1  0.4252091E-004  0.5806618E+02  0.7546771E-02  0.1509206E+00
         -2   -1    0    0    0  501 -0.00000000000E+00  0.00000000000E+00  0.12083067719E+02  0.12083067719E+02  0.00000000000E+00 0.  1.
          2   -1    0    0  503    0  0.00000000000E+00 -0.00000000000E+00 -0.21137453024E+04  0.21137453024E+04  0.00000000000E+00 0. -1.
         25    2    1    2    0    0  0.68966291200E+02 -0.16001450049E+02 -0.17188562491E+04  0.17248493880E+04  0.12500484226E+03 0.  0.
          4    1    3    3  502    0  0.85480012047E+02  0.90952552811E+01 -0.66119916511E+03  0.66676495481E+03  0.12700000000E+01 0. -1.
         -4    1    3    3    0  502 -0.16513720847E+02 -0.25096705330E+02 -0.10576570840E+04  0.10580844332E+04  0.12700000000E+01 0. -1.
          1    1    1    2  503    0 -0.51337861040E+02 -0.49345189398E+01 -0.36431807913E+03  0.36795052417E+03  0.00000000000E+00 0. -1.
         -1    1    1    2    0  501 -0.17628430160E+02  0.20935968989E+02 -0.18487906433E+02  0.33028457906E+02  0.00000000000E+00 0.  1.
<mgrwt>
<rscale>  0 0.39865127E+02</rscale>
<asrwt>0</asrwt>
<pdfrwt beam="2">  1        2 0.32519194E+00 0.58066181E+02</pdfrwt>
<pdfrwt beam="1">  1       -2 0.18589315E-02 0.27369259E+02</pdfrwt>
<totfact> 0.47818107E+03</totfact>
</mgrwt>
</event>
<event>
 7    1  0.4252091E-004  0.8932966E+02  0.7546771E-02  0.1395826E+00
          1   -1    0    0  502    0 -0.00000000000E+00  0.00000000000E+00  0.51620631616E+03  0.51620631616E+03  0.00000000000E+00 0. -1.
          2   -1    0    0  503    0  0.00000000000E+00 -0.00000000000E+00 -0.12081786554E+04  0.12081786554E+04  0.00000000000E+00 0. -1.
         25    2    1    2    0    0 -0.87336974476E+02 -0.60997809663E+02 -0.20251420603E+02  0.16547936970E+03  0.12499928747E+03 0.  0.
          4    1    3    3  501    0 -0.93459869323E+02 -0.18622016888E+02 -0.55252249470E+02  0.11016329088E+03  0.12700000000E+01 0. -1.
         -4    1    3    3    0  501  0.61228948476E+01 -0.42375792776E+02  0.35000828867E+02  0.55316078820E+02  0.12700000000E+01 0. -1.
          2    1    1    2  502    0  0.86560346616E+02  0.20056915668E+02  0.43876174384E+03  0.44766822685E+03  0.00000000000E+00 0. -1.
          3    1    1    2  503    0  0.77662785984E+00  0.40940893996E+02 -0.11104826625E+04  0.11112373750E+04  0.00000000000E+00 0. -1.
<mgrwt>
<rscale>  0 0.60480525E+02</rscale>
<asrwt>0</asrwt>
<pdfrwt beam="2">  1        2 0.18587364E+00 0.40948259E+02</pdfrwt>
<pdfrwt beam="1">  1        1 0.79416357E-01 0.89329655E+02</pdfrwt>
<totfact> 0.13619450E+02</totfact>
</mgrwt>
</event>
<event>
 7    1  0.4252091E-004  0.6452994E+02  0.7546771E-02  0.1525991E+00
         -2   -1    0    0    0  501  0.00000000000E+00  0.00000000000E+00  0.11358270288E+03  0.11358270288E+03  0.00000000000E+00 0.  1.
         -1   -1    0    0    0  502 -0.00000000000E+00 -0.00000000000E+00 -0.13827695822E+04  0.13827695822E+04  0.00000000000E+00 0.  1.
         25    2    1    2    0    0 -0.71583256244E+02 -0.10894483805E+01 -0.10506540115E+03  0.17830019404E+03  0.12500748459E+03 0.  0.
          4    1    3    3  503    0 -0.74189664056E+02 -0.13950008864E+02 -0.31821088535E+01  0.75567504371E+02  0.12700000000E+01 0. -1.
         -4    1    3    3    0  503  0.26064078120E+01  0.12860560484E+02 -0.10188329230E+03  0.10273268967E+03  0.12700000000E+01 0. -1.
         -2    1    1    2    0  502  0.61708211150E+02 -0.18575529717E+02 -0.12386589721E+04  0.12403342303E+04  0.00000000000E+00 0.  1.
         -1    1    1    2    0  501  0.98750450941E+01  0.19664978097E+02  0.74537493938E+02  0.77717860764E+02  0.00000000000E+00 0.  1.
<mgrwt>
<rscale>  0 0.37682792E+02</rscale>
<asrwt>0</asrwt>
<pdfrwt beam="1">  1       -2 0.17474261E-01 0.22005178E+02</pdfrwt>
<pdfrwt beam="2">  1       -1 0.21273379E+00 0.64529939E+02</pdfrwt>
<totfact> 0.27188592E+01</totfact>
</mgrwt>
</event>
<event>
 7    1  0.4252091E-004  0.1462551E+03  0.7546771E-02  0.1324543E+00
         -2   -1    0    0    0  501 -0.00000000000E+00  0.00000000000E+00  0.12893133330E+04  0.12893133330E+04  0.00000000000E+00 0.  1.
          2   -1    0    0  503    0  0.00000000000E+00 -0.00000000000E+00 -0.67057480947E+03  0.67057480947E+03  0.00000000000E+00 0. -1.
         25    2    1    2    0    0 -0.13330109520E+03  0.40928599547E+02  0.31493227485E+03  0.36640263050E+03  0.12499687058E+03 0.  0.
          4    1    3    3  502    0 -0.12401693725E+03 -0.13751293465E+02  0.16744817118E+03  0.20882959974E+03  0.12700000000E+01 0.  1.
         -4    1    3    3    0  502 -0.92841579533E+01  0.54679893012E+02  0.14748410366E+03  0.15757303076E+03  0.12700000000E+01 0.  1.
          1    1    1    2  503    0  0.11983079913E+03 -0.84429271052E+02 -0.63595050642E+03  0.65262605591E+03  0.00000000000E+00 0. -1.
         -1    1    1    2    0  501  0.13470296075E+02  0.43500671505E+02  0.93975675507E+03  0.94085945603E+03  0.00000000000E+00 0.  1.
<mgrwt>
<rscale>  0 0.81610296E+02</rscale>
<asrwt>0</asrwt>
<pdfrwt beam="2">  1        2 0.10316536E+00 0.14625507E+03</pdfrwt>
<pdfrwt beam="1">  1       -2 0.19835590E+00 0.45538525E+02</pdfrwt>
<totfact> 0.75941164E+00</totfact>
</mgrwt>
</event>
<event>
 7    1  0.4252091E-004  0.9237260E+02  0.7546771E-02  0.1372553E+00
          1   -1    0    0  502    0 -0.00000000000E+00  0.00000000000E+00  0.11301415858E+04  0.11301415858E+04  0.00000000000E+00 0. -1.
          2   -1    0    0  503    0  0.00000000000E+00 -0.00000000000E+00 -0.49305083764E+03  0.49305083764E+03  0.00000000000E+00 0. -1.
         25    2    1    2    0    0  0.33368866322E+02  0.10747281264E+03  0.29678730407E+03  0.34113260166E+03  0.12499944545E+03 0.  0.
          4    1    3    3  501    0 -0.35805478639E+02  0.56810945033E+02  0.20407564806E+03  0.21484412677E+03  0.12700000000E+01 0. -1.
         -4    1    3    3    0  501  0.69174344961E+02  0.50661867608E+02  0.92711656009E+02  0.12628847489E+03  0.12700000000E+01 0. -1.
          2    1    1    2  502    0  0.28086610745E+02 -0.38702804873E+02  0.80595003295E+03  0.80736746307E+03  0.00000000000E+00 0. -1.
          1    1    1    2  503    0 -0.61455477067E+02 -0.68770007768E+02 -0.46564658890E+03  0.47469235867E+03  0.00000000000E+00 0. -1.
<mgrwt>
<rscale>  0 0.66462544E+02</rscale>
<asrwt>0</asrwt>
<pdfrwt beam="2">  1        2 0.75853975E-01 0.92372600E+02</pdfrwt>
<pdfrwt beam="1">  1        1 0.17386794E+00 0.47820130E+02</pdfrwt>
<totfact> 0.12818656E+02</totfact>
</mgrwt>
</event>
<event>
 7    1  0.4252091E-004  0.9500937E+02  0.7546771E-02  0.1400197E+00
          2   -1    0    0  503    0  0.00000000000E+00  0.00000000000E+00  0.56795751280E+03  0.56795751280E+03  0.00000000000E+00 0. -1.
          1   -1    0    0  502    0 -0.00000000000E+00 -0.00000000000E+00 -0.13682245385E+04  0.13682245385E+04  0.00000000000E+00 0. -1.
         25    2    1    2    0    0 -0.16357401760E+02 -0.12864204661E+03  0.15778708666E+02  0.18080846506E+03  0.12500557044E+03 0.  0.
          4    1    3    3  501    0  0.19477653554E+02 -0.10401912945E+03  0.57577340359E+02  0.12048286725E+03  0.12700000000E+01 0.  1.
         -4    1    3    3    0  501 -0.35835055314E+02 -0.24622917163E+02 -0.41798631693E+02  0.60325597804E+02  0.12700000000E+01 0.  1.
          2    1    1    2  502    0 -0.91415684441E+00  0.37175759428E+02 -0.12808251322E+04  0.12813648552E+04  0.00000000000E+00 0. -1.
          1    1    1    2  503    0  0.17271558605E+02  0.91466287182E+02  0.46477939787E+03  0.47400873105E+03  0.00000000000E+00 0. -1.
<mgrwt>
<rscale>  0 0.59439996E+02</rscale>
<asrwt>0</asrwt>
<pdfrwt beam="1">  1        2 0.87378080E-01 0.95009369E+02</pdfrwt>
<pdfrwt beam="2">  1        1 0.21049608E+00 0.37186997E+02</pdfrwt>
<totfact> 0.78894370E+01</totfact>
</mgrwt>
</event>
<event>
 7    1  0.4252091E-004  0.6410192E+02  0.7546771E-02  0.1388162E+00
          2   -1    0    0  503    0  0.00000000000E+00  0.00000000000E+00  0.11426599837E+04  0.11426599837E+04  0.00000000000E+00 0. -1.
          1   -1    0    0  502    0 -0.00000000000E+00 -0.00000000000E+00 -0.64352348730E+02  0.64352348730E+02  0.00000000000E+00 0. -1.
         25    2    1    2    0    0  0.88076037313E+02 -0.70625510052E+02  0.61220800918E+03  0.63495611071E+03  0.12500106003E+03 0.  0.
          4    1    3    3  501    0  0.27054414671E+02  0.32294998368E+02  0.92487575692E+02  0.10163893363E+03  0.12700000000E+01 0. -1.
         -4    1    3    3    0  501  0.61021622642E+02 -0.10292050842E+03  0.51972043349E+03  0.53331717708E+03  0.12700000000E+01 0. -1.
          2    1    1    2  502    0 -0.60663775011E+02  0.16493026573E+02 -0.31815138242E+02  0.70457906196E+02  0.00000000000E+00 0. -1.
          1    1    1    2  503    0 -0.27412262301E+02  0.54132483479E+02  0.49791476401E+03  0.50159831550E+03  0.00000000000E+00 0. -1.
<mgrwt>
<rscale>  0 0.62366205E+02</rscale>
<asrwt>0</asrwt>
<pdfrwt beam="1">  1        2 0.17579383E+00 0.60677491E+02</pdfrwt>
<pdfrwt beam="2">  1        1 0.99003622E-02 0.64101918E+02</pdfrwt>
<totfact> 0.19064400E+03</totfact>
</mgrwt>
</event>
<event>
 7    1  0.4252091E-004  0.6766620E+02  0.7546771E-02  0.1474806E+00
          2   -1    0    0  503    0  0.00000000000E+00  0.00000000000E+00  0.19697961965E+04  0.19697961965E+04  0.00000000000E+00 0. -1.
         -2   -1    0    0    0  501 -0.00000000000E+00 -0.00000000000E+00 -0.29660326428E+02  0.29660326428E+02  0.00000000000E+00 0.  1.
         25    2    1    2    0    0 -0.46776012024E+02 -0.67723731655E+02  0.61105606847E+03  0.62911842653E+03  0.12500390658E+03 0.  0.
          4    1    3    3  502    0 -0.69138958248E+02 -0.49811249116E+01  0.44208196780E+03  0.44748529172E+03  0.12700000000E+01 0. -1.
         -4    1    3    3    0  502  0.22362946225E+02 -0.62742606743E+02  0.16897410067E+03  0.18163313481E+03  0.12700000000E+01 0. -1.
          1    1    1    2  503    0  0.29656577461E+02  0.31901166576E+01  0.12950623491E+04  0.12954057964E+04  0.00000000000E+00 0. -1.
         -1    1    1    2    0  501  0.17119434563E+02  0.64533614997E+02  0.34017452564E+02  0.74932300000E+02  0.00000000000E+00 0.  1.
<mgrwt>
<rscale>  0 0.44925769E+02</rscale>
<asrwt>0</asrwt>
<pdfrwt beam="1">  1        2 0.30304547E+00 0.29827662E+02</pdfrwt>
<pdfrwt beam="2">  1       -2 0.45631287E-02 0.67666204E+02</pdfrwt>
<totfact> 0.19425463E+03</totfact>
</mgrwt>
</event>
<event>
 7    1  0.4252091E-004  0.9156968E+02  0.7546771E-02  0.1344999E+00
          2   -1    0    0  503    0  0.00000000000E+00  0.00000000000E+00  0.14743371306E+04  0.14743371306E+04  0.00000000000E+00 0. -1.
         -2   -1    0    0    0  501 -0.00000000000E+00 -0.00000000000E+00 -0.12540145830E+03  0.12540145830E+03  0.00000000000E+00 0.  1.
         25    2    1    2    0    0 -0.51529395091E+02  0.48144499649E+02  0.59205873958E+03  0.60920629592E+03  0.12500235386E+03 0.  0.
          4    1    3    3  502    0 -0.52820232190E+02  0.52024336908E+02  0.59761176773E+03  0.60219427629E+03  0.12700000000E+01 0.  1.
         -4    1    3    3    0  502  0.12908370995E+01 -0.38798372587E+01 -0.55530281566E+01  0.70120196291E+01  0.12700000000E+01 0.  1.
          1    1    1    2  503    0  0.41906334401E+02  0.44099620429E+02  0.85404401387E+03  0.85620797416E+03  0.00000000000E+00 0. -1.
         -1    1    1    2    0  501  0.96230606901E+01 -0.92244120079E+02 -0.97167081106E+02  0.13432431886E+03  0.00000000000E+00 0.  1.
<mgrwt>
<rscale>  0 0.74636831E+02</rscale>
<asrwt>0</asrwt>
<pdfrwt beam="1">  1        2 0.22682108E+00 0.60835166E+02</pdfrwt>
<pdfrwt beam="2">  1       -2 0.19292533E-01 0.91569677E+02</pdfrwt>
<totfact> 0.34337883E+02</totfact>
</mgrwt>
</event>
<event>
 7    1  0.4252091E-004  0.1290863E+03  0.7546771E-02  0.1385284E+00
          2   -1    0    0  503    0  0.00000000000E+00  0.00000000000E+00  0.18507954790E+04  0.18507954790E+04  0.00000000000E+00 0. -1.
          1   -1    0    0  502    0 -0.00000000000E+00 -0.00000000000E+00 -0.39477605349E+02  0.39477605349E+02  0.00000000000E+00 0. -1.
         25    2    1    2    0    0 -0.74266744190E+02  0.81109236121E+02  0.38175450447E+03  0.41647892454E+03  0.12499574164E+03 0.  0.
          4    1    3    3  501    0 -0.68563253292E+02  0.99921937446E+02  0.20139295673E+03  0.23504478128E+03  0.12700000000E+01 0. -1.
         -4    1    3    3    0  501 -0.57034908973E+01 -0.18812701324E+02  0.18036154774E+03  0.18143414326E+03  0.12700000000E+01 0. -1.
          2    1    1    2  502    0  0.10062529345E+03 -0.97118811577E+02  0.20111465105E+03  0.24495839670E+03  0.00000000000E+00 0. -1.
          1    1    1    2  503    0 -0.26358549261E+02  0.16009575456E+02  0.12284487181E+04  0.12288357631E+04  0.00000000000E+00 0. -1.
<mgrwt>
<rscale>  0 0.63094909E+02</rscale>
<asrwt>0</asrwt>
<pdfrwt beam="1">  1        2 0.28473770E+00 0.30839579E+02</pdfrwt>
<pdfrwt beam="2">  1        1 0.60734792E-02 0.12908631E+03</pdfrwt>
<totfact> 0.18140808E+03</totfact>
</mgrwt>
</event>
<event>
 7    1  0.4252091E-004  0.9988659E+02  0.7546771E-02  0.1331080E+00
         -2   -1    0    0    0  501 -0.00000000000E+00  0.00000000000E+00  0.21685518539E+03  0.21685518539E+03  0.00000000000E+00 0.  1.
          2   -1    0    0  503    0  0.00000000000E+00 -0.00000000000E+00 -0.92896337992E+03  0.92896337992E+03  0.00000000000E+00 0. -1.
         25    2    1    2    0    0  0.51037305567E+02 -0.77515689020E+02 -0.45543225011E+01  0.15575550712E+03  0.12500219015E+03 0.  0.
          4    1    3    3  502    0  0.65024480492E+02 -0.10481558420E+03 -0.12663309359E+02  0.12400186312E+03  0.12700000000E+01 0. -1.
         -4    1    3    3    0  502 -0.13987174925E+02  0.27299895180E+02  0.81089868581E+01  0.31753643997E+02  0.12700000000E+01 0. -1.
          1    1    1    2  503    0 -0.95410871392E+02  0.32879839684E+02 -0.83861885240E+03  0.84466910553E+03  0.00000000000E+00 0. -1.
         -1    1    1    2    0  501  0.44373565826E+02  0.44635849336E+02  0.13106498037E+03  0.14539395265E+03  0.00000000000E+00 0.  1.
<mgrwt>
<rscale>  0 0.79289378E+02</rscale>
<asrwt>0</asrwt>
<pdfrwt beam="2">  1        2 0.14291744E+00 0.99886589E+02</pdfrwt>
<pdfrwt beam="1">  1       -2 0.33362336E-01 0.62939434E+02</pdfrwt>
<totfact> 0.25249029E+02</totfact>
</mgrwt>
</event>
<event>
 7    1  0.4252091E-004  0.9292483E+02  0.7546771E-02  0.1360439E+00
          1   -1    0    0  502    0 -0.00000000000E+00  0.00000000000E+00  0.11470130469E+04  0.11470130469E+04  0.00000000000E+00 0. -1.
          2   -1    0    0  503    0  0.00000000000E+00 -0.00000000000E+00 -0.75096260318E+03  0.75096260318E+03  0.00000000000E+00 0. -1.
         25    2    1    2    0    0  0.33924810632E+02 -0.49133161487E+02  0.14556980017E+03  0.20095574276E+03  0.12501073351E+03 0.  0.
          4    1    3    3  501    0 -0.11017527184E+02  0.16429042848E+02  0.11352555803E+03  0.11524306739E+03  0.12700000000E+01 0.  1.
         -4    1    3    3    0  501  0.44942337816E+02 -0.65562204334E+02  0.32044242136E+02  0.85712675373E+02  0.12700000000E+01 0.  1.
          2    1    1    2  502    0  0.51478934599E+02  0.10693352019E+02  0.97000346828E+03  0.97142738121E+03  0.00000000000E+00 0. -1.
          1    1    1    2  503    0 -0.85403745231E+02  0.38439809468E+02 -0.71952282473E+03  0.72559252612E+03  0.00000000000E+00 0. -1.
<mgrwt>
<rscale>  0 0.69898399E+02</rscale>
<asrwt>0</asrwt>
<pdfrwt beam="2">  1        2 0.11553271E+00 0.92924831E+02</pdfrwt>
<pdfrwt beam="1">  1        1 0.17646355E+00 0.52577833E+02</pdfrwt>
<totfact> 0.77115871E+01</totfact>
</mgrwt>
</event>
<event>
 7    1  0.4252091E-004  0.5375734E+02  0.7546771E-02  0.1518143E+00
          1   -1    0    0  503    0  0.00000000000E+00  0.00000000000E+00  0.54469068681E+02  0.54469068681E+02  0.00000000000E+00 0. -1.
         -1   -1    0    0    0  501 -0.00000000000E+00 -0.00000000000E+00 -0.50367731354E+03  0.50367731354E+03  0.00000000000E+00 0.  1.
         25    2    1    2    0    0  0.68094042465E+01 -0.47714713702E+02 -0.45287736565E+02  0.14141497823E+03  0.12499662033E+03 0.  0.
          4    1    3    3  502    0  0.35597652401E+02 -0.80619397221E+02 -0.41770207731E+02  0.97534830796E+02  0.12700000000E+01 0.  1.
         -4    1    3    3    0  502 -0.28788248154E+02  0.32904683519E+02 -0.35175288345E+01  0.43880147429E+02  0.12700000000E+01 0.  1.
          2    1    1    2  503    0  0.32089981605E+01  0.73683080419E+02 -0.31683945086E+03  0.32531020831E+03  0.00000000000E+00 0. -1.
         -2    1    1    2    0  501 -0.10018402407E+02 -0.25968366717E+02 -0.87081057429E+02  0.91421195681E+02  0.00000000000E+00 0.  1.
<mgrwt>
<rscale>  0 0.38681712E+02</rscale>
<asrwt>0</asrwt>
<pdfrwt beam="1">  1        1 0.83798563E-02 0.53757337E+02</pdfrwt>
<pdfrwt beam="2">  1       -1 0.77488821E-01 0.27833872E+02</pdfrwt>
<totfact> 0.13574880E+03</totfact>
</mgrwt>
</event>
<event>
 7    1  0.4252091E-004  0.1974056E+03  0.7546771E-02  0.1262997E+00
          1   -1    0    0  502    0 -0.00000000000E+00  0.00000000000E+00  0.50072277869E+03  0.50072277869E+03  0.00000000000E+00 0. -1.
          2   -1    0    0  503    0  0.00000000000E+00 -0.00000000000E+00 -0.19027563720E+04  0.19027563720E+04  0.00000000000E+00 0. -1.
         25    2    1    2    0    0 -0.16834485605E+03 -0.74036729634E+02  0.10148965794E+03  0.24443011557E+03  0.12499801131E+03 0.  0.
          4    1    3    3  501    0 -0.39111333194E+02 -0.78174979694E+02  0.68281675475E+02  0.11092801242E+03  0.12700000000E+01 0. -1.
         -4    1    3    3    0  501 -0.12923352286E+03  0.41382500600E+01  0.33207982464E+02  0.13350210314E+03  0.12700000000E+01 0. -1.
          2    1    1    2  502    0 -0.28572895754E+02  0.52594131796E+02  0.31962030800E+03  0.32517640498E+03  0.00000000000E+00 0. -1.
          1    1    1    2  503    0  0.19691775181E+03  0.21442597838E+02 -0.18231435592E+04  0.18338726301E+04  0.00000000000E+00 0. -1.
<mgrwt>
<rscale>  0 0.10869958E+03</rscale>
<asrwt>0</asrwt>
<pdfrwt beam="2">  1        2 0.29273175E+00 0.19740556E+03</pdfrwt>
<pdfrwt beam="1">  1        1 0.77034273E-01 0.59854432E+02</pdfrwt>
<totfact> 0.55275253E+01</totfact>
</mgrwt>
</event>
<event>
 7    1  0.4252091E-004  0.6033920E+02  0.7546771E-02  0.1456968E+00
          2   -1    0    0  503    0  0.00000000000E+00  0.00000000000E+00  0.25609316733E+04  0.25609316733E+04  0.00000000000E+00 0. -1.
         -2   -1    0    0    0  501 -0.00000000000E+00 -0.00000000000E+00 -0.91697480244E+02  0.91697480244E+02  0.00000000000E+00 0.  1.
         25    2    1    2    0    0  0.66856662104E+02  0.68173572644E+02  0.14285028433E+03  0.21248196606E+03  0.12499973157E+03 0.  0.
          4    1    3    3  502    0  0.77318499399E+02  0.14819809965E+02  0.24870481951E+02  0.82570762920E+02  0.12700000000E+01 0. -1.
         -4    1    3    3    0  502 -0.10461837295E+02  0.53353762679E+02  0.11797980238E+03  0.12991120314E+03  0.12700000000E+01 0. -1.
          3    1    1    2  503    0 -0.26087972448E+02 -0.27680129474E+02  0.23685620569E+04  0.23688674486E+04  0.00000000000E+00 0. -1.
         -1    1    1    2    0  501 -0.40768689656E+02 -0.40493443170E+02 -0.42178148127E+02  0.71279738885E+02  0.00000000000E+00 0.  1.
<mgrwt>
<rscale>  0 0.47907089E+02</rscale>
<asrwt>0</asrwt>
<pdfrwt beam="1">  1        2 0.39398943E+00 0.38036455E+02</pdfrwt>
<pdfrwt beam="2">  1       -2 0.14107307E-01 0.60339197E+02</pdfrwt>
<totfact> 0.17248253E+02</totfact>
</mgrwt>
</event>
<event>
 7    1  0.4252091E-004  0.5139480E+02  0.7546771E-02  0.1494836E+00
          1   -1    0    0  502    0 -0.00000000000E+00  0.00000000000E+00  0.25930074650E+03  0.25930074650E+03  0.00000000000E+00 0. -1.
          2   -1    0    0  503    0  0.00000000000E+00 -0.00000000000E+00 -0.83305122800E+03  0.83305122800E+03  0.00000000000E+00 0. -1.
         25    2    1    2    0    0  0.18430928503E+02  0.52824799735E+02 -0.84979146563E+02  0.16115644762E+03  0.12497914492E+03 0.  0.
          4    1    3    3  501    0  0.65700516828E+02  0.48005416988E+02 -0.78704306544E+02  0.11321244958E+03  0.12700000000E+01 0. -1.
         -4    1    3    3    0  501 -0.47269588325E+02  0.48193827477E+01 -0.62748400186E+01  0.47943998037E+02  0.12700000000E+01 0. -1.
          2    1    1    2  502    0 -0.33925049517E+02 -0.36587903184E+01  0.21895322396E+03  0.22159605144E+03  0.00000000000E+00 0. -1.
          1    1    1    2  503    0  0.15494121013E+02 -0.49166009417E+02 -0.70772455890E+03  0.70959947543E+03  0.00000000000E+00 0. -1.
<mgrwt>
<rscale>  0 0.41876985E+02</rscale>
<asrwt>0</asrwt>
<pdfrwt beam="2">  1        2 0.12816173E+00 0.51394799E+02</pdfrwt>
<pdfrwt beam="1">  1        1 0.39892423E-01 0.34121778E+02</pdfrwt>
<totfact> 0.50906141E+02</totfact>
</mgrwt>
</event>
<event>
 7    1  0.4252091E-004  0.6146390E+02  0.7546771E-02  0.1497755E+00
          1   -1    0    0  502    0 -0.00000000000E+00  0.00000000000E+00  0.35462493699E+03  0.35462493699E+03  0.00000000000E+00 0. -1.
          2   -1    0    0  503    0  0.00000000000E+00 -0.00000000000E+00 -0.10699416810E+04  0.10699416810E+04  0.00000000000E+00 0. -1.
         25    2    1    2    0    0 -0.34084102568E+02 -0.81446950755E+02 -0.64877128247E+02  0.16622416787E+03  0.12500440144E+03 0.  0.
          4    1    3    3  501    0 -0.42379908191E+02  0.17940296573E+02 -0.45284352366E+02  0.64577057293E+02  0.12700000000E+01 0.  1.
         -4    1    3    3    0  501  0.82958056236E+01 -0.99387247328E+02 -0.19592775882E+02  0.10164711058E+03  0.12700000000E+01 0.  1.
          2    1    1    2  502    0  0.15131367392E+02  0.23514773304E+02  0.30233235307E+03  0.30362271746E+03  0.00000000000E+00 0. -1.
          1    1    1    2  503    0  0.18952735175E+02  0.57932177451E+02 -0.95277196886E+03  0.95471973269E+03  0.00000000000E+00 0. -1.
<mgrwt>
<rscale>  0 0.41457037E+02</rscale>
<asrwt>0</asrwt>
<pdfrwt beam="2">  1        2 0.16460641E+00 0.61463902E+02</pdfrwt>
<pdfrwt beam="1">  1        1 0.54557683E-01 0.27962526E+02</pdfrwt>
<totfact> 0.25331632E+02</totfact>
</mgrwt>
</event>
<event>
 7    1  0.4252091E-004  0.1024113E+03  0.7546771E-02  0.1445847E+00
          1   -1    0    0  503    0  0.00000000000E+00  0.00000000000E+00  0.23052088520E+03  0.23052088520E+03  0.00000000000E+00 0. -1.
         -1   -1    0    0    0  501 -0.00000000000E+00 -0.00000000000E+00 -0.95511394379E+03  0.95511394379E+03  0.00000000000E+00 0.  1.
         25    2    1    2    0    0 -0.10531637079E+03 -0.60107171563E+02 -0.26283969142E+02  0.17612613520E+03  0.12500063375E+03 0.  0.
          4    1    3    3  502    0 -0.13023283575E+03 -0.53441445636E+02 -0.40711018709E+02  0.14654548633E+03  0.12700000000E+01 0.  1.
         -4    1    3    3    0  502  0.24916464966E+02 -0.66657259276E+01  0.14427049567E+02  0.29580648873E+02  0.12700000000E+01 0.  1.
          2    1    1    2  503    0  0.81120078614E+02  0.57656790142E+02  0.13949142059E+03  0.17135527136E+03  0.00000000000E+00 0. -1.
         -2    1    1    2    0  501  0.24196292173E+02  0.24503814217E+01 -0.83780051003E+03  0.83815342243E+03  0.00000000000E+00 0.  1.
<mgrwt>
<rscale>  0 0.49906391E+02</rscale>
<asrwt>0</asrwt>
<pdfrwt beam="1">  1        1 0.35464751E-01 0.10241129E+03</pdfrwt>
<pdfrwt beam="2">  1       -1 0.14694061E+00 0.24320052E+02</pdfrwt>
<totfact> 0.57260178E+01</totfact>
</mgrwt>
</event>
<event>
 7    1  0.4252091E-004  0.7719509E+02  0.7546771E-02  0.1378530E+00
          2   -1    0    0  503    0  0.00000000000E+00  0.00000000000E+00  0.52109043647E+02  0.52109043647E+02  0.00000000000E+00 0. -1.
          1   -1    0    0  502    0 -0.00000000000E+00 -0.00000000000E+00 -0.22748524103E+04  0.22748524103E+04  0.00000000000E+00 0. -1.
         25    2    1    2    0    0  0.13591092545E+02  0.11695300155E+03 -0.10457552581E+04  0.10597600963E+04  0.12499871819E+03 0.  0.
          4    1    3    3  501    0 -0.63709336604E+01 -0.25561691766E+02 -0.11816334017E+03  0.12107095747E+03  0.12700000000E+01 0.  1.
         -4    1    3    3    0  501  0.19962026206E+02  0.14251469331E+03 -0.92759191790E+03  0.93868913883E+03  0.12700000000E+01 0.  1.
          2    1    1    2  502    0  0.22251139909E+02 -0.49731365338E+02 -0.11888547730E+04  0.11901025138E+04  0.00000000000E+00 0. -1.
          1    1    1    2  503    0 -0.35842232455E+02 -0.67221636210E+02  0.11866664451E+02  0.77098843878E+02  0.00000000000E+00 0. -1.
<mgrwt>
<rscale>  0 0.64851882E+02</rscale>
<asrwt>0</asrwt>
<pdfrwt beam="1">  1        2 0.80167757E-02 0.77195087E+02</pdfrwt>
<pdfrwt beam="2">  1        1 0.34997730E+00 0.54482308E+02</pdfrwt>
<totfact> 0.29364432E+02</totfact>
</mgrwt>
</event>
<event>
 7    1  0.4252091E-004  0.6194704E+02  0.7546771E-02  0.1511466E+00
          2   -1    0    0  503    0  0.00000000000E+00  0.00000000000E+00  0.34918844252E+03  0.34918844252E+03  0.00000000000E+00 0. -1.
          1   -1    0    0  502    0 -0.00000000000E+00 -0.00000000000E+00 -0.27133012345E+03  0.27133012345E+03  0.00000000000E+00 0. -1.
         25    2    1    2    0    0  0.38360886001E+02  0.12336194139E+02 -0.22092345002E+03  0.25701296612E+03  0.12499901890E+03 0.  0.
          4    1    3    3  501    0  0.45141284006E+02 -0.50124453130E+02 -0.13034432340E+03  0.14677006461E+03  0.12700000000E+01 0. -1.
         -4    1    3    3    0  501 -0.67803980049E+01  0.62460647269E+02 -0.90579126617E+02  0.11024290151E+03  0.12700000000E+01 0. -1.
          2    1    1    2  502    0  0.14295940925E+02  0.20831159102E+02 -0.23959575432E+02  0.34819138005E+02  0.00000000000E+00 0. -1.
          1    1    1    2  503    0 -0.52656826926E+02 -0.33167353241E+02  0.32274134452E+03  0.32868646185E+03  0.00000000000E+00 0. -1.
<mgrwt>
<rscale>  0 0.39561102E+02</rscale>
<asrwt>0</asrwt>
<pdfrwt beam="1">  1        2 0.53721299E-01 0.61947040E+02</pdfrwt>
<pdfrwt beam="2">  1        1 0.41743096E-01 0.25264820E+02</pdfrwt>
<totfact> 0.12324009E+03</totfact>
</mgrwt>
</event>
<event>
 7    1  0.4252091E-004  0.6722228E+02  0.7546771E-02  0.1375980E+00
         -1   -1    0    0    0  501 -0.00000000000E+00  0.00000000000E+00  0.16106475597E+03  0.16106475597E+03  0.00000000000E+00 0.  1.
          1   -1    0    0  503    0  0.00000000000E+00 -0.00000000000E+00 -0.54435453954E+03  0.54435453954E+03  0.00000000000E+00 0. -1.
         25    2    1    2    0    0  0.44142603391E+02 -0.20313874144E-01  0.16045535714E+02  0.13353541389E+03  0.12500271077E+03 0.  0.
          4    1    3    3  502    0 -0.83839464220E+01 -0.26501114739E+02  0.55919270850E+02  0.62459405956E+02  0.12700000000E+01 0. -1.
         -4    1    3    3    0  502  0.52526549813E+02  0.26480800865E+02 -0.39873735136E+02  0.71076007931E+02  0.12700000000E+01 0. -1.
          2    1    1    2  503    0 -0.85426625522E+01 -0.66677264722E+02 -0.46615922822E+03  0.47098116817E+03  0.00000000000E+00 0. -1.
         -2    1    1    2    0  501 -0.35599940838E+02  0.66697578596E+02  0.66823908937E+02  0.10090271346E+03  0.00000000000E+00 0.  1.
<mgrwt>
<rscale>  0 0.65532397E+02</rscale>
<asrwt>0</asrwt>
<pdfrwt beam="2">  1        1 0.83746851E-01 0.67222278E+02</pdfrwt>
<pdfrwt beam="1">  1       -1 0.24779194E-01 0.63884998E+02</pdfrwt>
<totfact> 0.57402657E+02</totfact>
</mgrwt>
</event>
<event>
 7    1  0.4252091E-004  0.1106666E+03  0.7546771E-02  0.1417441E+00
          2   -1    0    0  503    0  0.00000000000E+00  0.00000000000E+00  0.34056310345E+03  0.34056310345E+03  0.00000000000E+00 0. -1.
          1   -1    0    0  502    0 -0.00000000000E+00 -0.00000000000E+00 -0.51263015794E+03  0.51263015794E+03  0.00000000000E+00 0. -1.
         25    2    1    2    0    0  0.87521334623E+02  0.13299461267E+02 -0.11035727520E+03  0.18877485606E+03  0.12498143224E+03 0.  0.
          4    1    3    3  501    0  0.13902474378E+01  0.19849931804E+01 -0.10139674842E+03  0.10143365554E+03  0.12700000000E+01 0.  1.
         -4    1    3    3    0  501  0.86131087185E+02  0.11314468087E+02 -0.89605267804E+01  0.87341200518E+02  0.12700000000E+01 0.  1.
          2    1    1    2  502    0 -0.11535940915E+03 -0.11442143677E+02 -0.35312714521E+03  0.37166853057E+03  0.00000000000E+00 0. -1.
          1    1    1    2  503    0  0.27838074526E+02 -0.18573175899E+01  0.29141736592E+03  0.29274987477E+03  0.00000000000E+00 0. -1.
<mgrwt>
<rscale>  0 0.55566116E+02</rscale>
<asrwt>0</asrwt>
<pdfrwt beam="1">  1        2 0.52394324E-01 0.27899965E+02</pdfrwt>
<pdfrwt beam="2">  1        1 0.78866178E-01 0.11066656E+03</pdfrwt>
<totfact> 0.57503166E+02</totfact>
</mgrwt>
</event>
<event>
 7    1  0.4252091E-004  0.1075432E+03  0.7546771E-02  0.1288346E+00
          1   -1    0    0  502    0 -0.00000000000E+00  0.00000000000E+00  0.88845993239E+02  0.88845993239E+02  0.00000000000E+00 0. -1.
          2   -1    0    0  503    0  0.00000000000E+00 -0.00000000000E+00 -0.53253700433E+03  0.53253700433E+03  0.00000000000E+00 0. -1.
         25    2    1    2    0    0 -0.81472218006E+02 -0.35278825328E+02 -0.74214353873E+02  0.17034098023E+03  0.12500384555E+03 0.  0.
          4    1    3    3  501    0  0.69775115457E+01 -0.51263257459E+02  0.30019892384E+01  0.51838519192E+02  0.12700000000E+01 0. -1.
         -4    1    3    3    0  501 -0.88449729552E+02  0.15984432131E+02 -0.77216343111E+02  0.11850246104E+03  0.12700000000E+01 0. -1.
          2    1    1    2  502    0  0.43109530880E+02 -0.74616880068E+02 -0.28532074773E+02  0.90775490826E+02  0.00000000000E+00 0. -1.
          1    1    1    2  503    0  0.38362687127E+02  0.10989570540E+03 -0.34094458245E+03  0.36026652652E+03  0.00000000000E+00 0. -1.
<mgrwt>
<rscale>  0 0.96267993E+02</rscale>
<asrwt>0</asrwt>
<pdfrwt beam="2">  1        2 0.81928768E-01 0.10754324E+03</pdfrwt>
<pdfrwt beam="1">  1        1 0.13668615E-01 0.86174883E+02</pdfrwt>
<totfact> 0.31876234E+03</totfact>
</mgrwt>
</event>
<event>
 7    1  0.4252091E-004  0.9097666E+02  0.7546771E-02  0.1464245E+00
          1   -1    0    0  502    0 -0.00000000000E+00  0.00000000000E+00  0.28436591097E+03  0.28436591097E+03  0.00000000000E+00 0. -1.
          2   -1    0    0  503    0  0.00000000000E+00 -0.00000000000E+00 -0.24237089072E+04  0.24237089072E+04  0.00000000000E+00 0. -1.
         25    2    1    2    0    0 -0.74662794756E+02 -0.33507144834E+02  0.13702237032E+03  0.20270664770E+03  0.12497037000E+03 0.  0.
          4    1    3    3  501    0 -0.74178203123E+02 -0.55104102157E+02  0.15093545110E+03  0.17698020000E+03  0.12700000000E+01 0.  1.
         -4    1    3    3    0  501 -0.48459163230E+00  0.21596957323E+02 -0.13913080775E+02  0.25726447701E+02  0.12700000000E+01 0.  1.
          2    1    1    2  502    0  0.37874514978E+01 -0.23627853539E+02  0.11237455586E+03  0.11489412977E+03  0.00000000000E+00 0. -1.
          1    1    1    2  503    0  0.70875343258E+02  0.57134998373E+02 -0.23887399224E+04  0.23904740407E+04  0.00000000000E+00 0. -1.
<mgrwt>
<rscale>  0 0.46658595E+02</rscale>
<asrwt>0</asrwt>
<pdfrwt beam="2">  1        2 0.37287829E+00 0.90976656E+02</pdfrwt>
<pdfrwt beam="1">  1        1 0.43748602E-01 0.23929485E+02</pdfrwt>
<totfact> 0.64200506E+01</totfact>
</mgrwt>
</event>
<event>
 7    1  0.4252091E-004  0.4085963E+02  0.7546771E-02  0.1509450E+00
          2   -1    0    0  503    0  0.00000000000E+00  0.00000000000E+00  0.99924301495E+03  0.99924301495E+03  0.00000000000E+00 0. -1.
          1   -1    0    0  502    0 -0.00000000000E+00 -0.00000000000E+00 -0.13853297064E+02  0.13853297064E+02  0.00000000000E+00 0. -1.
         25    2    1    2    0    0 -0.11260326435E+02 -0.16159796886E+02  0.61884357166E+03  0.63164811369E+03  0.12499615735E+03 0.  0.
          4    1    3    3  501    0  0.26297021514E+02  0.43163975348E+02  0.35653535183E+03  0.36010239115E+03  0.12700000000E+01 0. -1.
         -4    1    3    3    0  501 -0.37557347950E+02 -0.59323772234E+02  0.26230821983E+03  0.27154572254E+03  0.12700000000E+01 0. -1.
          2    1    1    2  502    0 -0.25321153410E+02  0.34361573191E+02  0.69180403438E+02  0.81288417023E+02  0.00000000000E+00 0. -1.
          1    1    1    2  503    0  0.36581479845E+02 -0.18201776305E+02  0.29736574279E+03  0.30015978130E+03  0.00000000000E+00 0. -1.
<mgrwt>
<rscale>  0 0.39832186E+02</rscale>
<asrwt>0</asrwt>
<pdfrwt beam="1">  1        2 0.15372964E+00 0.40859630E+02</pdfrwt>
<pdfrwt beam="2">  1        1 0.21312772E-02 0.38830579E+02</pdfrwt>
<totfact> 0.16880284E+04</totfact>
</mgrwt>
</event>
<event>
 7    1  0.4252091E-004  0.4577159E+02  0.7546771E-02  0.1511168E+00
          1   -1    0    0  503    0  0.00000000000E+00  0.00000000000E+00  0.92144599828E+03  0.92144599828E+03  0.00000000000E+00 0. -1.
         -1   -1    0    0    0  501 -0.00000000000E+00 -0.00000000000E+00 -0.15430435494E+02  0.15430435494E+02  0.00000000000E+00 0.  1.
         25    2    1    2    0    0 -0.19625481886E+02  0.42399217600E+02  0.51064478174E+03  0.52779367194E+03  0.12500085533E+03 0.  0.
          4    1    3    3  502    0 -0.34073677465E+02  0.67476288170E+02  0.47884649942E+03  0.48477793666E+03  0.12700000000E+01 0.  1.
         -4    1    3    3    0  502  0.14448195579E+02 -0.25077070570E+02  0.31798282319E+02  0.43015735287E+02  0.12700000000E+01 0.  1.
          2    1    1    2  503    0  0.33801980285E+02  0.55972419956E+01  0.53246201518E+02  0.63317145903E+02  0.00000000000E+00 0.  1.
         -2    1    1    2    0  501 -0.14176498400E+02 -0.47996459595E+02  0.34212457953E+03  0.34576561593E+03  0.00000000000E+00 0. -1.
<mgrwt>
<rscale>  0 0.39600992E+02</rscale>
<asrwt>0</asrwt>
<pdfrwt beam="1">  1        1 0.14176088E+00 0.34262268E+02</pdfrwt>
<pdfrwt beam="2">  1       -1 0.23739139E-02 0.45771594E+02</pdfrwt>
<totfact> 0.88834032E+03</totfact>
</mgrwt>
</event>
<event>
 7    1  0.4252091E-004  0.3840739E+02  0.7546771E-02  0.1520553E+00
         -1   -1    0    0    0  502 -0.00000000000E+00  0.00000000000E+00  0.47804417157E+02  0.47804417157E+02  0.00000000000E+00 0.  1.
         -2   -1    0    0    0  501  0.00000000000E+00 -0.00000000000E+00 -0.10484760379E+04  0.10484760379E+04  0.00000000000E+00 0.  1.
         25    2    1    2    0    0 -0.14700702188E+02 -0.14122542810E+02 -0.13271359439E+03  0.18344436703E+03  0.12499352303E+03 0.  0.
          4    1    3    3  503    0 -0.54765740722E+02 -0.47014843937E+02 -0.95052975637E+02  0.11935812911E+03  0.12700000000E+01 0.  1.
         -4    1    3    3    0  503  0.40065038534E+02  0.32892301127E+02 -0.37660618757E+02  0.64086237925E+02  0.12700000000E+01 0.  1.
         -2    1    1    2    0  502 -0.19321648887E+02  0.33109190788E+02  0.53088398531E+01  0.38700496262E+02  0.00000000000E+00 0.  1.
         -1    1    1    2    0  501  0.34022351075E+02 -0.18986647978E+02 -0.87326686621E+03  0.87413559177E+03  0.00000000000E+00 0.  1.
<mgrwt>
<rscale>  0 0.38370998E+02</rscale>
<asrwt>0</asrwt>
<pdfrwt beam="2">  1       -2 0.16130399E+00 0.38407391E+02</pdfrwt>
<pdfrwt beam="1">  1       -1 0.73545266E-02 0.38334640E+02</pdfrwt>
<totfact> 0.17970689E+02</totfact>
</mgrwt>
</event>
<event>
 7    1  0.4252091E-004  0.9524571E+02  0.7546771E-02  0.1400427E+00
          1   -1    0    0  502    0 -0.00000000000E+00  0.00000000000E+00  0.18344381526E+04  0.18344381526E+04  0.00000000000E+00 0. -1.
          2   -1    0    0  503    0  0.00000000000E+00 -0.00000000000E+00 -0.12017764791E+04  0.12017764791E+04  0.00000000000E+00 0. -1.
         25    2    1    2    0    0  0.80290670177E+02 -0.10420226112E+03 -0.10316374170E+03  0.20872857191E+03  0.12498062326E+03 0.  0.
          4    1    3    3  501    0  0.42306118655E+02 -0.11943966634E+03 -0.38945659551E+02  0.13256703538E+03  0.12700000000E+01 0. -1.
         -4    1    3    3    0  501  0.37984551521E+02  0.15237405221E+02 -0.64218082151E+02  0.76161536534E+02  0.12700000000E+01 0. -1.
          2    1    1    2  502    0 -0.61677284658E+02  0.72193430104E+02  0.17800622595E+04  0.17825929503E+04  0.00000000000E+00 0. -1.
          1    1    1    2  503    0 -0.18613385519E+02  0.32008831018E+02 -0.10442368443E+04  0.10448931096E+04  0.00000000000E+00 0. -1.
<mgrwt>
<rscale>  0 0.59385981E+02</rscale>
<asrwt>0</asrwt>
<pdfrwt beam="2">  1        2 0.18488869E+00 0.37027333E+02</pdfrwt>
<pdfrwt beam="1">  1        1 0.28222125E+00 0.95245714E+02</pdfrwt>
<totfact> 0.15111429E+01</totfact>
</mgrwt>
</event>
<event>
 7    1  0.4252091E-004  0.4613917E+03  0.7546771E-02  0.1245145E+00
          2   -1    0    0  503    0  0.00000000000E+00  0.00000000000E+00  0.16027267823E+04  0.16027267823E+04  0.00000000000E+00 0. -1.
          1   -1    0    0  502    0 -0.00000000000E+00 -0.00000000000E+00 -0.16345456537E+04  0.16345456537E+04  0.00000000000E+00 0. -1.
         25    2    1    2    0    0 -0.33420027030E+03  0.34934372880E+03  0.12168424446E+03  0.51396765544E+03  0.12499933589E+03 0.  0.
          4    1    3    3  501    0 -0.70745075085E+02  0.92451691283E+02  0.85046000459E+02  0.14417564276E+03  0.12700000000E+01 0.  1.
         -4    1    3    3    0  501 -0.26345519521E+03  0.25689203751E+03  0.36638244006E+02  0.36979201269E+03  0.12700000000E+01 0.  1.
          2    1    1    2  502    0  0.79517890120E+01 -0.29519778549E+02 -0.13976203038E+04  0.13979546351E+04  0.00000000000E+00 0. -1.
          1    1    1    2  503    0  0.32624848129E+03 -0.31982395025E+03  0.12441171879E+04  0.13253501454E+04  0.00000000000E+00 0. -1.
<mgrwt>
<rscale>  0 0.11876732E+03</rscale>
<asrwt>0</asrwt>
<pdfrwt beam="1">  1        2 0.24657335E+00 0.46139175E+03</pdfrwt>
<pdfrwt beam="2">  1        1 0.25146856E+00 0.30572018E+02</pdfrwt>
<totfact> 0.11705665E+01</totfact>
</mgrwt>
</event>
<event>
 7    1  0.4252091E-004  0.1646345E+03  0.7546771E-02  0.1294222E+00
          2   -1    0    0  503    0  0.00000000000E+00  0.00000000000E+00  0.89805434300E+03  0.89805434300E+03  0.00000000000E+00 0. -1.
          1   -1    0    0  502    0 -0.00000000000E+00 -0.00000000000E+00 -0.14155557503E+04  0.14155557503E+04  0.00000000000E+00 0. -1.
         25    2    1    2    0    0 -0.63389978779E+02  0.16831568391E+03  0.31188822247E+03  0.38111558017E+03  0.12500545298E+03 0.  0.
          4    1    3    3  501    0  0.21553529090E+02 -0.57173495566E+01  0.15958017368E+02  0.27450208023E+02  0.12700000000E+01 0. -1.
         -4    1    3    3    0  501 -0.84943507869E+02  0.17403303346E+03  0.29593020511E+03  0.35366537215E+03  0.12700000000E+01 0. -1.
          2    1    1    2  502    0  0.10060741907E+03 -0.13018466704E+03 -0.13747384166E+04  0.13845488848E+04  0.00000000000E+00 0. -1.
          1    1    1    2  503    0 -0.37217440293E+02 -0.38131016871E+02  0.54534878683E+03  0.54794562833E+03  0.00000000000E+00 0. -1.
<mgrwt>
<rscale>  0 0.93660401E+02</rscale>
<asrwt>0</asrwt>
<pdfrwt beam="1">  1        2 0.13816221E+00 0.53283321E+02</pdfrwt>
<pdfrwt beam="2">  1        1 0.21777781E+00 0.16463446E+03</pdfrwt>
<totfact> 0.38303167E+01</totfact>
</mgrwt>
</event>
<event>
 7    1  0.4252091E-004  0.6720274E+02  0.7546771E-02  0.1451491E+00
          2   -1    0    0  503    0  0.00000000000E+00  0.00000000000E+00  0.32472315565E+03  0.32472315565E+03  0.00000000000E+00 0. -1.
         -2   -1    0    0    0  501 -0.00000000000E+00 -0.00000000000E+00 -0.29726932239E+03  0.29726932239E+03  0.00000000000E+00 0.  1.
         25    2    1    2    0    0  0.66205059972E+02  0.83508203993E-01 -0.13082120472E+03  0.19267056953E+03  0.12499857528E+03 0.  0.
          4    1    3    3  502    0 -0.22568941321E+02 -0.30826126363E+02 -0.72721683778E+02  0.82156334938E+02  0.12700000000E+01 0. -1.
         -4    1    3    3    0  502  0.88774001294E+02  0.30909634567E+02 -0.58099520937E+02  0.11051423459E+03  0.12700000000E+01 0. -1.
          1    1    1    2  503    0 -0.60505608687E+01 -0.35030828453E+02  0.28368730483E+03  0.28590602504E+03  0.00000000000E+00 0. -1.
         -1    1    1    2    0  501 -0.60154499104E+02  0.34947320249E+02 -0.12541226686E+03  0.14341588347E+03  0.00000000000E+00 0.  1.
<mgrwt>
<rscale>  0 0.48877655E+02</rscale>
<asrwt>0</asrwt>
<pdfrwt beam="1">  1        2 0.49957409E-01 0.35549518E+02</pdfrwt>
<pdfrwt beam="2">  1       -2 0.45733741E-01 0.67202744E+02</pdfrwt>
<totfact> 0.45706820E+02</totfact>
</mgrwt>
</event>
<event>
 7    1  0.4252091E-004  0.4293077E+02  0.7546771E-02  0.1533323E+00
          2   -1    0    0  503    0  0.00000000000E+00  0.00000000000E+00  0.11567075769E+03  0.11567075769E+03  0.00000000000E+00 0. -1.
          1   -1    0    0  502    0 -0.00000000000E+00 -0.00000000000E+00 -0.38872765246E+03  0.38872765246E+03  0.00000000000E+00 0. -1.
         25    2    1    2    0    0 -0.14717721231E+02 -0.24758339638E+02  0.37520350206E+02  0.13365267743E+03  0.12500269919E+03 0.  0.
          4    1    3    3  501    0 -0.19049987666E+02  0.32052624981E+02  0.61412791533E+02  0.71856917983E+02  0.12700000000E+01 0. -1.
         -4    1    3    3    0  501  0.43322664344E+01 -0.56810964619E+02 -0.23892441327E+02  0.61795759450E+02  0.12700000000E+01 0. -1.
          2    1    1    2  502    0 -0.11887610613E+02  0.41648382704E+02 -0.33058952694E+03  0.33341466433E+03  0.00000000000E+00 0. -1.
          1    1    1    2  503    0  0.26605331844E+02 -0.16890043066E+02  0.20012281965E+02  0.37331068384E+02  0.00000000000E+00 0. -1.
<mgrwt>
<rscale>  0 0.36781928E+02</rscale>
<asrwt>0</asrwt>
<pdfrwt beam="1">  1        2 0.17795501E-01 0.31513763E+02</pdfrwt>
<pdfrwt beam="2">  1        1 0.59804254E-01 0.42930775E+02</pdfrwt>
<totfact> 0.25170121E+03</totfact>
</mgrwt>
</event>
<event>
 7    1  0.4252091E-004  0.1585882E+03  0.7546771E-02  0.1385180E+00
          1   -1    0    0  502    0 -0.00000000000E+00  0.00000000000E+00  0.11944835392E+04  0.11944835392E+04  0.00000000000E+00 0. -1.
          2   -1    0    0  503    0  0.00000000000E+00 -0.00000000000E+00 -0.29823304574E+03  0.29823304574E+03  0.00000000000E+00 0. -1.
         25    2    1    2    0    0 -0.13198731208E+02 -0.13677129990E+03 -0.64816635094E+00  0.18575334047E+03  0.12499315339E+03 0.  0.
          4    1    3    3  501    0  0.83810819900E+01 -0.21081992008E+02 -0.52454134107E+02  0.57164167161E+02  0.12700000000E+01 0. -1.
         -4    1    3    3    0  501 -0.21579813198E+02 -0.11568930789E+03  0.51805967756E+02  0.12858917331E+03  0.12700000000E+01 0. -1.
          2    1    1    2  502    0  0.33761139774E+01  0.15989520969E+03  0.10953317435E+04  0.11069460260E+04  0.00000000000E+00 0. -1.
          1    1    1    2  503    0  0.98226172303E+01 -0.23123909793E+02 -0.19843308363E+03  0.20001721849E+03  0.00000000000E+00 0. -1.
<mgrwt>
<rscale>  0 0.63121451E+02</rscale>
<asrwt>0</asrwt>
<pdfrwt beam="2">  1        2 0.45882007E-01 0.25123674E+02</pdfrwt>
<pdfrwt beam="1">  1        1 0.18376670E+00 0.15858817E+03</pdfrwt>
<totfact> 0.17699043E+02</totfact>
</mgrwt>
</event>
<event>
 7    1  0.4252091E-004  0.7996828E+02  0.7546771E-02  0.1450834E+00
          2   -1    0    0  503    0  0.00000000000E+00  0.00000000000E+00  0.95261065059E+03  0.95261065059E+03  0.00000000000E+00 0. -1.
          1   -1    0    0  502    0 -0.00000000000E+00 -0.00000000000E+00 -0.11352815584E+03  0.11352815584E+03  0.00000000000E+00 0. -1.
         25    2    1    2    0    0 -0.72306263680E+02 -0.17392592324E+02  0.38953126608E+03  0.41580018655E+03  0.12499795936E+03 0.  0.
          4    1    3    3  501    0 -0.62742073656E+02 -0.20303358213E+02  0.39751093266E+03  0.40294583835E+03  0.12700000000E+01 0. -1.
         -4    1    3    3    0  501 -0.95641900240E+01  0.29107658899E+01 -0.79796665783E+01  0.12854348197E+02  0.12700000000E+01 0. -1.
          2    1    1    2  502    0  0.65498547412E+02  0.46629854142E+02 -0.83806034724E+02  0.11613722257E+03  0.00000000000E+00 0. -1.
          1    1    1    2  503    0  0.68077162684E+01 -0.29237261819E+02  0.53335726339E+03  0.53420139731E+03  0.00000000000E+00 0. -1.
<mgrwt>
<rscale>  0 0.48995889E+02</rscale>
<asrwt>0</asrwt>
<pdfrwt beam="1">  1        2 0.14655548E+00 0.30019368E+02</pdfrwt>
<pdfrwt beam="2">  1        1 0.17465871E-01 0.79968277E+02</pdfrwt>
<totfact> 0.12376995E+03</totfact>
</mgrwt>
</event>
<event>
 7    1  0.4252091E-004  0.6872819E+02  0.7546771E-02  0.1507876E+00
          1   -1    0    0  502    0 -0.00000000000E+00  0.00000000000E+00  0.22974563735E+04  0.22974563735E+04  0.00000000000E+00 0. -1.
          2   -1    0    0  503    0  0.00000000000E+00 -0.00000000000E+00 -0.15270450305E+04  0.15270450305E+04  0.00000000000E+00 0. -1.
         25    2    1    2    0    0  0.46289766419E+02 -0.44620636858E+02  0.82777591998E+03  0.83962585046E+03  0.12499940543E+03 0.  0.
          4    1    3    3  501    0  0.42546410959E+02  0.21099642656E+02  0.12419994621E+03  0.13297605628E+03  0.12700000000E+01 0.  1.
         -4    1    3    3    0  501  0.37433554598E+01 -0.65720279514E+02  0.70357597376E+03  0.70664979418E+03  0.12700000000E+01 0.  1.
          2    1    1    2  502    0 -0.31224207724E+02  0.62438334406E+02  0.14628335462E+04  0.14644983717E+04  0.00000000000E+00 0. -1.
          3    1    1    2  503    0 -0.15065558695E+02 -0.17817697548E+02 -0.15201981232E+04  0.15203771818E+04  0.00000000000E+00 0. -1.
<mgrwt>
<rscale>  0 0.40045640E+02</rscale>
<asrwt>0</asrwt>
<pdfrwt beam="2">  1        2 0.23493000E+00 0.23333268E+02</pdfrwt>
<pdfrwt beam="1">  1        1 0.35345483E+00 0.68728190E+02</pdfrwt>
<totfact> 0.58187319E+00</totfact>
</mgrwt>
</event>
<event>
 7    1  0.4252091E-004  0.7305385E+02  0.7546771E-02  0.1411855E+00
         -2   -1    0    0    0  501 -0.00000000000E+00  0.00000000000E+00  0.57478238106E+02  0.57478238106E+02  0.00000000000E+00 0.  1.
          2   -1    0    0  503    0  0.00000000000E+00 -0.00000000000E+00 -0.12144738204E+04  0.12144738204E+04  0.00000000000E+00 0. -1.
         25    2    1    2    0    0  0.30664977302E+01 -0.74631974394E+02 -0.36484941489E+03  0.39283453162E+03  0.12499815471E+03 0.  0.
          4    1    3    3  502    0 -0.59620176352E+02 -0.48851228948E+02 -0.21367019073E+03  0.22715098790E+03  0.12700000000E+01 0. -1.
         -4    1    3    3    0  502  0.62686674082E+02 -0.25780745446E+02 -0.15117922416E+03  0.16568354372E+03  0.12700000000E+01 0. -1.
          1    1    1    2  503    0  0.41324703052E+02  0.15495981590E+02 -0.80314825884E+03  0.80435998297E+03  0.00000000000E+00 0. -1.
         -1    1    1    2    0  501 -0.44391200782E+02  0.59135992804E+02  0.11002091456E+02  0.74757543888E+02  0.00000000000E+00 0.  1.
<mgrwt>
<rscale>  0 0.56782016E+02</rscale>
<asrwt>0</asrwt>
<pdfrwt beam="2">  1        2 0.18684214E+00 0.44134528E+02</pdfrwt>
<pdfrwt beam="1">  1       -2 0.88428054E-02 0.73053853E+02</pdfrwt>
<totfact> 0.16317115E+03</totfact>
</mgrwt>
</event>
<event>
 7    1  0.4252091E-004  0.1901938E+03  0.7546771E-02  0.1189355E+00
          1   -1    0    0  502    0 -0.00000000000E+00  0.00000000000E+00  0.21663865869E+04  0.21663865869E+04  0.00000000000E+00 0. -1.
          2   -1    0    0  503    0  0.00000000000E+00 -0.00000000000E+00 -0.26755103796E+04  0.26755103796E+04  0.00000000000E+00 0. -1.
         25    2    1    2    0    0  0.24002712653E+03 -0.53000325952E+02 -0.20488319328E+02  0.27652892059E+03  0.12500566657E+03 0.  0.
          4    1    3    3  501    0 -0.55658884324E+01 -0.28283375360E+02 -0.41650229595E+01  0.29152851525E+02  0.12700000000E+01 0. -1.
         -4    1    3    3    0  501  0.24559301496E+03 -0.24716950592E+02 -0.16323296368E+02  0.24737606907E+03  0.12700000000E+01 0. -1.
          2    1    1    2  502    0 -0.61963176233E+02  0.11838783690E+03  0.20326096967E+04  0.20369971268E+04  0.00000000000E+00 0. -1.
          1    1    1    2  503    0 -0.17806395029E+03 -0.65387510951E+02 -0.25212451701E+04  0.25283709192E+04  0.00000000000E+00 0. -1.
<mgrwt>
<rscale>  0 0.15941854E+03</rscale>
<asrwt>0</asrwt>
<pdfrwt beam="2">  1        2 0.41161698E+00 0.19019380E+03</pdfrwt>
<pdfrwt beam="1">  1        1 0.33329024E+00 0.13362303E+03</pdfrwt>
<totfact> 0.13295024E+00</totfact>
</mgrwt>
</event>
<event>
 7    1  0.4252091E-004  0.8343538E+02  0.7546771E-02  0.1360999E+00
          1   -1    0    0  502    0 -0.00000000000E+00  0.00000000000E+00  0.28134147100E+03  0.28134147100E+03  0.00000000000E+00 0. -1.
          2   -1    0    0  503    0  0.00000000000E+00 -0.00000000000E+00 -0.39308534502E+04  0.39308534502E+04  0.00000000000E+00 0. -1.
         25    2    1    2    0    0  0.39970954433E+02  0.32580627952E+01 -0.95786192063E+02  0.16250137652E+03  0.12499364228E+03 0.  0.
          4    1    3    3  501    0 -0.29839471557E+02  0.41310605479E+02 -0.28933876975E+02  0.58615205575E+02  0.12700000000E+01 0. -1.
         -4    1    3    3    0  501  0.69810425989E+02 -0.38052542684E+02 -0.66852315088E+02  0.10388617095E+03  0.12700000000E+01 0. -1.
          2    1    1    2  502    0  0.30062254277E+02 -0.49931919762E+02  0.24408667100E+03  0.25094867743E+03  0.00000000000E+00 0. -1.
          1    1    1    2  503    0 -0.70033208710E+02  0.46673856967E+02 -0.37978124582E+04  0.37987448673E+04  0.00000000000E+00 0. -1.
<mgrwt>
<rscale>  0 0.69734382E+02</rscale>
<asrwt>0</asrwt>
<pdfrwt beam="2">  1        2 0.60474666E+00 0.83435379E+02</pdfrwt>
<pdfrwt beam="1">  1        1 0.43283305E-01 0.58283237E+02</pdfrwt>
<totfact> 0.83162136E+00</totfact>
</mgrwt>
</event>
<event>
 7    1  0.4252091E-004  0.4777738E+02  0.7546771E-02  0.1564781E+00
         -1   -1    0    0    0  501 -0.00000000000E+00  0.00000000000E+00  0.27910541333E+02  0.27910541333E+02  0.00000000000E+00 0.  1.
          1   -1    0    0  503    0  0.00000000000E+00 -0.00000000000E+00 -0.20235061486E+04  0.20235061486E+04  0.00000000000E+00 0. -1.
         25    2    1    2    0    0 -0.14619399735E+02  0.21005969060E+02 -0.18969722683E+03  0.22861510760E+03  0.12499940787E+03 0.  0.
          4    1    3    3  502    0  0.22239253101E+02 -0.45598451394E+02 -0.87886973909E+02  0.10148663080E+03  0.12700000000E+01 0. -1.
         -4    1    3    3    0  502 -0.36858652835E+02  0.66604420454E+02 -0.10181025292E+03  0.12712847680E+03  0.12700000000E+01 0. -1.
          2    1    1    2  503    0  0.21466263838E+02 -0.43099440775E+02 -0.17975746043E+04  0.17982193471E+04  0.00000000000E+00 0. -1.
         -2    1    1    2    0  501 -0.68468641036E+01  0.22093471715E+02 -0.83237761557E+01  0.24582235251E+02  0.00000000000E+00 0.  1.
<mgrwt>
<rscale>  0 0.33242969E+02</rscale>
<asrwt>0</asrwt>
<pdfrwt beam="2">  1        1 0.31130862E+00 0.47777377E+02</pdfrwt>
<pdfrwt beam="1">  1       -1 0.42939297E-02 0.23130090E+02</pdfrwt>
<totfact> 0.68179609E+02</totfact>
</mgrwt>
</event>
<event>
 7    1  0.4252091E-004  0.1313777E+03  0.7546771E-02  0.1274500E+00
         -1   -1    0    0    0  502 -0.00000000000E+00  0.00000000000E+00  0.64968814075E+03  0.64968814075E+03  0.00000000000E+00 0.  1.
         -2   -1    0    0    0  501  0.00000000000E+00 -0.00000000000E+00 -0.25761248183E+03  0.25761248183E+03  0.00000000000E+00 0.  1.
         25    2    1    2    0    0  0.25643024540E+02  0.15052270708E+03  0.22146382751E+03  0.29662148059E+03  0.12499370304E+03 0.  0.
          4    1    3    3  503    0  0.13570566298E+02  0.15518284437E+03  0.12622736115E+03  0.20050145899E+03  0.12700000000E+01 0. -1.
         -4    1    3    3    0  503  0.12072458242E+02 -0.46601372898E+01  0.95236466358E+02  0.96120021598E+02  0.12700000000E+01 0. -1.
         -2    1    1    2    0  502 -0.75108873325E+02 -0.28827707061E+02  0.36627623371E+03  0.37500754516E+03  0.00000000000E+00 0.  1.
         -1    1    1    2    0  501  0.49465848785E+02 -0.12169500002E+03 -0.19566440230E+03  0.23567159683E+03  0.00000000000E+00 0.  1.
<mgrwt>
<rscale>  0 0.10280799E+03</rscale>
<asrwt>0</asrwt>
<pdfrwt beam="2">  1       -2 0.39632690E-01 0.13137772E+03</pdfrwt>
<pdfrwt beam="1">  1       -1 0.99952021E-01 0.80451100E+02</pdfrwt>
<totfact> 0.47964520E+01</totfact>
</mgrwt>
</event>
<event>
 7    1  0.4252091E-004  0.7783549E+02  0.7546771E-02  0.1436574E+00
          1   -1    0    0  502    0 -0.00000000000E+00  0.00000000000E+00  0.18988766215E+02  0.18988766215E+02  0.00000000000E+00 0. -1.
          2   -1    0    0  503    0  0.00000000000E+00 -0.00000000000E+00 -0.18226777746E+04  0.18226777746E+04  0.00000000000E+00 0. -1.
         25    2    1    2    0    0  0.56515580689E+02  0.40439577043E+02 -0.70401653337E+03  0.71839646592E+03  0.12499933096E+03 0.  0.
          4    1    3    3  501    0  0.38342227596E+02  0.79579467143E+02 -0.58815795244E+03  0.59475575485E+03  0.12700000000E+01 0.  1.
         -4    1    3    3    0  501  0.18173353093E+02 -0.39139890101E+02 -0.11585858093E+03  0.12364071107E+03  0.12700000000E+01 0.  1.
          2    1    1    2  502    0 -0.39547821319E+02 -0.70238168933E+02 -0.12980434252E+03  0.15279593542E+03  0.00000000000E+00 0. -1.
          1    1    1    2  503    0 -0.16967759370E+02  0.29798591890E+02 -0.96986813253E+03  0.97047413950E+03  0.00000000000E+00 0. -1.
<mgrwt>
<rscale>  0 0.51662786E+02</rscale>
<asrwt>0</asrwt>
<pdfrwt beam="2">  1        2 0.28041197E+00 0.34290829E+02</pdfrwt>
<pdfrwt beam="1">  1        1 0.29213486E-02 0.77835488E+02</pdfrwt>
<totfact> 0.47629946E+03</totfact>
</mgrwt>
</event>
<event>
 7    1  0.4252091E-004  0.4267334E+02  0.7546771E-02  0.1493777E+00
          2   -1    0    0  503    0  0.00000000000E+00  0.00000000000E+00  0.21821239751E+03  0.21821239751E+03  0.00000000000E+00 0. -1.
          1   -1    0    0  502    0 -0.00000000000E+00 -0.00000000000E+00 -0.30159739281E+04  0.30159739281E+04  0.00000000000E+00 0. -1.
         25    2    1    2    0    0 -0.73041784005E+02  0.19760123018E+02 -0.22398784629E+04  0.22446392705E+04  0.12499744485E+03 0.  0.
          4    1    3    3  501    0 -0.92387514355E+02  0.50382822790E+02 -0.18791373692E+04  0.18820820244E+04  0.12700000000E+01 0.  1.
         -4    1    3    3    0  501  0.19345730351E+02 -0.30622699771E+02 -0.36074109374E+03  0.36255724601E+03  0.12700000000E+01 0.  1.
          2    1    1    2  502    0  0.31074059990E+02 -0.27353450850E+02 -0.77104744824E+03  0.77215799932E+03  0.00000000000E+00 0. -1.
          1    1    1    2  503    0  0.41967724015E+02  0.75933278318E+01  0.21316438052E+03  0.21738905587E+03  0.00000000000E+00 0. -1.
<mgrwt>
<rscale>  0 0.42030919E+02</rscale>
<asrwt>0</asrwt>
<pdfrwt beam="1">  1        2 0.33571143E-01 0.42673338E+02</pdfrwt>
<pdfrwt beam="2">  1        1 0.46399593E+00 0.41398170E+02</pdfrwt>
<totfact> 0.19945984E+01</totfact>
</mgrwt>
</event>
<event>
 7    1  0.4252091E-004  0.7335367E+02  0.7546771E-02  0.1410887E+00
          1   -1    0    0  502    0 -0.00000000000E+00  0.00000000000E+00  0.23494179675E+03  0.23494179675E+03  0.00000000000E+00 0. -1.
          2   -1    0    0  503    0  0.00000000000E+00 -0.00000000000E+00 -0.13483611801E+04  0.13483611801E+04  0.00000000000E+00 0. -1.
         25    2    1    2    0    0 -0.79870225967E+02  0.39333914683E+02 -0.21111639515E+03  0.26100338830E+03  0.12500490614E+03 0.  0.
          4    1    3    3  501    0 -0.82694130527E+02  0.74899794208E+02 -0.18753312270E+03  0.21821682659E+03  0.12700000000E+01 0. -1.
         -4    1    3    3    0  501  0.28239045596E+01 -0.35565879525E+02 -0.23583272450E+02  0.42786561708E+02  0.12700000000E+01 0. -1.
          2    1    1    2  502    0  0.73101784531E+02  0.44325997590E+01  0.20315622195E+03  0.21595362780E+03  0.00000000000E+00 0. -1.
          1    1    1    2  503    0  0.67684414360E+01 -0.43766514442E+02 -0.11054592102E+04  0.11063459608E+04  0.00000000000E+00 0. -1.
<mgrwt>
<rscale>  0 0.56996477E+02</rscale>
<asrwt>0</asrwt>
<pdfrwt beam="2">  1        2 0.20744018E+00 0.44286788E+02</pdfrwt>
<pdfrwt beam="1">  1        1 0.36144892E-01 0.73353670E+02</pdfrwt>
<totfact> 0.30345385E+02</totfact>
</mgrwt>
</event>
<event>
 7    1  0.4252091E-004  0.9047290E+02  0.7546771E-02  0.1395215E+00
          1   -1    0    0  502    0 -0.00000000000E+00  0.00000000000E+00  0.59705865035E+02  0.59705865035E+02  0.00000000000E+00 0. -1.
          2   -1    0    0  503    0  0.00000000000E+00 -0.00000000000E+00 -0.24145175551E+04  0.24145175551E+04  0.00000000000E+00 0. -1.
         25    2    1    2    0    0  0.10524827639E+03 -0.26518246369E+02 -0.17431030814E+04  0.17509484552E+04  0.12502688998E+03 0.  0.
          4    1    3    3  501    0 -0.16693911809E+02  0.88128654524E+00 -0.72611431437E+03  0.72630783679E+03  0.12700000000E+01 0. -1.
         -4    1    3    3    0  501  0.12194218820E+03 -0.27399532914E+02 -0.10169887670E+04  0.10246406184E+04  0.12700000000E+01 0. -1.
          2    1    1    2  502    0 -0.73683795928E+02  0.52098162551E+02  0.18199185436E+02  0.92058300408E+02  0.00000000000E+00 0. -1.
          1    1    1    2  503    0 -0.31564480466E+02 -0.25579916182E+02 -0.62990779413E+03  0.63121666458E+03  0.00000000000E+00 0. -1.
<mgrwt>
<rscale>  0 0.60627952E+02</rscale>
<asrwt>0</asrwt>
<pdfrwt beam="2">  1        2 0.37146426E+00 0.40628174E+02</pdfrwt>
<pdfrwt beam="1">  1        1 0.91855171E-02 0.90472896E+02</pdfrwt>
<totfact> 0.52386077E+02</totfact>
</mgrwt>
</event>
<event>
 7    1  0.4252091E-004  0.6418959E+02  0.7546771E-02  0.1442208E+00
          2   -1    0    0  503    0  0.00000000000E+00  0.00000000000E+00  0.77157228754E+03  0.77157228754E+03  0.00000000000E+00 0. -1.
          1   -1    0    0  502    0 -0.00000000000E+00 -0.00000000000E+00 -0.16230718970E+04  0.16230718970E+04  0.00000000000E+00 0. -1.
         25    2    1    2    0    0  0.67808176567E+02  0.76206260962E+02 -0.41519260947E+03  0.44543779214E+03  0.12499832273E+03 0.  0.
          4    1    3    3  501    0  0.31033552264E+02  0.69119617501E+02 -0.88101188089E+02  0.11620686353E+03  0.12700000000E+01 0.  1.
         -4    1    3    3    0  501  0.36774624303E+02  0.70866434608E+01 -0.32709142138E+03  0.32923092860E+03  0.12700000000E+01 0.  1.
          2    1    1    2  502    0 -0.18466576861E+02 -0.35329845324E+02 -0.11910657982E+04  0.11917327503E+04  0.00000000000E+00 0. -1.
          1    1    1    2  503    0 -0.49341599706E+02 -0.40876415638E+02  0.75475879828E+03  0.75747364205E+03  0.00000000000E+00 0. -1.
<mgrwt>
<rscale>  0 0.50585703E+02</rscale>
<asrwt>0</asrwt>
<pdfrwt beam="1">  1        2 0.11870343E+00 0.64189590E+02</pdfrwt>
<pdfrwt beam="2">  1        1 0.24970336E+00 0.39864927E+02</pdfrwt>
<totfact> 0.38882076E+01</totfact>
</mgrwt>
</event>
<event>
 7    1  0.4252091E-004  0.1006894E+03  0.7546771E-02  0.1358295E+00
          2   -1    0    0  503    0  0.00000000000E+00  0.00000000000E+00  0.71857065202E+03  0.71857065202E+03  0.00000000000E+00 0. -1.
          1   -1    0    0  502    0 -0.00000000000E+00 -0.00000000000E+00 -0.96910357900E+03  0.96910357900E+03  0.00000000000E+00 0. -1.
         25    2    1    2    0    0 -0.27501396984E+02  0.72062870623E+02  0.71279340638E+02  0.16328791363E+03  0.12503125281E+03 0.  0.
          4    1    3    3  501    0 -0.17387374807E+01  0.37165335711E+02 -0.33372041157E+02  0.49995914008E+02  0.12700000000E+01 0.  1.
         -4    1    3    3    0  501 -0.25762659503E+02  0.34897534912E+02  0.10465138179E+03  0.11329199963E+03  0.12700000000E+01 0.  1.
          2    1    1    2  502    0 -0.12792039475E+02 -0.10065362648E+03 -0.91928846870E+03  0.92487084368E+03  0.00000000000E+00 0. -1.
          1    1    1    2  503    0  0.40293436459E+02  0.28590755855E+02  0.59747620109E+03  0.59951547371E+03  0.00000000000E+00 0. -1.
<mgrwt>
<rscale>  0 0.70531559E+02</rscale>
<asrwt>0</asrwt>
<pdfrwt beam="1">  1        2 0.11054933E+00 0.49406400E+02</pdfrwt>
<pdfrwt beam="2">  1        1 0.14909286E+00 0.10068940E+03</pdfrwt>
<totfact> 0.10541283E+02</totfact>
</mgrwt>
</event>
<event>
 7    1  0.4252091E-004  0.5125534E+02  0.7546771E-02  0.1487450E+00
         -2   -1    0    0    0  501 -0.00000000000E+00  0.00000000000E+00  0.63540494800E+02  0.63540494800E+02  0.00000000000E+00 0.  1.
          2   -1    0    0  503    0  0.00000000000E+00 -0.00000000000E+00 -0.16975432961E+04  0.16975432961E+04  0.00000000000E+00 0. -1.
         25    2    1    2    0    0 -0.20150064174E+02  0.69791435718E+02 -0.14853511225E+03  0.20727592139E+03  0.12499503362E+03 0.  0.
          4    1    3    3  502    0 -0.70257280463E+02  0.25638061281E+02 -0.99173374390E+02  0.12421902726E+03  0.12700000000E+01 0. -1.
         -4    1    3    3    0  502  0.50107216289E+02  0.44153374436E+02 -0.49361737857E+02  0.83056894130E+02  0.12700000000E+01 0. -1.
          1    1    1    2  503    0  0.35141336507E+02 -0.37041136439E+02 -0.15095931094E+04  0.15104563268E+04  0.00000000000E+00 0. -1.
         -3    1    1    2    0  501 -0.14991272333E+02 -0.32750299279E+02  0.24125420324E+02  0.43351542704E+02  0.00000000000E+00 0.  1.
<mgrwt>
<rscale>  0 0.42966638E+02</rscale>
<asrwt>0</asrwt>
<pdfrwt beam="2">  1        2 0.26116053E+00 0.51255341E+02</pdfrwt>
<pdfrwt beam="1">  1       -2 0.97754597E-02 0.36018334E+02</pdfrwt>
<totfact> 0.74778496E+02</totfact>
</mgrwt>
</event>
<event>
 7    1  0.4252091E-004  0.2369488E+03  0.7546771E-02  0.1230004E+00
          2   -1    0    0  503    0  0.00000000000E+00  0.00000000000E+00  0.76425245800E+03  0.76425245800E+03  0.00000000000E+00 0. -1.
          1   -1    0    0  502    0 -0.00000000000E+00 -0.00000000000E+00 -0.47024392737E+03  0.47024392737E+03  0.00000000000E+00 0. -1.
         25    2    1    2    0    0 -0.27932652841E+03 -0.71149816953E+01  0.82422644027E+02  0.31700417864E+03  0.12499689832E+03 0.  0.
          4    1    3    3  501    0 -0.11206489819E+03 -0.64444632817E+02  0.35541527877E+02  0.13407634097E+03  0.12700000000E+01 0. -1.
         -4    1    3    3    0  501 -0.16726163022E+03  0.57329651121E+02  0.46881116149E+02  0.18292783767E+03  0.12700000000E+01 0. -1.
          2    1    1    2  502    0  0.53156002393E+02  0.44723120035E+02 -0.32586112048E+03  0.33318341480E+03  0.00000000000E+00 0. -1.
          1    1    1    2  503    0  0.22617052601E+03 -0.37608138339E+02  0.53744700708E+03  0.58430879193E+03  0.00000000000E+00 0. -1.
<mgrwt>
<rscale>  0 0.12829736E+03</rscale>
<asrwt>0</asrwt>
<pdfrwt beam="1">  1        2 0.11757730E+00 0.23694877E+03</pdfrwt>
<pdfrwt beam="2">  1        1 0.72345220E-01 0.69467388E+02</pdfrwt>
<totfact> 0.26059432E+02</totfact>
</mgrwt>
</event>
<event>
 7    1  0.4252091E-004  0.7781239E+02  0.7546771E-02  0.1339885E+00
          1   -1    0    0  502    0 -0.00000000000E+00  0.00000000000E+00  0.47791717047E+03  0.47791717047E+03  0.00000000000E+00 0. -1.
          2   -1    0    0  503    0  0.00000000000E+00 -0.00000000000E+00 -0.64342200576E+03  0.64342200576E+03  0.00000000000E+00 0. -1.
         25    2    1    2    0    0  0.78246904486E+01 -0.44329476900E+02 -0.45664551809E+02  0.14048942139E+03  0.12500279168E+03 0.  0.
          4    1    3    3  501    0  0.14071293330E+02  0.32454873523E+02  0.18755102589E+02  0.40058543215E+02  0.12700000000E+01 0. -1.
         -4    1    3    3    0  501 -0.62466028811E+01 -0.76784350423E+02 -0.64419654398E+02  0.10043087817E+03  0.12700000000E+01 0. -1.
          2    1    1    2  502    0 -0.74789130696E+02 -0.22104328882E+01  0.42419161097E+03  0.43073985525E+03  0.00000000000E+00 0. -1.
          1    1    1    2  503    0  0.66964440248E+02  0.46539909788E+02 -0.54403189445E+03  0.55010989960E+03  0.00000000000E+00 0. -1.
<mgrwt>
<rscale>  0 0.76302438E+02</rscale>
<asrwt>0</asrwt>
<pdfrwt beam="2">  1        2 0.98988000E-01 0.77812387E+02</pdfrwt>
<pdfrwt beam="1">  1        1 0.73525719E-01 0.74821789E+02</pdfrwt>
<totfact> 0.32348152E+02</totfact>
</mgrwt>
</event>
<event>
 7    1  0.4252091E-004  0.3022556E+02  0.7546771E-02  0.1614935E+00
          2   -1    0    0  503    0  0.00000000000E+00  0.00000000000E+00  0.62627113032E+01  0.62627113032E+01  0.00000000000E+00 0. -1.
          1   -1    0    0  502    0 -0.00000000000E+00 -0.00000000000E+00 -0.22730810782E+04  0.22730810782E+04  0.00000000000E+00 0. -1.
         25    2    1    2    0    0 -0.83524320329E+01 -0.30368308446E+01 -0.11902318858E+04  0.11968108014E+04  0.12500066744E+03 0.  0.
          4    1    3    3  501    0  0.41900569869E+02 -0.37960434090E+02 -0.77880479854E+03  0.78085541520E+03  0.12700000000E+01 0.  1.
         -4    1    3    3    0  501 -0.50253001901E+02  0.34923603245E+02 -0.41142708727E+03  0.41595538619E+03  0.12700000000E+01 0.  1.
          2    1    1    2  502    0  0.12189400588E+02  0.29690756269E+02 -0.10126307517E+04  0.10131392608E+04  0.00000000000E+00 0. -1.
          1    1    1    2  503    0 -0.38369685551E+01 -0.26653925425E+02 -0.63955729358E+02  0.69393727281E+02  0.00000000000E+00 0. -1.
<mgrwt>
<rscale>  0 0.28529541E+02</rscale>
<asrwt>0</asrwt>
<pdfrwt beam="1">  1        2 0.96349318E-03 0.26928685E+02</pdfrwt>
<pdfrwt beam="2">  1        1 0.34970510E+00 0.30225565E+02</pdfrwt>
<totfact> 0.42916982E+03</totfact>
</mgrwt>
</event>
<event>
 7    1  0.4252091E-004  0.7647936E+02  0.7546771E-02  0.1348093E+00
          1   -1    0    0  503    0  0.00000000000E+00  0.00000000000E+00  0.12292575570E+04  0.12292575570E+04  0.00000000000E+00 0. -1.
         -1   -1    0    0    0  501 -0.00000000000E+00 -0.00000000000E+00 -0.51935909478E+03  0.51935909478E+03  0.00000000000E+00 0.  1.
         25    2    1    2    0    0  0.15447997896E+01 -0.12503366898E+02 -0.14154074101E+03  0.18926162351E+03  0.12500984033E+03 0.  0.
          4    1    3    3  502    0 -0.50080512566E+02  0.21106645302E+02 -0.30660065863E+02  0.62411543432E+02  0.12700000000E+01 0.  1.
         -4    1    3    3    0  502  0.51625312356E+02 -0.33610012200E+02 -0.11088067514E+03  0.12685008008E+03  0.12700000000E+01 0.  1.
          2    1    1    2  503    0  0.68508336965E+02 -0.33995598594E+02  0.11991684573E+04  0.12016047944E+04  0.00000000000E+00 0. -1.
         -2    1    1    2    0  501 -0.70053136755E+02  0.46498965492E+02 -0.34772925403E+03  0.35775023392E+03  0.00000000000E+00 0.  1.
<mgrwt>
<rscale>  0 0.73653288E+02</rscale>
<asrwt>0</asrwt>
<pdfrwt beam="1">  1        1 0.18911655E+00 0.76479363E+02</pdfrwt>
<pdfrwt beam="2">  1       -1 0.79901399E-01 0.70931643E+02</pdfrwt>
<totfact> 0.20871472E+01</totfact>
</mgrwt>
</event>
<event>
 7    1  0.4252091E-004  0.4551357E+02  0.7546771E-02  0.1551367E+00
          2   -1    0    0  503    0  0.00000000000E+00  0.00000000000E+00  0.16379312511E+04  0.16379312511E+04  0.00000000000E+00 0. -1.
          1   -1    0    0  502    0 -0.00000000000E+00 -0.00000000000E+00 -0.38807141791E+03  0.38807141791E+03  0.00000000000E+00 0. -1.
         25    2    1    2    0    0  0.21050088087E+02 -0.65303617187E+02 -0.11856485529E+03  0.18544713170E+03  0.12500138047E+03 0.  0.
          4    1    3    3  501    0  0.17986933081E+02 -0.95613644122E+02 -0.12051944895E+03  0.15489367056E+03  0.12700000000E+01 0. -1.
         -4    1    3    3    0  501  0.30631550054E+01  0.30310026936E+02  0.19545936589E+01  0.30553461143E+02  0.12700000000E+01 0. -1.
          2    1    1    2  502    0 -0.56873796011E+01  0.43783476306E+02 -0.23389099092E+03  0.23802171060E+03  0.00000000000E+00 0. -1.
          1    1    1    2  503    0 -0.15362708486E+02  0.21520140880E+02  0.16023156794E+04  0.16025338267E+04  0.00000000000E+00 0. -1.
<mgrwt>
<rscale>  0 0.34690442E+02</rscale>
<asrwt>0</asrwt>
<pdfrwt beam="1">  1        2 0.25198942E+00 0.26441053E+02</pdfrwt>
<pdfrwt beam="2">  1        1 0.59703296E-01 0.45513572E+02</pdfrwt>
<totfact> 0.12557306E+02</totfact>
</mgrwt>
</event>
<event>
 7    1  0.4252091E-004  0.9154124E+02  0.7546771E-02  0.1417313E+00
         -2   -1    0    0    0  501 -0.00000000000E+00  0.00000000000E+00  0.61667188217E+02  0.61667188217E+02  0.00000000000E+00 0.  1.
          2   -1    0    0  503    0  0.00000000000E+00 -0.00000000000E+00 -0.96776090670E+03  0.96776090670E+03  0.00000000000E+00 0. -1.
         25    2    1    2    0    0  0.66546749618E+02  0.80895705289E+02 -0.33835423794E+03  0.37560707060E+03  0.12499798454E+03 0.  0.
          4    1    3    3  502    0 -0.32274955507E+02  0.49424643066E+02 -0.13429289445E+03  0.14669922459E+03  0.12700000000E+01 0.  1.
         -4    1    3    3    0  502  0.98821705125E+02  0.31471062223E+02 -0.20406134349E+03  0.22890784602E+03  0.12700000000E+01 0.  1.
          1    1    1    2  503    0  0.96722061697E+01 -0.32347232208E+02 -0.56227578175E+03  0.56328851377E+03  0.00000000000E+00 0. -1.
         -1    1    1    2    0  501 -0.76218955788E+02 -0.48548473081E+02 -0.54636987916E+01  0.90532510539E+02  0.00000000000E+00 0.  1.
<mgrwt>
<rscale>  0 0.55593575E+02</rscale>
<asrwt>0</asrwt>
<pdfrwt beam="2">  1        2 0.14888629E+00 0.33762331E+02</pdfrwt>
<pdfrwt beam="1">  1       -2 0.94872597E-02 0.91541238E+02</pdfrwt>
<totfact> 0.20561604E+03</totfact>
</mgrwt>
</event>
<event>
 7    1  0.4252091E-004  0.5093244E+02  0.7546771E-02  0.1575105E+00
          2   -1    0    0  503    0  0.00000000000E+00  0.00000000000E+00  0.81921553353E+03  0.81921553353E+03  0.00000000000E+00 0. -1.
         -2   -1    0    0    0  501 -0.00000000000E+00 -0.00000000000E+00 -0.16474554007E+02  0.16474554007E+02  0.00000000000E+00 0.  1.
         25    2    1    2    0    0 -0.43931564540E+02 -0.26034206093E+02  0.34127371710E+03  0.36700196380E+03  0.12495971032E+03 0.  0.
          4    1    3    3  502    0  0.33073154685E+02  0.17598250130E+02  0.17138565118E+03  0.17543712919E+03  0.12700000000E+01 0. -1.
         -4    1    3    3    0  502 -0.77004719225E+02 -0.43632456223E+02  0.16988806592E+03  0.19156483461E+03  0.12700000000E+01 0. -1.
          1    1    1    2  503    0  0.12630707700E+02 -0.15943191860E+02  0.25031900534E+03  0.25114403154E+03  0.00000000000E+00 0. -1.
         -1    1    1    2    0  501  0.31300856840E+02  0.41977397953E+02  0.21114825708E+03  0.21754409219E+03  0.00000000000E+00 0.  1.
<mgrwt>
<rscale>  0 0.32186513E+02</rscale>
<asrwt>0</asrwt>
<pdfrwt beam="1">  1        2 0.12603313E+00 0.20340112E+02</pdfrwt>
<pdfrwt beam="2">  1       -2 0.25345474E-02 0.50932444E+02</pdfrwt>
<totfact> 0.16933566E+04</totfact>
</mgrwt>
</event>
<event>
 7    1  0.4252091E-004  0.1270424E+03  0.7546771E-02  0.1399337E+00
          1   -1    0    0  502    0 -0.00000000000E+00  0.00000000000E+00  0.79024673195E+03  0.79024673195E+03  0.00000000000E+00 0. -1.
          2   -1    0    0  503    0  0.00000000000E+00 -0.00000000000E+00 -0.39722614326E+03  0.39722614326E+03  0.00000000000E+00 0. -1.
         25    2    1    2    0    0  0.13645152118E+03 -0.21979022254E+02 -0.22921619663E+03  0.29540974158E+03  0.12499902228E+03 0.  0.
          4    1    3    3  501    0  0.11759044242E+03 -0.66607526390E+02 -0.14482333191E+03  0.19808958853E+03  0.12700000000E+01 0.  1.
         -4    1    3    3    0  501  0.18861078766E+02  0.44628504136E+02 -0.84392864717E+02  0.97320153045E+02  0.12700000000E+01 0.  1.
          2    1    1    2  502    0 -0.11902963014E+03  0.43899651900E+02  0.75031235370E+03  0.76096245663E+03  0.00000000000E+00 0. -1.
          1    1    1    2  503    0 -0.17421891043E+02 -0.21920629646E+02 -0.12807556839E+03  0.13110067700E+03  0.00000000000E+00 0. -1.
<mgrwt>
<rscale>  0 0.59642848E+02</rscale>
<asrwt>0</asrwt>
<pdfrwt beam="2">  1        2 0.61111714E-01 0.28000648E+02</pdfrwt>
<pdfrwt beam="1">  1        1 0.12157642E+00 0.12704239E+03</pdfrwt>
<totfact> 0.26964177E+02</totfact>
</mgrwt>
</event>
<event>
 7    1  0.4252091E-004  0.5878440E+02  0.7546771E-02  0.1436925E+00
          1   -1    0    0  502    0 -0.00000000000E+00  0.00000000000E+00  0.15334467206E+03  0.15334467206E+03  0.00000000000E+00 0. -1.
          2   -1    0    0  503    0  0.00000000000E+00 -0.00000000000E+00 -0.18457330052E+04  0.18457330052E+04  0.00000000000E+00 0. -1.
         25    2    1    2    0    0  0.55289194149E+01 -0.35380125487E+02  0.16971026176E+02  0.13113094699E+03  0.12499994920E+03 0.  0.
          4    1    3    3  501    0  0.20788836014E+02 -0.79362989409E+02  0.20025031370E+02  0.84458715194E+02  0.12700000000E+01 0.  1.
         -4    1    3    3    0  501 -0.15259916599E+02  0.43982863922E+02 -0.30540051942E+01  0.46672231799E+02  0.12700000000E+01 0.  1.
          2    1    1    2  502    0 -0.50119218721E+02  0.43277976899E+02  0.65129342279E+02  0.92880302516E+02  0.00000000000E+00 0. -1.
          3    1    1    2  503    0  0.44590299306E+02 -0.78978514119E+01 -0.17744887016E+04  0.17750664278E+04  0.00000000000E+00 0. -1.
<mgrwt>
<rscale>  0 0.51594695E+02</rscale>
<asrwt>0</asrwt>
<pdfrwt beam="2">  1        2 0.28395892E+00 0.45284333E+02</pdfrwt>
<pdfrwt beam="1">  1        1 0.23591488E-01 0.58784405E+02</pdfrwt>
<totfact> 0.28911713E+02</totfact>
</mgrwt>
</event>
<event>
 7    1  0.4252091E-004  0.3025102E+03  0.7546771E-02  0.1318148E+00
         -2   -1    0    0    0  501 -0.00000000000E+00  0.00000000000E+00  0.19269210320E+03  0.19269210320E+03  0.00000000000E+00 0.  1.
          2   -1    0    0  503    0  0.00000000000E+00 -0.00000000000E+00 -0.24892425869E+04  0.24892425869E+04  0.00000000000E+00 0. -1.
         25    2    1    2    0    0 -0.17379616450E+03  0.25638667126E+03 -0.94297431569E+03  0.10003804626E+04  0.12498511092E+03 0.  0.
          4    1    3    3  502    0 -0.17928733512E+03  0.25502143255E+03 -0.94430451216E+03  0.99443074378E+03  0.12700000000E+01 0.  1.
         -4    1    3    3    0  502  0.54911706276E+01  0.13652387090E+01  0.13301964712E+01  0.59497188375E+01  0.12700000000E+01 0.  1.
          1    1    1    2  503    0 -0.12807166843E+02 -0.19474353698E+02 -0.13787334641E+04  0.13789304693E+04  0.00000000000E+00 0. -1.
         -1    1    1    2    0  501  0.18660333134E+03 -0.23691231756E+03  0.25157296124E+02  0.30262375820E+03  0.00000000000E+00 0.  1.
<mgrwt>
<rscale>  0 0.83970113E+02</rscale>
<asrwt>0</asrwt>
<pdfrwt beam="2">  1        2 0.38296039E+00 0.23308238E+02</pdfrwt>
<pdfrwt beam="1">  1       -2 0.29644940E-01 0.30251020E+03</pdfrwt>
<totfact> 0.60608199E+01</totfact>
</mgrwt>
</event>
<event>
 7    1  0.4252091E-004  0.1018590E+03  0.7546771E-02  0.1407255E+00
          2   -1    0    0  503    0  0.00000000000E+00  0.00000000000E+00  0.10324410446E+04  0.10324410446E+04  0.00000000000E+00 0. -1.
          3   -1    0    0  502    0 -0.00000000000E+00 -0.00000000000E+00 -0.26973186375E+03  0.26973186375E+03  0.00000000000E+00 0. -1.
         25    2    1    2    0    0  0.49259721761E+02 -0.11614830785E+03  0.17039624441E+03  0.24612377961E+03  0.12500034071E+03 0.  0.
          4    1    3    3  501    0  0.43692531693E+02  0.14803590887E+02  0.51560479771E+02  0.69197395927E+02  0.12700000000E+01 0.  1.
         -4    1    3    3    0  501  0.55671900679E+01 -0.13095189873E+03  0.11883576463E+03  0.17692638368E+03  0.12700000000E+01 0.  1.
          2    1    1    2  502    0 -0.27031177195E+02  0.18597642292E+02 -0.22765116911E+03  0.23000350353E+03  0.00000000000E+00 0. -1.
          1    1    1    2  503    0 -0.22228544565E+02  0.97550665554E+02  0.81996410550E+03  0.82604562517E+03  0.00000000000E+00 0. -1.
<mgrwt>
<rscale>  0 0.57810792E+02</rscale>
<asrwt>0</asrwt>
<pdfrwt beam="1">  1        2 0.15883708E+00 0.10185899E+03</pdfrwt>
<pdfrwt beam="2">  1        3 0.41497210E-01 0.32810926E+02</pdfrwt>
<totfact> 0.83489906E+01</totfact>
</mgrwt>
</event>
<event>
 7    1  0.4252091E-004  0.5239657E+02  0.7546771E-02  0.1435867E+00
          1   -1    0    0  502    0 -0.00000000000E+00  0.00000000000E+00  0.74075001379E+02  0.74075001379E+02  0.00000000000E+00 0. -1.
          2   -1    0    0  503    0  0.00000000000E+00 -0.00000000000E+00 -0.85242428605E+03  0.85242428605E+03  0.00000000000E+00 0. -1.
         25    2    1    2    0    0 -0.24286790682E+02  0.12200070337E+02 -0.12550254387E+03  0.17920645397E+03  0.12500149883E+03 0.  0.
          4    1    3    3  501    0  0.72102371234E+01 -0.19102513527E+02  0.19067024271E+02  0.27965297370E+02  0.12700000000E+01 0.  1.
         -4    1    3    3    0  501 -0.31497027805E+02  0.31302583864E+02 -0.14456956814E+03  0.15124115660E+03  0.12700000000E+01 0.  1.
          2    1    1    2  502    0  0.29870963818E+02  0.41596419582E+02  0.31952283455E+02  0.60361287423E+02  0.00000000000E+00 0. -1.
          1    1    1    2  503    0 -0.55841731367E+01 -0.53796489919E+02 -0.68479902425E+03  0.68693154603E+03  0.00000000000E+00 0. -1.
<mgrwt>
<rscale>  0 0.51800245E+02</rscale>
<asrwt>0</asrwt>
<pdfrwt beam="2">  1        2 0.13114220E+00 0.52396569E+02</pdfrwt>
<pdfrwt beam="1">  1        1 0.11396154E-01 0.51210708E+02</pdfrwt>
<totfact> 0.23189295E+03</totfact>
</mgrwt>
</event>
<event>
 7    1  0.4252091E-004  0.3472424E+02  0.7546771E-02  0.1632023E+00
         -1   -1    0    0    0  501 -0.00000000000E+00  0.00000000000E+00  0.37315197566E+03  0.37315197566E+03  0.00000000000E+00 0.  1.
          1   -1    0    0  503    0  0.00000000000E+00 -0.00000000000E+00 -0.51318496631E+03  0.51318496631E+03  0.00000000000E+00 0. -1.
         25    2    1    2    0    0  0.13213388293E+02 -0.36468777172E+02  0.64610531230E+02  0.14595817323E+03  0.12499880899E+03 0.  0.
          4    1    3    3  502    0 -0.43290924369E+02 -0.67860141115E+01 -0.12753638609E+02  0.45655474130E+02  0.12700000000E+01 0. -1.
         -4    1    3    3    0  502  0.56504312662E+02 -0.29682763060E+02  0.77364169839E+02  0.10030269910E+03  0.12700000000E+01 0. -1.
          2    1    1    2  503    0  0.14513730280E+02  0.15472503022E+02 -0.47114250331E+03  0.47161987356E+03  0.00000000000E+00 0. -1.
         -2    1    1    2    0  501 -0.27727118573E+02  0.20996274150E+02  0.26649898143E+03  0.26875889517E+03  0.00000000000E+00 0.  1.
<mgrwt>
<rscale>  0 0.27141307E+02</rscale>
<asrwt>0</asrwt>
<pdfrwt beam="2">  1        1 0.78951533E-01 0.21214305E+02</pdfrwt>
<pdfrwt beam="1">  1       -1 0.57407996E-01 0.34724237E+02</pdfrwt>
<totfact> 0.15200962E+02</totfact>
</mgrwt>
</event>
<event>
 7    1  0.4252091E-004  0.1225185E+03  0.7546771E-02  0.1349765E+00
          2   -1    0    0  503    0  0.00000000000E+00  0.00000000000E+00  0.10007826101E+04  0.10007826101E+04  0.00000000000E+00 0. -1.
          1   -1    0    0  502    0 -0.00000000000E+00 -0.00000000000E+00 -0.82507951363E+03  0.82507951363E+03  0.00000000000E+00 0. -1.
         25    2    1    2    0    0  0.86219727572E+02 -0.38232453754E+02 -0.35762459385E+02  0.16062298819E+03  0.12500091556E+03 0.  0.
          4    1    3    3  501    0 -0.13788200414E+02  0.36918580841E+01  0.30384578261E+02  0.33594341530E+02  0.12700000000E+01 0.  1.
         -4    1    3    3    0  501  0.10000792799E+03 -0.41924311838E+02 -0.66147037645E+02  0.12702864666E+03  0.12700000000E+01 0.  1.
          2    1    1    2  502    0 -0.12415526534E+03  0.16641934785E+02 -0.72097564008E+03  0.73177684952E+03  0.00000000000E+00 0. -1.
          1    1    1    2  503    0  0.37935537769E+02  0.21590518969E+02  0.93244119596E+03  0.93346228604E+03  0.00000000000E+00 0. -1.
<mgrwt>
<rscale>  0 0.73128920E+02</rscale>
<asrwt>0</asrwt>
<pdfrwt beam="1">  1        2 0.15396656E+00 0.43649233E+02</pdfrwt>
<pdfrwt beam="2">  1        1 0.12693531E+00 0.12251851E+03</pdfrwt>
<totfact> 0.90380683E+01</totfact>
</mgrwt>
</event>
<event>
 7    1  0.4252091E-004  0.1088969E+03  0.7546771E-02  0.1351159E+00
          1   -1    0    0  502    0 -0.00000000000E+00  0.00000000000E+00  0.32427081124E+03  0.32427081124E+03  0.00000000000E+00 0. -1.
          2   -1    0    0  503    0  0.00000000000E+00 -0.00000000000E+00 -0.12123789849E+04  0.12123789849E+04  0.00000000000E+00 0. -1.
         25    2    1    2    0    0  0.12200370526E+03 -0.42744624796E+01  0.14957330603E+02  0.17534871824E+03  0.12498110307E+03 0.  0.
          4    1    3    3  501    0  0.39419147536E+02  0.53618599013E+02 -0.18493818104E+02  0.69082975911E+02  0.12700000000E+01 0.  1.
         -4    1    3    3    0  501  0.82584557719E+02 -0.57893061493E+02  0.33451148707E+02  0.10626574233E+03  0.12700000000E+01 0.  1.
          2    1    1    2  502    0 -0.23697990067E+02 -0.42349447179E+02  0.22389839883E+03  0.22909727935E+03  0.00000000000E+00 0. -1.
          1    1    1    2  503    0 -0.98305715188E+02  0.46623909659E+02 -0.11269639031E+04  0.11322037986E+04  0.00000000000E+00 0. -1.
<mgrwt>
<rscale>  0 0.72695690E+02</rscale>
<asrwt>0</asrwt>
<pdfrwt beam="2">  1        2 0.18651985E+00 0.10889686E+03</pdfrwt>
<pdfrwt beam="1">  1        1 0.49887816E-01 0.48529068E+02</pdfrwt>
<totfact> 0.22717524E+02</totfact>
</mgrwt>
</event>
<event>
 7    1  0.4252091E-004  0.1210768E+03  0.7546771E-02  0.1357928E+00
          2   -1    0    0  503    0  0.00000000000E+00  0.00000000000E+00  0.16648506153E+04  0.16648506153E+04  0.00000000000E+00 0. -1.
         -2   -1    0    0    0  501 -0.00000000000E+00 -0.00000000000E+00 -0.19043655503E+03  0.19043655503E+03  0.00000000000E+00 0.  1.
         25    2    1    2    0    0 -0.12053297421E+03  0.24681532261E+02  0.27787368152E+03  0.32859331523E+03  0.12498963166E+03 0.  0.
          4    1    3    3  502    0 -0.26075393039E+02  0.30798924979E+02  0.61352658868E+01  0.40838147479E+02  0.12700000000E+01 0.  1.
         -4    1    3    3    0  502 -0.94457581173E+02 -0.61173927173E+01  0.27173841563E+03  0.28775516775E+03  0.12700000000E+01 0.  1.
          1    1    1    2  503    0  0.12041374601E+03  0.16532613676E+02  0.13562840055E+04  0.13617191712E+04  0.00000000000E+00 0. -1.
         -1    1    1    2    0  501  0.11922820686E+00 -0.41214145937E+02 -0.15974362677E+03  0.16497468392E+03  0.00000000000E+00 0.  1.
<mgrwt>
<rscale>  0 0.70640622E+02</rscale>
<asrwt>0</asrwt>
<pdfrwt beam="1">  1        2 0.25613085E+00 0.12107679E+03</pdfrwt>
<pdfrwt beam="2">  1       -2 0.29297933E-01 0.41214318E+02</pdfrwt>
<totfact> 0.12349054E+02</totfact>
</mgrwt>
</event>
<event>
 7    1  0.4252091E-004  0.3140806E+02  0.7546771E-02  0.1594039E+00
          1   -1    0    0  502    0 -0.00000000000E+00  0.00000000000E+00  0.17281084954E+03  0.17281084954E+03  0.00000000000E+00 0. -1.
          2   -1    0    0  503    0  0.00000000000E+00 -0.00000000000E+00 -0.17767913898E+03  0.17767913898E+03  0.00000000000E+00 0. -1.
         25    2    1    2    0    0 -0.20479012836E+01 -0.16463230590E+01 -0.57010609367E+02  0.13741270096E+03  0.12500054611E+03 0.  0.
          4    1    3    3  501    0  0.21719180988E+02  0.34560998006E+02 -0.78918851313E+02  0.88859346152E+02  0.12700000000E+01 0. -1.
         -4    1    3    3    0  501 -0.23767082271E+02 -0.36207321065E+02  0.21908241946E+02  0.48553354813E+02  0.12700000000E+01 0. -1.
          2    1    1    2  502    0  0.25597194649E+02  0.19189407370E+02  0.12789319418E+03  0.13183367873E+03  0.00000000000E+00 0. -1.
          1    1    1    2  503    0 -0.23549293365E+02 -0.17543084311E+02 -0.75750874258E+02  0.81243608832E+02  0.00000000000E+00 0. -1.
<mgrwt>
<rscale>  0 0.30369582E+02</rscale>
<asrwt>0</asrwt>
<pdfrwt beam="2">  1        2 0.27335252E-01 0.29365439E+02</pdfrwt>
<pdfrwt beam="1">  1        1 0.26586285E-01 0.31408061E+02</pdfrwt>
<totfact> 0.41332660E+03</totfact>
</mgrwt>
</event>
<event>
 7    1  0.4252091E-004  0.1350598E+03  0.7546771E-02  0.1369007E+00
          2   -1    0    0  503    0  0.00000000000E+00  0.00000000000E+00  0.23655800592E+04  0.23655800592E+04  0.00000000000E+00 0. -1.
          1   -1    0    0  502    0 -0.00000000000E+00 -0.00000000000E+00 -0.51328910040E+03  0.51328910040E+03  0.00000000000E+00 0. -1.
         25    2    1    2    0    0  0.10855725597E+03  0.77526636033E+02  0.27827231592E+03  0.33295000032E+03  0.12500065514E+03 0.  0.
          4    1    3    3  501    0  0.13863715308E+02  0.76739446845E+02  0.18149748911E+03  0.19754517649E+03  0.12700000000E+01 0. -1.
         -4    1    3    3    0  501  0.94693540659E+02  0.78718918797E+00  0.96774826814E+02  0.13540482382E+03  0.12700000000E+01 0. -1.
          2    1    1    2  502    0  0.17807016558E+02 -0.28586729186E+02 -0.48313483351E+03  0.48430729736E+03  0.00000000000E+00 0. -1.
          1    1    1    2  503    0 -0.12636427253E+03 -0.48939906847E+02  0.20571534764E+04  0.20616118620E+04  0.00000000000E+00 0. -1.
<mgrwt>
<rscale>  0 0.67444135E+02</rscale>
<asrwt>0</asrwt>
<pdfrwt beam="1">  1        2 0.36393539E+00 0.13505981E+03</pdfrwt>
<pdfrwt beam="2">  1        1 0.78967555E-01 0.33679236E+02</pdfrwt>
<totfact> 0.32502376E+01</totfact>
</mgrwt>
</event>
<event>
 7    1  0.4252091E-004  0.9987637E+02  0.7546771E-02  0.1337669E+00
          2   -1    0    0  503    0  0.00000000000E+00  0.00000000000E+00  0.22030549925E+04  0.22030549925E+04  0.00000000000E+00 0. -1.
         -2   -1    0    0    0  501 -0.00000000000E+00 -0.00000000000E+00 -0.53324003464E+03  0.53324003464E+03  0.00000000000E+00 0.  1.
         25    2    1    2    0    0 -0.33027895396E+02 -0.71033608503E+02 -0.14835830938E+03  0.20921597525E+03  0.12499808369E+03 0.  0.
          4    1    3    3  502    0  0.24468695091E+02  0.21471930092E+02 -0.12059050373E+02  0.34738946692E+02  0.12700000000E+01 0. -1.
         -4    1    3    3    0  502 -0.57496590488E+02 -0.92505538596E+02 -0.13629925901E+03  0.17447702856E+03  0.12700000000E+01 0. -1.
          1    1    1    2  503    0  0.87828110569E+02  0.48051665175E+02  0.21689727717E+04  0.21712820231E+04  0.00000000000E+00 0. -1.
         -1    1    1    2    0  501 -0.54800215173E+02  0.22981943328E+02 -0.35079950450E+03  0.35579702874E+03  0.00000000000E+00 0.  1.
<mgrwt>
<rscale>  0 0.77039417E+02</rscale>
<asrwt>0</asrwt>
<pdfrwt beam="1">  1        2 0.33893153E+00 0.99876375E+02</pdfrwt>
<pdfrwt beam="2">  1       -2 0.82036930E-01 0.59424181E+02</pdfrwt>
<totfact> 0.91759563E+00</totfact>
</mgrwt>
</event>
<event>
 7    1  0.4252091E-004  0.3799708E+02  0.7546771E-02  0.1560863E+00
         -2   -1    0    0    0  501 -0.00000000000E+00  0.00000000000E+00  0.40864915280E+03  0.40864915280E+03  0.00000000000E+00 0.  1.
          2   -1    0    0  503    0  0.00000000000E+00 -0.00000000000E+00 -0.87878342377E+03  0.87878342377E+03  0.00000000000E+00 0. -1.
         25    2    1    2    0    0 -0.20186133175E+02  0.55098598517E+01  0.12044582583E+03  0.17484243210E+03  0.12499936230E+03 0.  0.
          4    1    3    3  502    0 -0.17960014428E+02  0.57569671737E+02  0.10392899829E+03  0.12016521463E+03  0.12700000000E+01 0. -1.
         -4    1    3    3    0  502 -0.22261187471E+01 -0.52059811885E+02  0.16516827538E+02  0.54677217469E+02  0.12700000000E+01 0. -1.
          3    1    1    2  503    0 -0.12751071053E+02 -0.26947594079E+02 -0.84984295285E+03  0.85036569024E+03  0.00000000000E+00 0. -1.
         -3    1    1    2    0  501  0.32937204228E+02  0.21437734227E+02  0.25926285605E+03  0.26222445424E+03  0.00000000000E+00 0.  1.
<mgrwt>
<rscale>  0 0.33656702E+02</rscale>
<asrwt>0</asrwt>
<pdfrwt beam="2">  1        2 0.13519745E+00 0.29812122E+02</pdfrwt>
<pdfrwt beam="1">  1       -2 0.62869102E-01 0.37997081E+02</pdfrwt>
<totfact> 0.85091713E+01</totfact>
</mgrwt>
</event>
<event>
 7    1  0.4252091E-004  0.2294959E+03  0.7546771E-02  0.1227209E+00
          1   -1    0    0  502    0 -0.00000000000E+00  0.00000000000E+00  0.66712538145E+03  0.66712538145E+03  0.00000000000E+00 0. -1.
          2   -1    0    0  503    0  0.00000000000E+00 -0.00000000000E+00 -0.81736639893E+03  0.81736639893E+03  0.00000000000E+00 0. -1.
         25    2    1    2    0    0  0.15627785019E+03  0.67992556715E+02  0.12318969256E+03  0.24463711849E+03  0.12500346059E+03 0.  0.
          4    1    3    3  501    0  0.17702045026E+03  0.51282495931E+02  0.11237788863E+03  0.21586231017E+03  0.12700000000E+01 0. -1.
         -4    1    3    3    0  501 -0.20742600074E+02  0.16710060784E+02  0.10811803925E+02  0.28774808312E+02  0.12700000000E+01 0. -1.
          2    1    1    2  502    0  0.40417082694E+02  0.61782179248E+02  0.46186126233E+03  0.46772470951E+03  0.00000000000E+00 0. -1.
          1    1    1    2  503    0 -0.19669493288E+03 -0.12977473596E+03 -0.73529197238E+03  0.77212995238E+03  0.00000000000E+00 0. -1.
<mgrwt>
<rscale>  0 0.13016617E+03</rscale>
<asrwt>0</asrwt>
<pdfrwt beam="2">  1        2 0.12574868E+00 0.22949593E+03</pdfrwt>
<pdfrwt beam="1">  1        1 0.10263467E+00 0.73828032E+02</pdfrwt>
<totfact> 0.15143635E+02</totfact>
</mgrwt>
</event>
<event>
 7    1  0.4252091E-004  0.8039104E+02  0.7546771E-02  0.1422738E+00
          2   -1    0    0  503    0  0.00000000000E+00  0.00000000000E+00  0.24077162320E+04  0.24077162320E+04  0.00000000000E+00 0. -1.
          1   -1    0    0  502    0 -0.00000000000E+00 -0.00000000000E+00 -0.27559763391E+02  0.27559763391E+02  0.00000000000E+00 0. -1.
         25    2    1    2    0    0 -0.87833286581E+02 -0.22367660304E+01  0.23799087969E+03  0.28281553914E+03  0.12500112403E+03 0.  0.
          4    1    3    3  501    0 -0.13937320615E+02 -0.26408086830E+02  0.18802788358E+03  0.19038837638E+03  0.12700000000E+01 0.  1.
         -4    1    3    3    0  501 -0.73895965966E+02  0.24171320800E+02  0.49962996107E+02  0.92427162757E+02  0.12700000000E+01 0.  1.
          2    1    1    2  502    0  0.68233443563E+02  0.33470421045E+02  0.28591451787E+03  0.29584317372E+03  0.00000000000E+00 0. -1.
          1    1    1    2  503    0  0.19599843019E+02 -0.31233655014E+02  0.18562510710E+04  0.18566172825E+04  0.00000000000E+00 0. -1.
<mgrwt>
<rscale>  0 0.54445776E+02</rscale>
<asrwt>0</asrwt>
<pdfrwt beam="1">  1        2 0.37041772E+00 0.36874043E+02</pdfrwt>
<pdfrwt beam="2">  1        1 0.42399655E-02 0.80391036E+02</pdfrwt>
<totfact> 0.14891791E+03</totfact>
</mgrwt>
</event>
<event>
 7    1  0.4252091E-004  0.1283254E+03  0.7546771E-02  0.1360939E+00
          2   -1    0    0  503    0  0.00000000000E+00  0.00000000000E+00  0.69541044307E+03  0.69541044307E+03  0.00000000000E+00 0. -1.
          1   -1    0    0  502    0 -0.00000000000E+00 -0.00000000000E+00 -0.18096698779E+03  0.18096698779E+03  0.00000000000E+00 0. -1.
         25    2    1    2    0    0  0.54259578193E+02  0.13864889208E+03  0.65488228611E+02  0.20513773811E+03  0.12500066563E+03 0.  0.
          4    1    3    3  501    0  0.45789596921E+02  0.13931255905E+03  0.94779849318E+02  0.17461245383E+03  0.12700000000E+01 0.  1.
         -4    1    3    3    0  501  0.84699812719E+01 -0.66366697012E+00 -0.29291620706E+02  0.30525284277E+02  0.12700000000E+01 0.  1.
          2    1    1    2  502    0  0.16845817165E+02 -0.33965963447E+02 -0.10049263268E+03  0.10740687804E+03  0.00000000000E+00 0. -1.
          1    1    1    2  503    0 -0.71105395358E+02 -0.10468292864E+03  0.54944785935E+03  0.56383281471E+03  0.00000000000E+00 0. -1.
<mgrwt>
<rscale>  0 0.69751880E+02</rscale>
<asrwt>0</asrwt>
<pdfrwt beam="1">  1        2 0.10698622E+00 0.12832542E+03</pdfrwt>
<pdfrwt beam="2">  1        1 0.27841075E-01 0.37913958E+02</pdfrwt>
<totfact> 0.93826463E+02</totfact>
</mgrwt>
</event>
<event>
 7    1  0.4252091E-004  0.6099952E+02  0.7546771E-02  0.1413430E+00
          2   -1    0    0  503    0  0.00000000000E+00  0.00000000000E+00  0.25432431074E+04  0.25432431074E+04  0.00000000000E+00 0. -1.
         -2   -1    0    0    0  501 -0.00000000000E+00 -0.00000000000E+00 -0.12137252627E+03  0.12137252627E+03  0.00000000000E+00 0.  1.
         25    2    1    2    0    0  0.29200371952E+02  0.10055981636E+03  0.11529055306E+03  0.19970270355E+03  0.12499727915E+03 0.  0.
          4    1    3    3  502    0  0.36545475701E+02  0.15949185128E+02 -0.16287197221E+02  0.43090996667E+02  0.12700000000E+01 0.  1.
         -4    1    3    3    0  502 -0.73451037492E+01  0.84610631228E+02  0.13157775028E+03  0.15661170689E+03  0.12700000000E+01 0.  1.
          1    1    1    2  503    0  0.32448438492E+01 -0.52111855704E+02  0.23746839037E+04  0.23752578422E+04  0.00000000000E+00 0. -1.
         -1    1    1    2    0  501 -0.32445215801E+02 -0.48447960652E+02 -0.68103875595E+02  0.89655087924E+02  0.00000000000E+00 0.  1.
<mgrwt>
<rscale>  0 0.56435402E+02</rscale>
<asrwt>0</asrwt>
<pdfrwt beam="1">  1        2 0.39126813E+00 0.52212781E+02</pdfrwt>
<pdfrwt beam="2">  1       -2 0.18672698E-01 0.60999520E+02</pdfrwt>
<totfact> 0.10670189E+02</totfact>
</mgrwt>
</event>
<event>
 7    1  0.4252091E-004  0.6074476E+02  0.7546771E-02  0.1400279E+00
          2   -1    0    0  503    0  0.00000000000E+00  0.00000000000E+00  0.21072098548E+04  0.21072098548E+04  0.00000000000E+00 0. -1.
          1   -1    0    0  502    0 -0.00000000000E+00 -0.00000000000E+00 -0.21557874317E+03  0.21557874317E+03  0.00000000000E+00 0. -1.
         25    2    1    2    0    0  0.50371422540E+02  0.78707728794E+02 -0.90837617250E+02  0.18058026462E+03  0.12500228990E+03 0.  0.
          4    1    3    3  501    0  0.27098909945E+02  0.10865863945E+03 -0.88168635167E+02  0.14253551127E+03  0.12700000000E+01 0.  1.
         -4    1    3    3    0  501  0.23272512594E+02 -0.29950910655E+02 -0.26689820825E+01  0.38044753342E+02  0.12700000000E+01 0.  1.
          2    1    1    2  502    0  0.65948778024E+01 -0.57750002909E+02 -0.68785885590E+02  0.90055834379E+02  0.00000000000E+00 0. -1.
          1    1    1    2  503    0 -0.56966300342E+02 -0.20957725885E+02  0.20512546145E+04  0.20521524990E+04  0.00000000000E+00 0. -1.
<mgrwt>
<rscale>  0 0.59420620E+02</rscale>
<asrwt>0</asrwt>
<pdfrwt beam="1">  1        2 0.32418612E+00 0.60744763E+02</pdfrwt>
<pdfrwt beam="2">  1        1 0.33165962E-01 0.58125341E+02</pdfrwt>
<totfact> 0.13763708E+02</totfact>
</mgrwt>
</event>
<event>
 7    1  0.4252091E-004  0.2194184E+03  0.7546771E-02  0.1308385E+00
          1   -1    0    0  502    0 -0.00000000000E+00  0.00000000000E+00  0.94415005259E+03  0.94415005259E+03  0.00000000000E+00 0. -1.
          2   -1    0    0  503    0  0.00000000000E+00 -0.00000000000E+00 -0.10100938961E+04  0.10100938961E+04  0.00000000000E+00 0. -1.
         25    2    1    2    0    0  0.18115726164E+03 -0.15382801572E+03 -0.59467744073E+03  0.65249461570E+03  0.12500781231E+03 0.  0.
          4    1    3    3  501    0  0.15719318137E+01 -0.29901692262E+02 -0.15842979011E+02  0.33899779552E+02  0.12700000000E+01 0. -1.
         -4    1    3    3    0  501  0.17958532983E+03 -0.12392632346E+03 -0.57883446172E+03  0.61859483615E+03  0.12700000000E+01 0. -1.
          2    1    1    2  502    0 -0.28193254753E+02  0.20901407160E+02  0.88830796103E+03  0.88900099104E+03  0.00000000000E+00 0. -1.
          1    1    1    2  503    0 -0.15296400689E+03  0.13292660856E+03 -0.35957436383E+03  0.41274834196E+03  0.00000000000E+00 0. -1.
<mgrwt>
<rscale>  0 0.87753669E+02</rscale>
<asrwt>0</asrwt>
<pdfrwt beam="2">  1        2 0.15539906E+00 0.21941842E+03</pdfrwt>
<pdfrwt beam="1">  1        1 0.14525385E+00 0.35095989E+02</pdfrwt>
<totfact> 0.71852281E+01</totfact>
</mgrwt>
</event>
<event>
 7    1  0.4252091E-004  0.4999571E+02  0.7546771E-02  0.1548519E+00
          1   -1    0    0  502    0 -0.00000000000E+00  0.00000000000E+00  0.22856477879E+04  0.22856477879E+04  0.00000000000E+00 0. -1.
          2   -1    0    0  503    0  0.00000000000E+00 -0.00000000000E+00 -0.46183803152E+03  0.46183803152E+03  0.00000000000E+00 0. -1.
         25    2    1    2    0    0 -0.53480194687E+02 -0.90069078034E+01  0.26074608895E+03  0.29420241989E+03  0.12500114140E+03 0.  0.
          4    1    3    3  501    0 -0.10734751193E+02 -0.42127890107E+02  0.20754672106E+02  0.48190904974E+02  0.12700000000E+01 0.  1.
         -4    1    3    3    0  501 -0.42745443493E+02  0.33120982303E+02  0.23999141685E+03  0.24601151491E+03  0.12700000000E+01 0.  1.
          2    1    1    2  502    0  0.47773130434E+02 -0.14834447156E+02  0.20075241798E+04  0.20081473216E+04  0.00000000000E+00 0. -1.
          1    1    1    2  503    0  0.57070642522E+01  0.23841354959E+02 -0.44446051239E+03  0.44513607791E+03  0.00000000000E+00 0. -1.
<mgrwt>
<rscale>  0 0.35009144E+02</rscale>
<asrwt>0</asrwt>
<pdfrwt beam="2">  1        2 0.71052006E-01 0.24514910E+02</pdfrwt>
<pdfrwt beam="1">  1        1 0.35163811E+00 0.49995705E+02</pdfrwt>
<totfact> 0.26380433E+01</totfact>
</mgrwt>
</event>
<event>
 7    1  0.4252091E-004  0.5321455E+02  0.7546771E-02  0.1458313E+00
          2   -1    0    0  503    0  0.00000000000E+00  0.00000000000E+00  0.15702042138E+04  0.15702042138E+04  0.00000000000E+00 0. -1.
          1   -1    0    0  502    0 -0.00000000000E+00 -0.00000000000E+00 -0.18884368009E+02  0.18884368009E+02  0.00000000000E+00 0. -1.
         25    2    1    2    0    0 -0.17043998287E+02 -0.30908812935E+02  0.69508446141E+03  0.70711607924E+03  0.12499955370E+03 0.  0.
          4    1    3    3  501    0  0.25419726296E+02 -0.59549019377E+02  0.22163498265E+03  0.23090241798E+03  0.12700000000E+01 0.  1.
         -4    1    3    3    0  501 -0.42463724583E+02  0.28640206442E+02  0.47344947876E+03  0.47621366125E+03  0.12700000000E+01 0.  1.
          2    1    1    2  502    0 -0.39216008775E+02  0.16914603605E+02  0.26601325127E+02  0.50315302422E+02  0.00000000000E+00 0. -1.
          1    1    1    2  503    0  0.56260007062E+02  0.13994209331E+02  0.82963405926E+03  0.83165720016E+03  0.00000000000E+00 0. -1.
<mgrwt>
<rscale>  0 0.47672878E+02</rscale>
<asrwt>0</asrwt>
<pdfrwt beam="1">  1        2 0.24156978E+00 0.53214553E+02</pdfrwt>
<pdfrwt beam="2">  1        1 0.29052886E-02 0.42708303E+02</pdfrwt>
<totfact> 0.56235331E+03</totfact>
</mgrwt>
</event>
<event>
 7    1  0.4252091E-004  0.1521374E+03  0.7546771E-02  0.1375254E+00
          2   -1    0    0  503    0  0.00000000000E+00  0.00000000000E+00  0.11280530485E+04  0.11280530485E+04  0.00000000000E+00 0. -1.
          3   -1    0    0  502    0 -0.00000000000E+00 -0.00000000000E+00 -0.27859054180E+03  0.27859054180E+03  0.00000000000E+00 0. -1.
         25    2    1    2    0    0  0.41938768706E+02  0.13617948137E+03  0.15362949199E+03  0.24398937329E+03  0.12500032801E+03 0.  0.
          4    1    3    3  501    0  0.48187478273E+02  0.15247291142E+03  0.15918111131E+03  0.22563302258E+03  0.12700000000E+01 0. -1.
         -4    1    3    3    0  501 -0.62487095676E+01 -0.16293430054E+02 -0.55516193221E+01  0.18356350707E+02  0.12700000000E+01 0. -1.
          2    1    1    2  502    0  0.28390669229E+02  0.56753459033E+00 -0.22615501235E+03  0.22793078292E+03  0.00000000000E+00 0. -1.
          1    1    1    2  503    0 -0.70329437934E+02 -0.13674701596E+03  0.92198802706E+03  0.93472343410E+03  0.00000000000E+00 0. -1.
<mgrwt>
<rscale>  0 0.65727822E+02</rscale>
<asrwt>0</asrwt>
<pdfrwt beam="1">  1        2 0.17354662E+00 0.15213744E+03</pdfrwt>
<pdfrwt beam="2">  1        3 0.42860084E-01 0.28396341E+02</pdfrwt>
<totfact> 0.66732296E+01</totfact>
</mgrwt>
</event>
<event>
 7    1  0.4252091E-004  0.1518437E+03  0.7546771E-02  0.1324725E+00
         -1   -1    0    0    0  501 -0.00000000000E+00  0.00000000000E+00  0.33871543733E+03  0.33871543733E+03  0.00000000000E+00 0.  1.
          1   -1    0    0  503    0  0.00000000000E+00 -0.00000000000E+00 -0.45942793224E+03  0.45942793224E+03  0.00000000000E+00 0. -1.
         25    2    1    2    0    0 -0.16784138488E+03 -0.87959873568E+02  0.39772065010E+02  0.23047440943E+03  0.12501586464E+03 0.  0.
          4    1    3    3  502    0 -0.34558226678E+02  0.30899981796E+02 -0.41612780689E+01  0.46561883997E+02  0.12700000000E+01 0. -1.
         -4    1    3    3    0  502 -0.13328315820E+03 -0.11885985536E+03  0.43933343079E+02  0.18391252543E+03  0.12700000000E+01 0. -1.
          2    1    1    2  503    0  0.12506995656E+03  0.78561772970E+02 -0.34644880143E+03  0.37661813315E+03  0.00000000000E+00 0. -1.
         -2    1    1    2    0  501  0.42771428314E+02  0.93981005980E+01  0.18596424151E+03  0.19105082700E+03  0.00000000000E+00 0.  1.
<mgrwt>
<rscale>  0 0.81544501E+02</rscale>
<asrwt>0</asrwt>
<pdfrwt beam="2">  1        1 0.70681220E-01 0.15184372E+03</pdfrwt>
<pdfrwt beam="1">  1       -1 0.52110067E-01 0.43791773E+02</pdfrwt>
<totfact> 0.19930846E+02</totfact>
</mgrwt>
</event>
<event>
 7    1  0.4252091E-004  0.5622140E+02  0.7546771E-02  0.1421418E+00
          1   -1    0    0  502    0 -0.00000000000E+00  0.00000000000E+00  0.20332118630E+03  0.20332118630E+03  0.00000000000E+00 0. -1.
          2   -1    0    0  503    0  0.00000000000E+00 -0.00000000000E+00 -0.24092912599E+04  0.24092912599E+04  0.00000000000E+00 0. -1.
         25    2    1    2    0    0  0.92192890050E+02  0.38863671391E+02  0.10015532332E+03  0.18885868876E+03  0.12500640624E+03 0.  0.
          4    1    3    3  501    0  0.87111083664E+02  0.78941126962E+02  0.60432789473E+02  0.13218841616E+03  0.12700000000E+01 0. -1.
         -4    1    3    3    0  501  0.50818063853E+01 -0.40077455572E+02  0.39722533850E+02  0.56670272601E+02  0.12700000000E+01 0. -1.
          2    1    1    2  502    0 -0.36055402909E+02 -0.39203738110E+02  0.46351410594E+02  0.70607212272E+02  0.00000000000E+00 0. -1.
          1    1    1    2  503    0 -0.56137487140E+02  0.34006671967E+00 -0.23524768075E+04  0.23531465452E+04  0.00000000000E+00 0. -1.
<mgrwt>
<rscale>  0 0.54722105E+02</rscale>
<asrwt>0</asrwt>
<pdfrwt beam="2">  1        2 0.37066020E+00 0.56221399E+02</pdfrwt>
<pdfrwt beam="1">  1        1 0.31280182E-01 0.53262793E+02</pdfrwt>
<totfact> 0.10512464E+02</totfact>
</mgrwt>
</event>
<event>
 7    1  0.4252091E-004  0.1106668E+03  0.7546771E-02  0.1267163E+00
          1   -1    0    0  502    0 -0.00000000000E+00  0.00000000000E+00  0.58587528858E+02  0.58587528858E+02  0.00000000000E+00 0. -1.
          2   -1    0    0  503    0  0.00000000000E+00 -0.00000000000E+00 -0.10970081752E+04  0.10970081752E+04  0.00000000000E+00 0. -1.
         25    2    1    2    0    0 -0.73498473305E+02 -0.45329706318E+02 -0.19255486714E+03  0.24527548806E+03  0.12500352127E+03 0.  0.
          4    1    3    3  501    0 -0.61756972520E+02 -0.76734792700E+02 -0.18687097530E+03  0.21124518072E+03  0.12700000000E+01 0. -1.
         -4    1    3    3    0  501 -0.11741500785E+02  0.31405086381E+02 -0.56838918355E+01  0.34030307341E+02  0.12700000000E+01 0. -1.
          2    1    1    2  502    0  0.68685279170E+01  0.13369025550E+03 -0.13225678218E+03  0.18818107643E+03  0.00000000000E+00 0. -1.
          1    1    1    2  503    0  0.66629945388E+02 -0.88360549183E+02 -0.71360899697E+03  0.72213913952E+03  0.00000000000E+00 0. -1.
<mgrwt>
<rscale>  0 0.10651488E+03</rscale>
<asrwt>0</asrwt>
<pdfrwt beam="2">  1        2 0.16877049E+00 0.11066678E+03</pdfrwt>
<pdfrwt beam="1">  1        1 0.90134661E-02 0.10251875E+03</pdfrwt>
<totfact> 0.22763536E+03</totfact>
</mgrwt>
</event>
<event>
 7    1  0.4252091E-004  0.1943529E+03  0.7546771E-02  0.1318984E+00
          2   -1    0    0  503    0  0.00000000000E+00  0.00000000000E+00  0.16911952009E+04  0.16911952009E+04  0.00000000000E+00 0. -1.
         -2   -1    0    0    0  501 -0.00000000000E+00 -0.00000000000E+00 -0.11936400831E+03  0.11936400831E+03  0.00000000000E+00 0.  1.
         25    2    1    2    0    0  0.16796752750E+02 -0.16175396936E+03  0.11970105935E+03  0.23748827881E+03  0.12500344577E+03 0.  0.
          4    1    3    3  502    0  0.31204793068E+02 -0.57514745961E+02  0.11478924117E+03  0.13213579341E+03  0.12700000000E+01 0. -1.
         -4    1    3    3    0  502 -0.14408040318E+02 -0.10423922340E+03  0.49118181858E+01  0.10535248539E+03  0.12700000000E+01 0. -1.
          1    1    1    2  503    0 -0.28520782699E+02  0.19580061759E+03  0.15000980509E+04  0.15130913651E+04  0.00000000000E+00 0. -1.
         -1    1    1    2    0  501  0.11724029949E+02 -0.34046648233E+02 -0.47967917632E+02  0.59979565321E+02  0.00000000000E+00 0.  1.
<mgrwt>
<rscale>  0 0.83656418E+02</rscale>
<asrwt>0</asrwt>
<pdfrwt beam="1">  1        2 0.26018386E+00 0.19435288E+03</pdfrwt>
<pdfrwt beam="2">  1       -2 0.18363695E-01 0.36008709E+02</pdfrwt>
<totfact> 0.24946037E+02</totfact>
</mgrwt>
</event>
<event>
 7    1  0.4252091E-004  0.6305993E+02  0.7546771E-02  0.1420543E+00
          1   -1    0    0  502    0 -0.00000000000E+00  0.00000000000E+00  0.32667546256E+03  0.32667546256E+03  0.00000000000E+00 0. -1.
          2   -1    0    0  503    0  0.00000000000E+00 -0.00000000000E+00 -0.26215251528E+04  0.26215251528E+04  0.00000000000E+00 0. -1.
         25    2    1    2    0    0 -0.17402004771E+02  0.99849081665E+01 -0.21208190492E+02  0.12829670265E+03  0.12493089452E+03 0.  0.
          4    1    3    3  501    0  0.49158444681E+02 -0.19096558643E+02 -0.17405324391E+02  0.55549882561E+02  0.12700000000E+01 0. -1.
         -4    1    3    3    0  501 -0.66560449451E+02  0.29081466809E+02 -0.38028661011E+01  0.72746820092E+02  0.12700000000E+01 0. -1.
          2    1    1    2  502    0 -0.45910327093E+02 -0.13330989249E+02  0.27064135119E+03  0.27483124710E+03  0.00000000000E+00 0. -1.
          1    1    1    2  503    0  0.63312331864E+02  0.33460810826E+01 -0.25442828510E+04  0.25450726656E+04  0.00000000000E+00 0. -1.
<mgrwt>
<rscale>  0 0.54906125E+02</rscale>
<asrwt>0</asrwt>
<pdfrwt beam="2">  1        2 0.40331156E+00 0.63059933E+02</pdfrwt>
<pdfrwt beam="1">  1        1 0.50257763E-01 0.47806625E+02</pdfrwt>
<totfact> 0.45516044E+01</totfact>
</mgrwt>
</event>
<event>
 7    1  0.4252091E-004  0.5658488E+02  0.7546771E-02  0.1432578E+00
         -2   -1    0    0    0  501 -0.00000000000E+00  0.00000000000E+00  0.54003010987E+03  0.54003010987E+03  0.00000000000E+00 0.  1.
          2   -1    0    0  503    0  0.00000000000E+00 -0.00000000000E+00 -0.61974405461E+03  0.61974405461E+03  0.00000000000E+00 0. -1.
         25    2    1    2    0    0 -0.89499313371E+02  0.40052148078E+02  0.32232914983E+03  0.35935194406E+03  0.12499374868E+03 0.  0.
          4    1    3    3  502    0 -0.18175624843E+02  0.73929710787E+02  0.11955246734E+03  0.14174046995E+03  0.12700000000E+01 0. -1.
         -4    1    3    3    0  502 -0.71323688529E+02 -0.33877562708E+02  0.20277668250E+03  0.21761147411E+03  0.12700000000E+01 0. -1.
          1    1    1    2  503    0  0.42986102550E+02 -0.22696300278E+02 -0.59713618636E+03  0.59911146886E+03  0.00000000000E+00 0. -1.
         -1    1    1    2    0  501  0.46513210821E+02 -0.17355847800E+02  0.19509309179E+03  0.20131075157E+03  0.00000000000E+00 0.  1.
<mgrwt>
<rscale>  0 0.52446050E+02</rscale>
<asrwt>0</asrwt>
<pdfrwt beam="2">  1        2 0.95345239E-01 0.48609948E+02</pdfrwt>
<pdfrwt beam="1">  1       -2 0.83081556E-01 0.56584883E+02</pdfrwt>
<totfact> 0.69276622E+01</totfact>
</mgrwt>
</event>
<event>
 7    1  0.4252091E-004  0.2878874E+02  0.7546771E-02  0.1615970E+00
          2   -1    0    0  503    0  0.00000000000E+00  0.00000000000E+00  0.22603994983E+04  0.22603994983E+04  0.00000000000E+00 0. -1.
          1   -1    0    0  502    0 -0.00000000000E+00 -0.00000000000E+00 -0.93472500224E+01  0.93472500224E+01  0.00000000000E+00 0. -1.
         25    2    1    2    0    0  0.14212393385E+02  0.26375122547E+02  0.77144158063E+03  0.78207960318E+03  0.12501501583E+03 0.  0.
          4    1    3    3  501    0 -0.55002088846E+02  0.43099837017E+01  0.37430709447E+03  0.37835329998E+03  0.12700000000E+01 0. -1.
         -4    1    3    3    0  501  0.69214482232E+02  0.22065138845E+02  0.39713448616E+03  0.40372630320E+03  0.12700000000E+01 0. -1.
          2    1    1    2  502    0 -0.29486536375E+02 -0.27881116057E+01  0.52488392762E+02  0.60268240131E+02  0.00000000000E+00 0. -1.
          1    1    1    2  503    0  0.15274142990E+02 -0.23587010941E+02  0.14271222749E+04  0.14273989050E+04  0.00000000000E+00 0. -1.
<mgrwt>
<rscale>  0 0.28442612E+02</rscale>
<asrwt>0</asrwt>
<pdfrwt beam="1">  1        2 0.34775333E+00 0.28100650E+02</pdfrwt>
<pdfrwt beam="2">  1        1 0.14380403E-02 0.28788735E+02</pdfrwt>
<totfact> 0.67368123E+03</totfact>
</mgrwt>
</event>
<event>
 7    1  0.4252091E-004  0.1305735E+03  0.7546771E-02  0.1263875E+00
          1   -1    0    0  502    0 -0.00000000000E+00  0.00000000000E+00  0.12800091639E+03  0.12800091639E+03  0.00000000000E+00 0. -1.
          2   -1    0    0  503    0  0.00000000000E+00 -0.00000000000E+00 -0.11391643220E+04  0.11391643220E+04  0.00000000000E+00 0. -1.
         25    2    1    2    0    0  0.19863305956E+03 -0.73706578051E+02 -0.24152559589E+03  0.34473618112E+03  0.12498267522E+03 0.  0.
          4    1    3    3  501    0  0.59155444127E+02 -0.87706727644E+02 -0.10333758502E+03  0.14789221082E+03  0.12700000000E+01 0. -1.
         -4    1    3    3    0  501  0.13947761543E+03  0.14000149593E+02 -0.13818801088E+03  0.19684397030E+03  0.12700000000E+01 0. -1.
          2    1    1    2  502    0 -0.79654194808E+02  0.41283137840E+02  0.43701416325E+02  0.99794298480E+02  0.00000000000E+00 0. -1.
          1    1    1    2  503    0 -0.11897886475E+03  0.32423440211E+02 -0.81333922606E+03  0.82263475880E+03  0.00000000000E+00 0. -1.
<mgrwt>
<rscale>  0 0.10823412E+03</rscale>
<asrwt>0</asrwt>
<pdfrwt beam="2">  1        2 0.17525605E+00 0.13057349E+03</pdfrwt>
<pdfrwt beam="1">  1        1 0.19692449E-01 0.89716711E+02</pdfrwt>
<totfact> 0.77370378E+02</totfact>
</mgrwt>
</event>
<event>
 7    1  0.4252091E-004  0.2533729E+03  0.7546771E-02  0.1266754E+00
          2   -1    0    0  503    0  0.00000000000E+00  0.00000000000E+00  0.18923262728E+04  0.18923262728E+04  0.00000000000E+00 0. -1.
          1   -1    0    0  502    0 -0.00000000000E+00 -0.00000000000E+00 -0.10060509237E+03  0.10060509237E+03  0.00000000000E+00 0. -1.
         25    2    1    2    0    0 -0.18404000439E+03 -0.12032828085E+03  0.25569005490E+03  0.35965666108E+03  0.12500356513E+03 0.  0.
          4    1    3    3  501    0 -0.74253381726E+02  0.17023637455E+02  0.91600631873E+02  0.11914553114E+03  0.12700000000E+01 0.  1.
         -4    1    3    3    0  501 -0.10978662267E+03 -0.13735191830E+03  0.16408942303E+03  0.24051112995E+03  0.12700000000E+01 0.  1.
          2    1    1    2  502    0 -0.44768633521E+02 -0.40997622528E+01 -0.24472364634E+02  0.51185302858E+02  0.00000000000E+00 0. -1.
          1    1    1    2  503    0  0.22880863792E+03  0.12442804310E+03  0.15605034902E+04  0.15820894012E+04  0.00000000000E+00 0. -1.
<mgrwt>
<rscale>  0 0.10672685E+03</rscale>
<asrwt>0</asrwt>
<pdfrwt beam="1">  1        2 0.29112709E+00 0.25337285E+03</pdfrwt>
<pdfrwt beam="2">  1        1 0.15477708E-01 0.44955963E+02</pdfrwt>
<totfact> 0.38262382E+02</totfact>
</mgrwt>
</event>
<event>
 7    1  0.4252091E-004  0.1436620E+03  0.7546771E-02  0.1300915E+00
          2   -1    0    0  503    0  0.00000000000E+00  0.00000000000E+00  0.84563611375E+02  0.84563611375E+02  0.00000000000E+00 0. -1.
          1   -1    0    0  502    0 -0.00000000000E+00 -0.00000000000E+00 -0.19486428885E+04  0.19486428885E+04  0.00000000000E+00 0. -1.
         25    2    1    2    0    0 -0.44985231782E+02  0.19126173627E+03 -0.25801043227E+03  0.34756068418E+03  0.12499729273E+03 0.  0.
          4    1    3    3  501    0 -0.56179087735E+02  0.33462242733E+02 -0.35124403567E+02  0.74237108062E+02  0.12700000000E+01 0. -1.
         -4    1    3    3    0  501  0.11193855953E+02  0.15779949354E+03 -0.22288602870E+03  0.27332357612E+03  0.12700000000E+01 0. -1.
          2    1    1    2  502    0  0.23095524997E+02 -0.13820485130E+03 -0.16204335189E+04  0.16264804866E+04  0.00000000000E+00 0. -1.
          1    1    1    2  503    0  0.21889706786E+02 -0.53056884972E+02  0.14364674027E+02  0.59165329088E+02  0.00000000000E+00 0. -1.
<mgrwt>
<rscale>  0 0.90804681E+02</rscale>
<asrwt>0</asrwt>
<pdfrwt beam="1">  1        2 0.13009787E-01 0.57395055E+02</pdfrwt>
<pdfrwt beam="2">  1        1 0.29979120E+00 0.14366203E+03</pdfrwt>
<totfact> 0.22762445E+02</totfact>
</mgrwt>
</event>
<event>
 7    1  0.4252091E-004  0.9841878E+02  0.7546771E-02  0.1346792E+00
          1   -1    0    0  503    0  0.00000000000E+00  0.00000000000E+00  0.38007121948E+03  0.38007121948E+03  0.00000000000E+00 0. -1.
         -1   -1    0    0    0  501 -0.00000000000E+00 -0.00000000000E+00 -0.11991187301E+03  0.11991187301E+03  0.00000000000E+00 0.  1.
         25    2    1    2    0    0  0.73293830863E+02  0.60681018118E+02  0.13783764510E+03  0.20899481186E+03  0.12500177349E+03 0.  0.
          4    1    3    3  502    0  0.10147306196E+03  0.38967191172E+02  0.61817480671E+02  0.12505294122E+03  0.12700000000E+01 0.  1.
         -4    1    3    3    0  502 -0.28179231101E+02  0.21713826946E+02  0.76020164429E+02  0.83941870637E+02  0.12700000000E+01 0.  1.
          2    1    1    2  503    0 -0.42558587526E+02  0.35991346401E+02  0.16999832626E+03  0.17890232341E+03  0.00000000000E+00 0. -1.
         -2    1    1    2    0  501 -0.30735243337E+02 -0.96672364519E+02 -0.47676624899E+02  0.11208595722E+03  0.00000000000E+00 0.  1.
<mgrwt>
<rscale>  0 0.74064601E+02</rscale>
<asrwt>0</asrwt>
<pdfrwt beam="1">  1        1 0.58472495E-01 0.55736975E+02</pdfrwt>
<pdfrwt beam="2">  1       -1 0.18447981E-01 0.98418780E+02</pdfrwt>
<totfact> 0.14645146E+03</totfact>
</mgrwt>
</event>
<event>
 7    1  0.4252091E-004  0.1218444E+03  0.7546771E-02  0.1352995E+00
          2   -1    0    0  503    0  0.00000000000E+00  0.00000000000E+00  0.16613220126E+04  0.16613220126E+04  0.00000000000E+00 0. -1.
          1   -1    0    0  502    0 -0.00000000000E+00 -0.00000000000E+00 -0.10924546802E+03  0.10924546802E+03  0.00000000000E+00 0. -1.
         25    2    1    2    0    0 -0.75785899040E+02  0.64835479537E+02  0.43217630065E+03  0.46081194129E+03  0.12499659394E+03 0.  0.
          4    1    3    3  501    0  0.80469771785E+01 -0.18195796000E+02  0.19386191173E+03  0.19488431069E+03  0.12700000000E+01 0.  1.
         -4    1    3    3    0  501 -0.83832876219E+02  0.83031275537E+02  0.23831438892E+03  0.26592763060E+03  0.12700000000E+01 0.  1.
          2    1    1    2  502    0  0.64752818783E+02 -0.10608554437E+03 -0.53691129936E+02  0.13538762018E+03  0.00000000000E+00 0. -1.
          1    1    1    2  503    0  0.11033080257E+02  0.41250064831E+02  0.11735913739E+04  0.11743679192E+04  0.00000000000E+00 0. -1.
<mgrwt>
<rscale>  0 0.72130199E+02</rscale>
<asrwt>0</asrwt>
<pdfrwt beam="1">  1        2 0.25558798E+00 0.42700079E+02</pdfrwt>
<pdfrwt beam="2">  1        1 0.16806996E-01 0.12184441E+03</pdfrwt>
<totfact> 0.56068547E+02</totfact>
</mgrwt>
</event>
<event>
 7    1  0.4252091E-004  0.8385586E+02  0.7546771E-02  0.1343372E+00
          1   -1    0    0  502    0 -0.00000000000E+00  0.00000000000E+00  0.15428607636E+03  0.15428607636E+03  0.00000000000E+00 0. -1.
          2   -1    0    0  503    0  0.00000000000E+00 -0.00000000000E+00 -0.38929648729E+03  0.38929648729E+03  0.00000000000E+00 0. -1.
         25    2    1    2    0    0  0.10484302071E+01  0.10222191896E+02 -0.20527472858E+02  0.12708763694E+03  0.12499719160E+03 0.  0.
          4    1    3    3  501    0  0.27709684002E+02 -0.21764850296E+02  0.40182429833E+02  0.53458169284E+02  0.12700000000E+01 0.  1.
         -4    1    3    3    0  501 -0.26661253795E+02  0.31987042192E+02 -0.60709902691E+02  0.73629467653E+02  0.12700000000E+01 0.  1.
          2    1    1    2  502    0 -0.84064284495E+02  0.16173132885E+01  0.76497904984E+02  0.11367211222E+03  0.00000000000E+00 0. -1.
          1    1    1    2  503    0  0.83015854288E+02 -0.11839505185E+02 -0.29098084306E+03  0.30282281449E+03  0.00000000000E+00 0. -1.
<mgrwt>
<rscale>  0 0.75161317E+02</rscale>
<asrwt>0</asrwt>
<pdfrwt beam="2">  1        2 0.59891767E-01 0.83855864E+02</pdfrwt>
<pdfrwt beam="1">  1        1 0.23736320E-01 0.67368259E+02</pdfrwt>
<totfact> 0.22104767E+03</totfact>
</mgrwt>
</event>
<event>
 7    1  0.4252091E-004  0.4598092E+02  0.7546771E-02  0.1468974E+00
          1   -1    0    0  502    0 -0.00000000000E+00  0.00000000000E+00  0.68837874394E+02  0.68837874394E+02  0.00000000000E+00 0. -1.
          2   -1    0    0  503    0  0.00000000000E+00 -0.00000000000E+00 -0.11828241886E+04  0.11828241886E+04  0.00000000000E+00 0. -1.
         25    2    1    2    0    0  0.23038160966E+00 -0.34342752051E+01 -0.16360488523E+03  0.20592107427E+03  0.12500033215E+03 0.  0.
          4    1    3    3  501    0 -0.58517134027E+02  0.19772875680E+02 -0.77000684912E+02  0.98721527360E+02  0.12700000000E+01 0.  1.
         -4    1    3    3    0  501  0.58747515637E+02 -0.23207150885E+02 -0.86604200315E+02  0.10719954691E+03  0.12700000000E+01 0.  1.
          2    1    1    2  502    0 -0.21778356968E+02  0.43805617358E+02  0.34458611900E+02  0.59838322824E+02  0.00000000000E+00 0. -1.
          1    1    1    2  503    0  0.21547975358E+02 -0.40371342153E+02 -0.98484004087E+03  0.98590266589E+03  0.00000000000E+00 0. -1.
<mgrwt>
<rscale>  0 0.45871331E+02</rscale>
<asrwt>0</asrwt>
<pdfrwt beam="2">  1        2 0.18197294E+00 0.45761999E+02</pdfrwt>
<pdfrwt beam="1">  1        1 0.10590443E-01 0.45980924E+02</pdfrwt>
<totfact> 0.16540827E+03</totfact>
</mgrwt>
</event>
<event>
 7    1  0.4252091E-004  0.6957591E+02  0.7546771E-02  0.1463639E+00
          1   -1    0    0  502    0 -0.00000000000E+00  0.00000000000E+00  0.98404851492E+02  0.98404851492E+02  0.00000000000E+00 0. -1.
          2   -1    0    0  503    0  0.00000000000E+00 -0.00000000000E+00 -0.18541483586E+04  0.18541483586E+04  0.00000000000E+00 0. -1.
         25    2    1    2    0    0  0.96184398815E+02  0.26068003416E+02 -0.12750818427E+03  0.20448545043E+03  0.12499993201E+03 0.  0.
          4    1    3    3  501    0  0.52567646813E+02 -0.49052183590E+02 -0.69629073525E+02  0.10009642844E+03  0.12700000000E+01 0. -1.
         -4    1    3    3    0  501  0.43616752003E+02  0.75120187007E+02 -0.57879110748E+02  0.10438902199E+03  0.12700000000E+01 0. -1.
          2    1    1    2  502    0 -0.28264669051E+02 -0.13739679342E+02  0.55038521280E+02  0.63379090635E+02  0.00000000000E+00 0. -1.
          1    1    1    2  503    0 -0.67919729764E+02 -0.12328324075E+02 -0.16832738442E+04  0.16846886691E+04  0.00000000000E+00 0. -1.
<mgrwt>
<rscale>  0 0.46760857E+02</rscale>
<asrwt>0</asrwt>
<pdfrwt beam="2">  1        2 0.28525361E+00 0.69575915E+02</pdfrwt>
<pdfrwt beam="1">  1        1 0.15139207E-01 0.31427222E+02</pdfrwt>
<totfact> 0.45707497E+02</totfact>
</mgrwt>
</event>
<event>
 7    1  0.4252091E-004  0.4086350E+02  0.7546771E-02  0.1509713E+00
          2   -1    0    0  503    0  0.00000000000E+00  0.00000000000E+00  0.21939115774E+04  0.21939115774E+04  0.00000000000E+00 0. -1.
         -2   -1    0    0    0  501 -0.00000000000E+00 -0.00000000000E+00 -0.50577771854E+02  0.50577771854E+02  0.00000000000E+00 0.  1.
         25    2    1    2    0    0  0.40126754014E+00 -0.60332410603E+01  0.11929046052E+03  0.17287239001E+03  0.12497234992E+03 0.  0.
          4    1    3    3  502    0  0.42112671126E+02 -0.30586173144E+01 -0.42349896555E+01  0.42454449079E+02  0.12700000000E+01 0.  1.
         -4    1    3    3    0  502 -0.41711403585E+02 -0.29746237459E+01  0.12352545018E+03  0.13041794093E+03  0.12700000000E+01 0.  1.
          1    1    1    2  503    0 -0.37738686318E+02  0.16429283553E+02  0.20316943926E+04  0.20321112752E+04  0.00000000000E+00 0. -1.
         -1    1    1    2    0  501  0.37337418778E+02 -0.10396042492E+02 -0.76510476145E+01  0.39505684022E+02  0.00000000000E+00 0.  1.
<mgrwt>
<rscale>  0 0.39796682E+02</rscale>
<asrwt>0</asrwt>
<pdfrwt beam="1">  1        2 0.33752479E+00 0.40863499E+02</pdfrwt>
<pdfrwt beam="2">  1       -2 0.77811973E-02 0.38757716E+02</pdfrwt>
<totfact> 0.62467181E+02</totfact>
</mgrwt>
</event>
<event>
 7    1  0.4252091E-004  0.1225105E+03  0.7546771E-02  0.1381219E+00
          2   -1    0    0  503    0  0.00000000000E+00  0.00000000000E+00  0.17285638687E+03  0.17285638687E+03  0.00000000000E+00 0. -1.
         -2   -1    0    0    0  501 -0.00000000000E+00 -0.00000000000E+00 -0.36915199551E+03  0.36915199551E+03  0.00000000000E+00 0.  1.
         25    2    1    2    0    0 -0.12944590606E+03  0.27689473590E+01 -0.13079693657E+03  0.22247881590E+03  0.12500030098E+03 0.  0.
          4    1    3    3  502    0 -0.67379757806E+02  0.57394770767E+02 -0.33151977740E+02  0.94524377816E+02  0.12700000000E+01 0. -1.
         -4    1    3    3    0  502 -0.62066148254E+02 -0.54625823408E+02 -0.97644958829E+02  0.12795443809E+03  0.12700000000E+01 0. -1.
          1    1    1    2  503    0  0.12021451636E+02 -0.31359732074E+02  0.10517062878E+03  0.11040294042E+03  0.00000000000E+00 0. -1.
         -1    1    1    2    0  501  0.11742445442E+03  0.28590784715E+02 -0.17066930085E+03  0.20912662605E+03  0.00000000000E+00 0.  1.
<mgrwt>
<rscale>  0 0.64144421E+02</rscale>
<asrwt>0</asrwt>
<pdfrwt beam="1">  1        2 0.26593291E-01 0.33584939E+02</pdfrwt>
<pdfrwt beam="2">  1       -2 0.56792614E-01 0.12251047E+03</pdfrwt>
<totfact> 0.56632886E+02</totfact>
</mgrwt>
</event>
<event>
 7    1  0.4252091E-004  0.1282428E+03  0.7546771E-02  0.1435890E+00
         -2   -1    0    0    0  501 -0.00000000000E+00  0.00000000000E+00  0.24720948448E+02  0.24720948448E+02  0.00000000000E+00 0.  1.
          2   -1    0    0  503    0  0.00000000000E+00 -0.00000000000E+00 -0.11081612616E+04  0.11081612616E+04  0.00000000000E+00 0. -1.
         25    2    1    2    0    0 -0.12532973988E+03  0.33631090917E+00 -0.65344944405E+03  0.67700004908E+03  0.12500093487E+03 0.  0.
          4    1    3    3  502    0 -0.10840902076E+02 -0.44039715681E+02 -0.28597563077E+03  0.28955257901E+03  0.12700000000E+01 0. -1.
         -4    1    3    3    0  502 -0.11448883780E+03  0.44376026590E+02 -0.36747381328E+03  0.38744747007E+03  0.12700000000E+01 0. -1.
          1    1    1    2  503    0 -0.35605580110E+01 -0.20614390144E+02 -0.63660516394E+02  0.67009641111E+02  0.00000000000E+00 0. -1.
         -1    1    1    2    0  501  0.12889029789E+03  0.20278079235E+02 -0.36633035275E+03  0.38887251990E+03  0.00000000000E+00 0.  1.
<mgrwt>
<rscale>  0 0.51795668E+02</rscale>
<asrwt>0</asrwt>
<pdfrwt beam="2">  1        2 0.17048632E+00 0.20919624E+02</pdfrwt>
<pdfrwt beam="1">  1       -2 0.38032234E-02 0.12824280E+03</pdfrwt>
<totfact> 0.72691804E+03</totfact>
</mgrwt>
</event>
<event>
 7    1  0.4252091E-004  0.6797181E+02  0.7546771E-02  0.1386896E+00
          2   -1    0    0  503    0  0.00000000000E+00  0.00000000000E+00  0.15503357435E+03  0.15503357435E+03  0.00000000000E+00 0. -1.
         -2   -1    0    0    0  501 -0.00000000000E+00 -0.00000000000E+00 -0.12347643284E+04  0.12347643284E+04  0.00000000000E+00 0.  1.
         25    2    1    2    0    0 -0.12236260201E+02  0.27037536581E+02 -0.42929589354E+03  0.44810761291E+03  0.12499885635E+03 0.  0.
          4    1    3    3  502    0  0.42549913335E+02  0.33514132765E+02 -0.33079813652E+03  0.33520547765E+03  0.12700000000E+01 0.  1.
         -4    1    3    3    0  502 -0.54786173536E+02 -0.64765961848E+01 -0.98497757022E+02  0.11290213526E+03  0.12700000000E+01 0.  1.
          1    1    1    2  503    0  0.33989847226E+02  0.46761948436E+02  0.13794307052E+03  0.14956697577E+03  0.00000000000E+00 0. -1.
         -1    1    1    2    0  501 -0.21753587025E+02 -0.73799485016E+02 -0.78837793099E+03  0.79212331401E+03  0.00000000000E+00 0.  1.
<mgrwt>
<rscale>  0 0.62685298E+02</rscale>
<asrwt>0</asrwt>
<pdfrwt beam="1">  1        2 0.23851320E-01 0.57809943E+02</pdfrwt>
<pdfrwt beam="2">  1       -2 0.18996374E+00 0.67971812E+02</pdfrwt>
<totfact> 0.39879989E+01</totfact>
</mgrwt>
</event>
<event>
 7    1  0.4252091E-004  0.2717437E+03  0.7546771E-02  0.1269136E+00
          2   -1    0    0  503    0  0.00000000000E+00  0.00000000000E+00  0.50730098768E+03  0.50730098768E+03  0.00000000000E+00 0. -1.
          1   -1    0    0  502    0 -0.00000000000E+00 -0.00000000000E+00 -0.85054023067E+03  0.85054023067E+03  0.00000000000E+00 0. -1.
         25    2    1    2    0    0  0.20678010834E+03 -0.17000012174E+03  0.24487284488E+03  0.38372671573E+03  0.12500171042E+03 0.  0.
          4    1    3    3  501    0  0.51490692513E+02 -0.91221641239E+01  0.25091545388E+00  0.52308518927E+02  0.12700000000E+01 0. -1.
         -4    1    3    3    0  501  0.15528941583E+03 -0.16087795762E+03  0.24462192942E+03  0.33141819680E+03  0.12700000000E+01 0. -1.
          2    1    1    2  502    0  0.32186798000E+02  0.25331442566E+02 -0.67909208583E+03  0.68032619602E+03  0.00000000000E+00 0. -1.
          1    1    1    2  503    0 -0.23896690634E+03  0.14466867918E+03  0.90979997966E+02  0.29378830659E+03  0.00000000000E+00 0. -1.
<mgrwt>
<rscale>  0 0.10550098E+03</rscale>
<asrwt>0</asrwt>
<pdfrwt beam="1">  1        2 0.78046307E-01 0.27174371E+03</pdfrwt>
<pdfrwt beam="2">  1        1 0.13085234E+00 0.40959394E+02</pdfrwt>
<totfact> 0.19411133E+02</totfact>
</mgrwt>
</event>
<event>
 7    1  0.4252091E-004  0.1353973E+03  0.7546771E-02  0.1397948E+00
          2   -1    0    0  503    0  0.00000000000E+00  0.00000000000E+00  0.71008598270E+03  0.71008598270E+03  0.00000000000E+00 0. -1.
          1   -1    0    0  502    0 -0.00000000000E+00 -0.00000000000E+00 -0.62258377789E+03  0.62258377789E+03  0.00000000000E+00 0. -1.
         25    2    1    2    0    0 -0.10209536364E+03  0.45192375756E+02  0.14217111945E+02  0.16820479599E+03  0.12499965207E+03 0.  0.
          4    1    3    3  501    0 -0.11765062468E+03  0.13974905873E+02 -0.19029177076E+02  0.12000287480E+03  0.12700000000E+01 0. -1.
         -4    1    3    3    0  501  0.15555261041E+02  0.31217469884E+02  0.33246289021E+02  0.48201921182E+02  0.12700000000E+01 0. -1.
          2    1    1    2  502    0  0.12817634770E+03 -0.50234386622E+02 -0.53661173842E+03  0.55398991645E+03  0.00000000000E+00 0. -1.
          3    1    1    2  503    0 -0.26080984068E+02  0.50420108654E+01  0.60989683129E+03  0.61047504816E+03  0.00000000000E+00 0. -1.
<mgrwt>
<rscale>  0 0.59972298E+02</rscale>
<asrwt>0</asrwt>
<pdfrwt beam="1">  1        2 0.10924400E+00 0.26563878E+02</pdfrwt>
<pdfrwt beam="2">  1        1 0.95782119E-01 0.13539727E+03</pdfrwt>
<totfact> 0.20739251E+02</totfact>
</mgrwt>
</event>
<event>
 7    1  0.4252091E-004  0.8929571E+02  0.7546771E-02  0.1348454E+00
          2   -1    0    0  503    0  0.00000000000E+00  0.00000000000E+00  0.95473971518E+03  0.95473971518E+03  0.00000000000E+00 0. -1.
         -2   -1    0    0    0  501 -0.00000000000E+00 -0.00000000000E+00 -0.80154659981E+02  0.80154659981E+02  0.00000000000E+00 0.  1.
         25    2    1    2    0    0 -0.57712827147E+02 -0.12089704805E+03  0.16816521525E+03  0.24870161242E+03  0.12500434295E+03 0.  0.
          4    1    3    3  502    0 -0.75923502828E+01  0.20908604064E+02  0.58383847280E+02  0.62490799562E+02  0.12700000000E+01 0. -1.
         -4    1    3    3    0  502 -0.50120476864E+02 -0.14180565211E+03  0.10978136797E+03  0.18621081286E+03  0.12700000000E+01 0. -1.
          1    1    1    2  503    0  0.44608386053E+02  0.40964127212E+02  0.70249173173E+03  0.70509758259E+03  0.00000000000E+00 0. -1.
         -1    1    1    2    0  501  0.13104441094E+02  0.79932920838E+02  0.39281082225E+01  0.81095180154E+02  0.00000000000E+00 0.  1.
<mgrwt>
<rscale>  0 0.73539669E+02</rscale>
<asrwt>0</asrwt>
<pdfrwt beam="1">  1        2 0.14688303E+00 0.60563750E+02</pdfrwt>
<pdfrwt beam="2">  1       -2 0.12331487E-01 0.89295707E+02</pdfrwt>
<totfact> 0.13449978E+03</totfact>
</mgrwt>
</event>
<event>
 7    1  0.4252091E-004  0.2322426E+03  0.7546771E-02  0.1227603E+00
          2   -1    0    0  503    0  0.00000000000E+00  0.00000000000E+00  0.11804759507E+04  0.11804759507E+04  0.00000000000E+00 0. -1.
          1   -1    0    0  502    0 -0.00000000000E+00 -0.00000000000E+00 -0.44923555221E+03  0.44923555221E+03  0.00000000000E+00 0. -1.
         25    2    1    2    0    0  0.62320045662E+02 -0.18027664073E+03  0.57237949629E+03  0.61613932723E+03  0.12500370999E+03 0.  0.
          4    1    3    3  501    0  0.49253314960E+01 -0.12776406202E+02 -0.30480187322E+01  0.14085409613E+02  0.12700000000E+01 0. -1.
         -4    1    3    3    0  501  0.57394714166E+02 -0.16750023453E+03  0.57542751502E+03  0.60205391762E+03  0.12700000000E+01 0. -1.
          2    1    1    2  502    0 -0.13920740062E+02  0.23446717472E+03 -0.39251809098E+03  0.45742660042E+03  0.00000000000E+00 0. -1.
          1    1    1    2  503    0 -0.48399305599E+02 -0.54190533998E+02  0.55137899314E+03  0.55614557522E+03  0.00000000000E+00 0. -1.
<mgrwt>
<rscale>  0 0.12990057E+03</rscale>
<asrwt>0</asrwt>
<pdfrwt beam="1">  1        2 0.18161168E+00 0.72657462E+02</pdfrwt>
<pdfrwt beam="2">  1        1 0.69113162E-01 0.23224262E+03</pdfrwt>
<totfact> 0.15903196E+02</totfact>
</mgrwt>
</event>
<event>
 7    1  0.4252091E-004  0.1963462E+03  0.7546771E-02  0.1283710E+00
         -2   -1    0    0    0  501 -0.00000000000E+00  0.00000000000E+00  0.19389368063E+03  0.19389368063E+03  0.00000000000E+00 0.  1.
          2   -1    0    0  503    0  0.00000000000E+00 -0.00000000000E+00 -0.10532744367E+04  0.10532744367E+04  0.00000000000E+00 0. -1.
         25    2    1    2    0    0 -0.11616459429E+03 -0.15399201431E+03 -0.35437631365E+03  0.42239428151E+03  0.12500641560E+03 0.  0.
          4    1    3    3  502    0 -0.55066768040E+02 -0.12928991657E+03 -0.31667867040E+03  0.34646100019E+03  0.12700000000E+01 0. -1.
         -4    1    3    3    0  502 -0.61097826251E+02 -0.24702097740E+02 -0.37697643250E+02  0.75933281320E+02  0.12700000000E+01 0. -1.
          1    1    1    2  503    0 -0.38501977888E+02  0.30803423605E+02 -0.60236075816E+03  0.60437549270E+03  0.00000000000E+00 0. -1.
         -1    1    1    2    0  501  0.15466657218E+03  0.12318859071E+03  0.97356315744E+02  0.22039834311E+03  0.00000000000E+00 0.  1.
<mgrwt>
<rscale>  0 0.98394035E+02</rscale>
<asrwt>0</asrwt>
<pdfrwt beam="2">  1        2 0.16204222E+00 0.49307740E+02</pdfrwt>
<pdfrwt beam="1">  1       -2 0.29829797E-01 0.19634618E+03</pdfrwt>
<totfact> 0.27706620E+02</totfact>
</mgrwt>
</event>
<event>
 7    1  0.4252091E-004  0.4703081E+02  0.7546771E-02  0.1514421E+00
          1   -1    0    0  502    0 -0.00000000000E+00  0.00000000000E+00  0.96256272449E+03  0.96256272449E+03  0.00000000000E+00 0. -1.
          2   -1    0    0  503    0  0.00000000000E+00 -0.00000000000E+00 -0.35246762003E+03  0.35246762003E+03  0.00000000000E+00 0. -1.
         25    2    1    2    0    0  0.30186971575E+02  0.73026879551E+02  0.77011096228E+03  0.78417888901E+03  0.12498582860E+03 0.  0.
          4    1    3    3  501    0 -0.45280416184E+02  0.78576408277E+01  0.30959997042E+03  0.31299490922E+03  0.12700000000E+01 0.  1.
         -4    1    3    3    0  501  0.75467387759E+02  0.65169238723E+02  0.46051099186E+03  0.47118397979E+03  0.12700000000E+01 0.  1.
          2    1    1    2  502    0 -0.80280118428E+01 -0.31617331737E+02  0.18236745307E+03  0.18526195665E+03  0.00000000000E+00 0. -1.
          1    1    1    2  503    0 -0.22158959732E+02 -0.41409547814E+02 -0.34238331089E+03  0.34558949886E+03  0.00000000000E+00 0. -1.
<mgrwt>
<rscale>  0 0.39168535E+02</rscale>
<asrwt>0</asrwt>
<pdfrwt beam="2">  1        2 0.54225788E-01 0.47030813E+02</pdfrwt>
<pdfrwt beam="1">  1        1 0.14808657E+00 0.32620617E+02</pdfrwt>
<totfact> 0.24412500E+02</totfact>
</mgrwt>
</event>
<event>
 7    1  0.4252091E-004  0.4878925E+02  0.7546771E-02  0.1474448E+00
          2   -1    0    0  503    0  0.00000000000E+00  0.00000000000E+00  0.83544834809E+03  0.83544834809E+03  0.00000000000E+00 0. -1.
          1   -1    0    0  502    0 -0.00000000000E+00 -0.00000000000E+00 -0.11346603134E+04  0.11346603134E+04  0.00000000000E+00 0. -1.
         25    2    1    2    0    0 -0.65574463326E+02 -0.36886678362E+02 -0.48004583430E+01  0.14597504870E+03  0.12500013264E+03 0.  0.
          4    1    3    3  501    0 -0.32371439242E+02 -0.82590539251E+02 -0.97588161305E+01  0.89252196862E+02  0.12700000000E+01 0. -1.
         -4    1    3    3    0  501 -0.33203024084E+02  0.45703860889E+02  0.49583577875E+01  0.56722851836E+02  0.12700000000E+01 0. -1.
          2    1    1    2  502    0  0.41151787426E+02 -0.51578705648E+01 -0.10580931380E+04  0.10589056436E+04  0.00000000000E+00 0. -1.
          1    1    1    2  503    0  0.24422675901E+02  0.42044548927E+02  0.76368163109E+03  0.76522796920E+03  0.00000000000E+00 0. -1.
<mgrwt>
<rscale>  0 0.44983042E+02</rscale>
<asrwt>0</asrwt>
<pdfrwt beam="1">  1        2 0.12853052E+00 0.48789253E+02</pdfrwt>
<pdfrwt beam="2">  1        1 0.17456312E+00 0.41473766E+02</pdfrwt>
<totfact> 0.72176759E+01</totfact>
</mgrwt>
</event>
<event>
 7    1  0.4252091E-004  0.1076775E+03  0.7546771E-02  0.1299204E+00
         -1   -1    0    0    0  501 -0.00000000000E+00  0.00000000000E+00  0.13148733178E+03  0.13148733178E+03  0.00000000000E+00 0.  1.
          1   -1    0    0  503    0  0.00000000000E+00 -0.00000000000E+00 -0.50488619026E+03  0.50488619026E+03  0.00000000000E+00 0. -1.
         25    2    1    2    0    0  0.11879373412E+03  0.13356750297E+02 -0.14796484121E+02  0.17359153716E+03  0.12499892713E+03 0.  0.
          4    1    3    3  502    0 -0.45555297788E+00 -0.56280109347E+01 -0.48003592935E+02  0.48351213741E+02  0.12700000000E+01 0.  1.
         -4    1    3    3    0  502  0.11924928710E+03  0.18984761232E+02  0.33207108814E+02  0.12524032342E+03  0.12700000000E+01 0.  1.
          2    1    1    2  503    0 -0.25977769195E+02 -0.73327020623E+02 -0.34236390172E+03  0.35109078262E+03  0.00000000000E+00 0. -1.
         -2    1    1    2    0  501 -0.92815964930E+02  0.59970270325E+02 -0.16238472640E+02  0.11169120226E+03  0.00000000000E+00 0.  1.
<mgrwt>
<rscale>  0 0.91523327E+02</rscale>
<asrwt>0</asrwt>
<pdfrwt beam="2">  1        1 0.77674800E-01 0.77792650E+02</pdfrwt>
<pdfrwt beam="1">  1       -1 0.20228820E-01 0.10767752E+03</pdfrwt>
<totfact> 0.88727784E+02</totfact>
</mgrwt>
</event>
<event>
 7    1  0.4252091E-004  0.7877081E+02  0.7546771E-02  0.1357369E+00
          1   -1    0    0  502    0 -0.00000000000E+00  0.00000000000E+00  0.53612164751E+03  0.53612164751E+03  0.00000000000E+00 0. -1.
          2   -1    0    0  503    0  0.00000000000E+00 -0.00000000000E+00 -0.11753140184E+04  0.11753140184E+04  0.00000000000E+00 0. -1.
         25    2    1    2    0    0  0.12116716510E+03 -0.56767207369E+02 -0.14318899734E+03  0.23245973833E+03  0.12502177112E+03 0.  0.
          4    1    3    3  501    0  0.44392913124E+02 -0.14602924416E+02 -0.13686811199E+03  0.14463218562E+03  0.12700000000E+01 0.  1.
         -4    1    3    3    0  501  0.76774251975E+02 -0.42164282953E+02 -0.63208853471E+01  0.87827552709E+02  0.12700000000E+01 0.  1.
          2    1    1    2  502    0 -0.77217408870E+02  0.10727740972E+02  0.48735948400E+03  0.49355534573E+03  0.00000000000E+00 0. -1.
          1    1    1    2  503    0 -0.43949756230E+02  0.46039466397E+02 -0.98336285751E+03  0.98542058182E+03  0.00000000000E+00 0. -1.
<mgrwt>
<rscale>  0 0.70807447E+02</rscale>
<asrwt>0</asrwt>
<pdfrwt beam="2">  1        2 0.18081754E+00 0.63649144E+02</pdfrwt>
<pdfrwt beam="1">  1        1 0.82480253E-01 0.78770808E+02</pdfrwt>
<totfact> 0.13149189E+02</totfact>
</mgrwt>
</event>
<event>
 7    1  0.4252091E-004  0.4583222E+02  0.7546771E-02  0.1556909E+00
          2   -1    0    0  503    0  0.00000000000E+00  0.00000000000E+00  0.64958677288E+03  0.64958677288E+03  0.00000000000E+00 0. -1.
          1   -1    0    0  502    0 -0.00000000000E+00 -0.00000000000E+00 -0.20773127397E+03  0.20773127397E+03  0.00000000000E+00 0. -1.
         25    2    1    2    0    0  0.23782502010E+02  0.21391303309E+01  0.14443696366E+03  0.19245800867E+03  0.12493144260E+03 0.  0.
          4    1    3    3  501    0  0.51050143663E+02  0.46969851892E+02  0.54105991573E+02  0.87984972460E+02  0.12700000000E+01 0.  1.
         -4    1    3    3    0  501 -0.27267641653E+02 -0.44830721561E+02  0.90330972087E+02  0.10447303621E+03  0.12700000000E+01 0.  1.
          2    1    1    2  502    0  0.19351507746E+02  0.16365510223E+02 -0.18169447354E+03  0.18345351589E+03  0.00000000000E+00 0. -1.
          1    1    1    2  503    0 -0.43134009756E+02 -0.18504640554E+02  0.47911300878E+03  0.48140652229E+03  0.00000000000E+00 0. -1.
<mgrwt>
<rscale>  0 0.34081740E+02</rscale>
<asrwt>0</asrwt>
<pdfrwt beam="1">  1        2 0.99936426E-01 0.45832221E+02</pdfrwt>
<pdfrwt beam="2">  1        1 0.31958658E-01 0.25343851E+02</pdfrwt>
<totfact> 0.87586118E+02</totfact>
</mgrwt>
</event>
<event>
 7    1  0.4252091E-004  0.6007269E+02  0.7546771E-02  0.1432913E+00
          1   -1    0    0  502    0 -0.00000000000E+00  0.00000000000E+00  0.43763151870E+03  0.43763151870E+03  0.00000000000E+00 0. -1.
          2   -1    0    0  503    0  0.00000000000E+00 -0.00000000000E+00 -0.95145045598E+03  0.95145045598E+03  0.00000000000E+00 0. -1.
         25    2    1    2    0    0 -0.45815188381E+02  0.11429676585E+02 -0.49245924815E+03  0.51026598682E+03  0.12500238886E+03 0.  0.
          4    1    3    3  501    0 -0.33482352139E+02  0.50263984168E+02 -0.43848736341E+03  0.44262887025E+03  0.12700000000E+01 0.  1.
         -4    1    3    3    0  501 -0.12332836242E+02 -0.38834307583E+02 -0.53971884744E+02  0.67637116571E+02  0.12700000000E+01 0.  1.
          2    1    1    2  502    0 -0.12392046598E+02 -0.43958745024E+02  0.42502835996E+03  0.42747519326E+03  0.00000000000E+00 0. -1.
          1    1    1    2  503    0  0.58207234980E+02  0.32529068439E+02 -0.44638804909E+03  0.45134079460E+03  0.00000000000E+00 0. -1.
<mgrwt>
<rscale>  0 0.52379780E+02</rscale>
<asrwt>0</asrwt>
<pdfrwt beam="2">  1        2 0.14637699E+00 0.60072686E+02</pdfrwt>
<pdfrwt beam="1">  1        1 0.67327926E-01 0.45672027E+02</pdfrwt>
<totfact> 0.22981206E+02</totfact>
</mgrwt>
</event>
<event>
 7    1  0.4252091E-004  0.6261108E+02  0.7546771E-02  0.1403948E+00
          2   -1    0    0  503    0  0.00000000000E+00  0.00000000000E+00  0.17393331551E+04  0.17393331551E+04  0.00000000000E+00 0. -1.
          1   -1    0    0  502    0 -0.00000000000E+00 -0.00000000000E+00 -0.11609478049E+03  0.11609478049E+03  0.00000000000E+00 0. -1.
         25    2    1    2    0    0  0.77891116987E+02 -0.34706934239E+02  0.12775896506E+03  0.19804447780E+03  0.12501065813E+03 0.  0.
          4    1    3    3  501    0  0.10039427115E+02  0.30200782376E+02 -0.81231131101E+01  0.32870582889E+02  0.12700000000E+01 0.  1.
         -4    1    3    3    0  501  0.67851689872E+02 -0.64907716614E+02  0.13588207817E+03  0.16517389491E+03  0.12700000000E+01 0.  1.
          2    1    1    2  502    0 -0.27388283126E+02  0.55935934895E+02 -0.68421859189E+02  0.92522957584E+02  0.00000000000E+00 0. -1.
          1    1    1    2  503    0 -0.50502833861E+02 -0.21229000656E+02  0.15639012687E+04  0.15648605002E+04  0.00000000000E+00 0. -1.
<mgrwt>
<rscale>  0 0.58566543E+02</rscale>
<asrwt>0</asrwt>
<pdfrwt beam="1">  1        2 0.26758970E+00 0.54783270E+02</pdfrwt>
<pdfrwt beam="2">  1        1 0.17860737E-01 0.62611084E+02</pdfrwt>
<totfact> 0.45145107E+02</totfact>
</mgrwt>
</event>
<event>
 7    1  0.4252091E-004  0.2070113E+03  0.7546771E-02  0.1301766E+00
         -1   -1    0    0    0  501 -0.00000000000E+00  0.00000000000E+00  0.21816056544E+03  0.21816056544E+03  0.00000000000E+00 0.  1.
          1   -1    0    0  503    0  0.00000000000E+00 -0.00000000000E+00 -0.23765534265E+04  0.23765534265E+04  0.00000000000E+00 0. -1.
         25    2    1    2    0    0  0.22620127075E+03  0.36265462011E+02 -0.68425380370E+03  0.73233249504E+03  0.12500166712E+03 0.  0.
          4    1    3    3  502    0  0.13846633122E+03 -0.21738122754E+01 -0.23323185054E+03  0.27124962553E+03  0.12700000000E+01 0. -1.
         -4    1    3    3    0  502  0.87734939529E+02  0.38439274287E+02 -0.45102195316E+03  0.46108286951E+03  0.12700000000E+01 0. -1.
          2    1    1    2  503    0 -0.19325618967E+03 -0.58094297405E+02 -0.16600732286E+04  0.16722936424E+04  0.00000000000E+00 0. -1.
         -2    1    1    2    0  501 -0.32945081085E+02  0.21828835393E+02  0.18593417118E+03  0.19008785452E+03  0.00000000000E+00 0.  1.
<mgrwt>
<rscale>  0 0.90450034E+02</rscale>
<asrwt>0</asrwt>
<pdfrwt beam="2">  1        1 0.36562360E+00 0.20701134E+03</pdfrwt>
<pdfrwt beam="1">  1       -1 0.33563164E-01 0.39520582E+02</pdfrwt>
<totfact> 0.16460268E+01</totfact>
</mgrwt>
</event>
<event>
 7    1  0.4252091E-004  0.7102910E+02  0.7546771E-02  0.1490717E+00
          2   -1    0    0  503    0  0.00000000000E+00  0.00000000000E+00  0.36443518059E+03  0.36443518059E+03  0.00000000000E+00 0. -1.
          1   -1    0    0  502    0 -0.00000000000E+00 -0.00000000000E+00 -0.11423635185E+04  0.11423635185E+04  0.00000000000E+00 0. -1.
         25    2    1    2    0    0 -0.57958994510E+02 -0.72246252859E+02  0.10174031529E+03  0.18589255663E+03  0.12500473895E+03 0.  0.
          4    1    3    3  501    0 -0.15450623396E+02  0.34363649285E+02  0.10128667344E+02  0.39035688257E+02  0.12700000000E+01 0.  1.
         -4    1    3    3    0  501 -0.42508371114E+02 -0.10660990214E+03  0.91611647941E+02  0.14685686837E+03  0.12700000000E+01 0.  1.
          2    1    1    2  502    0  0.52687917123E+02  0.47393500960E+02 -0.10984103261E+04  0.11006940561E+04  0.00000000000E+00 0. -1.
          1    1    1    2  503    0  0.52710773871E+01  0.24852751899E+02  0.21874167290E+03  0.22021208640E+03  0.00000000000E+00 0. -1.
<mgrwt>
<rscale>  0 0.42479824E+02</rscale>
<asrwt>0</asrwt>
<pdfrwt beam="1">  1        2 0.56066952E-01 0.25405581E+02</pdfrwt>
<pdfrwt beam="2">  1        1 0.17574823E+00 0.71029095E+02</pdfrwt>
<totfact> 0.16731423E+02</totfact>
</mgrwt>
</event>
<event>
 7    1  0.4252091E-004  0.1243764E+03  0.7546771E-02  0.1342005E+00
          2   -1    0    0  503    0  0.00000000000E+00  0.00000000000E+00  0.26075318868E+04  0.26075318868E+04  0.00000000000E+00 0. -1.
          1   -1    0    0  502    0 -0.00000000000E+00 -0.00000000000E+00 -0.40176231327E+02  0.40176231327E+02  0.00000000000E+00 0. -1.
         25    2    1    2    0    0 -0.98873870669E+02  0.19299088000E+02  0.28376808993E+03  0.32603627476E+03  0.12500730580E+03 0.  0.
          4    1    3    3  501    0 -0.84180355816E+02  0.43414545533E+02  0.28225748502E+03  0.29772815759E+03  0.12700000000E+01 0.  1.
         -4    1    3    3    0  501 -0.14693514853E+02 -0.24115457533E+02  0.15106049019E+01  0.28308117174E+02  0.12700000000E+01 0.  1.
          2    1    1    2  502    0  0.14299612786E+03 -0.32163334416E+02  0.26718941437E+03  0.30474998903E+03  0.00000000000E+00 0. -1.
          1    1    1    2  503    0 -0.44122257187E+02  0.12864246416E+02  0.20163981512E+04  0.20169218543E+04  0.00000000000E+00 0. -1.
<mgrwt>
<rscale>  0 0.75605948E+02</rscale>
<asrwt>0</asrwt>
<pdfrwt beam="1">  1        2 0.40115862E+00 0.45959356E+02</pdfrwt>
<pdfrwt beam="2">  1        1 0.61809607E-02 0.12437640E+03</pdfrwt>
<totfact> 0.71236320E+02</totfact>
</mgrwt>
</event>
<event>
 7    1  0.4252091E-004  0.1720103E+03  0.7546771E-02  0.1314720E+00
          2   -1    0    0  503    0  0.00000000000E+00  0.00000000000E+00  0.23681955158E+04  0.23681955158E+04  0.00000000000E+00 0. -1.
          1   -1    0    0  502    0 -0.00000000000E+00 -0.00000000000E+00 -0.66772574093E+03  0.66772574093E+03  0.00000000000E+00 0. -1.
         25    2    1    2    0    0  0.91895190509E+02 -0.15121902932E+03  0.82223400733E+03  0.85029842086E+03  0.12500688317E+03 0.  0.
          4    1    3    3  501    0  0.98955472707E+02 -0.48036265133E+02  0.49635039607E+03  0.50839452881E+03  0.12700000000E+01 0.  1.
         -4    1    3    3    0  501 -0.70602821986E+01 -0.10318276418E+03  0.32588361126E+03  0.34190389205E+03  0.12700000000E+01 0.  1.
          2    1    1    2  502    0 -0.12186059215E+03  0.12140046008E+03 -0.64207890812E+03  0.66472054269E+03  0.00000000000E+00 0. -1.
          3    1    1    2  503    0  0.29965401644E+02  0.29818569237E+02  0.15203146756E+04  0.15209022932E+04  0.00000000000E+00 0. -1.
<mgrwt>
<rscale>  0 0.85273244E+02</rscale>
<asrwt>0</asrwt>
<pdfrwt beam="1">  1        2 0.36433777E+00 0.42273779E+02</pdfrwt>
<pdfrwt beam="2">  1        1 0.10272704E+00 0.17201032E+03</pdfrwt>
<totfact> 0.25382028E+01</totfact>
</mgrwt>
</event>
<event>
 7    1  0.4252091E-004  0.1303167E+03  0.7546771E-02  0.1253482E+00
          2   -1    0    0  503    0  0.00000000000E+00  0.00000000000E+00  0.10478027336E+04  0.10478027336E+04  0.00000000000E+00 0. -1.
          1   -1    0    0  502    0 -0.00000000000E+00 -0.00000000000E+00 -0.14908561520E+04  0.14908561520E+04  0.00000000000E+00 0. -1.
         25    2    1    2    0    0  0.35179380415E+02  0.23559182701E+02 -0.26428769032E+03  0.29540586609E+03  0.12499607423E+03 0.  0.
          4    1    3    3  501    0 -0.15789461046E+02  0.12407828188E+02  0.53041104562E+01  0.20808838704E+02  0.12700000000E+01 0.  1.
         -4    1    3    3    0  501  0.50968841461E+02  0.11151354514E+02 -0.26959180077E+03  0.27459702739E+03  0.12700000000E+01 0.  1.
          2    1    1    2  502    0  0.96568748815E+02 -0.24313638078E+02 -0.12047426694E+04  0.12088513456E+04  0.00000000000E+00 0. -1.
          1    1    1    2  503    0 -0.13174812923E+03  0.75445537682E+00  0.10259769413E+04  0.10344016739E+04  0.00000000000E+00 0. -1.
<mgrwt>
<rscale>  0 0.11391779E+03</rscale>
<asrwt>0</asrwt>
<pdfrwt beam="1">  1        2 0.16120042E+00 0.13031669E+03</pdfrwt>
<pdfrwt beam="2">  1        1 0.22936248E+00 0.99582510E+02</pdfrwt>
<totfact> 0.27931397E+01</totfact>
</mgrwt>
</event>
<event>
 7    1  0.4252091E-004  0.1286106E+03  0.7546771E-02  0.1324375E+00
          1   -1    0    0  502    0 -0.00000000000E+00  0.00000000000E+00  0.23228229622E+04  0.23228229622E+04  0.00000000000E+00 0. -1.
          2   -1    0    0  503    0  0.00000000000E+00 -0.00000000000E+00 -0.34331335435E+04  0.34331335435E+04  0.00000000000E+00 0. -1.
         25    2    1    2    0    0 -0.69192641791E+02  0.39281473048E+02 -0.14409275897E+03  0.20668714711E+03  0.12500479107E+03 0.  0.
          4    1    3    3  501    0 -0.75634250521E+02 -0.59197216242E+01 -0.14195581930E+03  0.16096164292E+03  0.12700000000E+01 0. -1.
         -4    1    3    3    0  501  0.64416087301E+01  0.45201194672E+02 -0.21369396652E+01  0.45725504196E+02  0.12700000000E+01 0. -1.
          2    1    1    2  502    0 -0.49587858886E+02  0.15193461803E+02  0.22899215904E+04  0.22905088271E+04  0.00000000000E+00 0. -1.
          1    1    1    2  503    0  0.11878050068E+03 -0.54474934850E+02 -0.32561394127E+04  0.32587605314E+04  0.00000000000E+00 0. -1.
<mgrwt>
<rscale>  0 0.81671061E+02</rscale>
<asrwt>0</asrwt>
<pdfrwt beam="2">  1        2 0.52817439E+00 0.12861056E+03</pdfrwt>
<pdfrwt beam="1">  1        1 0.35735738E+00 0.51863253E+02</pdfrwt>
<totfact> 0.45879687E-01</totfact>
</mgrwt>
</event>
<event>
 7    1  0.4252091E-004  0.6747946E+02  0.7546771E-02  0.1400030E+00
         -2   -1    0    0    0  501  0.00000000000E+00  0.00000000000E+00  0.21487258946E+03  0.21487258946E+03  0.00000000000E+00 0.  1.
         -1   -1    0    0    0  502 -0.00000000000E+00 -0.00000000000E+00 -0.84550678273E+03  0.84550678273E+03  0.00000000000E+00 0.  1.
         25    2    1    2    0    0 -0.75177755170E+01  0.56703914826E+02 -0.95499264097E+02  0.16738303343E+03  0.12500047813E+03 0.  0.
          4    1    3    3  503    0  0.24171542044E+02 -0.12889664287E+02  0.16319499204E+02  0.31911531528E+02  0.12700000000E+01 0.  1.
         -4    1    3    3    0  503 -0.31689317561E+02  0.69593579113E+02 -0.11181876330E+03  0.13547150190E+03  0.12700000000E+01 0.  1.
         -2    1    1    2    0  502 -0.44723826935E+02 -0.52292455215E+02 -0.70852243587E+03  0.71185585880E+03  0.00000000000E+00 0.  1.
         -1    1    1    2    0  501  0.52241602452E+02 -0.44114596109E+01  0.17338750669E+03  0.18114047996E+03  0.00000000000E+00 0.  1.
<mgrwt>
<rscale>  0 0.59479251E+02</rscale>
<asrwt>0</asrwt>
<pdfrwt beam="1">  1       -2 0.33057322E-01 0.52427531E+02</pdfrwt>
<pdfrwt beam="2">  1       -1 0.13007797E+00 0.67479456E+02</pdfrwt>
<totfact> 0.36560785E+01</totfact>
</mgrwt>
</event>
<event>
 7    1  0.4252091E-004  0.9626705E+02  0.7546771E-02  0.1377009E+00
         -2   -1    0    0    0  501 -0.00000000000E+00  0.00000000000E+00  0.42553618684E+02  0.42553618684E+02  0.00000000000E+00 0.  1.
          2   -1    0    0  503    0  0.00000000000E+00 -0.00000000000E+00 -0.56810758109E+03  0.56810758109E+03  0.00000000000E+00 0. -1.
         25    2    1    2    0    0 -0.48988769071E+02  0.96540037371E+02 -0.24482155470E+03  0.29543565200E+03  0.12499901006E+03 0.  0.
          4    1    3    3  502    0  0.94535041687E+01 -0.26267997453E+02 -0.57640118646E+02  0.64057572611E+02  0.12700000000E+01 0. -1.
         -4    1    3    3    0  502 -0.58442273240E+02  0.12280803482E+03 -0.18718143605E+03  0.23137807939E+03  0.12700000000E+01 0. -1.
          1    1    1    2  503    0  0.73126541887E+02 -0.59470470304E+02 -0.22589182838E+03  0.24476794336E+03  0.00000000000E+00 0. -1.
         -1    1    1    2    0  501 -0.24137772816E+02 -0.37069567067E+02 -0.54840579322E+02  0.70457604411E+02  0.00000000000E+00 0.  1.
<mgrwt>
<rscale>  0 0.65256624E+02</rscale>
<asrwt>0</asrwt>
<pdfrwt beam="2">  1        2 0.87401163E-01 0.96267051E+02</pdfrwt>
<pdfrwt beam="1">  1       -2 0.65467108E-02 0.44235561E+02</pdfrwt>
<totfact> 0.60819749E+03</totfact>
</mgrwt>
</event>
<event>
 7    1  0.4252091E-004  0.4740749E+02  0.7546771E-02  0.1495698E+00
          2   -1    0    0  503    0  0.00000000000E+00  0.00000000000E+00  0.75848088506E+03  0.75848088506E+03  0.00000000000E+00 0. -1.
          1   -1    0    0  502    0 -0.00000000000E+00 -0.00000000000E+00 -0.26623895697E+02  0.26623895697E+02  0.00000000000E+00 0. -1.
         25    2    1    2    0    0 -0.39290322762E+02 -0.30999749354E+02  0.23273742937E+03  0.26887952549E+03  0.12499909711E+03 0.  0.
          4    1    3    3  501    0 -0.66167105244E+02  0.25074955577E+02  0.14481066803E+03  0.16117872592E+03  0.12700000000E+01 0.  1.
         -4    1    3    3    0  501  0.26876782483E+02 -0.56074704931E+02  0.87926761333E+02  0.10770079957E+03  0.12700000000E+01 0.  1.
          2    1    1    2  502    0  0.74377679405E+01  0.49373174087E+02  0.72535434034E+02  0.88059184085E+02  0.00000000000E+00 0. -1.
          1    1    1    2  503    0  0.31852554821E+02 -0.18373424733E+02  0.42658412596E+03  0.42816607118E+03  0.00000000000E+00 0. -1.
<mgrwt>
<rscale>  0 0.41752373E+02</rscale>
<asrwt>0</asrwt>
<pdfrwt beam="1">  1        2 0.11668935E+00 0.36771837E+02</pdfrwt>
<pdfrwt beam="2">  1        1 0.40959845E-02 0.47407494E+02</pdfrwt>
<totfact> 0.10184766E+04</totfact>
</mgrwt>
</event>
<event>
 7    1  0.4252091E-004  0.1138150E+03  0.7546771E-02  0.1304696E+00
          1   -1    0    0  502    0 -0.00000000000E+00  0.00000000000E+00  0.39289441148E+03  0.39289441148E+03  0.00000000000E+00 0. -1.
          2   -1    0    0  503    0  0.00000000000E+00 -0.00000000000E+00 -0.37135130290E+03  0.37135130290E+03  0.00000000000E+00 0. -1.
         25    2    1    2    0    0  0.11350233613E+03 -0.12186387486E+03 -0.92671320025E+02  0.22788563334E+03  0.12494120227E+03 0.  0.
          4    1    3    3  501    0 -0.11230681464E+02 -0.44286892912E+02  0.12307736452E+02  0.47334452215E+02  0.12700000000E+01 0. -1.
         -4    1    3    3    0  501  0.12473301760E+03 -0.77576981947E+02 -0.10497905648E+03  0.18055118112E+03  0.12700000000E+01 0. -1.
          2    1    1    2  502    0 -0.26110286346E+02  0.64921871795E+02  0.30823545815E+03  0.31607862021E+03  0.00000000000E+00 0. -1.
          1    1    1    2  503    0 -0.87392049788E+02  0.56942003064E+02 -0.19402102955E+03  0.22028146083E+03  0.00000000000E+00 0. -1.
<mgrwt>
<rscale>  0 0.89242833E+02</rscale>
<asrwt>0</asrwt>
<pdfrwt beam="2">  1        2 0.57130969E-01 0.11381501E+03</pdfrwt>
<pdfrwt beam="1">  1        1 0.60445294E-01 0.69975685E+02</pdfrwt>
<totfact> 0.74575477E+02</totfact>
</mgrwt>
</event>
<event>
 7    1  0.4252091E-004  0.6871036E+02  0.7546771E-02  0.1428116E+00
          2   -1    0    0  503    0  0.00000000000E+00  0.00000000000E+00  0.50521963937E+03  0.50521963937E+03  0.00000000000E+00 0. -1.
          1   -1    0    0  502    0 -0.00000000000E+00 -0.00000000000E+00 -0.96544460836E+02  0.96544460836E+02  0.00000000000E+00 0. -1.
         25    2    1    2    0    0 -0.42133102940E+01 -0.10519344231E+03  0.18102261171E+03  0.24388293107E+03  0.12500514321E+03 0.  0.
          4    1    3    3  501    0  0.22872792140E+02  0.22810107752E+02  0.30559481620E+02  0.44485508347E+02  0.12700000000E+01 0.  1.
         -4    1    3    3    0  501 -0.27086102434E+02 -0.12800355006E+03  0.15046313009E+03  0.19939742273E+03  0.12700000000E+01 0.  1.
          2    1    1    2  502    0 -0.40465708307E+01  0.41209946813E+02 -0.54500397897E+02  0.68446532584E+02  0.00000000000E+00 0. -1.
          1    1    1    2  503    0  0.82598811247E+01  0.63983495499E+02  0.28215296472E+03  0.28943463654E+03  0.00000000000E+00 0. -1.
<mgrwt>
<rscale>  0 0.53340121E+02</rscale>
<asrwt>0</asrwt>
<pdfrwt beam="1">  1        2 0.77726097E-01 0.68710358E+02</pdfrwt>
<pdfrwt beam="2">  1        1 0.14852994E-01 0.41408145E+02</pdfrwt>
<totfact> 0.29366105E+03</totfact>
</mgrwt>
</event>
<event>
 7    1  0.4252091E-004  0.7046633E+02  0.7546771E-02  0.1502036E+00
          2   -1    0    0  503    0  0.00000000000E+00  0.00000000000E+00  0.33310769258E+03  0.33310769258E+03  0.00000000000E+00 0. -1.
          1   -1    0    0  502    0 -0.00000000000E+00 -0.00000000000E+00 -0.11092308901E+03  0.11092308901E+03  0.00000000000E+00 0. -1.
         25    2    1    2    0    0  0.66123705712E+02  0.38248137369E+02  0.14879456645E+03  0.20880655847E+03  0.12500036554E+03 0.  0.
          4    1    3    3  501    0 -0.21001867149E+02  0.75482524537E+01  0.10355434886E+03  0.10593946671E+03  0.12700000000E+01 0.  1.
         -4    1    3    3    0  501  0.87125572861E+02  0.30699884915E+02  0.45240217595E+02  0.10286709177E+03  0.12700000000E+01 0.  1.
          2    1    1    2  502    0 -0.68693151462E+02 -0.14704855347E+02 -0.64467636675E+02  0.95347039843E+02  0.00000000000E+00 0. -1.
          1    1    1    2  503    0  0.25694457493E+01 -0.23543282022E+02  0.13785767379E+03  0.13987718328E+03  0.00000000000E+00 0. -1.
<mgrwt>
<rscale>  0 0.40851677E+02</rscale>
<asrwt>0</asrwt>
<pdfrwt beam="1">  1        2 0.51247337E-01 0.23683078E+02</pdfrwt>
<pdfrwt beam="2">  1        1 0.17065091E-01 0.70466328E+02</pdfrwt>
<totfact> 0.38869767E+03</totfact>
</mgrwt>
</event>
<event>
 7    1  0.4252091E-004  0.1585899E+03  0.7546771E-02  0.1329604E+00
         -2   -1    0    0    0  501 -0.00000000000E+00  0.00000000000E+00  0.51380834710E+03  0.51380834710E+03  0.00000000000E+00 0.  1.
          2   -1    0    0  503    0  0.00000000000E+00 -0.00000000000E+00 -0.13333039533E+04  0.13333039533E+04  0.00000000000E+00 0. -1.
         25    2    1    2    0    0  0.11538333382E+02 -0.15569422892E+03  0.76355681236E+02  0.21408023708E+03  0.12500532706E+03 0.  0.
          4    1    3    3  502    0 -0.33133115484E+01 -0.17513367371E+03  0.70959877854E+02  0.18899655782E+03  0.12700000000E+01 0.  1.
         -4    1    3    3    0  502  0.14851644930E+02  0.19439444794E+02  0.53958033816E+01  0.25083679259E+02  0.12700000000E+01 0.  1.
          1    1    1    2  503    0 -0.51336789723E+02  0.15031831784E+03 -0.12583397879E+04  0.12683257013E+04  0.00000000000E+00 0. -1.
         -1    1    1    2    0  501  0.39798456341E+02  0.53759110821E+01  0.36248850048E+03  0.36470636206E+03  0.00000000000E+00 0.  1.
<mgrwt>
<rscale>  0 0.79805717E+02</rscale>
<asrwt>0</asrwt>
<pdfrwt beam="2">  1        2 0.20512368E+00 0.15858985E+03</pdfrwt>
<pdfrwt beam="1">  1       -2 0.79047440E-01 0.40159900E+02</pdfrwt>
<totfact> 0.26795160E+01</totfact>
</mgrwt>
</event>
<event>
 7    1  0.4252091E-004  0.7522708E+02  0.7546771E-02  0.1483863E+00
          1   -1    0    0  502    0 -0.00000000000E+00  0.00000000000E+00  0.19040511088E+03  0.19040511088E+03  0.00000000000E+00 0. -1.
          2   -1    0    0  503    0  0.00000000000E+00 -0.00000000000E+00 -0.33186955341E+04  0.33186955341E+04  0.00000000000E+00 0. -1.
         25    2    1    2    0    0  0.57127479074E+01 -0.69818709028E+02 -0.20328109920E+04  0.20378561897E+04  0.12502012944E+03 0.  0.
          4    1    3    3  501    0  0.20612968672E+02 -0.58075552765E+02 -0.19906720934E+04  0.19916261348E+04  0.12700000000E+01 0.  1.
         -4    1    3    3    0  501 -0.14900220764E+02 -0.11743156263E+02 -0.42138898637E+02  0.46230054901E+02  0.12700000000E+01 0.  1.
          2    1    1    2  502    0 -0.24203089678E+02 -0.68930173387E+01  0.18582060205E+03  0.18751693093E+03  0.00000000000E+00 0. -1.
          1    1    1    2  503    0  0.18490341771E+02  0.76711726366E+02 -0.12813000332E+04  0.12837275243E+04  0.00000000000E+00 0. -1.
<mgrwt>
<rscale>  0 0.43510095E+02</rscale>
<asrwt>0</asrwt>
<pdfrwt beam="2">  1        2 0.51056855E+00 0.75227082E+02</pdfrwt>
<pdfrwt beam="1">  1        1 0.29293093E-01 0.25165517E+02</pdfrwt>
<totfact> 0.33502353E+01</totfact>
</mgrwt>
</event>
<event>
 7    1  0.4252091E-004  0.6610100E+02  0.7546771E-02  0.1421507E+00
          1   -1    0    0  502    0 -0.00000000000E+00  0.00000000000E+00  0.12745678851E+04  0.12745678851E+04  0.00000000000E+00 0. -1.
          2   -1    0    0  503    0  0.00000000000E+00 -0.00000000000E+00 -0.14836447967E+03  0.14836447967E+03  0.00000000000E+00 0. -1.
         25    2    1    2    0    0 -0.34762125399E+02 -0.13142118447E+02  0.64580305790E+03  0.65883830121E+03  0.12500078765E+03 0.  0.
          4    1    3    3  501    0 -0.73280479261E+02  0.10111427775E+02  0.25697363227E+03  0.26741228505E+03  0.12700000000E+01 0. -1.
         -4    1    3    3    0  501  0.38518353862E+02 -0.23253546222E+02  0.38882942563E+03  0.39142601616E+03  0.12700000000E+01 0. -1.
          2    1    1    2  502    0  0.77771336514E+02 -0.98829281714E+00  0.61612686477E+03  0.62101664310E+03  0.00000000000E+00 0. -1.
          1    1    1    2  503    0 -0.43009211115E+02  0.14130411264E+02 -0.13572651724E+03  0.14307742046E+03  0.00000000000E+00 0. -1.
<mgrwt>
<rscale>  0 0.54703350E+02</rscale>
<asrwt>0</asrwt>
<pdfrwt beam="2">  1        2 0.22825305E-01 0.45270970E+02</pdfrwt>
<pdfrwt beam="1">  1        1 0.19608736E+00 0.66101002E+02</pdfrwt>
<totfact> 0.34948798E+02</totfact>
</mgrwt>
</event>
<event>
 7    1  0.4252091E-004  0.1063585E+03  0.7546771E-02  0.1322907E+00
          2   -1    0    0  503    0  0.00000000000E+00  0.00000000000E+00  0.15273145836E+04  0.15273145836E+04  0.00000000000E+00 0. -1.
          1   -1    0    0  502    0 -0.00000000000E+00 -0.00000000000E+00 -0.14853635492E+04  0.14853635492E+04  0.00000000000E+00 0. -1.
         25    2    1    2    0    0  0.50334893573E+02  0.20193196902E+02  0.55451149652E+03  0.57100647546E+03  0.12499611404E+03 0.  0.
          4    1    3    3  501    0 -0.25538878070E+02  0.48850072975E+02  0.22591449044E+03  0.23254576714E+03  0.12700000000E+01 0.  1.
         -4    1    3    3    0  501  0.75873771643E+02 -0.28656876074E+02  0.32859700608E+03  0.33846070832E+03  0.12700000000E+01 0.  1.
          2    1    1    2  502    0 -0.69502644935E+02 -0.80770424806E+02 -0.14741445358E+04  0.14779907278E+04  0.00000000000E+00 0. -1.
          1    1    1    2  503    0  0.19167751362E+02  0.60577227904E+02  0.96158407367E+03  0.96368092954E+03  0.00000000000E+00 0. -1.
<mgrwt>
<rscale>  0 0.82205491E+02</rscale>
<asrwt>0</asrwt>
<pdfrwt beam="1">  1        2 0.23497147E+00 0.63537416E+02</pdfrwt>
<pdfrwt beam="2">  1        1 0.22851747E+00 0.10635848E+03</pdfrwt>
<totfact> 0.16306623E+01</totfact>
</mgrwt>
</event>
<event>
 7    1  0.4252091E-004  0.5456321E+02  0.7546771E-02  0.1491355E+00
          1   -1    0    0  502    0 -0.00000000000E+00  0.00000000000E+00  0.17704911320E+04  0.17704911320E+04  0.00000000000E+00 0. -1.
          2   -1    0    0  503    0  0.00000000000E+00 -0.00000000000E+00 -0.18659365199E+03  0.18659365199E+03  0.00000000000E+00 0. -1.
         25    2    1    2    0    0 -0.60805905541E+02 -0.61347570326E+02  0.13231763704E+01  0.15196296186E+03  0.12502043212E+03 0.  0.
          4    1    3    3  501    0 -0.98946333378E+02 -0.54014467844E+02 -0.35903775766E+01  0.11279380895E+03  0.12700000000E+01 0. -1.
         -4    1    3    3    0  501  0.38140427838E+02 -0.73331024816E+01  0.49135539470E+01  0.39169152915E+02  0.12700000000E+01 0. -1.
          2    1    1    2  502    0  0.42411654034E+02  0.34038654258E+02  0.16909656210E+04  0.16918398594E+04  0.00000000000E+00 0. -1.
          1    1    1    2  503    0  0.18394251507E+02  0.27308916068E+02 -0.10839131740E+03  0.11328196270E+03  0.00000000000E+00 0. -1.
<mgrwt>
<rscale>  0 0.42385748E+02</rscale>
<asrwt>0</asrwt>
<pdfrwt beam="2">  1        2 0.28706717E-01 0.32926059E+02</pdfrwt>
<pdfrwt beam="1">  1        1 0.27238324E+00 0.54563214E+02</pdfrwt>
<totfact> 0.13493451E+02</totfact>
</mgrwt>
</event>
<event>
 7    1  0.4252091E-004  0.7720805E+02  0.7546771E-02  0.1451192E+00
          2   -1    0    0  503    0  0.00000000000E+00  0.00000000000E+00  0.28989945250E+04  0.28989945250E+04  0.00000000000E+00 0. -1.
          1   -1    0    0  502    0 -0.00000000000E+00 -0.00000000000E+00 -0.89160795957E+01  0.89160795957E+01  0.00000000000E+00 0. -1.
         25    2    1    2    0    0  0.70026664584E+02 -0.70222035234E+02  0.13146308118E+04  0.13242784234E+04  0.12499721364E+03 0.  0.
          4    1    3    3  501    0  0.16057499307E+02 -0.15764202775E+02  0.30830663802E+02  0.38190261894E+02  0.12700000000E+01 0.  1.
         -4    1    3    3    0  501  0.53969165277E+02 -0.54457832460E+02  0.12838001480E+04  0.12860881615E+04  0.12700000000E+01 0.  1.
          2    1    1    2  502    0 -0.29724368465E+02  0.88392666653E+01  0.72024443335E+02  0.78416778520E+02  0.00000000000E+00 0. -1.
          1    1    1    2  503    0 -0.40302296119E+02  0.61382768569E+02  0.15034231903E+04  0.15052154027E+04  0.00000000000E+00 0. -1.
<mgrwt>
<rscale>  0 0.48931428E+02</rscale>
<asrwt>0</asrwt>
<pdfrwt beam="1">  1        2 0.44599841E+00 0.77208051E+02</pdfrwt>
<pdfrwt beam="2">  1        1 0.13717069E-02 0.31010816E+02</pdfrwt>
<totfact> 0.29190080E+03</totfact>
</mgrwt>
</event>
<event>
 7    1  0.4252091E-004  0.1104375E+03  0.7546771E-02  0.1326279E+00
          2   -1    0    0  503    0  0.00000000000E+00  0.00000000000E+00  0.35308302677E+03  0.35308302677E+03  0.00000000000E+00 0. -1.
          1   -1    0    0  502    0 -0.00000000000E+00 -0.00000000000E+00 -0.98376754681E+03  0.98376754681E+03  0.00000000000E+00 0. -1.
         25    2    1    2    0    0  0.55804587420E+02 -0.28488373340E+02 -0.19079346574E+03  0.23654422791E+03  0.12500114318E+03 0.  0.
          4    1    3    3  501    0  0.22868568465E+02  0.13226125731E+02 -0.18045583268E+03  0.18238372261E+03  0.12700000000E+01 0. -1.
         -4    1    3    3    0  501  0.32936018955E+02 -0.41714499071E+02 -0.10337633067E+02  0.54160505305E+02  0.12700000000E+01 0. -1.
          2    1    1    2  502    0  0.18398682461E+02 -0.56465404219E+02 -0.75927248682E+03  0.76159146702E+03  0.00000000000E+00 0. -1.
          1    1    1    2  503    0 -0.74203269881E+02  0.84953777559E+02  0.31938143252E+03  0.33871487865E+03  0.00000000000E+00 0. -1.
<mgrwt>
<rscale>  0 0.80985093E+02</rscale>
<asrwt>0</asrwt>
<pdfrwt beam="1">  1        2 0.54320467E-01 0.11043747E+03</pdfrwt>
<pdfrwt beam="2">  1        1 0.15134885E+00 0.59387317E+02</pdfrwt>
<totfact> 0.22666668E+02</totfact>
</mgrwt>
</event>
<event>
 7    1  0.4252091E-004  0.4304456E+02  0.7546771E-02  0.1596781E+00
          2   -1    0    0  503    0  0.00000000000E+00  0.00000000000E+00  0.76376915464E+02  0.76376915464E+02  0.00000000000E+00 0. -1.
          1   -1    0    0  502    0 -0.00000000000E+00 -0.00000000000E+00 -0.37488227721E+03  0.37488227721E+03  0.00000000000E+00 0. -1.
         25    2    1    2    0    0  0.43031660150E+02 -0.12778938472E+02 -0.10551671186E+03  0.16962604552E+03  0.12499677513E+03 0.  0.
          4    1    3    3  501    0  0.31834583288E+02  0.49934277133E+01 -0.13195304060E+03  0.13583664026E+03  0.12700000000E+01 0. -1.
         -4    1    3    3    0  501  0.11197076863E+02 -0.17772366186E+02  0.26436328743E+02  0.33789405255E+02  0.12700000000E+01 0. -1.
          2    1    1    2  502    0 -0.42427122968E+02 -0.82867057214E+01 -0.23269734069E+03  0.23667864843E+03  0.00000000000E+00 0. -1.
          1    1    1    2  503    0 -0.60453718287E+00  0.21065644194E+02  0.39708690808E+02  0.44954498731E+02  0.00000000000E+00 0. -1.
<mgrwt>
<rscale>  0 0.30118677E+02</rscale>
<asrwt>0</asrwt>
<pdfrwt beam="1">  1        2 0.11750295E-01 0.21074317E+02</pdfrwt>
<pdfrwt beam="2">  1        1 0.57674196E-01 0.43044561E+02</pdfrwt>
<totfact> 0.40406643E+03</totfact>
</mgrwt>
</event>
<event>
 7    1  0.4252091E-004  0.5879016E+02  0.7546771E-02  0.1547987E+00
         -2   -1    0    0    0  501 -0.00000000000E+00  0.00000000000E+00  0.99946799423E+02  0.99946799423E+02  0.00000000000E+00 0.  1.
          2   -1    0    0  503    0  0.00000000000E+00 -0.00000000000E+00 -0.53912978217E+03  0.53912978217E+03  0.00000000000E+00 0. -1.
         25    2    1    2    0    0  0.42311222274E+02  0.37015940532E+02 -0.24721920346E+03  0.28267061739E+03  0.12499969595E+03 0.  0.
          4    1    3    3  502    0 -0.39250746865E+01  0.19668357622E+02  0.87930539879E+01  0.21935842844E+02  0.12700000000E+01 0. -1.
         -4    1    3    3    0  502  0.46236296960E+02  0.17347582911E+02 -0.25601225745E+03  0.26073477454E+03  0.12700000000E+01 0. -1.
          1    1    1    2  503    0  0.13002153436E+02 -0.16387826152E+02 -0.26311925556E+03  0.26394953966E+03  0.00000000000E+00 0. -1.
         -1    1    1    2    0  501 -0.55313375709E+02 -0.20628114381E+02  0.71155476280E+02  0.92456424546E+02  0.00000000000E+00 0.  1.
<mgrwt>
<rscale>  0 0.35069199E+02</rscale>
<asrwt>0</asrwt>
<pdfrwt beam="2">  1        2 0.82943043E-01 0.20919293E+02</pdfrwt>
<pdfrwt beam="1">  1       -2 0.15376431E-01 0.58790164E+02</pdfrwt>
<totfact> 0.18213444E+03</totfact>
</mgrwt>
</event>
<event>
 7    1  0.4252091E-004  0.1213647E+03  0.7546771E-02  0.1253382E+00
         -2   -1    0    0    0  501 -0.00000000000E+00  0.00000000000E+00  0.73429782160E+03  0.73429782160E+03  0.00000000000E+00 0.  1.
          2   -1    0    0  503    0  0.00000000000E+00 -0.00000000000E+00 -0.14629522559E+04  0.14629522559E+04  0.00000000000E+00 0. -1.
         25    2    1    2    0    0 -0.31573296009E+02  0.79729091832E+02  0.14511899990E+03  0.20984928392E+03  0.12499438676E+03 0.  0.
          4    1    3    3  502    0  0.34126626143E+02  0.64441275483E+02  0.11451203928E+03  0.13576422444E+03  0.12700000000E+01 0.  1.
         -4    1    3    3    0  502 -0.65699922151E+02  0.15287816348E+02  0.30606960627E+02  0.74085059480E+02  0.12700000000E+01 0.  1.
          1    1    1    2  503    0 -0.90181404352E+02 -0.81220091684E+02 -0.14213131329E+04  0.14264853349E+04  0.00000000000E+00 0. -1.
         -1    1    1    2    0  501  0.12175470036E+03  0.14909998520E+01  0.54753969869E+03  0.56091545867E+03  0.00000000000E+00 0.  1.
<mgrwt>
<rscale>  0 0.11397424E+03</rscale>
<asrwt>0</asrwt>
<pdfrwt beam="2">  1        2 0.22506957E+00 0.12136469E+03</pdfrwt>
<pdfrwt beam="1">  1       -2 0.11296890E+00 0.10703383E+03</pdfrwt>
<totfact> 0.10254808E+01</totfact>
</mgrwt>
</event>
<event>
 7    1  0.4252091E-004  0.2457272E+02  0.7546771E-02  0.1703352E+00
         -2   -1    0    0    0  501 -0.00000000000E+00  0.00000000000E+00  0.11954077922E+04  0.11954077922E+04  0.00000000000E+00 0.  1.
          2   -1    0    0  503    0  0.00000000000E+00 -0.00000000000E+00 -0.12511309701E+04  0.12511309701E+04  0.00000000000E+00 0. -1.
         25    2    1    2    0    0  0.16278304556E+02 -0.16557440537E+02 -0.82003132792E+03  0.82982956497E+03  0.12500638417E+03 0.  0.
          4    1    3    3  502    0  0.34282519984E+02 -0.64047276238E+02 -0.38076290059E+03  0.38763300187E+03  0.12700000000E+01 0. -1.
         -4    1    3    3    0  502 -0.18004215428E+02  0.47489835701E+02 -0.43926842733E+03  0.44219656310E+03  0.12700000000E+01 0. -1.
          1    1    1    2  503    0 -0.25204349700E+02 -0.15769102524E+01 -0.42574054464E+03  0.42648887118E+03  0.00000000000E+00 0. -1.
         -1    1    1    2    0  501  0.89260451444E+01  0.18134350789E+02  0.11900486947E+04  0.11902203261E+04  0.00000000000E+00 0.  1.
<mgrwt>
<rscale>  0 0.22286010E+02</rscale>
<asrwt>0</asrwt>
<pdfrwt beam="2">  1        2 0.19248169E+00 0.24572720E+02</pdfrwt>
<pdfrwt beam="1">  1       -2 0.18390889E+00 0.20212099E+02</pdfrwt>
<totfact> 0.47923879E+00</totfact>
</mgrwt>
</event>
<event>
 7    1  0.4252091E-004  0.1561455E+03  0.7546771E-02  0.1328304E+00
         -2   -1    0    0    0  501  0.00000000000E+00  0.00000000000E+00  0.54253456814E+03  0.54253456814E+03  0.00000000000E+00 0.  1.
         -1   -1    0    0    0  502 -0.00000000000E+00 -0.00000000000E+00 -0.24960210273E+03  0.24960210273E+03  0.00000000000E+00 0.  1.
         25    2    1    2    0    0  0.97532149869E+02  0.11563050248E+03  0.93711531466E+02  0.21745899048E+03  0.12499451206E+03 0.  0.
          4    1    3    3  503    0  0.35901369317E+02  0.10611594625E+03  0.91813323404E+01  0.11240734910E+03  0.12700000000E+01 0. -1.
         -4    1    3    3    0  503  0.61630780552E+02  0.95145562320E+01  0.84530199125E+02  0.10505164138E+03  0.12700000000E+01 0. -1.
         -2    1    1    2    0  502 -0.66909029760E+02 -0.14327977451E+03 -0.15300866290E+03  0.22003991222E+03  0.00000000000E+00 0.  1.
         -1    1    1    2    0  501 -0.30623120109E+02  0.27649272024E+02  0.35222959684E+03  0.35463776818E+03  0.00000000000E+00 0.  1.
<mgrwt>
<rscale>  0 0.80264045E+02</rscale>
<asrwt>0</asrwt>
<pdfrwt beam="1">  1       -2 0.83466857E-01 0.41258426E+02</pdfrwt>
<pdfrwt beam="2">  1       -1 0.38400324E-01 0.15614548E+03</pdfrwt>
<totfact> 0.66591404E+01</totfact>
</mgrwt>
</event>
<event>
 7    1  0.4252091E-004  0.2574838E+02  0.7546771E-02  0.1651505E+00
         -1   -1    0    0    0  501 -0.00000000000E+00  0.00000000000E+00  0.88586662166E+02  0.88586662166E+02  0.00000000000E+00 0.  1.
          1   -1    0    0  503    0  0.00000000000E+00 -0.00000000000E+00 -0.59952377679E+03  0.59952377679E+03  0.00000000000E+00 0. -1.
         25    2    1    2    0    0 -0.31365949013E+01 -0.60135219069E-01 -0.37253935767E+03  0.39297941896E+03  0.12504962562E+03 0.  0.
          4    1    3    3  502    0  0.40421915907E+02 -0.11254527020E+02 -0.32433579923E+03  0.32704115831E+03  0.12700000000E+01 0. -1.
         -4    1    3    3    0  502 -0.43558510808E+02  0.11194391801E+02 -0.48203558443E+02  0.65938260655E+02  0.12700000000E+01 0. -1.
          2    1    1    2  503    0  0.17383697908E+02  0.21507725160E+02 -0.21373425153E+03  0.21551590538E+03  0.00000000000E+00 0. -1.
         -2    1    1    2    0  501 -0.14247103007E+02 -0.21447589941E+02  0.75336494583E+02  0.79615114611E+02  0.00000000000E+00 0.  1.
<mgrwt>
<rscale>  0 0.25674025E+02</rscale>
<asrwt>0</asrwt>
<pdfrwt beam="2">  1        1 0.92234430E-01 0.25599884E+02</pdfrwt>
<pdfrwt beam="1">  1       -1 0.13628717E-01 0.25748380E+02</pdfrwt>
<totfact> 0.12454816E+03</totfact>
</mgrwt>
</event>
<event>
 7    1  0.4252091E-004  0.8636639E+02  0.7546771E-02  0.1324778E+00
          1   -1    0    0  502    0 -0.00000000000E+00  0.00000000000E+00  0.64917249844E+03  0.64917249844E+03  0.00000000000E+00 0. -1.
          2   -1    0    0  503    0  0.00000000000E+00 -0.00000000000E+00 -0.48541493129E+02  0.48541493129E+02  0.00000000000E+00 0. -1.
         25    2    1    2    0    0  0.31364789111E+02  0.48831283056E+02  0.16646606885E+03  0.21611258712E+03  0.12500181611E+03 0.  0.
          4    1    3    3  501    0  0.11625928004E+02  0.57840150351E+02  0.18072695716E+03  0.19011704590E+03  0.12700000000E+01 0.  1.
         -4    1    3    3    0  501  0.19738861106E+02 -0.90088672946E+01 -0.14260888317E+02  0.25995541220E+02  0.12700000000E+01 0.  1.
          2    1    1    2  502    0  0.75996431288E+02  0.12110450291E+02  0.23499543859E+03  0.24727510334E+03  0.00000000000E+00 0. -1.
          1    1    1    2  503    0 -0.10736122040E+03 -0.60941733347E+02  0.19916949787E+03  0.23432630111E+03  0.00000000000E+00 0. -1.
<mgrwt>
<rscale>  0 0.81525165E+02</rscale>
<asrwt>0</asrwt>
<pdfrwt beam="2">  1        2 0.74679225E-02 0.86366386E+02</pdfrwt>
<pdfrwt beam="1">  1        1 0.99872686E-01 0.76955315E+02</pdfrwt>
<totfact> 0.38329004E+03</totfact>
</mgrwt>
</event>
<event>
 7    1  0.4252091E-004  0.8075529E+02  0.7546771E-02  0.1447030E+00
         -2   -1    0    0    0  501 -0.00000000000E+00  0.00000000000E+00  0.26402850241E+02  0.26402850241E+02  0.00000000000E+00 0.  1.
          2   -1    0    0  503    0  0.00000000000E+00 -0.00000000000E+00 -0.80402757133E+03  0.80402757133E+03  0.00000000000E+00 0. -1.
         25    2    1    2    0    0 -0.89192505208E+02  0.40711568674E+02 -0.43429562956E+03  0.46243910551E+03  0.12499799056E+03 0.  0.
          4    1    3    3  502    0 -0.67678815040E+00 -0.23994810489E+02 -0.22387728244E+03  0.22516407232E+03  0.12700000000E+01 0.  1.
         -4    1    3    3    0  502 -0.88515717058E+02  0.64706379163E+02 -0.21041834712E+03  0.23727503319E+03  0.12700000000E+01 0.  1.
          1    1    1    2  503    0  0.59364679528E+02 -0.47419947867E+02 -0.32167593383E+03  0.33052718956E+03  0.00000000000E+00 0. -1.
         -1    1    1    2    0  501  0.29827825680E+02  0.67083791927E+01 -0.21653157705E+02  0.37464126506E+02  0.00000000000E+00 0.  1.
<mgrwt>
<rscale>  0 0.49688253E+02</rscale>
<asrwt>0</asrwt>
<pdfrwt beam="2">  1        2 0.12369655E+00 0.80755289E+02</pdfrwt>
<pdfrwt beam="1">  1       -2 0.40619770E-02 0.30572889E+02</pdfrwt>
<totfact> 0.77999539E+03</totfact>
</mgrwt>
</event>
<event>
 7    1  0.4252091E-004  0.2520837E+02  0.7546771E-02  0.1659865E+00
         -1   -1    0    0    0  501 -0.00000000000E+00  0.00000000000E+00  0.19602772953E+03  0.19602772953E+03  0.00000000000E+00 0.  1.
          1   -1    0    0  503    0  0.00000000000E+00 -0.00000000000E+00 -0.49945361508E+02  0.49945361508E+02  0.00000000000E+00 0. -1.
         25    2    1    2    0    0 -0.16208419451E+02  0.16461690665E+01  0.97930953631E+02  0.15962398460E+03  0.12499568811E+03 0.  0.
          4    1    3    3  502    0 -0.79872413526E+01 -0.52218507805E+02  0.65800458762E+01  0.53249211126E+02  0.12700000000E+01 0. -1.
         -4    1    3    3    0  502 -0.82211780983E+01  0.53864676871E+02  0.91350907755E+02  0.10637477347E+03  0.12700000000E+01 0. -1.
          2    1    1    2  503    0  0.13413736528E+02  0.23147745153E+02 -0.53794827010E+01  0.27288922065E+02  0.00000000000E+00 0. -1.
         -2    1    1    2    0  501  0.27946829226E+01 -0.24793914220E+02  0.53530897095E+02  0.59060184378E+02  0.00000000000E+00 0.  1.
<mgrwt>
<rscale>  0 0.25079313E+02</rscale>
<asrwt>0</asrwt>
<pdfrwt beam="2">  1        1 0.76839019E-02 0.25208367E+02</pdfrwt>
<pdfrwt beam="1">  1       -1 0.30158112E-01 0.24950921E+02</pdfrwt>
<totfact> 0.72855078E+03</totfact>
</mgrwt>
</event>
<event>
 7    1  0.4252091E-004  0.1018108E+03  0.7546771E-02  0.1321073E+00
          1   -1    0    0  502    0 -0.00000000000E+00  0.00000000000E+00  0.11418927296E+04  0.11418927296E+04  0.00000000000E+00 0. -1.
          2   -1    0    0  503    0  0.00000000000E+00 -0.00000000000E+00 -0.28923360328E+03  0.28923360328E+03  0.00000000000E+00 0. -1.
         25    2    1    2    0    0  0.63231051369E+02  0.10132166084E+03  0.20813440852E+03  0.27055544119E+03  0.12496427463E+03 0.  0.
          4    1    3    3  501    0  0.57312309896E+02  0.12897899782E+03  0.19089232831E+03  0.23740635343E+03  0.12700000000E+01 0.  1.
         -4    1    3    3    0  501  0.59187414732E+01 -0.27657336974E+02  0.17242080214E+02  0.33149087759E+02  0.12700000000E+01 0.  1.
          2    1    1    2  502    0  0.42352186158E+01 -0.10184429847E+03  0.89519506311E+03  0.90097968858E+03  0.00000000000E+00 0. -1.
          1    1    1    2  503    0 -0.67466269985E+02  0.52263762475E+00 -0.25067034529E+03  0.25959120314E+03  0.00000000000E+00 0. -1.
<mgrwt>
<rscale>  0 0.82879448E+02</rscale>
<asrwt>0</asrwt>
<pdfrwt beam="2">  1        2 0.44497478E-01 0.67468294E+02</pdfrwt>
<pdfrwt beam="1">  1        1 0.17567580E+00 0.10181083E+03</pdfrwt>
<totfact> 0.20795953E+02</totfact>
</mgrwt>
</event>
<event>
 7    1  0.4252091E-004  0.9405972E+02  0.7546771E-02  0.1340225E+00
         -2   -1    0    0    0  501 -0.00000000000E+00  0.00000000000E+00  0.32234818995E+03  0.32234818995E+03  0.00000000000E+00 0.  1.
          2   -1    0    0  503    0  0.00000000000E+00 -0.00000000000E+00 -0.69057895973E+03  0.69057895973E+03  0.00000000000E+00 0. -1.
         25    2    1    2    0    0  0.44802687668E+02  0.14358837948E+03  0.60905025280E+02  0.20483966277E+03  0.12499984719E+03 0.  0.
          4    1    3    3  502    0  0.26077092217E+02  0.11241030648E+03 -0.19076357862E+02  0.11696842339E+03  0.12700000000E+01 0.  1.
         -4    1    3    3    0  502  0.18725595451E+02  0.31178072998E+02  0.79981383142E+02  0.87871239380E+02  0.12700000000E+01 0.  1.
          1    1    1    2  503    0 -0.10941684218E+02 -0.91992120560E+02 -0.60999446940E+03  0.61698907883E+03  0.00000000000E+00 0. -1.
         -1    1    1    2    0  501 -0.33861003450E+02 -0.51596258919E+02  0.18085867434E+03  0.19109840808E+03  0.00000000000E+00 0.  1.
<mgrwt>
<rscale>  0 0.76189869E+02</rscale>
<asrwt>0</asrwt>
<pdfrwt beam="2">  1        2 0.10624291E+00 0.94059724E+02</pdfrwt>
<pdfrwt beam="1">  1       -2 0.49592030E-01 0.61715002E+02</pdfrwt>
<totfact> 0.17369143E+02</totfact>
</mgrwt>
</event>
<event>
 7    1  0.4252091E-004  0.1796601E+03  0.7546771E-02  0.1172429E+00
          1   -1    0    0  502    0 -0.00000000000E+00  0.00000000000E+00  0.98332380802E+03  0.98332380802E+03  0.00000000000E+00 0. -1.
          2   -1    0    0  503    0  0.00000000000E+00 -0.00000000000E+00 -0.17133670129E+04  0.17133670129E+04  0.00000000000E+00 0. -1.
         25    2    1    2    0    0  0.49163850597E+02 -0.97884236771E+02  0.16123463933E+02  0.16698446407E+03  0.12500174854E+03 0.  0.
          4    1    3    3  501    0  0.80405375329E+01 -0.14760020462E+02  0.61473127877E+02  0.63742190101E+02  0.12700000000E+01 0. -1.
         -4    1    3    3    0  501  0.41123313065E+02 -0.83124216309E+02 -0.45349663944E+02  0.10324227397E+03  0.12700000000E+01 0. -1.
          2    1    1    2  502    0  0.12554657695E+03  0.13976534471E+03  0.87686282443E+03  0.89676346237E+03  0.00000000000E+00 0. -1.
          1    1    1    2  503    0 -0.17471042755E+03 -0.41881107937E+02 -0.16230294933E+04  0.16329428945E+04  0.00000000000E+00 0. -1.
<mgrwt>
<rscale>  0 0.17530186E+03</rscale>
<asrwt>0</asrwt>
<pdfrwt beam="2">  1        2 0.26359492E+00 0.17966013E+03</pdfrwt>
<pdfrwt beam="1">  1        1 0.15128059E+00 0.17104932E+03</pdfrwt>
<totfact> 0.25431964E+01</totfact>
</mgrwt>
</event>
<event>
 7    1  0.4252091E-004  0.1475035E+03  0.7546771E-02  0.1380097E+00
          2   -1    0    0  503    0  0.00000000000E+00  0.00000000000E+00  0.51140130357E+03  0.51140130357E+03  0.00000000000E+00 0. -1.
          1   -1    0    0  502    0 -0.00000000000E+00 -0.00000000000E+00 -0.40539937576E+03  0.40539937576E+03  0.00000000000E+00 0. -1.
         25    2    1    2    0    0 -0.16177886860E+03  0.31118583150E+02  0.40826291706E+02  0.21080054773E+03  0.12501726395E+03 0.  0.
          4    1    3    3  501    0 -0.15270392990E+03  0.61247381005E+02  0.58578091675E+02  0.17465032955E+03  0.12700000000E+01 0. -1.
         -4    1    3    3    0  501 -0.90749387042E+01 -0.30128797855E+02 -0.17751799970E+02  0.36150218185E+02  0.12700000000E+01 0. -1.
          2    1    1    2  502    0  0.13791747951E+03 -0.46054451473E+02 -0.30335164433E+03  0.33639926245E+03  0.00000000000E+00 0. -1.
          1    1    1    2  503    0  0.23861389091E+02  0.14935868323E+02  0.36852728044E+03  0.36960086915E+03  0.00000000000E+00 0. -1.
<mgrwt>
<rscale>  0 0.64438235E+02</rscale>
<asrwt>0</asrwt>
<pdfrwt beam="1">  1        2 0.78677123E-01 0.28150418E+02</pdfrwt>
<pdfrwt beam="2">  1        1 0.62369135E-01 0.14750353E+03</pdfrwt>
<totfact> 0.51342305E+02</totfact>
</mgrwt>
</event>
<event>
 7    1  0.4252091E-004  0.1942163E+03  0.7546771E-02  0.1292824E+00
          1   -1    0    0  502    0 -0.00000000000E+00  0.00000000000E+00  0.65408131798E+03  0.65408131798E+03  0.00000000000E+00 0. -1.
          2   -1    0    0  503    0  0.00000000000E+00 -0.00000000000E+00 -0.58551073845E+03  0.58551073845E+03  0.00000000000E+00 0. -1.
         25    2    1    2    0    0 -0.79928236310E+02 -0.15155951054E+03  0.63359951359E+02  0.22135721176E+03  0.12500289424E+03 0.  0.
          4    1    3    3  501    0 -0.70733607865E+02 -0.84830002075E+02 -0.21985067944E+02  0.11262472484E+03  0.12700000000E+01 0.  1.
         -4    1    3    3    0  501 -0.91946284448E+01 -0.66729508463E+02  0.85345019303E+02  0.10873248692E+03  0.12700000000E+01 0.  1.
          2    1    1    2  502    0  0.58309981128E+02  0.19189022811E+03  0.49095580847E+03  0.53033906080E+03  0.00000000000E+00 0. -1.
          1    1    1    2  503    0  0.21618255182E+02 -0.40330717572E+02 -0.48574518029E+03  0.48789578386E+03  0.00000000000E+00 0. -1.
<mgrwt>
<rscale>  0 0.94271980E+02</rscale>
<asrwt>0</asrwt>
<pdfrwt beam="2">  1        2 0.90078575E-01 0.45759324E+02</pdfrwt>
<pdfrwt beam="1">  1        1 0.10062790E+00 0.19421629E+03</pdfrwt>
<totfact> 0.23259483E+02</totfact>
</mgrwt>
</event>
<event>
 7    1  0.4252091E-004  0.6467345E+02  0.7546771E-02  0.1524407E+00
          2   -1    0    0  503    0  0.00000000000E+00  0.00000000000E+00  0.22104575663E+03  0.22104575663E+03  0.00000000000E+00 0. -1.
          1   -1    0    0  502    0 -0.00000000000E+00 -0.00000000000E+00 -0.83341188832E+03  0.83341188832E+03  0.00000000000E+00 0. -1.
         25    2    1    2    0    0  0.42708903938E+02  0.18955908484E+02 -0.34260944369E+03  0.36768220810E+03  0.12500239321E+03 0.  0.
          4    1    3    3  501    0  0.66504234393E+02  0.41331914693E+02 -0.12411331026E+03  0.14675444473E+03  0.12700000000E+01 0.  1.
         -4    1    3    3    0  501 -0.23795330455E+02 -0.22376006208E+02 -0.21849613343E+03  0.22092776337E+03  0.12700000000E+01 0.  1.
          2    1    1    2  502    0 -0.64766878021E+02 -0.21357743309E+02 -0.47523463451E+03  0.48010296763E+03  0.00000000000E+00 0. -1.
          3    1    1    2  503    0  0.22057974083E+02  0.24018348251E+01  0.20547794651E+03  0.20667246921E+03  0.00000000000E+00 0. -1.
<mgrwt>
<rscale>  0 0.37881359E+02</rscale>
<asrwt>0</asrwt>
<pdfrwt beam="1">  1        2 0.34007040E-01 0.22188354E+02</pdfrwt>
<pdfrwt beam="2">  1        1 0.12821721E+00 0.64673451E+02</pdfrwt>
<totfact> 0.45901216E+02</totfact>
</mgrwt>
</event>
<event>
 7    1  0.4252091E-004  0.9631593E+02  0.7546771E-02  0.1298046E+00
          2   -1    0    0  503    0  0.00000000000E+00  0.00000000000E+00  0.11737733980E+04  0.11737733980E+04  0.00000000000E+00 0. -1.
          1   -1    0    0  502    0 -0.00000000000E+00 -0.00000000000E+00 -0.15978712092E+03  0.15978712092E+03  0.00000000000E+00 0. -1.
         25    2    1    2    0    0  0.62764126687E+02  0.30205720888E+02  0.29295725846E+02  0.14606481091E+03  0.12499987304E+03 0.  0.
          4    1    3    3  501    0 -0.18691592960E+02  0.23308939207E+02  0.53074826500E+02  0.60919885114E+02  0.12700000000E+01 0.  1.
         -4    1    3    3    0  501  0.81455719646E+02  0.68967816815E+01 -0.23779100653E+02  0.85144925795E+02  0.12700000000E+01 0.  1.
          2    1    1    2  502    0  0.18722848783E+02 -0.85887541655E+02 -0.79629846715E+02  0.11860913694E+03  0.00000000000E+00 0. -1.
          1    1    1    2  503    0 -0.81486975469E+02  0.55681820767E+02  0.10643203979E+04  0.10688865710E+04  0.00000000000E+00 0. -1.
<mgrwt>
<rscale>  0 0.92014190E+02</rscale>
<asrwt>0</asrwt>
<pdfrwt beam="1">  1        2 0.18058052E+00 0.96315930E+02</pdfrwt>
<pdfrwt beam="2">  1        1 0.24582635E-01 0.87904578E+02</pdfrwt>
<totfact> 0.57124694E+02</totfact>
</mgrwt>
</event>
<event>
 7    1  0.4252091E-004  0.2608140E+02  0.7546771E-02  0.1682544E+00
          2   -1    0    0  503    0  0.00000000000E+00  0.00000000000E+00  0.13575274137E+04  0.13575274137E+04  0.00000000000E+00 0. -1.
         -2   -1    0    0    0  501 -0.00000000000E+00 -0.00000000000E+00 -0.81783805305E+02  0.81783805305E+02  0.00000000000E+00 0.  1.
         25    2    1    2    0    0 -0.21553641488E+02  0.21804837277E+02  0.22502088246E+02  0.13066945312E+03  0.12501260581E+03 0.  0.
          4    1    3    3  502    0 -0.54643626448E+02 -0.97384746791E-01  0.56345026192E+02  0.78500383896E+02  0.12700000000E+01 0. -1.
         -4    1    3    3    0  502  0.33089984961E+02  0.21902222024E+02 -0.33842937947E+02  0.52169069219E+02  0.12700000000E+01 0. -1.
          3    1    1    2  503    0  0.69989241943E+00 -0.26081091771E+02  0.12766986667E+04  0.12769652300E+04  0.00000000000E+00 0. -1.
         -1    1    1    2    0  501  0.20853749068E+02  0.42762544939E+01 -0.23457146514E+02  0.31676535879E+02  0.00000000000E+00 0.  1.
<mgrwt>
<rscale>  0 0.23562945E+02</rscale>
<asrwt>0</asrwt>
<pdfrwt beam="1">  1        2 0.20885036E+00 0.26081399E+02</pdfrwt>
<pdfrwt beam="2">  1       -2 0.12582125E-01 0.21287677E+02</pdfrwt>
<totfact> 0.75577479E+02</totfact>
</mgrwt>
</event>
<event>
 7    1  0.4252091E-004  0.9443614E+02  0.7546771E-02  0.1357697E+00
          1   -1    0    0  502    0 -0.00000000000E+00  0.00000000000E+00  0.38278861448E+03  0.38278861448E+03  0.00000000000E+00 0. -1.
          2   -1    0    0  503    0  0.00000000000E+00 -0.00000000000E+00 -0.87519237095E+03  0.87519237095E+03  0.00000000000E+00 0. -1.
         25    2    1    2    0    0 -0.60342949247E+02  0.11727814168E+03  0.14925633454E+03  0.23515499142E+03  0.12499993019E+03 0.  0.
          4    1    3    3  501    0 -0.64824923947E+02  0.11455842955E+02  0.96493508818E+02  0.11681659662E+03  0.12700000000E+01 0. -1.
         -4    1    3    3    0  501  0.44819746999E+01  0.10582229872E+03  0.52762825720E+02  0.11833839479E+03  0.12700000000E+01 0. -1.
          2    1    1    2  502    0  0.18760797555E+02 -0.84506405067E+02  0.17985722822E+03  0.19960441519E+03  0.00000000000E+00 0. -1.
          1    1    1    2  503    0  0.41582151692E+02 -0.32771736611E+02 -0.82151731922E+03  0.82322157882E+03  0.00000000000E+00 0. -1.
<mgrwt>
<rscale>  0 0.70709423E+02</rscale>
<asrwt>0</asrwt>
<pdfrwt beam="2">  1        2 0.13464498E+00 0.52943952E+02</pdfrwt>
<pdfrwt beam="1">  1        1 0.58890556E-01 0.94436141E+02</pdfrwt>
<totfact> 0.30011928E+02</totfact>
</mgrwt>
</event>
<event>
 7    1  0.4252091E-004  0.4417255E+02  0.7546771E-02  0.1509196E+00
          1   -1    0    0  502    0 -0.00000000000E+00  0.00000000000E+00  0.62328697438E+03  0.62328697438E+03  0.00000000000E+00 0. -1.
          2   -1    0    0  503    0  0.00000000000E+00 -0.00000000000E+00 -0.57416806960E+02  0.57416806960E+02  0.00000000000E+00 0. -1.
         25    2    1    2    0    0  0.14501413267E+02  0.10864828755E+02  0.42683784755E+03  0.44513283234E+03  0.12499741930E+03 0.  0.
          4    1    3    3  501    0  0.38905191041E+02  0.65370170989E+01  0.41630680808E+03  0.41817378904E+03  0.12700000000E+01 0. -1.
         -4    1    3    3    0  501 -0.24403777774E+02  0.43278116563E+01  0.10531039470E+02  0.26959043300E+02  0.12700000000E+01 0. -1.
          2    1    1    2  502    0 -0.11689207871E+02  0.34028512895E+02  0.17457363242E+03  0.17824289722E+03  0.00000000000E+00 0. -1.
          1    1    1    2  503    0 -0.28122053960E+01 -0.44893341651E+02 -0.35541312553E+02  0.57328051788E+02  0.00000000000E+00 0. -1.
<mgrwt>
<rscale>  0 0.39866513E+02</rscale>
<asrwt>0</asrwt>
<pdfrwt beam="2">  1        2 0.88333553E-02 0.44172555E+02</pdfrwt>
<pdfrwt beam="1">  1        1 0.95890299E-01 0.35980234E+02</pdfrwt>
<totfact> 0.32116445E+03</totfact>
</mgrwt>
</event>
<event>
 7    1  0.4252091E-004  0.4370634E+02  0.7546771E-02  0.1508776E+00
          2   -1    0    0  503    0  0.00000000000E+00  0.00000000000E+00  0.59202498475E+03  0.59202498475E+03  0.00000000000E+00 0. -1.
          1   -1    0    0  502    0 -0.00000000000E+00 -0.00000000000E+00 -0.17351743362E+03  0.17351743362E+03  0.00000000000E+00 0. -1.
         25    2    1    2    0    0 -0.68945912672E+02 -0.43045254403E+00  0.27439233094E+03  0.30930564058E+03  0.12500041542E+03 0.  0.
          4    1    3    3  501    0  0.14218960059E+02 -0.23341751321E+02  0.17739485734E+03  0.17949251932E+03  0.12700000000E+01 0.  1.
         -4    1    3    3    0  501 -0.83164872732E+02  0.22911298777E+02  0.96997473597E+02  0.12981312126E+03  0.12700000000E+01 0.  1.
          2    1    1    2  502    0  0.38691398507E+02 -0.19930497261E+02 -0.15188539334E+03  0.15799817009E+03  0.00000000000E+00 0. -1.
          1    1    1    2  503    0  0.30254514166E+02  0.20360949805E+02  0.29600061354E+03  0.29823860769E+03  0.00000000000E+00 0. -1.
<mgrwt>
<rscale>  0 0.39923379E+02</rscale>
<asrwt>0</asrwt>
<pdfrwt beam="1">  1        2 0.91080766E-01 0.36467848E+02</pdfrwt>
<pdfrwt beam="2">  1        1 0.26694990E-01 0.43706342E+02</pdfrwt>
<totfact> 0.12259381E+03</totfact>
</mgrwt>
</event>
<event>
 7    1  0.4252091E-004  0.7946291E+02  0.7546771E-02  0.1437592E+00
          1   -1    0    0  502    0 -0.00000000000E+00  0.00000000000E+00  0.62404010541E+03  0.62404010541E+03  0.00000000000E+00 0. -1.
          2   -1    0    0  503    0  0.00000000000E+00 -0.00000000000E+00 -0.12889611268E+04  0.12889611268E+04  0.00000000000E+00 0. -1.
         25    2    1    2    0    0  0.10895836093E+03  0.11942281664E+02  0.53394418713E+02  0.17461706032E+03  0.12500244517E+03 0.  0.
          4    1    3    3  501    0 -0.44698682409E+01 -0.32308799664E+02 -0.13922617771E+02  0.35486482545E+02  0.12700000000E+01 0.  1.
         -4    1    3    3    0  501  0.11342822917E+03  0.44251081328E+02  0.67317036484E+02  0.13913057778E+03  0.12700000000E+01 0.  1.
          2    1    1    2  502    0 -0.32366054406E+02  0.79700937367E+01  0.50821316770E+03  0.50930512239E+03  0.00000000000E+00 0. -1.
          1    1    1    2  503    0 -0.76592306528E+02 -0.19912375401E+02 -0.12265286078E+04  0.12290790495E+04  0.00000000000E+00 0. -1.
<mgrwt>
<rscale>  0 0.51465824E+02</rscale>
<asrwt>0</asrwt>
<pdfrwt beam="2">  1        2 0.19830171E+00 0.79462906E+02</pdfrwt>
<pdfrwt beam="1">  1        1 0.96006171E-01 0.33332925E+02</pdfrwt>
<totfact> 0.95077713E+01</totfact>
</mgrwt>
</event>
<event>
 7    1  0.4252091E-004  0.4016062E+03  0.7546771E-02  0.1152293E+00
          1   -1    0    0  502    0 -0.00000000000E+00  0.00000000000E+00  0.51365414061E+03  0.51365414061E+03  0.00000000000E+00 0. -1.
          2   -1    0    0  503    0  0.00000000000E+00 -0.00000000000E+00 -0.14125674966E+04  0.14125674966E+04  0.00000000000E+00 0. -1.
         25    2    1    2    0    0 -0.30923150875E+03 -0.16844596638E+03 -0.24140558950E+03  0.44484298728E+03  0.12494180684E+03 0.  0.
          4    1    3    3  501    0 -0.26297463674E+03 -0.96603426441E+02 -0.14311162288E+03  0.31459566283E+03  0.12700000000E+01 0. -1.
         -4    1    3    3    0  501 -0.46256872014E+02 -0.71842539938E+02 -0.98293966617E+02  0.13024732445E+03  0.12700000000E+01 0. -1.
          2    1    1    2  502    0  0.39782477243E+03  0.12984674471E+03  0.30259872562E+03  0.51642106408E+03  0.00000000000E+00 0. -1.
          1    1    1    2  503    0 -0.88593263678E+02  0.38599221665E+02 -0.96010649208E+03  0.96495758582E+03  0.00000000000E+00 0. -1.
<mgrwt>
<rscale>  0 0.19700236E+03</rscale>
<asrwt>0</asrwt>
<pdfrwt beam="2">  1        2 0.21731807E+00 0.96636775E+02</pdfrwt>
<pdfrwt beam="1">  1        1 0.79023715E-01 0.40160620E+03</pdfrwt>
<totfact> 0.97160018E+01</totfact>
</mgrwt>
</event>
<event>
 7    1  0.4252091E-004  0.8446586E+02  0.7546771E-02  0.1454069E+00
          1   -1    0    0  502    0 -0.00000000000E+00  0.00000000000E+00  0.29772279718E+04  0.29772279718E+04  0.00000000000E+00 0. -1.
          2   -1    0    0  503    0  0.00000000000E+00 -0.00000000000E+00 -0.65783876554E+01  0.65783876554E+01  0.00000000000E+00 0. -1.
         25    2    1    2    0    0 -0.54791112888E+02 -0.33227250719E+02  0.18950193647E+04  0.19002182662E+04  0.12499980144E+03 0.  0.
          4    1    3    3  501    0 -0.41890553613E+02 -0.24644084664E+00  0.17638069181E+04  0.17643047742E+04  0.12700000000E+01 0.  1.
         -4    1    3    3    0  501 -0.12900559275E+02 -0.32980809873E+02  0.13121244657E+03  0.13591349192E+03  0.12700000000E+01 0.  1.
          2    1    1    2  502    0 -0.17471722624E+02 -0.21564246427E+02  0.50815953504E+03  0.50891688012E+03  0.00000000000E+00 0. -1.
          1    1    1    2  503    0  0.72262835512E+02  0.54791497147E+02  0.56747068446E+03  0.57467121320E+03  0.00000000000E+00 0. -1.
<mgrwt>
<rscale>  0 0.48417511E+02</rscale>
<asrwt>0</asrwt>
<pdfrwt beam="2">  1        2 0.10120620E-02 0.84465862E+02</pdfrwt>
<pdfrwt beam="1">  1        1 0.45803400E+00 0.27753879E+02</pdfrwt>
<totfact> 0.18344439E+03</totfact>
</mgrwt>
</event>
<event>
 7    1  0.4252091E-004  0.5950849E+02  0.7546771E-02  0.1409071E+00
          1   -1    0    0  502    0 -0.00000000000E+00  0.00000000000E+00  0.97577825204E+02  0.97577825204E+02  0.00000000000E+00 0. -1.
          2   -1    0    0  503    0  0.00000000000E+00 -0.00000000000E+00 -0.53923665624E+03  0.53923665624E+03  0.00000000000E+00 0. -1.
         25    2    1    2    0    0  0.65075929883E+01 -0.65489204097E+01 -0.82366027859E+02  0.14998024694E+03  0.12499869920E+03 0.  0.
          4    1    3    3  501    0  0.47350770169E+02  0.10473707443E+02 -0.92607202547E+02  0.10454425305E+03  0.12700000000E+01 0.  1.
         -4    1    3    3    0  501 -0.40843177180E+02 -0.17022627853E+02  0.10241174688E+02  0.45435993884E+02  0.12700000000E+01 0.  1.
          2    1    1    2  502    0  0.24144972753E+02  0.57555587888E+02  0.45785865219E+02  0.77407821699E+02  0.00000000000E+00 0. -1.
          1    1    1    2  503    0 -0.30652565741E+02 -0.51006667478E+02 -0.40507866840E+03  0.40942641281E+03  0.00000000000E+00 0. -1.
<mgrwt>
<rscale>  0 0.57401588E+02</rscale>
<asrwt>0</asrwt>
<pdfrwt beam="2">  1        2 0.82959486E-01 0.59508486E+02</pdfrwt>
<pdfrwt beam="1">  1        1 0.15011973E-01 0.55369285E+02</pdfrwt>
<totfact> 0.27537516E+03</totfact>
</mgrwt>
</event>
<event>
 7    1  0.4252091E-004  0.7776561E+02  0.7546771E-02  0.1370547E+00
          1   -1    0    0  502    0 -0.00000000000E+00  0.00000000000E+00  0.35009655048E+03  0.35009655048E+03  0.00000000000E+00 0. -1.
          2   -1    0    0  503    0  0.00000000000E+00 -0.00000000000E+00 -0.53351258485E+03  0.53351258485E+03  0.00000000000E+00 0. -1.
         25    2    1    2    0    0  0.56530664154E+02 -0.11438219277E+03  0.54138028145E+01  0.17869494826E+03  0.12499429290E+03 0.  0.
          4    1    3    3  501    0  0.51540283591E+02 -0.31709231084E+02  0.55312161578E+02  0.81993440512E+02  0.12700000000E+01 0.  1.
         -4    1    3    3    0  501  0.49903805626E+01 -0.82672961688E+02 -0.49898358764E+02  0.96701507743E+02  0.12700000000E+01 0.  1.
          2    1    1    2  502    0 -0.16184280553E+02  0.73061908950E+02  0.25068776237E+03  0.26161866844E+03  0.00000000000E+00 0. -1.
          3    1    1    2  503    0 -0.40346383601E+02  0.41320283822E+02 -0.43951759955E+03  0.44329551863E+03  0.00000000000E+00 0. -1.
<mgrwt>
<rscale>  0 0.67015329E+02</rscale>
<asrwt>0</asrwt>
<pdfrwt beam="2">  1        2 0.82078859E-01 0.57751160E+02</pdfrwt>
<pdfrwt beam="1">  1        1 0.53861008E-01 0.77765613E+02</pdfrwt>
<totfact> 0.58777482E+02</totfact>
</mgrwt>
</event>
<event>
 7    1  0.4252091E-004  0.1005020E+03  0.7546771E-02  0.1302976E+00
         -2   -1    0    0    0  501 -0.00000000000E+00  0.00000000000E+00  0.60839249251E+02  0.60839249251E+02  0.00000000000E+00 0.  1.
          2   -1    0    0  503    0  0.00000000000E+00 -0.00000000000E+00 -0.11507709120E+04  0.11507709120E+04  0.00000000000E+00 0. -1.
         25    2    1    2    0    0 -0.28955232969E+02  0.54811803314E+01 -0.68204133299E+03  0.69402653099E+03  0.12499598775E+03 0.  0.
          4    1    3    3  502    0 -0.47182717705E+02  0.53101461778E+02 -0.28497751050E+03  0.29370013362E+03  0.12700000000E+01 0.  1.
         -4    1    3    3    0  502  0.18227484736E+02 -0.47620281447E+02 -0.39706382249E+03  0.40032639738E+03  0.12700000000E+01 0.  1.
          1    1    1    2  503    0 -0.58288292362E+02  0.55527334295E+02 -0.40305404818E+03  0.41101505524E+03  0.00000000000E+00 0. -1.
         -3    1    1    2    0  501  0.87243525331E+02 -0.61008514626E+02 -0.48362816101E+01  0.10656857505E+03  0.00000000000E+00 0.  1.
<mgrwt>
<rscale>  0 0.89948672E+02</rscale>
<asrwt>0</asrwt>
<pdfrwt beam="2">  1        2 0.17704167E+00 0.80503477E+02</pdfrwt>
<pdfrwt beam="1">  1       -2 0.93598850E-02 0.10050204E+03</pdfrwt>
<totfact> 0.15916360E+03</totfact>
</mgrwt>
</event>
<event>
 7    1  0.4252091E-004  0.3500059E+02  0.7546771E-02  0.1621532E+00
         -2   -1    0    0    0  501 -0.00000000000E+00  0.00000000000E+00  0.24508663716E+03  0.24508663716E+03  0.00000000000E+00 0.  1.
          2   -1    0    0  503    0  0.00000000000E+00 -0.00000000000E+00 -0.68034978854E+02  0.68034978854E+02  0.00000000000E+00 0. -1.
         25    2    1    2    0    0  0.80403005383E+01 -0.22381756802E+02  0.96866426779E+02  0.15991763265E+03  0.12499982050E+03 0.  0.
          4    1    3    3  502    0  0.38242651133E+01 -0.23477837571E+02 -0.26978227589E+02  0.35989880863E+02  0.12700000000E+01 0.  1.
         -4    1    3    3    0  502  0.42160354250E+01  0.10960807686E+01  0.12384465437E+03  0.12392775179E+03  0.12700000000E+01 0.  1.
          1    1    1    2  503    0 -0.30257078207E+02  0.19763356369E+02 -0.26107022434E+02  0.44583154408E+02  0.00000000000E+00 0. -1.
         -1    1    1    2    0  501  0.22216777668E+02  0.26184004328E+01  0.10629225396E+03  0.10862082896E+03  0.00000000000E+00 0.  1.
<mgrwt>
<rscale>  0 0.27981820E+02</rscale>
<asrwt>0</asrwt>
<pdfrwt beam="2">  1        2 0.10466920E-01 0.35000590E+02</pdfrwt>
<pdfrwt beam="1">  1       -2 0.37705636E-01 0.22370544E+02</pdfrwt>
<totfact> 0.33981641E+03</totfact>
</mgrwt>
</event>
<event>
 7    1  0.4252091E-004  0.1315765E+03  0.7546771E-02  0.1298270E+00
          1   -1    0    0  503    0  0.00000000000E+00  0.00000000000E+00  0.10491795884E+04  0.10491795884E+04  0.00000000000E+00 0. -1.
         -1   -1    0    0    0  501 -0.00000000000E+00 -0.00000000000E+00 -0.82716255881E+02  0.82716255881E+02  0.00000000000E+00 0.  1.
         25    2    1    2    0    0  0.26839714846E+02 -0.11818248961E+03  0.16814501279E+03  0.24204288107E+03  0.12499815923E+03 0.  0.
          4    1    3    3  502    0  0.76433058649E+01 -0.37763603944E+02 -0.14788380392E+02  0.41289453884E+02  0.12700000000E+01 0. -1.
         -4    1    3    3    0  502  0.19196408981E+02 -0.80418885661E+02  0.18293339318E+03  0.20075342719E+03  0.12700000000E+01 0. -1.
          2    1    1    2  503    0  0.63664719006E+02  0.83825714625E+01  0.72855425892E+03  0.73137867903E+03  0.00000000000E+00 0. -1.
         -2    1    1    2    0  501 -0.90504433852E+02  0.10979991814E+03  0.69764060849E+02  0.15847428421E+03  0.00000000000E+00 0.  1.
<mgrwt>
<rscale>  0 0.91918874E+02</rscale>
<asrwt>0</asrwt>
<pdfrwt beam="1">  1        1 0.16141223E+00 0.64214204E+02</pdfrwt>
<pdfrwt beam="2">  1       -1 0.12725579E-01 0.13157649E+03</pdfrwt>
<totfact> 0.65504732E+02</totfact>
</mgrwt>
</event>
<event>
 7    1  0.4252091E-004  0.1135520E+03  0.7546771E-02  0.1259330E+00
          1   -1    0    0  502    0 -0.00000000000E+00  0.00000000000E+00  0.31779699429E+03  0.31779699429E+03  0.00000000000E+00 0. -1.
          2   -1    0    0  503    0  0.00000000000E+00 -0.00000000000E+00 -0.12209444109E+04  0.12209444109E+04  0.00000000000E+00 0. -1.
         25    2    1    2    0    0 -0.61737223743E+02 -0.23471759107E+02 -0.33519743919E+03  0.36378936844E+03  0.12499189205E+03 0.  0.
          4    1    3    3  501    0 -0.58546378103E+02 -0.70662391058E+02 -0.25034273382E+03  0.26663448609E+03  0.12700000000E+01 0.  1.
         -4    1    3    3    0  501 -0.31908456396E+01  0.47190631951E+02 -0.84854705375E+02  0.97154882349E+02  0.12700000000E+01 0.  1.
          2    1    1    2  502    0  0.82051890177E+02 -0.82463943993E+02  0.28884658830E+03  0.31139230292E+03  0.00000000000E+00 0. -1.
          1    1    1    2  503    0 -0.20314666434E+02  0.10593570310E+03 -0.85679656576E+03  0.86355973387E+03  0.00000000000E+00 0. -1.
<mgrwt>
<rscale>  0 0.11067248E+03</rscale>
<asrwt>0</asrwt>
<pdfrwt beam="2">  1        2 0.18783761E+00 0.10786593E+03</pdfrwt>
<pdfrwt beam="1">  1        1 0.48891844E-01 0.11355204E+03</pdfrwt>
<totfact> 0.23021891E+02</totfact>
</mgrwt>
</event>
<event>
 7    1  0.4252091E-004  0.3856291E+03  0.7546771E-02  0.1178514E+00
          1   -1    0    0  502    0 -0.00000000000E+00  0.00000000000E+00  0.94821207389E+03  0.94821207389E+03  0.00000000000E+00 0. -1.
          2   -1    0    0  503    0  0.00000000000E+00 -0.00000000000E+00 -0.76163211750E+03  0.76163211750E+03  0.00000000000E+00 0. -1.
         25    2    1    2    0    0  0.15496684741E+03  0.30542432818E+03  0.17794023615E+03  0.40569034866E+03  0.12499274905E+03 0.  0.
          4    1    3    3  501    0 -0.20940605469E+02  0.50261060256E+02  0.21916360728E+02  0.58707945825E+02  0.12700000000E+01 0.  1.
         -4    1    3    3    0  501  0.17590745287E+03  0.25516326793E+03  0.15602387542E+03  0.34698240284E+03  0.12700000000E+01 0.  1.
          2    1    1    2  502    0 -0.28135737517E+02  0.68854700306E+02  0.59358522231E+03  0.59822738622E+03  0.00000000000E+00 0. -1.
          1    1    1    2  503    0 -0.12683110989E+03 -0.37427902849E+03 -0.58494550207E+03  0.70592645651E+03  0.00000000000E+00 0. -1.
<mgrwt>
<rscale>  0 0.16936240E+03</rscale>
<asrwt>0</asrwt>
<pdfrwt beam="2">  1        2 0.11717417E+00 0.38562907E+03</pdfrwt>
<pdfrwt beam="1">  1        1 0.14587878E+00 0.74381379E+02</pdfrwt>
<totfact> 0.96945679E+01</totfact>
</mgrwt>
</event>
<event>
 7    1  0.4252091E-004  0.6844168E+02  0.7546771E-02  0.1486646E+00
          2   -1    0    0  503    0  0.00000000000E+00  0.00000000000E+00  0.62332214749E+02  0.62332214749E+02  0.00000000000E+00 0. -1.
          1   -1    0    0  502    0 -0.00000000000E+00 -0.00000000000E+00 -0.28213961827E+03  0.28213961827E+03  0.00000000000E+00 0. -1.
         25    2    1    2    0    0 -0.28519873093E+01  0.86481238791E+02 -0.84584181026E+02  0.17397217868E+03  0.12499878712E+03 0.  0.
          4    1    3    3  501    0  0.34272352045E+02  0.81974037395E+02 -0.99757251678E+02  0.13359438268E+03  0.12700000000E+01 0.  1.
         -4    1    3    3    0  501 -0.37124339354E+02  0.45072013966E+01  0.15173070652E+02  0.40377796002E+02  0.12700000000E+01 0.  1.
          2    1    1    2  502    0 -0.12724401364E+02 -0.64273273229E+02 -0.12569855441E+03  0.14175009920E+03  0.00000000000E+00 0. -1.
          1    1    1    2  503    0  0.15576388674E+02 -0.22207965563E+02 -0.95246680822E+01  0.28749555138E+02  0.00000000000E+00 0. -1.
<mgrwt>
<rscale>  0 0.43087657E+02</rscale>
<asrwt>0</asrwt>
<pdfrwt beam="1">  1        2 0.95895715E-02 0.27125958E+02</pdfrwt>
<pdfrwt beam="2">  1        1 0.43406095E-01 0.68441682E+02</pdfrwt>
<totfact> 0.73419826E+03</totfact>
</mgrwt>
</event>
<event>
 7    1  0.4252091E-004  0.3358972E+03  0.7546771E-02  0.1130259E+00
          2   -1    0    0  503    0  0.00000000000E+00  0.00000000000E+00  0.55832376002E+03  0.55832376002E+03  0.00000000000E+00 0. -1.
          1   -1    0    0  502    0 -0.00000000000E+00 -0.00000000000E+00 -0.94729467771E+03  0.94729467771E+03  0.00000000000E+00 0. -1.
         25    2    1    2    0    0  0.43032573031E+03  0.63463790419E+01 -0.11401392634E+03  0.46242907594E+03  0.12498385569E+03 0.  0.
          4    1    3    3  501    0  0.42443618506E+03  0.19995361443E+02 -0.90277694108E+02  0.43439332939E+03  0.12700000000E+01 0. -1.
         -4    1    3    3    0  501  0.58895452482E+01 -0.13648982401E+02 -0.23736232232E+02  0.28035746546E+02  0.12700000000E+01 0. -1.
          2    1    1    2  502    0 -0.12377778561E+03 -0.85828476861E+02 -0.58255250946E+03  0.60170997493E+03  0.00000000000E+00 0. -1.
          1    1    1    2  503    0 -0.30654794470E+03  0.79482097819E+02  0.30759551811E+03  0.44147938687E+03  0.00000000000E+00 0. -1.
<mgrwt>
<rscale>  0 0.22493119E+03</rscale>
<asrwt>0</asrwt>
<pdfrwt beam="1">  1        2 0.85895964E-01 0.33589717E+03</pdfrwt>
<pdfrwt beam="2">  1        1 0.14573764E+00 0.15062360E+03</pdfrwt>
<totfact> 0.13598450E+02</totfact>
</mgrwt>
</event>
<event>
 7    1  0.4252091E-004  0.1825325E+03  0.7546771E-02  0.1275956E+00
          1   -1    0    0  502    0 -0.00000000000E+00  0.00000000000E+00  0.22789897283E+04  0.22789897283E+04  0.00000000000E+00 0. -1.
          2   -1    0    0  503    0  0.00000000000E+00 -0.00000000000E+00 -0.25996798128E+03  0.25996798128E+03  0.00000000000E+00 0. -1.
         25    2    1    2    0    0  0.12613072746E+01  0.21524677723E+03  0.11809355964E+04  0.12068834775E+04  0.12500431830E+03 0.  0.
          4    1    3    3  501    0 -0.57770014946E+02  0.10817551734E+03  0.69909351228E+03  0.70976944777E+03  0.12700000000E+01 0.  1.
         -4    1    3    3    0  501  0.59031322221E+02  0.10707125989E+03  0.48184208409E+03  0.49711402977E+03  0.12700000000E+01 0.  1.
          2    1    1    2  502    0 -0.42442774325E+02 -0.38199818578E+02  0.10507560294E+04  0.10523064423E+04  0.00000000000E+00 0. -1.
          1    1    1    2  503    0  0.41181467051E+02 -0.17704695865E+03 -0.21266987879E+03  0.27976778967E+03  0.00000000000E+00 0. -1.
<mgrwt>
<rscale>  0 0.10209278E+03</rscale>
<asrwt>0</asrwt>
<pdfrwt beam="2">  1        2 0.39995076E-01 0.18253255E+03</pdfrwt>
<pdfrwt beam="1">  1        1 0.35061379E+00 0.57101797E+02</pdfrwt>
<totfact> 0.47617877E+01</totfact>
</mgrwt>
</event>
<event>
 7    1  0.4252091E-004  0.7781375E+02  0.7546771E-02  0.1389497E+00
         -2   -1    0    0    0  501  0.00000000000E+00  0.00000000000E+00  0.17605378223E+02  0.17605378223E+02  0.00000000000E+00 0.  1.
         -1   -1    0    0    0  502 -0.00000000000E+00 -0.00000000000E+00 -0.14575018936E+04  0.14575018936E+04  0.00000000000E+00 0.  1.
         25    2    1    2    0    0  0.15612363661E+02  0.15968774105E+02 -0.38483979334E+03  0.40524527364E+03  0.12499327032E+03 0.  0.
          4    1    3    3  503    0 -0.18738775193E+02 -0.48585904635E+02 -0.12793468099E+03  0.13813264395E+03  0.12700000000E+01 0.  1.
         -4    1    3    3    0  503  0.34351138854E+02  0.64554678741E+02 -0.25690511236E+03  0.26711262969E+03  0.12700000000E+01 0.  1.
         -2    1    1    2    0  502 -0.55244985400E+02  0.54799374787E+02 -0.75623610424E+03  0.76022892950E+03  0.00000000000E+00 0.  1.
         -1    1    1    2    0  501  0.39632621739E+02 -0.70768148892E+02 -0.29882061781E+03  0.30963306870E+03  0.00000000000E+00 0.  1.
<mgrwt>
<rscale>  0 0.62032100E+02</rscale>
<asrwt>0</asrwt>
<pdfrwt beam="1">  1       -2 0.27085194E-02 0.49451174E+02</pdfrwt>
<pdfrwt beam="2">  1       -1 0.22423109E+00 0.77813751E+02</pdfrwt>
<totfact> 0.38920410E+02</totfact>
</mgrwt>
</event>
<event>
 7    1  0.4252091E-004  0.5305954E+02  0.7546771E-02  0.1555930E+00
          1   -1    0    0  502    0 -0.00000000000E+00  0.00000000000E+00  0.38624246769E+03  0.38624246769E+03  0.00000000000E+00 0. -1.
          2   -1    0    0  503    0  0.00000000000E+00 -0.00000000000E+00 -0.28302482058E+03  0.28302482058E+03  0.00000000000E+00 0. -1.
         25    2    1    2    0    0 -0.36811507665E+02 -0.38734199779E+02 -0.86556348734E+01  0.13624991366E+03  0.12503476968E+03 0.  0.
          4    1    3    3  501    0 -0.28397285329E+01  0.44613904639E+02 -0.11547638955E+02  0.46189018292E+02  0.12700000000E+01 0. -1.
         -4    1    3    3    0  501 -0.33971779132E+02 -0.83348104419E+02  0.28920040816E+01  0.90060895372E+02  0.12700000000E+01 0. -1.
          2    1    1    2  502    0  0.18842083153E+02 -0.11412331369E+02  0.31869012779E+03  0.31945056419E+03  0.00000000000E+00 0. -1.
          3    1    1    2  503    0  0.17969424512E+02  0.50146531148E+02 -0.20681684580E+03  0.21356681042E+03  0.00000000000E+00 0. -1.
<mgrwt>
<rscale>  0 0.34188228E+02</rscale>
<asrwt>0</asrwt>
<pdfrwt beam="2">  1        2 0.43542280E-01 0.53059543E+02</pdfrwt>
<pdfrwt beam="1">  1        1 0.59421918E-01 0.22028740E+02</pdfrwt>
<totfact> 0.10135504E+03</totfact>
</mgrwt>
</event>
<event>
 7    1  0.4252091E-004  0.7737062E+02  0.7546771E-02  0.1393562E+00
          2   -1    0    0  503    0  0.00000000000E+00  0.00000000000E+00  0.16132107521E+03  0.16132107521E+03  0.00000000000E+00 0. -1.
          1   -1    0    0  502    0 -0.00000000000E+00 -0.00000000000E+00 -0.15928381006E+04  0.15928381006E+04  0.00000000000E+00 0. -1.
         25    2    1    2    0    0 -0.52601151992E+02 -0.42289306532E+02 -0.67903962474E+03  0.69374023127E+03  0.12500171949E+03 0.  0.
          4    1    3    3  501    0 -0.49892009285E+02 -0.33811702687E+02 -0.68170351552E+03  0.68436374817E+03  0.12700000000E+01 0.  1.
         -4    1    3    3    0  501 -0.27091427072E+01 -0.84776038455E+01  0.26638907868E+01  0.93764830983E+01  0.12700000000E+01 0.  1.
          2    1    1    2  502    0 -0.25103715352E+02  0.41075648239E+02 -0.89595440540E+03  0.89724673416E+03  0.00000000000E+00 0. -1.
          1    1    1    2  503    0  0.77704867344E+02  0.12136582937E+01  0.14347700471E+03  0.16317221043E+03  0.00000000000E+00 0. -1.
<mgrwt>
<rscale>  0 0.61029320E+02</rscale>
<asrwt>0</asrwt>
<pdfrwt beam="1">  1        2 0.24818626E-01 0.77370616E+02</pdfrwt>
<pdfrwt beam="2">  1        1 0.24505202E+00 0.48139437E+02</pdfrwt>
<totfact> 0.21144948E+02</totfact>
</mgrwt>
</event>
<event>
 7    1  0.4252091E-004  0.6163451E+02  0.7546771E-02  0.1404820E+00
          2   -1    0    0  503    0  0.00000000000E+00  0.00000000000E+00  0.15253102614E+04  0.15253102614E+04  0.00000000000E+00 0. -1.
          1   -1    0    0  502    0 -0.00000000000E+00 -0.00000000000E+00 -0.78330588425E+03  0.78330588425E+03  0.00000000000E+00 0. -1.
         25    2    1    2    0    0  0.82131981072E+02 -0.28346953376E+02 -0.14628148848E+02  0.15293624640E+03  0.12500520247E+03 0.  0.
          4    1    3    3  501    0  0.10185446373E+03 -0.43063384555E+02 -0.39967417055E+02  0.11759164170E+03  0.12700000000E+01 0.  1.
         -4    1    3    3    0  501 -0.19722482655E+02  0.14716431179E+02  0.25339268206E+02  0.35344604708E+02  0.12700000000E+01 0.  1.
          2    1    1    2  502    0 -0.24335245915E+02  0.49625021013E+02 -0.69777918149E+03  0.69996473699E+03  0.00000000000E+00 0. -1.
          3    1    1    2  503    0 -0.57796735157E+02 -0.21278067636E+02  0.14544117075E+04  0.14557151623E+04  0.00000000000E+00 0. -1.
<mgrwt>
<rscale>  0 0.58365920E+02</rscale>
<asrwt>0</asrwt>
<pdfrwt beam="1">  1        2 0.23466312E+00 0.61634510E+02</pdfrwt>
<pdfrwt beam="2">  1        1 0.12050860E+00 0.55270669E+02</pdfrwt>
<totfact> 0.52734120E+01</totfact>
</mgrwt>
</event>
<event>
 7    1  0.4252091E-004  0.5378174E+02  0.7546771E-02  0.1490239E+00
          2   -1    0    0  503    0  0.00000000000E+00  0.00000000000E+00  0.18135232872E+04  0.18135232872E+04  0.00000000000E+00 0. -1.
          1   -1    0    0  502    0 -0.00000000000E+00 -0.00000000000E+00 -0.25040155182E+02  0.25040155182E+02  0.00000000000E+00 0. -1.
         25    2    1    2    0    0  0.50395225978E+02 -0.37829995547E+02  0.66961732465E+03  0.68409102163E+03  0.12498950770E+03 0.  0.
          4    1    3    3  501    0  0.72483758843E+02  0.11475722497E+02  0.51708095327E+03  0.52226421727E+03  0.12700000000E+01 0.  1.
         -4    1    3    3    0  501 -0.22088532865E+02 -0.49305718044E+02  0.15253637138E+03  0.16182680436E+03  0.12700000000E+01 0.  1.
          2    1    1    2  502    0 -0.31293291257E+02 -0.12411733623E+02 -0.64597661560E+00  0.33671033471E+02  0.00000000000E+00 0. -1.
          1    1    1    2  503    0 -0.19101934721E+02  0.50241729170E+02  0.11195117840E+04  0.11208013873E+04  0.00000000000E+00 0. -1.
<mgrwt>
<rscale>  0 0.42550597E+02</rscale>
<asrwt>0</asrwt>
<pdfrwt beam="1">  1        2 0.27900348E+00 0.53781736E+02</pdfrwt>
<pdfrwt beam="2">  1        1 0.38523330E-02 0.33664836E+02</pdfrwt>
<totfact> 0.28427319E+03</totfact>
</mgrwt>
</event>
<event>
 7    1  0.4252091E-004  0.7314233E+02  0.7546771E-02  0.1381146E+00
         -1   -1    0    0    0  501 -0.00000000000E+00  0.00000000000E+00  0.13435899688E+03  0.13435899688E+03  0.00000000000E+00 0.  1.
          1   -1    0    0  503    0  0.00000000000E+00 -0.00000000000E+00 -0.26363630175E+03  0.26363630175E+03  0.00000000000E+00 0. -1.
         25    2    1    2    0    0  0.27851665451E+02 -0.27213047643E+02  0.22180257219E+02  0.13279130728E+03  0.12500120899E+03 0.  0.
          4    1    3    3  502    0  0.20215104239E+02  0.98727811490E+01  0.68987004343E+02  0.72573699886E+02  0.12700000000E+01 0.  1.
         -4    1    3    3    0  502  0.76365612120E+01 -0.37085828792E+02 -0.46806747123E+02  0.60217607397E+02  0.12700000000E+01 0.  1.
          2    1    1    2  503    0 -0.27596855758E+01  0.77597861049E+02 -0.18433310611E+03  0.20001934384E+03  0.00000000000E+00 0. -1.
         -2    1    1    2    0  501 -0.25091979876E+02 -0.50384813406E+02  0.32875544020E+02  0.65184647507E+02  0.00000000000E+00 0.  1.
<mgrwt>
<rscale>  0 0.64163612E+02</rscale>
<asrwt>0</asrwt>
<pdfrwt beam="2">  1        1 0.40559431E-01 0.73142330E+02</pdfrwt>
<pdfrwt beam="1">  1       -1 0.20670615E-01 0.56287093E+02</pdfrwt>
<totfact> 0.18616785E+03</totfact>
</mgrwt>
</event>
<event>
 7    1  0.1786688E-003  0.4452318E+02  0.7546771E-02  0.1511894E+00
         -3   -1    0    0    0  501 -0.00000000000E+00  0.00000000000E+00  0.95272859329E+02  0.95272859329E+02  0.00000000000E+00 0.  1.
          3   -1    0    0  503    0  0.00000000000E+00 -0.00000000000E+00 -0.14356195442E+03  0.14356195442E+03  0.00000000000E+00 0. -1.
         25    2    1    2    0    0 -0.24437711475E+02 -0.10570353368E+02 -0.62278878568E+02  0.14216913592E+03  0.12499788150E+03 0.  0.
          4    1    3    3  502    0  0.14167454321E+02  0.50563241064E+02 -0.41462910707E+02  0.66918935834E+02  0.12700000000E+01 0.  1.
         -4    1    3    3    0  502 -0.38605165796E+02 -0.61133594432E+02 -0.20815967861E+02  0.75250200082E+02  0.12700000000E+01 0.  1.
          2    1    1    2  503    0  0.58251951595E+02  0.13436788458E+01 -0.16348551335E+01  0.58290377326E+02  0.00000000000E+00 0. -1.
         -2    1    1    2    0  501 -0.33814240121E+02  0.92266745222E+01  0.15624638608E+02  0.38375300511E+02  0.00000000000E+00 0.  1.
<mgrwt>
<rscale>  0 0.39503895E+02</rscale>
<asrwt>0</asrwt>
<pdfrwt beam="2">  1        3 0.22086454E-01 0.44523182E+02</pdfrwt>
<pdfrwt beam="1">  1       -3 0.14657363E-01 0.35050454E+02</pdfrwt>
<totfact> 0.12737938E+03</totfact>
</mgrwt>
</event>
<event>
 7    1  0.4252091E-004  0.1639320E+03  0.7546771E-02  0.1365144E+00
          2   -1    0    0  503    0  0.00000000000E+00  0.00000000000E+00  0.10868521910E+04  0.10868521910E+04  0.00000000000E+00 0. -1.
          3   -1    0    0  502    0 -0.00000000000E+00 -0.00000000000E+00 -0.27581448387E+03  0.27581448387E+03  0.00000000000E+00 0. -1.
         25    2    1    2    0    0 -0.30340450767E+02 -0.14473891363E+03  0.35940333513E+03  0.40824485735E+03  0.12499284051E+03 0.  0.
          4    1    3    3  501    0 -0.58390037516E+02 -0.68087743353E+02  0.28133980566E+03  0.29529482966E+03  0.12700000000E+01 0. -1.
         -4    1    3    3    0  501  0.28049586749E+02 -0.76651170276E+02  0.78063529471E+02  0.11295002769E+03  0.12700000000E+01 0. -1.
          2    1    1    2  502    0  0.13192873540E+02 -0.25435120366E+02 -0.24012678557E+03  0.24183025122E+03  0.00000000000E+00 0. -1.
          1    1    1    2  503    0  0.17147577227E+02  0.17017403399E+03  0.69176115753E+03  0.71259156627E+03  0.00000000000E+00 0. -1.
<mgrwt>
<rscale>  0 0.68535774E+02</rscale>
<asrwt>0</asrwt>
<pdfrwt beam="1">  1        2 0.16720803E+00 0.16393202E+03</pdfrwt>
<pdfrwt beam="2">  1        3 0.42432998E-01 0.28653050E+02</pdfrwt>
<totfact> 0.71574678E+01</totfact>
</mgrwt>
</event>
<event>
 7    1  0.4252091E-004  0.1018131E+03  0.7546771E-02  0.1279138E+00
          2   -1    0    0  503    0  0.00000000000E+00  0.00000000000E+00  0.27860370227E+03  0.27860370227E+03  0.00000000000E+00 0. -1.
          1   -1    0    0  502    0 -0.00000000000E+00 -0.00000000000E+00 -0.11633257708E+04  0.11633257708E+04  0.00000000000E+00 0. -1.
         25    2    1    2    0    0 -0.13001122150E+02  0.12766236503E+03 -0.43167832601E+03  0.46737341224E+03  0.12500008281E+03 0.  0.
          4    1    3    3  501    0 -0.63807068020E+02  0.10200783286E+03 -0.32304176282E+03  0.34472385082E+03  0.12700000000E+01 0. -1.
         -4    1    3    3    0  501  0.50805945870E+02  0.25654532167E+02 -0.10863656319E+03  0.12264956143E+03  0.12700000000E+01 0. -1.
          2    1    1    2  502    0 -0.70997167287E+02 -0.69436740010E+02 -0.70014454827E+03  0.70715235070E+03  0.00000000000E+00 0. -1.
          1    1    1    2  503    0  0.83998289437E+02 -0.58225625020E+02  0.24710080570E+03  0.26740371017E+03  0.00000000000E+00 0. -1.
<mgrwt>
<rscale>  0 0.10055272E+03</rscale>
<asrwt>0</asrwt>
<pdfrwt beam="1">  1        2 0.42862108E-01 0.10181314E+03</pdfrwt>
<pdfrwt beam="2">  1        1 0.17897320E+00 0.99307898E+02</pdfrwt>
<totfact> 0.21028089E+02</totfact>
</mgrwt>
</event>
<event>
 7    1  0.4252091E-004  0.5851170E+02  0.7546771E-02  0.1435239E+00
          2   -1    0    0  503    0  0.00000000000E+00  0.00000000000E+00  0.16257688914E+04  0.16257688914E+04  0.00000000000E+00 0. -1.
          1   -1    0    0  502    0 -0.00000000000E+00 -0.00000000000E+00 -0.54117241242E+02  0.54117241242E+02  0.00000000000E+00 0. -1.
         25    2    1    2    0    0  0.96724578866E+02  0.70282994358E+01  0.55237644668E+03  0.57458707500E+03  0.12500210699E+03 0.  0.
          4    1    3    3  501    0  0.10628644695E+03  0.41733947647E+02  0.48415752956E+03  0.49744211474E+03  0.12700000000E+01 0.  1.
         -4    1    3    3    0  501 -0.95618680835E+01 -0.34705648211E+02  0.68218917128E+02  0.77144960257E+02  0.12700000000E+01 0.  1.
          2    1    1    2  502    0 -0.55650246970E+02  0.13848852288E+02 -0.23158891783E+02  0.61847190447E+02  0.00000000000E+00 0. -1.
          1    1    1    2  503    0 -0.41074331895E+02 -0.20877151724E+02  0.10424340953E+04  0.10434518672E+04  0.00000000000E+00 0. -1.
<mgrwt>
<rscale>  0 0.51922624E+02</rscale>
<asrwt>0</asrwt>
<pdfrwt beam="1">  1        2 0.25011825E+00 0.46075549E+02</pdfrwt>
<pdfrwt beam="2">  1        1 0.83257306E-02 0.58511704E+02</pdfrwt>
<totfact> 0.13767929E+03</totfact>
</mgrwt>
</event>
<event>
 7    1  0.4252091E-004  0.2287231E+03  0.7546771E-02  0.1275607E+00
          2   -1    0    0  503    0  0.00000000000E+00  0.00000000000E+00  0.37266322075E+03  0.37266322075E+03  0.00000000000E+00 0. -1.
          1   -1    0    0  502    0 -0.00000000000E+00 -0.00000000000E+00 -0.26170930655E+04  0.26170930655E+04  0.00000000000E+00 0. -1.
         25    2    1    2    0    0 -0.24897269736E+03  0.82555256441E+02 -0.65538166095E+03  0.71690503107E+03  0.12499971068E+03 0.  0.
          4    1    3    3  501    0 -0.25021395566E+03  0.53343116546E+02 -0.62170856963E+03  0.67229135807E+03  0.12700000000E+01 0. -1.
         -4    1    3    3    0  501  0.12412582943E+01  0.29212139895E+02 -0.33673091316E+02  0.44613672996E+02  0.12700000000E+01 0. -1.
          2    1    1    2  502    0  0.43540194535E+02  0.13957360196E+02 -0.18929736101E+04  0.18935257181E+04  0.00000000000E+00 0. -1.
          1    1    1    2  503    0  0.20543250283E+03 -0.96512616638E+02  0.30392542627E+03  0.37932553714E+03  0.00000000000E+00 0. -1.
<mgrwt>
<rscale>  0 0.10226347E+03</rscale>
<asrwt>0</asrwt>
<pdfrwt beam="1">  1        2 0.57332804E-01 0.22872314E+03</pdfrwt>
<pdfrwt beam="2">  1        1 0.40262970E+00 0.45722603E+02</pdfrwt>
<totfact> 0.20546682E+01</totfact>
</mgrwt>
</event>
<event>
 7    1  0.4252091E-004  0.1187856E+03  0.7546771E-02  0.1252583E+00
         -2   -1    0    0    0  501 -0.00000000000E+00  0.00000000000E+00  0.13890285590E+03  0.13890285590E+03  0.00000000000E+00 0.  1.
          2   -1    0    0  503    0  0.00000000000E+00 -0.00000000000E+00 -0.12979774453E+04  0.12979774453E+04  0.00000000000E+00 0. -1.
         25    2    1    2    0    0  0.18416687744E+03 -0.11178493003E+02 -0.20252519732E+03  0.30114304530E+03  0.12501312224E+03 0.  0.
          4    1    3    3  502    0  0.11390917317E+03 -0.27990406835E+02 -0.41118183130E+02  0.12430237525E+03  0.12700000000E+01 0. -1.
         -4    1    3    3    0  502  0.70257704264E+02  0.16811913833E+02 -0.16140701419E+03  0.17684067006E+03  0.12700000000E+01 0. -1.
          1    1    1    2  503    0 -0.94273038248E+02 -0.57125873673E+02 -0.10063303544E+04  0.10123495213E+04  0.00000000000E+00 0. -1.
         -1    1    1    2    0  501 -0.89893839189E+02  0.68304366676E+02  0.49780962312E+02  0.12338773456E+03  0.00000000000E+00 0.  1.
<mgrwt>
<rscale>  0 0.11442815E+03</rscale>
<asrwt>0</asrwt>
<pdfrwt beam="2">  1        2 0.19968884E+00 0.11023054E+03</pdfrwt>
<pdfrwt beam="1">  1       -2 0.21369670E-01 0.11878561E+03</pdfrwt>
<totfact> 0.34413564E+02</totfact>
</mgrwt>
</event>
<event>
 7    1  0.4252091E-004  0.4678254E+02  0.7546771E-02  0.1525765E+00
          1   -1    0    0  502    0 -0.00000000000E+00  0.00000000000E+00  0.20126731234E+02  0.20126731234E+02  0.00000000000E+00 0. -1.
          2   -1    0    0  503    0  0.00000000000E+00 -0.00000000000E+00 -0.20603000361E+04  0.20603000361E+04  0.00000000000E+00 0. -1.
         25    2    1    2    0    0 -0.25374354345E+02  0.49914764782E+02 -0.46861768560E+03  0.48822402937E+03  0.12499930399E+03 0.  0.
          4    1    3    3  501    0  0.37797584619E+02  0.11933856003E+02 -0.53413634035E+02  0.66525961270E+02  0.12700000000E+01 0. -1.
         -4    1    3    3    0  501 -0.63171938965E+02  0.37980908780E+02 -0.41520405157E+03  0.42169806810E+03  0.12700000000E+01 0. -1.
          2    1    1    2  502    0  0.30207351243E+02 -0.34035290085E+01 -0.13191759736E+02  0.33137450170E+02  0.00000000000E+00 0. -1.
          1    1    1    2  503    0 -0.48329968975E+01 -0.46511235774E+02 -0.15583638595E+04  0.15590652878E+04  0.00000000000E+00 0. -1.
<mgrwt>
<rscale>  0 0.37710985E+02</rscale>
<asrwt>0</asrwt>
<pdfrwt beam="2">  1        2 0.31696923E+00 0.46782537E+02</pdfrwt>
<pdfrwt beam="1">  1        1 0.30964202E-02 0.30398488E+02</pdfrwt>
<totfact> 0.28769357E+03</totfact>
</mgrwt>
</event>
<event>
 7    1  0.4252091E-004  0.1167445E+03  0.7546771E-02  0.1442248E+00
         -1   -1    0    0    0  501 -0.00000000000E+00  0.00000000000E+00  0.31393797043E+03  0.31393797043E+03  0.00000000000E+00 0.  1.
          1   -1    0    0  503    0  0.00000000000E+00 -0.00000000000E+00 -0.77312202541E+03  0.77312202541E+03  0.00000000000E+00 0. -1.
         25    2    1    2    0    0 -0.43866541756E+02  0.10418604592E+03 -0.36532498757E+03  0.40232508166E+03  0.12499647649E+03 0.  0.
          4    1    3    3  502    0  0.99106190286E+01  0.24193794339E+02 -0.25281670810E+03  0.25416817435E+03  0.12700000000E+01 0. -1.
         -4    1    3    3    0  502 -0.53777160784E+02  0.79992251582E+02 -0.11250827947E+03  0.14815690731E+03  0.12700000000E+01 0. -1.
          2    1    1    2  503    0  0.19422593537E+02  0.10144569962E+02 -0.37740001436E+03  0.37803560715E+03  0.00000000000E+00 0. -1.
         -2    1    1    2    0  501  0.24443948219E+02 -0.11433061588E+03  0.28354094695E+03  0.30669930702E+03  0.00000000000E+00 0.  1.
<mgrwt>
<rscale>  0 0.50578084E+02</rscale>
<asrwt>0</asrwt>
<pdfrwt beam="2">  1        1 0.11894185E+00 0.21912313E+02</pdfrwt>
<pdfrwt beam="1">  1       -1 0.48298150E-01 0.11674453E+03</pdfrwt>
<totfact> 0.12236768E+02</totfact>
</mgrwt>
</event>
<event>
 7    1  0.4252091E-004  0.5893641E+02  0.7546771E-02  0.1494097E+00
          1   -1    0    0  503    0  0.00000000000E+00  0.00000000000E+00  0.12055578030E+04  0.12055578030E+04  0.00000000000E+00 0. -1.
         -1   -1    0    0    0  501 -0.00000000000E+00 -0.00000000000E+00 -0.17773178599E+03  0.17773178599E+03  0.00000000000E+00 0.  1.
         25    2    1    2    0    0  0.39506309801E+02  0.28630473313E+02  0.61519836967E+03  0.62966148109E+03  0.12499637678E+03 0.  0.
          4    1    3    3  502    0  0.41104879138E+02 -0.43552791891E+02  0.33464444212E+03  0.33996319259E+03  0.12700000000E+01 0. -1.
         -4    1    3    3    0  502 -0.15985693373E+01  0.72183265204E+02  0.28055392755E+03  0.28969828851E+03  0.12700000000E+01 0. -1.
          2    1    1    2  503    0 -0.15719904241E+02  0.25443769602E+02  0.57761231787E+03  0.57838610855E+03  0.00000000000E+00 0. -1.
         -2    1    1    2    0  501 -0.23786405560E+02 -0.54074242915E+02 -0.16498467051E+03  0.17524199936E+03  0.00000000000E+00 0.  1.
<mgrwt>
<rscale>  0 0.41984309E+02</rscale>
<asrwt>0</asrwt>
<pdfrwt beam="1">  1        1 0.18547043E+00 0.29908206E+02</pdfrwt>
<pdfrwt beam="2">  1       -1 0.27343352E-01 0.58936408E+02</pdfrwt>
<totfact> 0.15839355E+02</totfact>
</mgrwt>
</event>
<event>
 7    1  0.4252091E-004  0.5505620E+02  0.7546771E-02  0.1454742E+00
          2   -1    0    0  503    0  0.00000000000E+00  0.00000000000E+00  0.21288502518E+04  0.21288502518E+04  0.00000000000E+00 0. -1.
          1   -1    0    0  502    0 -0.00000000000E+00 -0.00000000000E+00 -0.99909589606E+02  0.99909589606E+02  0.00000000000E+00 0. -1.
         25    2    1    2    0    0 -0.77978073341E+02  0.50842010584E+01  0.56144947978E+03  0.58047917691E+03  0.12499650977E+03 0.  0.
          4    1    3    3  501    0 -0.55115982149E+02 -0.12738714830E+02  0.79083396541E+02  0.97241158222E+02  0.12700000000E+01 0.  1.
         -4    1    3    3    0  501 -0.22862091191E+02  0.17822915889E+02  0.48236608324E+03  0.48323801869E+03  0.12700000000E+01 0.  1.
          2    1    1    2  502    0  0.44899538247E+02 -0.31561089005E+02 -0.81747998081E+02  0.98462206273E+02  0.00000000000E+00 0. -1.
          1    1    1    2  503    0  0.33078535094E+02  0.26476887946E+02  0.15492391805E+04  0.15498184582E+04  0.00000000000E+00 0. -1.
<mgrwt>
<rscale>  0 0.48298345E+02</rscale>
<asrwt>0</asrwt>
<pdfrwt beam="1">  1        2 0.32751539E+00 0.42369979E+02</pdfrwt>
<pdfrwt beam="2">  1        1 0.15370708E-01 0.55056203E+02</pdfrwt>
<totfact> 0.36039409E+02</totfact>
</mgrwt>
</event>
<event>
 7    1  0.4252091E-004  0.2076931E+03  0.7546771E-02  0.1195095E+00
          1   -1    0    0  502    0 -0.00000000000E+00  0.00000000000E+00  0.15483428811E+04  0.15483428811E+04  0.00000000000E+00 0. -1.
          2   -1    0    0  503    0  0.00000000000E+00 -0.00000000000E+00 -0.13176388608E+04  0.13176388608E+04  0.00000000000E+00 0. -1.
         25    2    1    2    0    0 -0.32684681638E+02  0.26996119660E+03 -0.10481298355E+03  0.31710732629E+03  0.12499583504E+03 0.  0.
          4    1    3    3  501    0 -0.17121735324E+02  0.10318952377E+03 -0.10693532654E+03  0.14959280931E+03  0.12700000000E+01 0. -1.
         -4    1    3    3    0  501 -0.15562946314E+02  0.16677167284E+03  0.21223429818E+01  0.16751451698E+03  0.12700000000E+01 0. -1.
          2    1    1    2  502    0 -0.56967333708E+02 -0.19813894874E+03  0.14318113636E+04  0.14465780660E+04  0.00000000000E+00 0. -1.
          1    1    1    2  503    0  0.89652015345E+02 -0.71822247864E+02 -0.10962943597E+04  0.11022963496E+04  0.00000000000E+00 0. -1.
<mgrwt>
<rscale>  0 0.15446176E+03</rscale>
<asrwt>0</asrwt>
<pdfrwt beam="2">  1        2 0.20271367E+00 0.11487349E+03</pdfrwt>
<pdfrwt beam="1">  1        1 0.23820660E+00 0.20769314E+03</pdfrwt>
<totfact> 0.17091157E+01</totfact>
</mgrwt>
</event>
<event>
 7    1  0.4252091E-004  0.3654709E+02  0.7546771E-02  0.1558320E+00
          1   -1    0    0  502    0 -0.00000000000E+00  0.00000000000E+00  0.11191724151E+02  0.11191724151E+02  0.00000000000E+00 0. -1.
          2   -1    0    0  503    0  0.00000000000E+00 -0.00000000000E+00 -0.33394809655E+04  0.33394809655E+04  0.00000000000E+00 0. -1.
         25    2    1    2    0    0 -0.26654629495E+02 -0.38631881407E+02 -0.14078393417E+04  0.14141567460E+04  0.12499919488E+03 0.  0.
          4    1    3    3  501    0 -0.74803422170E+02 -0.37514983532E+02 -0.99562573399E+03  0.99913719831E+03  0.12700000000E+01 0. -1.
         -4    1    3    3    0  501  0.48148792674E+02 -0.11168978745E+01 -0.41221360773E+03  0.41501954773E+03  0.12700000000E+01 0. -1.
          2    1    1    2  502    0  0.35601981590E+02  0.84304289146E+01 -0.34450296445E+02  0.50253319790E+02  0.00000000000E+00 0. -1.
          1    1    1    2  503    0 -0.89473520944E+01  0.30201452492E+02 -0.18859996031E+04  0.18862626238E+04  0.00000000000E+00 0. -1.
<mgrwt>
<rscale>  0 0.33929255E+02</rscale>
<asrwt>0</asrwt>
<pdfrwt beam="2">  1        2 0.51376612E+00 0.31498934E+02</pdfrwt>
<pdfrwt beam="1">  1        1 0.17218043E-02 0.36547089E+02</pdfrwt>
<totfact> 0.14731495E+03</totfact>
</mgrwt>
</event>
<event>
 7    1  0.4252091E-004  0.7757724E+02  0.7546771E-02  0.1497676E+00
          2   -1    0    0  503    0  0.00000000000E+00  0.00000000000E+00  0.25855117531E+03  0.25855117531E+03  0.00000000000E+00 0. -1.
          1   -1    0    0  502    0 -0.00000000000E+00 -0.00000000000E+00 -0.13558605444E+04  0.13558605444E+04  0.00000000000E+00 0. -1.
         25    2    1    2    0    0 -0.52197600654E+02 -0.33800727361E+02 -0.15480534973E+03  0.20846307303E+03  0.12500031132E+03 0.  0.
          4    1    3    3  501    0 -0.50826854621E+02  0.29583116206E+02 -0.24838902076E+02  0.63852281646E+02  0.12700000000E+01 0.  1.
         -4    1    3    3    0  501 -0.13707460333E+01 -0.63383843566E+02 -0.12996644765E+03  0.14461079139E+03  0.12700000000E+01 0.  1.
          2    1    1    2  502    0  0.73434530507E+02  0.27448583068E+02 -0.11723840799E+04  0.11750023344E+04  0.00000000000E+00 0. -1.
          3    1    1    2  503    0 -0.21236929853E+02  0.63521442922E+01  0.22988006054E+03  0.23094631229E+03  0.00000000000E+00 0. -1.
<mgrwt>
<rscale>  0 0.41468319E+02</rscale>
<asrwt>0</asrwt>
<pdfrwt beam="1">  1        2 0.39777104E-01 0.22166572E+02</pdfrwt>
<pdfrwt beam="2">  1        1 0.20859393E+00 0.77577240E+02</pdfrwt>
<totfact> 0.16806684E+02</totfact>
</mgrwt>
</event>
<event>
 7    1  0.4252091E-004  0.2760031E+03  0.7546771E-02  0.1153414E+00
          2   -1    0    0  503    0  0.00000000000E+00  0.00000000000E+00  0.77636602915E+03  0.77636602915E+03  0.00000000000E+00 0. -1.
          1   -1    0    0  502    0 -0.00000000000E+00 -0.00000000000E+00 -0.54802220571E+03  0.54802220571E+03  0.00000000000E+00 0. -1.
         25    2    1    2    0    0  0.88753830941E+02  0.14878922057E+03 -0.11972671390E+03  0.24489755859E+03  0.12499941406E+03 0.  0.
          4    1    3    3  501    0  0.71104359395E+02  0.72038009547E+02 -0.13076043309E+03  0.16536386699E+03  0.12700000000E+01 0. -1.
         -4    1    3    3    0  501  0.17649471546E+02  0.76751211024E+02  0.11033719187E+02  0.79533691594E+02  0.12700000000E+01 0. -1.
          2    1    1    2  502    0 -0.18843104421E+02  0.13748246833E+03 -0.32028464234E+03  0.34905407002E+03  0.00000000000E+00 0. -1.
          1    1    1    2  503    0 -0.69910726520E+02 -0.28627168890E+03  0.66835517968E+03  0.73043660625E+03  0.00000000000E+00 0. -1.
<mgrwt>
<rscale>  0 0.19570471E+03</rscale>
<asrwt>0</asrwt>
<pdfrwt beam="1">  1        2 0.11944093E+00 0.27600311E+03</pdfrwt>
<pdfrwt beam="2">  1        1 0.84311109E-01 0.13876776E+03</pdfrwt>
<totfact> 0.20509657E+02</totfact>
</mgrwt>
</event>
<event>
 7    1  0.4252091E-004  0.6504676E+02  0.7546771E-02  0.1470949E+00
          1   -1    0    0  502    0 -0.00000000000E+00  0.00000000000E+00  0.59803464772E+02  0.59803464772E+02  0.00000000000E+00 0. -1.
          2   -1    0    0  503    0  0.00000000000E+00 -0.00000000000E+00 -0.11006233460E+04  0.11006233460E+04  0.00000000000E+00 0. -1.
         25    2    1    2    0    0 -0.36651945735E+02  0.98917248589E+01 -0.34238163636E+03  0.36645925400E+03  0.12500395425E+03 0.  0.
          4    1    3    3  501    0 -0.60216774375E+02  0.53775545388E+02 -0.21756821380E+03  0.23206768356E+03  0.12700000000E+01 0.  1.
         -4    1    3    3    0  501  0.23564828640E+02 -0.43883820529E+02 -0.12481342256E+03  0.13439157044E+03  0.12700000000E+01 0.  1.
          2    1    1    2  502    0 -0.31724807980E+02 -0.32833525592E+01  0.40663958876E+02  0.51679796796E+02  0.00000000000E+00 0. -1.
          1    1    1    2  503    0  0.68376753715E+02 -0.66083722998E+01 -0.73910220375E+03  0.74228775998E+03  0.00000000000E+00 0. -1.
<mgrwt>
<rscale>  0 0.45547980E+02</rscale>
<asrwt>0</asrwt>
<pdfrwt beam="2">  1        2 0.16932667E+00 0.65046764E+02</pdfrwt>
<pdfrwt beam="1">  1        1 0.92005328E-02 0.31894260E+02</pdfrwt>
<totfact> 0.20785752E+03</totfact>
</mgrwt>
</event>
<event>
 7    1  0.4252091E-004  0.7076720E+02  0.7546771E-02  0.1368274E+00
          2   -1    0    0  503    0  0.00000000000E+00  0.00000000000E+00  0.10223673510E+04  0.10223673510E+04  0.00000000000E+00 0. -1.
          1   -1    0    0  502    0 -0.00000000000E+00 -0.00000000000E+00 -0.25554310296E+03  0.25554310296E+03  0.00000000000E+00 0. -1.
         25    2    1    2    0    0  0.48606215824E+02 -0.82239392110E+01  0.16746895142E+03  0.21471048058E+03  0.12499817354E+03 0.  0.
          4    1    3    3  501    0  0.52364577180E+01 -0.47270675387E+02  0.12615499811E+02  0.49220940426E+02  0.12700000000E+01 0.  1.
         -4    1    3    3    0  501  0.43369758106E+02  0.39046736176E+02  0.15485345161E+03  0.16548954015E+03  0.12700000000E+01 0.  1.
          2    1    1    2  502    0 -0.45045033809E+02 -0.56346540272E+02 -0.22501561497E+03  0.23629645501E+03  0.00000000000E+00 0. -1.
          1    1    1    2  503    0 -0.35611820145E+01  0.64570479483E+02  0.82437091160E+03  0.82690351839E+03  0.00000000000E+00 0. -1.
<mgrwt>
<rscale>  0 0.67649214E+02</rscale>
<asrwt>0</asrwt>
<pdfrwt beam="1">  1        2 0.15728728E+00 0.64668608E+02</pdfrwt>
<pdfrwt beam="2">  1        1 0.39314324E-01 0.70767197E+02</pdfrwt>
<totfact> 0.39857707E+02</totfact>
</mgrwt>
</event>
<event>
 7    1  0.4252091E-004  0.1231123E+03  0.7546771E-02  0.1278063E+00
          2   -1    0    0  503    0  0.00000000000E+00  0.00000000000E+00  0.16185235347E+04  0.16185235347E+04  0.00000000000E+00 0. -1.
          1   -1    0    0  502    0 -0.00000000000E+00 -0.00000000000E+00 -0.16369418090E+04  0.16369418090E+04  0.00000000000E+00 0. -1.
         25    2    1    2    0    0  0.22492351689E+02  0.94070221239E+02 -0.85064866129E+03  0.86520532373E+03  0.12498797878E+03 0.  0.
          4    1    3    3  501    0 -0.32266593847E+02 -0.75089005432E+01 -0.91216767527E+02  0.97054769300E+02  0.12700000000E+01 0. -1.
         -4    1    3    3    0  501  0.54758945535E+02  0.10157912178E+03 -0.75943189376E+03  0.76815055443E+03  0.12700000000E+01 0. -1.
          2    1    1    2  502    0 -0.81786015890E+02  0.13984216604E+02 -0.77443838549E+03  0.77887054356E+03  0.00000000000E+00 0. -1.
          1    1    1    2  503    0  0.59293664202E+02 -0.10805443784E+03  0.16066687724E+04  0.16113894764E+04  0.00000000000E+00 0. -1.
<mgrwt>
<rscale>  0 0.10106926E+03</rscale>
<asrwt>0</asrwt>
<pdfrwt beam="1">  1        2 0.24900362E+00 0.12311235E+03</pdfrwt>
<pdfrwt beam="2">  1        1 0.25183720E+00 0.82972952E+02</pdfrwt>
<totfact> 0.11373498E+01</totfact>
</mgrwt>
</event>
<event>
 7    1  0.4252091E-004  0.8902443E+02  0.7546771E-02  0.1340391E+00
         -1   -1    0    0    0  501 -0.00000000000E+00  0.00000000000E+00  0.99895437794E+03  0.99895437794E+03  0.00000000000E+00 0.  1.
          1   -1    0    0  503    0  0.00000000000E+00 -0.00000000000E+00 -0.31567822238E+02  0.31567822238E+02  0.00000000000E+00 0. -1.
         25    2    1    2    0    0 -0.87326215523E+02  0.10731283313E+03  0.54172606652E+03  0.57291678951E+03  0.12499841792E+03 0.  0.
          4    1    3    3  502    0 -0.10255172843E+03  0.28997449456E+02  0.30115522139E+03  0.31945858785E+03  0.12700000000E+01 0.  1.
         -4    1    3    3    0  502  0.15225512909E+02  0.78315383674E+02  0.24057084513E+03  0.25345820166E+03  0.12700000000E+01 0.  1.
          2    1    1    2  503    0  0.63534101316E+02 -0.46702878867E+02  0.11026259751E+03  0.13555656138E+03  0.00000000000E+00 0. -1.
         -2    1    1    2    0  501  0.23792114207E+02 -0.60609954263E+02  0.31539789168E+03  0.32204884929E+03  0.00000000000E+00 0.  1.
<mgrwt>
<rscale>  0 0.76135398E+02</rscale>
<asrwt>0</asrwt>
<pdfrwt beam="2">  1        1 0.48565888E-02 0.89024430E+02</pdfrwt>
<pdfrwt beam="1">  1       -1 0.15368526E+00 0.65112451E+02</pdfrwt>
<totfact> 0.61657946E+02</totfact>
</mgrwt>
</event>
<event>
 7    1  0.4252091E-004  0.4814480E+02  0.7546771E-02  0.1494016E+00
          2   -1    0    0  503    0  0.00000000000E+00  0.00000000000E+00  0.23056992266E+04  0.23056992266E+04  0.00000000000E+00 0. -1.
         -2   -1    0    0    0  501 -0.00000000000E+00 -0.00000000000E+00 -0.53008436389E+02  0.53008436389E+02  0.00000000000E+00 0.  1.
         25    2    1    2    0    0 -0.13089595066E+02  0.71737411271E+01  0.33247958843E+03  0.35553660299E+03  0.12506318117E+03 0.  0.
          4    1    3    3  502    0  0.31973631747E+01  0.43822497112E+02  0.30191057391E+03  0.30509382479E+03  0.12700000000E+01 0.  1.
         -4    1    3    3    0  502 -0.16286958240E+02 -0.36648755984E+02  0.30569014511E+02  0.50442778195E+02  0.12700000000E+01 0.  1.
          1    1    1    2  503    0  0.49079300699E+02 -0.34107545879E+00  0.19532343872E+04  0.19538509322E+04  0.00000000000E+00 0. -1.
         -1    1    1    2    0  501 -0.35989705633E+02 -0.68326656683E+01 -0.33023185387E+02  0.49320127785E+02  0.00000000000E+00 0.  1.
<mgrwt>
<rscale>  0 0.41996036E+02</rscale>
<asrwt>0</asrwt>
<pdfrwt beam="1">  1        2 0.35472288E+00 0.48144796E+02</pdfrwt>
<pdfrwt beam="2">  1       -2 0.81551458E-02 0.36632557E+02</pdfrwt>
<totfact> 0.49901707E+02</totfact>
</mgrwt>
</event>
<event>
 7    1  0.4252091E-004  0.9129144E+02  0.7546771E-02  0.1321356E+00
         -2   -1    0    0    0  501 -0.00000000000E+00  0.00000000000E+00  0.11657340645E+03  0.11657340645E+03  0.00000000000E+00 0.  1.
          2   -1    0    0  503    0  0.00000000000E+00 -0.00000000000E+00 -0.16055869295E+04  0.16055869295E+04  0.00000000000E+00 0. -1.
         25    2    1    2    0    0  0.11867017782E+03  0.68402324295E+02 -0.93731171869E+02  0.20777839352E+03  0.12499935664E+03 0.  0.
          4    1    3    3  502    0  0.38096873711E+01 -0.11088480833E+02  0.22927190523E+02  0.25782495813E+02  0.12700000000E+01 0. -1.
         -4    1    3    3    0  502  0.11486049045E+03  0.79490805128E+02 -0.11665836239E+03  0.18199589771E+03  0.12700000000E+01 0. -1.
          1    1    1    2  503    0 -0.74941399468E+02  0.40946641192E+01 -0.14232427291E+04  0.14252202796E+04  0.00000000000E+00 0. -1.
         -1    1    1    2    0  501 -0.43728778357E+02 -0.72496988414E+02  0.27960377861E+02  0.89161662814E+02  0.00000000000E+00 0.  1.
<mgrwt>
<rscale>  0 0.82775071E+02</rscale>
<asrwt>0</asrwt>
<pdfrwt beam="2">  1        2 0.24701336E+00 0.75053179E+02</pdfrwt>
<pdfrwt beam="1">  1       -2 0.17934371E-01 0.91291436E+02</pdfrwt>
<totfact> 0.32707364E+02</totfact>
</mgrwt>
</event>
<event>
 7    1  0.4252091E-004  0.5064720E+02  0.7546771E-02  0.1530858E+00
          2   -1    0    0  503    0  0.00000000000E+00  0.00000000000E+00  0.12214600883E+04  0.12214600883E+04  0.00000000000E+00 0. -1.
          1   -1    0    0  502    0 -0.00000000000E+00 -0.00000000000E+00 -0.26362830701E+02  0.26362830701E+02  0.00000000000E+00 0. -1.
         25    2    1    2    0    0  0.83543660455E+01  0.65710700385E+02  0.24325740093E+03  0.28140141576E+03  0.12499960842E+03 0.  0.
          4    1    3    3  501    0 -0.19660260707E+02 -0.32688524906E+02  0.52105672579E+02  0.64588540210E+02  0.12700000000E+01 0.  1.
         -4    1    3    3    0  501  0.28014626753E+02  0.98399225292E+02  0.19115172835E+03  0.21681287555E+03  0.12700000000E+01 0.  1.
          2    1    1    2  502    0 -0.21090784705E+02 -0.17095540391E+02  0.21252766771E+02  0.34478381576E+02  0.00000000000E+00 0. -1.
          3    1    1    2  503    0  0.12736418659E+02 -0.48615159995E+02  0.93058708994E+03  0.93194312171E+03  0.00000000000E+00 0. -1.
<mgrwt>
<rscale>  0 0.37081405E+02</rscale>
<asrwt>0</asrwt>
<pdfrwt beam="1">  1        2 0.18791689E+00 0.50647198E+02</pdfrwt>
<pdfrwt beam="2">  1        1 0.40558211E-02 0.27149193E+02</pdfrwt>
<totfact> 0.51183629E+03</totfact>
</mgrwt>
</event>
<event>
 7    1  0.4252091E-004  0.8314001E+02  0.7546771E-02  0.1406661E+00
         -3   -1    0    0    0  501 -0.00000000000E+00  0.00000000000E+00  0.51570940462E+03  0.51570940462E+03  0.00000000000E+00 0.  1.
          1   -1    0    0  503    0  0.00000000000E+00 -0.00000000000E+00 -0.82328974958E+03  0.82328974958E+03  0.00000000000E+00 0. -1.
         25    2    1    2    0    0 -0.19863716358E+02  0.38442585562E+02  0.17008636337E+03  0.21546523550E+03  0.12499398821E+03 0.  0.
          4    1    3    3  502    0  0.29390890283E+02  0.66643239897E+02  0.11648552536E+03  0.13738863263E+03  0.12700000000E+01 0. -1.
         -4    1    3    3    0  502 -0.49254606641E+02 -0.28200654336E+02  0.53600838012E+02  0.78076602871E+02  0.12700000000E+01 0. -1.
          2    1    1    2  503    0  0.41171839863E+02 -0.72749991138E+02 -0.79714355666E+03  0.80151452360E+03  0.00000000000E+00 0. -1.
         -2    1    1    2    0  501 -0.21308123505E+02  0.34307405576E+02  0.31947684833E+03  0.32201939511E+03  0.00000000000E+00 0.  1.
<mgrwt>
<rscale>  0 0.57945646E+02</rscale>
<asrwt>0</asrwt>
<pdfrwt beam="2">  1        1 0.12665996E+00 0.83140011E+02</pdfrwt>
<pdfrwt beam="1">  1       -3 0.79339909E-01 0.40386064E+02</pdfrwt>
<totfact> 0.18322954E+01</totfact>
</mgrwt>
</event>
<event>
 7    1  0.4252091E-004  0.6696202E+02  0.7546771E-02  0.1429108E+00
          1   -1    0    0  502    0 -0.00000000000E+00  0.00000000000E+00  0.19674918344E+03  0.19674918344E+03  0.00000000000E+00 0. -1.
          2   -1    0    0  503    0  0.00000000000E+00 -0.00000000000E+00 -0.24906461772E+04  0.24906461772E+04  0.00000000000E+00 0. -1.
         25    2    1    2    0    0  0.44852430351E+02  0.48957112649E+02 -0.44489803098E+03  0.46687092775E+03  0.12500266323E+03 0.  0.
          4    1    3    3  501    0  0.83866609167E+02  0.27210558784E+02 -0.36320595309E+03  0.37375687272E+03  0.12700000000E+01 0.  1.
         -4    1    3    3    0  501 -0.39014178816E+02  0.21746553865E+02 -0.81692077889E+02  0.93114055027E+02  0.12700000000E+01 0.  1.
          2    1    1    2  502    0 -0.37979441026E+02  0.18327194292E+02  0.18279949298E+03  0.18760058269E+03  0.00000000000E+00 0. -1.
          1    1    1    2  503    0 -0.68729893246E+01 -0.67284306941E+02 -0.20317984558E+04  0.20329238502E+04  0.00000000000E+00 0. -1.
<mgrwt>
<rscale>  0 0.53139443E+02</rscale>
<asrwt>0</asrwt>
<pdfrwt beam="2">  1        2 0.38317636E+00 0.66962020E+02</pdfrwt>
<pdfrwt beam="1">  1        1 0.30269103E-01 0.42170179E+02</pdfrwt>
<totfact> 0.96370742E+01</totfact>
</mgrwt>
</event>
<event>
 7    1  0.4252091E-004  0.1005031E+03  0.7546771E-02  0.1313528E+00
          2   -1    0    0  503    0  0.00000000000E+00  0.00000000000E+00  0.37894409756E+03  0.37894409756E+03  0.00000000000E+00 0. -1.
          1   -1    0    0  502    0 -0.00000000000E+00 -0.00000000000E+00 -0.10854406269E+04  0.10854406269E+04  0.00000000000E+00 0. -1.
         25    2    1    2    0    0  0.50050082781E+02 -0.18588571447E+02 -0.33764511139E+03  0.36397659568E+03  0.12499678069E+03 0.  0.
          4    1    3    3  501    0  0.42858069469E+02  0.46912741928E+02 -0.11061150974E+03  0.12757013154E+03  0.12700000000E+01 0. -1.
         -4    1    3    3    0  501  0.71920133120E+01 -0.65501313375E+02 -0.22703360165E+03  0.23640646414E+03  0.12700000000E+01 0. -1.
          2    1    1    2  502    0 -0.55522892102E+01 -0.72921477975E+02 -0.72567936420E+03  0.72935513263E+03  0.00000000000E+00 0. -1.
          1    1    1    2  503    0 -0.44497793571E+02  0.91510049423E+02  0.35682794622E+03  0.37105299619E+03  0.00000000000E+00 0. -1.
<mgrwt>
<rscale>  0 0.85732404E+02</rscale>
<asrwt>0</asrwt>
<pdfrwt beam="1">  1        2 0.58299092E-01 0.10050306E+03</pdfrwt>
<pdfrwt beam="2">  1        1 0.16699086E+00 0.73132550E+02</pdfrwt>
<totfact> 0.17605489E+02</totfact>
</mgrwt>
</event>
<event>
 7    1  0.4252091E-004  0.4409039E+02  0.7546771E-02  0.1484485E+00
         -1   -1    0    0    0  501 -0.00000000000E+00  0.00000000000E+00  0.29244855359E+02  0.29244855359E+02  0.00000000000E+00 0.  1.
          1   -1    0    0  503    0  0.00000000000E+00 -0.00000000000E+00 -0.11106277658E+04  0.11106277658E+04  0.00000000000E+00 0. -1.
         25    2    1    2    0    0  0.38487757423E+02 -0.56978760512E+01 -0.64379710427E+03  0.65697266673E+03  0.12499840042E+03 0.  0.
          4    1    3    3  502    0 -0.40375511442E+02 -0.53788825203E-01 -0.36341640266E+03  0.36565459035E+03  0.12700000000E+01 0. -1.
         -4    1    3    3    0  502  0.78863268866E+02 -0.56440872260E+01 -0.28038070160E+03  0.29131807638E+03  0.12700000000E+01 0. -1.
          2    1    1    2  503    0 -0.31706569666E+02 -0.36511151334E+02 -0.43748515434E+03  0.44014955527E+03  0.00000000000E+00 0. -1.
         -2    1    1    2    0  501 -0.67811877576E+01  0.42209027386E+02 -0.10065186357E+00  0.42750399192E+02  0.00000000000E+00 0.  1.
<mgrwt>
<rscale>  0 0.43415166E+02</rscale>
<asrwt>0</asrwt>
<pdfrwt beam="2">  1        1 0.17086582E+00 0.44090393E+02</pdfrwt>
<pdfrwt beam="1">  1       -1 0.44992082E-02 0.42750281E+02</pdfrwt>
<totfact> 0.25966400E+03</totfact>
</mgrwt>
</event>
<event>
 7    1  0.4252091E-004  0.1583491E+03  0.7546771E-02  0.1372403E+00
          2   -1    0    0  503    0  0.00000000000E+00  0.00000000000E+00  0.38296171378E+03  0.38296171378E+03  0.00000000000E+00 0. -1.
         -2   -1    0    0    0  501 -0.00000000000E+00 -0.00000000000E+00 -0.75527023614E+03  0.75527023614E+03  0.00000000000E+00 0.  1.
         25    2    1    2    0    0  0.17565722061E+03  0.21192069706E+02  0.21730311743E+02  0.21771822299E+03  0.12499782079E+03 0.  0.
          4    1    3    3  502    0  0.13301193631E+03  0.70163835206E+02  0.26036704378E+02  0.15262588852E+03  0.12700000000E+01 0.  1.
         -4    1    3    3    0  502  0.42645284303E+02 -0.48971765500E+02 -0.43063926349E+01  0.65092334472E+02  0.12700000000E+01 0.  1.
          1    1    1    2  503    0 -0.23080451207E+02  0.15728936095E+02  0.25308512572E+03  0.25462165564E+03  0.00000000000E+00 0. -1.
         -1    1    1    2    0  501 -0.15257676941E+03 -0.36921005801E+02 -0.64712395983E+03  0.66589207130E+03  0.00000000000E+00 0.  1.
<mgrwt>
<rscale>  0 0.66503783E+02</rscale>
<asrwt>0</asrwt>
<pdfrwt beam="1">  1        2 0.58917187E-01 0.27930390E+02</pdfrwt>
<pdfrwt beam="2">  1       -2 0.11619542E+00 0.15834914E+03</pdfrwt>
<totfact> 0.52025419E+01</totfact>
</mgrwt>
</event>
<event>
 7    1  0.4252091E-004  0.3701781E+02  0.7546771E-02  0.1558463E+00
          1   -1    0    0  502    0 -0.00000000000E+00  0.00000000000E+00  0.24673425210E+03  0.24673425210E+03  0.00000000000E+00 0. -1.
          2   -1    0    0  503    0  0.00000000000E+00 -0.00000000000E+00 -0.48098889837E+03  0.48098889837E+03  0.00000000000E+00 0. -1.
         25    2    1    2    0    0 -0.37659147077E+02  0.42822096255E+00 -0.72081082687E+02  0.14912556248E+03  0.12499742466E+03 0.  0.
          4    1    3    3  501    0  0.31541309280E+02  0.40646968122E+01  0.17138967061E+02  0.36148762679E+02  0.12700000000E+01 0. -1.
         -4    1    3    3    0  501 -0.69200456357E+02 -0.36364758497E+01 -0.89220049748E+02  0.11297679980E+03  0.12700000000E+01 0. -1.
          2    1    1    2  502    0  0.12842998533E+02 -0.28291445149E+02  0.20610498734E+03  0.20843371677E+03  0.00000000000E+00 0. -1.
          1    1    1    2  503    0  0.24816148544E+02  0.27863224186E+02 -0.36827855092E+03  0.37016387123E+03  0.00000000000E+00 0. -1.
<mgrwt>
<rscale>  0 0.33913797E+02</rscale>
<asrwt>0</asrwt>
<pdfrwt beam="2">  1        2 0.73998292E-01 0.37017814E+02</pdfrwt>
<pdfrwt beam="1">  1        1 0.37959116E-01 0.31070058E+02</pdfrwt>
<totfact> 0.99496390E+02</totfact>
</mgrwt>
</event>
<event>
 7    1  0.4252091E-004  0.5059201E+02  0.7546771E-02  0.1480131E+00
          2   -1    0    0  503    0  0.00000000000E+00  0.00000000000E+00  0.27270209694E+03  0.27270209694E+03  0.00000000000E+00 0. -1.
         -2   -1    0    0    0  501 -0.00000000000E+00 -0.00000000000E+00 -0.17407243579E+03  0.17407243579E+03  0.00000000000E+00 0.  1.
         25    2    1    2    0    0 -0.15040419922E+02  0.83959401177E+02  0.11563383527E+02  0.15177132024E+03  0.12500170612E+03 0.  0.
          4    1    3    3  502    0 -0.49921328852E+02  0.49411417994E+02 -0.39771656922E+02  0.80728092364E+02  0.12700000000E+01 0.  1.
         -4    1    3    3    0  502  0.34880908929E+02  0.34547983183E+02  0.51335040448E+02  0.71043227880E+02  0.12700000000E+01 0.  1.
          1    1    1    2  503    0  0.17988582459E+02 -0.45656361292E+02  0.18415990583E+03  0.19058584245E+03  0.00000000000E+00 0. -1.
         -1    1    1    2    0  501 -0.29481625365E+01 -0.38303039885E+02 -0.97093628206E+02  0.10441737004E+03  0.00000000000E+00 0.  1.
<mgrwt>
<rscale>  0 0.44085821E+02</rscale>
<asrwt>0</asrwt>
<pdfrwt beam="1">  1        2 0.41954169E-01 0.50592014E+02</pdfrwt>
<pdfrwt beam="2">  1       -2 0.26780375E-01 0.38416332E+02</pdfrwt>
<totfact> 0.14230963E+03</totfact>
</mgrwt>
</event>
<event>
 7    1  0.4252091E-004  0.1324445E+03  0.7546771E-02  0.1398427E+00
         -2   -1    0    0    0  501 -0.00000000000E+00  0.00000000000E+00  0.14086267428E+03  0.14086267428E+03  0.00000000000E+00 0.  1.
          2   -1    0    0  503    0  0.00000000000E+00 -0.00000000000E+00 -0.86996337546E+03  0.86996337546E+03  0.00000000000E+00 0. -1.
         25    2    1    2    0    0 -0.67170254579E+02 -0.97375239729E+02 -0.21111358496E+03  0.27237450017E+03  0.12500056870E+03 0.  0.
          4    1    3    3  502    0 -0.28068527373E+02  0.28147737844E+02 -0.61039249625E+02  0.72852867270E+02  0.12700000000E+01 0. -1.
         -4    1    3    3    0  502 -0.39101727206E+02 -0.12552297757E+03 -0.15007433534E+03  0.19952163290E+03  0.12700000000E+01 0. -1.
          1    1    1    2  503    0  0.94206893273E+02  0.98316036306E+02 -0.61904073097E+03  0.63383941842E+03  0.00000000000E+00 0. -1.
         -1    1    1    2    0  501 -0.27036638693E+02 -0.94079657716E+00  0.10105361476E+03  0.10461213116E+03  0.00000000000E+00 0.  1.
<mgrwt>
<rscale>  0 0.59858352E+02</rscale>
<asrwt>0</asrwt>
<pdfrwt beam="2">  1        2 0.13384052E+00 0.13244454E+03</pdfrwt>
<pdfrwt beam="1">  1       -2 0.21671180E-01 0.27053002E+02</pdfrwt>
<totfact> 0.55047697E+02</totfact>
</mgrwt>
</event>
<event>
 7    1  0.4252091E-004  0.1323183E+03  0.7546771E-02  0.1242785E+00
         -2   -1    0    0    0  501 -0.00000000000E+00  0.00000000000E+00  0.88123181849E+03  0.88123181849E+03  0.00000000000E+00 0.  1.
          2   -1    0    0  503    0  0.00000000000E+00 -0.00000000000E+00 -0.20407653684E+04  0.20407653684E+04  0.00000000000E+00 0. -1.
         25    2    1    2    0    0 -0.17121825514E+03  0.50764520200E+02 -0.18157732579E+02  0.21874155835E+03  0.12500175476E+03 0.  0.
          4    1    3    3  502    0  0.16327262128E+01  0.22952611178E+02  0.29364400957E+02  0.37327859547E+02  0.12700000000E+01 0. -1.
         -4    1    3    3    0  502 -0.17285098135E+03  0.27811909022E+02 -0.47522133536E+02  0.18141369880E+03  0.12700000000E+01 0. -1.
          1    1    1    2  503    0  0.12331114797E+03  0.47334944504E+02 -0.19162156837E+04  0.19207625524E+04  0.00000000000E+00 0. -1.
         -3    1    1    2    0  501  0.47907107166E+02 -0.98099464704E+02  0.77483986631E+03  0.78249307621E+03  0.00000000000E+00 0.  1.
<mgrwt>
<rscale>  0 0.12018940E+03</rscale>
<asrwt>0</asrwt>
<pdfrwt beam="2">  1        2 0.31396390E+00 0.13231827E+03</pdfrwt>
<pdfrwt beam="1">  1       -2 0.13557413E+00 0.10917232E+03</pdfrwt>
<totfact> 0.33143378E+00</totfact>
</mgrwt>
</event>
<event>
 7    1  0.4252091E-004  0.4843248E+02  0.7546771E-02  0.1477632E+00
          2   -1    0    0  503    0  0.00000000000E+00  0.00000000000E+00  0.37074254690E+03  0.37074254690E+03  0.00000000000E+00 0. -1.
          1   -1    0    0  502    0 -0.00000000000E+00 -0.00000000000E+00 -0.30764170101E+03  0.30764170101E+03  0.00000000000E+00 0. -1.
         25    2    1    2    0    0 -0.36200814317E+02 -0.73368205870E+02  0.10705590692E+03  0.18379247054E+03  0.12500124972E+03 0.  0.
          4    1    3    3  501    0 -0.41168842016E+02 -0.97621066852E+02  0.41650298715E+02  0.11384685560E+03  0.12700000000E+01 0.  1.
         -4    1    3    3    0  501  0.49680276990E+01  0.24252860982E+02  0.65405608207E+02  0.69945614944E+02  0.12700000000E+01 0.  1.
          2    1    1    2  502    0  0.43315585653E+01  0.47821184189E+02 -0.26524893014E+03  0.26956005453E+03  0.00000000000E+00 0. -1.
          1    1    1    2  503    0  0.31869255752E+02  0.25547021682E+02  0.22129386911E+03  0.22503172284E+03  0.00000000000E+00 0. -1.
<mgrwt>
<rscale>  0 0.44477140E+02</rscale>
<asrwt>0</asrwt>
<pdfrwt beam="1">  1        2 0.57037314E-01 0.40844826E+02</pdfrwt>
<pdfrwt beam="2">  1        1 0.47329493E-01 0.48432476E+02</pdfrwt>
<totfact> 0.10049452E+03</totfact>
</mgrwt>
</event>
<event>
 7    1  0.4252091E-004  0.1664507E+03  0.7546771E-02  0.1237213E+00
          2   -1    0    0  503    0  0.00000000000E+00  0.00000000000E+00  0.11619242951E+04  0.11619242951E+04  0.00000000000E+00 0. -1.
          1   -1    0    0  502    0 -0.00000000000E+00 -0.00000000000E+00 -0.13244617661E+03  0.13244617661E+03  0.00000000000E+00 0. -1.
         25    2    1    2    0    0 -0.23129019349E+03 -0.34382000471E+02  0.60895150433E+03  0.66417110284E+03  0.12499617462E+03 0.  0.
          4    1    3    3  501    0 -0.19529888625E+02 -0.44835155231E+02  0.16657256157E+03  0.17360771544E+03  0.12700000000E+01 0. -1.
         -4    1    3    3    0  501 -0.21176030486E+03  0.10453154760E+02  0.44237894276E+03  0.49056338740E+03  0.12700000000E+01 0. -1.
          2    1    1    2  502    0  0.90943446429E+02  0.12780001393E+02 -0.72579418830E+02  0.11705473473E+03  0.00000000000E+00 0. -1.
          1    1    1    2  503    0  0.14034674706E+03  0.21601999078E+02  0.49310603295E+03  0.51314463410E+03  0.00000000000E+00 0. -1.
<mgrwt>
<rscale>  0 0.12363791E+03</rscale>
<asrwt>0</asrwt>
<pdfrwt beam="1">  1        2 0.17875758E+00 0.16645066E+03</pdfrwt>
<pdfrwt beam="2">  1        1 0.20376336E-01 0.91837023E+02</pdfrwt>
<totfact> 0.71011243E+02</totfact>
</mgrwt>
</event>
<event>
 7    1  0.4252091E-004  0.7632332E+02  0.7546771E-02  0.1389752E+00
         -2   -1    0    0    0  501 -0.00000000000E+00  0.00000000000E+00  0.47798643198E+03  0.47798643198E+03  0.00000000000E+00 0.  1.
          2   -1    0    0  503    0  0.00000000000E+00 -0.00000000000E+00 -0.98428084748E+03  0.98428084748E+03  0.00000000000E+00 0. -1.
         25    2    1    2    0    0 -0.65690307123E+02  0.71851781335E+02 -0.25212320432E+02  0.16042475802E+03  0.12499018743E+03 0.  0.
          4    1    3    3  502    0 -0.80562044590E+01 -0.16314124015E+02  0.34727111637E+02  0.39225479669E+02  0.12700000000E+01 0. -1.
         -4    1    3    3    0  502 -0.57634102663E+02  0.88165905350E+02 -0.59939432069E+02  0.12119927835E+03  0.12700000000E+01 0. -1.
          1    1    1    2  503    0 -0.70661424058E+01 -0.49814837088E+02 -0.88722285531E+03  0.88864832378E+03  0.00000000000E+00 0. -1.
         -1    1    1    2    0  501  0.72756449528E+02 -0.22036944247E+02  0.40614076024E+03  0.41319419767E+03  0.00000000000E+00 0.  1.
<mgrwt>
<rscale>  0 0.61968488E+02</rscale>
<asrwt>0</asrwt>
<pdfrwt beam="2">  1        2 0.15142782E+00 0.50313501E+02</pdfrwt>
<pdfrwt beam="1">  1       -2 0.73536375E-01 0.76323322E+02</pdfrwt>
<totfact> 0.51827964E+01</totfact>
</mgrwt>
</event>
<event>
 7    1  0.4252091E-004  0.5805235E+02  0.7546771E-02  0.1479344E+00
          2   -1    0    0  503    0  0.00000000000E+00  0.00000000000E+00  0.12274867992E+04  0.12274867992E+04  0.00000000000E+00 0. -1.
          1   -1    0    0  502    0 -0.00000000000E+00 -0.00000000000E+00 -0.11754617283E+04  0.11754617283E+04  0.00000000000E+00 0. -1.
         25    2    1    2    0    0  0.10889261485E+02  0.33102898628E+02  0.28379804425E+02  0.13283147134E+03  0.12499763424E+03 0.  0.
          4    1    3    3  501    0  0.64675923799E+02  0.39087757033E+02  0.18355240083E+02  0.77777603509E+02  0.12700000000E+01 0.  1.
         -4    1    3    3    0  501 -0.53786662313E+02 -0.59848584052E+01  0.10024564342E+02  0.55053867831E+02  0.12700000000E+01 0.  1.
          2    1    1    2  502    0 -0.44189027579E+02 -0.38055209333E+02 -0.11222315681E+04  0.11237457726E+04  0.00000000000E+00 0. -1.
          1    1    1    2  503    0  0.33299766094E+02  0.49523107046E+01  0.11458768346E+04  0.11463712836E+04  0.00000000000E+00 0. -1.
<mgrwt>
<rscale>  0 0.44208489E+02</rscale>
<asrwt>0</asrwt>
<pdfrwt beam="1">  1        2 0.18884412E+00 0.33666004E+02</pdfrwt>
<pdfrwt beam="2">  1        1 0.18084027E+00 0.58052345E+02</pdfrwt>
<totfact> 0.40732377E+01</totfact>
</mgrwt>
</event>
<event>
 7    1  0.4252091E-004  0.1319495E+03  0.7546771E-02  0.1379640E+00
         -2   -1    0    0    0  501 -0.00000000000E+00  0.00000000000E+00  0.36284643009E+02  0.36284643009E+02  0.00000000000E+00 0.  1.
          2   -1    0    0  503    0  0.00000000000E+00 -0.00000000000E+00 -0.19508027906E+04  0.19508027906E+04  0.00000000000E+00 0. -1.
         25    2    1    2    0    0 -0.10362145523E+03 -0.86723144433E+02 -0.47029161352E+03  0.50503073611E+03  0.12499413150E+03 0.  0.
          4    1    3    3  502    0 -0.38734012478E+02 -0.44658149232E+02 -0.38652135554E+03  0.39101796021E+03  0.12700000000E+01 0. -1.
         -4    1    3    3    0  502 -0.64887442749E+02 -0.42064995201E+02 -0.83770257974E+02  0.11401277590E+03  0.12700000000E+01 0. -1.
          1    1    1    2  503    0  0.25216215185E+02 -0.19021984238E+02 -0.12314180117E+04  0.12318230445E+04  0.00000000000E+00 0. -1.
         -1    1    1    2    0  501  0.78405240042E+02  0.10574512867E+03 -0.21280852238E+03  0.25023365301E+03  0.00000000000E+00 0.  1.
<mgrwt>
<rscale>  0 0.64558450E+02</rscale>
<asrwt>0</asrwt>
<pdfrwt beam="2">  1        2 0.30012359E+00 0.31586285E+02</pdfrwt>
<pdfrwt beam="1">  1       -2 0.55822511E-02 0.13194947E+03</pdfrwt>
<totfact> 0.15555950E+03</totfact>
</mgrwt>
</event>
<event>
 7    1  0.4252091E-004  0.5586789E+02  0.7546771E-02  0.1438337E+00
         -2   -1    0    0    0  501 -0.00000000000E+00  0.00000000000E+00  0.65042027815E+03  0.65042027815E+03  0.00000000000E+00 0.  1.
          2   -1    0    0  503    0  0.00000000000E+00 -0.00000000000E+00 -0.19571697823E+04  0.19571697823E+04  0.00000000000E+00 0. -1.
         25    2    1    2    0    0  0.67640335672E+02 -0.65556479340E+01 -0.12661509214E+03  0.19045339576E+03  0.12499169121E+03 0.  0.
          4    1    3    3  502    0  0.47756603391E+01  0.52142595884E+02 -0.70199445670E+02  0.87585571355E+02  0.12700000000E+01 0. -1.
         -4    1    3    3    0  502  0.62864675333E+02 -0.58698243818E+02 -0.56415646467E+02  0.10286782441E+03  0.12700000000E+01 0. -1.
          1    1    1    2  503    0 -0.23493153552E+02  0.40876146719E+02 -0.17970618439E+04  0.17976801880E+04  0.00000000000E+00 0. -1.
         -1    1    1    2    0  501 -0.44147182120E+02 -0.34320498785E+02  0.61692743186E+03  0.61945647669E+03  0.00000000000E+00 0.  1.
<mgrwt>
<rscale>  0 0.51322243E+02</rscale>
<asrwt>0</asrwt>
<pdfrwt beam="2">  1        2 0.30110304E+00 0.47146449E+02</pdfrwt>
<pdfrwt beam="1">  1       -2 0.10006466E+00 0.55867891E+02</pdfrwt>
<totfact> 0.85756354E+00</totfact>
</mgrwt>
</event>
<event>
 7    1  0.4252091E-004  0.3349978E+03  0.7546771E-02  0.1250584E+00
          2   -1    0    0  503    0  0.00000000000E+00  0.00000000000E+00  0.54043469995E+03  0.54043469995E+03  0.00000000000E+00 0. -1.
          1   -1    0    0  502    0 -0.00000000000E+00 -0.00000000000E+00 -0.60546642530E+03  0.60546642530E+03  0.00000000000E+00 0. -1.
         25    2    1    2    0    0  0.16036426467E+02  0.33556693681E+03  0.16118494994E+03  0.39303752108E+03  0.12504226819E+03 0.  0.
          4    1    3    3  501    0  0.54835755545E+02  0.86459150206E+02  0.73774480760E+02  0.12619996693E+03  0.12700000000E+01 0. -1.
         -4    1    3    3    0  501 -0.38799329078E+02  0.24910778660E+03  0.87410469179E+02  0.26683755415E+03  0.12700000000E+01 0. -1.
          2    1    1    2  502    0 -0.55593770167E+02 -0.33056566008E+03 -0.42999813200E+03  0.54521804485E+03  0.00000000000E+00 0. -1.
          3    1    1    2  503    0  0.39557343700E+02 -0.50012767252E+01  0.20378145670E+03  0.20764555932E+03  0.00000000000E+00 0. -1.
<mgrwt>
<rscale>  0 0.11557298E+03</rscale>
<asrwt>0</asrwt>
<pdfrwt beam="1">  1        2 0.83143800E-01 0.39872249E+02</pdfrwt>
<pdfrwt beam="2">  1        1 0.93148681E-01 0.33499777E+03</pdfrwt>
<totfact> 0.27787119E+02</totfact>
</mgrwt>
</event>
<event>
 7    1  0.4252091E-004  0.1044327E+03  0.7546771E-02  0.1360627E+00
          1   -1    0    0  502    0 -0.00000000000E+00  0.00000000000E+00  0.87856496149E+03  0.87856496149E+03  0.00000000000E+00 0. -1.
          2   -1    0    0  503    0  0.00000000000E+00 -0.00000000000E+00 -0.17019355165E+04  0.17019355165E+04  0.00000000000E+00 0. -1.
         25    2    1    2    0    0 -0.37658736617E+02 -0.10280188678E+03  0.41907371410E+03  0.45081742327E+03  0.12500865134E+03 0.  0.
          4    1    3    3  501    0  0.34925890227E+02 -0.90737324660E+01  0.18435101476E+03  0.18785382608E+03  0.12700000000E+01 0. -1.
         -4    1    3    3    0  501 -0.72584626844E+02 -0.93728154311E+02  0.23472269933E+03  0.26296359719E+03  0.12700000000E+01 0. -1.
          2    1    1    2  502    0 -0.36457227642E+02  0.29200983845E+02  0.44076643120E+03  0.44323455842E+03  0.00000000000E+00 0. -1.
          1    1    1    2  503    0  0.74115964259E+02  0.73600902932E+02 -0.16832107003E+04  0.16864484963E+04  0.00000000000E+00 0. -1.
<mgrwt>
<rscale>  0 0.69843087E+02</rscale>
<asrwt>0</asrwt>
<pdfrwt beam="2">  1        2 0.26183623E+00 0.10443275E+03</pdfrwt>
<pdfrwt beam="1">  1        1 0.13516384E+00 0.46710030E+02</pdfrwt>
<totfact> 0.34968776E+01</totfact>
</mgrwt>
</event>
<event>
 7    1  0.4252091E-004  0.8051085E+02  0.7546771E-02  0.1457995E+00
          1   -1    0    0  502    0 -0.00000000000E+00  0.00000000000E+00  0.12562535700E+04  0.12562535700E+04  0.00000000000E+00 0. -1.
          2   -1    0    0  503    0  0.00000000000E+00 -0.00000000000E+00 -0.46815995409E+03  0.46815995409E+03  0.00000000000E+00 0. -1.
         25    2    1    2    0    0  0.13102491227E+02  0.53734869835E+02  0.27018135225E+02  0.13932887153E+03  0.12499377303E+03 0.  0.
          4    1    3    3  501    0  0.54369061760E+02  0.47783567684E+02  0.53413663288E+02  0.89966085516E+02  0.12700000000E+01 0.  1.
         -4    1    3    3    0  501 -0.41266570533E+02  0.59513021508E+01 -0.26395528063E+02  0.49362786009E+02  0.12700000000E+01 0.  1.
          2    1    1    2  502    0  0.17857146706E+02  0.21947251570E+02  0.11688500119E+04  0.11691924178E+04  0.00000000000E+00 0. -1.
          1    1    1    2  503    0 -0.30959637934E+02 -0.75682121405E+02 -0.40777453118E+03  0.41589223479E+03  0.00000000000E+00 0. -1.
<mgrwt>
<rscale>  0 0.47728262E+02</rscale>
<asrwt>0</asrwt>
<pdfrwt beam="2">  1        2 0.72024609E-01 0.80510851E+02</pdfrwt>
<pdfrwt beam="1">  1        1 0.19326978E+00 0.28294161E+02</pdfrwt>
<totfact> 0.11765010E+02</totfact>
</mgrwt>
</event>
<event>
 7    1  0.4252091E-004  0.2012472E+03  0.7546771E-02  0.1348942E+00
          1   -1    0    0  502    0 -0.00000000000E+00  0.00000000000E+00  0.15396020408E+04  0.15396020408E+04  0.00000000000E+00 0. -1.
          2   -1    0    0  503    0  0.00000000000E+00 -0.00000000000E+00 -0.19424486084E+04  0.19424486084E+04  0.00000000000E+00 0. -1.
         25    2    1    2    0    0 -0.73807874554E+02 -0.18080252707E+03  0.55889745154E+03  0.60508410912E+03  0.12499304634E+03 0.  0.
          4    1    3    3  501    0 -0.28845780702E+02 -0.16230694196E+03  0.30628812644E+03  0.34783566777E+03  0.12700000000E+01 0. -1.
         -4    1    3    3    0  501 -0.44962093852E+02 -0.18495585111E+02  0.25260932509E+03  0.25724844135E+03  0.12700000000E+01 0. -1.
          2    1    1    2  502    0  0.22835006494E+02 -0.13953981647E+02  0.95214384498E+03  0.95251984371E+03  0.00000000000E+00 0. -1.
          1    1    1    2  503    0  0.50972868060E+02  0.19475650872E+03 -0.19138878641E+04  0.19244466964E+04  0.00000000000E+00 0. -1.
<mgrwt>
<rscale>  0 0.73386495E+02</rscale>
<asrwt>0</asrwt>
<pdfrwt beam="2">  1        2 0.29883825E+00 0.20124725E+03</pdfrwt>
<pdfrwt beam="1">  1        1 0.23686185E+00 0.26761000E+02</pdfrwt>
<totfact> 0.96305909E+00</totfact>
</mgrwt>
</event>
<event>
 7    1  0.4252091E-004  0.5150573E+02  0.7546771E-02  0.1558181E+00
         -2   -1    0    0    0  501 -0.00000000000E+00  0.00000000000E+00  0.16939756687E+02  0.16939756687E+02  0.00000000000E+00 0.  1.
          2   -1    0    0  503    0  0.00000000000E+00 -0.00000000000E+00 -0.77278702591E+03  0.77278702591E+03  0.00000000000E+00 0. -1.
         25    2    1    2    0    0 -0.84106907137E+01  0.38696965884E+02 -0.49813876785E+03  0.51510677343E+03  0.12499824445E+03 0.  0.
          4    1    3    3  502    0  0.79090644974E+01  0.65051879848E+02 -0.12928047978E+03  0.14494604419E+03  0.12700000000E+01 0.  1.
         -4    1    3    3    0  502 -0.16319755211E+02 -0.26354913964E+02 -0.36885828807E+03  0.37016072925E+03  0.12700000000E+01 0.  1.
          3    1    1    2  503    0 -0.51234637019E+01 -0.56508889089E+02 -0.23843062941E+03  0.24508910515E+03  0.00000000000E+00 0. -1.
         -3    1    1    2    0  501  0.13534154416E+02  0.17811923205E+02 -0.19277871969E+02  0.29530904010E+02  0.00000000000E+00 0.  1.
<mgrwt>
<rscale>  0 0.33944181E+02</rscale>
<asrwt>0</asrwt>
<pdfrwt beam="2">  1        2 0.11889030E+00 0.51505730E+02</pdfrwt>
<pdfrwt beam="1">  1       -2 0.26061166E-02 0.22370470E+02</pdfrwt>
<totfact> 0.14721052E+04</totfact>
</mgrwt>
</event>
<event>
 7    1  0.4252091E-004  0.1487723E+03  0.7546771E-02  0.1351677E+00
          2   -1    0    0  503    0  0.00000000000E+00  0.00000000000E+00  0.35028808077E+03  0.35028808077E+03  0.00000000000E+00 0. -1.
          1   -1    0    0  502    0 -0.00000000000E+00 -0.00000000000E+00 -0.16715033668E+04  0.16715033668E+04  0.00000000000E+00 0. -1.
         25    2    1    2    0    0 -0.87952200636E+02  0.96539811073E+02 -0.30767422737E+03  0.35685673790E+03  0.12501110543E+03 0.  0.
          4    1    3    3  501    0  0.77591655989E+01  0.50293771898E+01  0.93959251693E+01  0.13243700219E+02  0.12700000000E+01 0.  1.
         -4    1    3    3    0  501 -0.95711366235E+02  0.91510433883E+02 -0.31707015254E+03  0.34361303768E+03  0.12700000000E+01 0.  1.
          2    1    1    2  502    0 -0.34059128776E+02 -0.95237492240E+01 -0.13217499786E+04  0.13222230265E+04  0.00000000000E+00 0. -1.
          1    1    1    2  503    0  0.12201132941E+03 -0.87016061849E+02  0.30820891985E+03  0.34271168320E+03  0.00000000000E+00 0. -1.
<mgrwt>
<rscale>  0 0.72535659E+02</rscale>
<asrwt>0</asrwt>
<pdfrwt beam="1">  1        2 0.53890473E-01 0.14877228E+03</pdfrwt>
<pdfrwt beam="2">  1        1 0.25715437E+00 0.35365605E+02</pdfrwt>
<totfact> 0.86746959E+01</totfact>
</mgrwt>
</event>
<event>
 7    1  0.4252091E-004  0.4980184E+02  0.7546771E-02  0.1529110E+00
         -2   -1    0    0    0  501 -0.00000000000E+00  0.00000000000E+00  0.35033190473E+02  0.35033190473E+02  0.00000000000E+00 0.  1.
          2   -1    0    0  503    0  0.00000000000E+00 -0.00000000000E+00 -0.11377093451E+04  0.11377093451E+04  0.00000000000E+00 0. -1.
         25    2    1    2    0    0  0.15822184801E+02 -0.24751519342E+02 -0.19946036789E+03  0.23722022378E+03  0.12500406782E+03 0.  0.
          4    1    3    3  502    0  0.13400985113E+02  0.49026896629E+02 -0.54440978453E+02  0.74489301447E+02  0.12700000000E+01 0.  1.
         -4    1    3    3    0  502  0.24211996873E+01 -0.73778415971E+02 -0.14501938944E+03  0.16273092234E+03  0.12700000000E+01 0.  1.
          1    1    1    2  503    0 -0.19284878394E+01 -0.27863454569E+02 -0.87267042815E+03  0.87311727010E+03  0.00000000000E+00 0. -1.
         -1    1    1    2    0  501 -0.13893696961E+02  0.52614973911E+02 -0.30545358534E+02  0.62405041646E+02  0.00000000000E+00 0.  1.
<mgrwt>
<rscale>  0 0.37295722E+02</rscale>
<asrwt>0</asrwt>
<pdfrwt beam="2">  1        2 0.17503219E+00 0.27930112E+02</pdfrwt>
<pdfrwt beam="1">  1       -2 0.53897220E-02 0.49801836E+02</pdfrwt>
<totfact> 0.37322782E+03</totfact>
</mgrwt>
</event>
<event>
 7    1  0.4252091E-004  0.3690359E+02  0.7546771E-02  0.1552584E+00
         -1   -1    0    0    0  502 -0.00000000000E+00  0.00000000000E+00  0.79077701227E+02  0.79077701227E+02  0.00000000000E+00 0.  1.
         -2   -1    0    0    0  501  0.00000000000E+00 -0.00000000000E+00 -0.36810776100E+03  0.36810776100E+03  0.00000000000E+00 0.  1.
         25    2    1    2    0    0  0.44208639919E+02  0.20194821277E+02 -0.97807729592E+02  0.16601961537E+03  0.12503569918E+03 0.  0.
          4    1    3    3  503    0  0.49214932468E+01  0.28283099154E+02  0.24207904196E+02  0.37573798305E+02  0.12700000000E+01 0. -1.
         -4    1    3    3    0  503  0.39287146672E+02 -0.80882778769E+01 -0.12201563379E+03  0.12844581706E+03  0.12700000000E+01 0. -1.
         -2    1    1    2    0  502 -0.29363127702E+02  0.13593032039E+02  0.37474368384E+02  0.49510524883E+02  0.00000000000E+00 0.  1.
         -1    1    1    2    0  501 -0.14845512218E+02 -0.33787853316E+02 -0.22869669857E+03  0.23165532198E+03  0.00000000000E+00 0.  1.
<mgrwt>
<rscale>  0 0.34555501E+02</rscale>
<asrwt>0</asrwt>
<pdfrwt beam="2">  1       -2 0.56631963E-01 0.36903586E+02</pdfrwt>
<pdfrwt beam="1">  1       -1 0.12165800E-01 0.32356820E+02</pdfrwt>
<totfact> 0.87474512E+02</totfact>
</mgrwt>
</event>
<event>
 7    1  0.4252091E-004  0.3336124E+02  0.7546771E-02  0.1577193E+00
         -1   -1    0    0    0  501 -0.00000000000E+00  0.00000000000E+00  0.19149463614E+02  0.19149463614E+02  0.00000000000E+00 0.  1.
          1   -1    0    0  503    0  0.00000000000E+00 -0.00000000000E+00 -0.18840338658E+04  0.18840338658E+04  0.00000000000E+00 0. -1.
         25    2    1    2    0    0  0.35572646854E+02 -0.10362338487E+02 -0.10354319917E+04  0.10436064060E+04  0.12498851891E+03 0.  0.
          4    1    3    3  502    0  0.30483667370E+01  0.15312502357E+02 -0.93261100968E+03  0.93274255481E+03  0.12700000000E+01 0.  1.
         -4    1    3    3    0  502  0.32524280117E+02 -0.25674840844E+02 -0.10282098205E+03  0.11086385119E+03  0.12700000000E+01 0.  1.
          2    1    1    2  503    0 -0.80745516911E+01  0.29570804393E+02 -0.82519615492E+03  0.82576529653E+03  0.00000000000E+00 0. -1.
         -2    1    1    2    0  501 -0.27498095163E+02 -0.19208465906E+02 -0.42562554997E+01  0.33811626860E+02  0.00000000000E+00 0.  1.
<mgrwt>
<rscale>  0 0.31978670E+02</rscale>
<asrwt>0</asrwt>
<pdfrwt beam="2">  1        1 0.28985138E+00 0.30653399E+02</pdfrwt>
<pdfrwt beam="1">  1       -1 0.29460712E-02 0.33361238E+02</pdfrwt>
<totfact> 0.15716843E+03</totfact>
</mgrwt>
</event>
<event>
 7    1  0.4252091E-004  0.6076898E+02  0.7546771E-02  0.1539540E+00
          2   -1    0    0  503    0  0.00000000000E+00  0.00000000000E+00  0.14993997909E+04  0.14993997909E+04  0.00000000000E+00 0. -1.
          1   -1    0    0  502    0 -0.00000000000E+00 -0.00000000000E+00 -0.16295066419E+03  0.16295066419E+03  0.00000000000E+00 0. -1.
         25    2    1    2    0    0 -0.48188808174E+01  0.48321954286E+02  0.47744502561E+03  0.49592197014E+03  0.12500646026E+03 0.  0.
          4    1    3    3  501    0  0.43930287184E+01  0.86699682275E+02  0.24011246705E+03  0.25532673840E+03  0.12700000000E+01 0. -1.
         -4    1    3    3    0  501 -0.92119095358E+01 -0.38377727989E+02  0.23733255856E+03  0.24059523174E+03  0.12700000000E+01 0. -1.
          2    1    1    2  502    0 -0.13430282074E+02 -0.59453224646E+02 -0.14755201936E+03  0.15964540962E+03  0.00000000000E+00 0. -1.
          1    1    1    2  503    0  0.18249162892E+02  0.11131270360E+02  0.10065561204E+04  0.10067830753E+04  0.00000000000E+00 0. -1.
<mgrwt>
<rscale>  0 0.36041685E+02</rscale>
<asrwt>0</asrwt>
<pdfrwt beam="1">  1        2 0.23067688E+00 0.21376088E+02</pdfrwt>
<pdfrwt beam="2">  1        1 0.25069334E-01 0.60768981E+02</pdfrwt>
<totfact> 0.42417747E+02</totfact>
</mgrwt>
</event>
<event>
 7    1  0.4252091E-004  0.1002886E+03  0.7546771E-02  0.1287953E+00
          1   -1    0    0  502    0 -0.00000000000E+00  0.00000000000E+00  0.26808270188E+04  0.26808270188E+04  0.00000000000E+00 0. -1.
          2   -1    0    0  503    0  0.00000000000E+00 -0.00000000000E+00 -0.56207794137E+03  0.56207794137E+03  0.00000000000E+00 0. -1.
         25    2    1    2    0    0 -0.86983181790E+02  0.22026659396E+02  0.11401240386E+03  0.19150666449E+03  0.12499890668E+03 0.  0.
          4    1    3    3  501    0 -0.28246312815E+02  0.75508651011E+01  0.12640015728E+03  0.12974391089E+03  0.12700000000E+01 0.  1.
         -4    1    3    3    0  501 -0.58736868975E+02  0.14475794295E+02 -0.12387753420E+02  0.61762753600E+02  0.12700000000E+01 0.  1.
          2    1    1    2  502    0  0.12715457835E+02 -0.91874258982E+02  0.25222415085E+04  0.25239462731E+04  0.00000000000E+00 0. -1.
          1    1    1    2  503    0  0.74267723955E+02  0.69847599586E+02 -0.51750483491E+03  0.52745202260E+03  0.00000000000E+00 0. -1.
<mgrwt>
<rscale>  0 0.96445660E+02</rscale>
<asrwt>0</asrwt>
<pdfrwt beam="2">  1        2 0.86473531E-01 0.10028858E+03</pdfrwt>
<pdfrwt beam="1">  1        1 0.41243492E+00 0.92749999E+02</pdfrwt>
<totfact> 0.10725088E+01</totfact>
</mgrwt>
</event>
<event>
 7    1  0.4252091E-004  0.9949973E+02  0.7546771E-02  0.1395559E+00
          1   -1    0    0  503    0  0.00000000000E+00  0.00000000000E+00  0.16921648700E+03  0.16921648700E+03  0.00000000000E+00 0. -1.
         -1   -1    0    0    0  501 -0.00000000000E+00 -0.00000000000E+00 -0.24075764165E+03  0.24075764165E+03  0.00000000000E+00 0.  1.
         25    2    1    2    0    0 -0.81165919808E+02  0.25309309695E+02 -0.94437807623E+02  0.17826896221E+03  0.12503141879E+03 0.  0.
          4    1    3    3  502    0  0.28123020968E+02 -0.17683666270E+02 -0.27064926663E+02  0.42868864183E+02  0.12700000000E+01 0. -1.
         -4    1    3    3    0  502 -0.10928894078E+03  0.42992975965E+02 -0.67372880960E+02  0.13540009803E+03  0.12700000000E+01 0. -1.
          2    1    1    2  503    0  0.10236120686E+03  0.48242022978E+01  0.10191159731E+03  0.14452357338E+03  0.00000000000E+00 0. -1.
         -2    1    1    2    0  501 -0.21195287047E+02 -0.30133511993E+02 -0.79014944338E+02  0.87181593051E+02  0.00000000000E+00 0.  1.
<mgrwt>
<rscale>  0 0.60544879E+02</rscale>
<asrwt>0</asrwt>
<pdfrwt beam="1">  1        1 0.26033306E-01 0.99499731E+02</pdfrwt>
<pdfrwt beam="2">  1       -1 0.37039637E-01 0.36841128E+02</pdfrwt>
<totfact> 0.12386585E+03</totfact>
</mgrwt>
</event>
<event>
 7    1  0.4252091E-004  0.1766044E+03  0.7546771E-02  0.1207936E+00
          2   -1    0    0  503    0  0.00000000000E+00  0.00000000000E+00  0.94130460902E+03  0.94130460902E+03  0.00000000000E+00 0. -1.
         -2   -1    0    0    0  501 -0.00000000000E+00 -0.00000000000E+00 -0.91921476154E+03  0.91921476154E+03  0.00000000000E+00 0.  1.
         25    2    1    2    0    0 -0.71263244539E+02 -0.40413276944E+01 -0.21842870054E+03  0.26159159258E+03  0.12499712691E+03 0.  0.
          4    1    3    3  502    0 -0.55422765123E+01 -0.56338004106E+02 -0.11633534662E+03  0.12938397624E+03  0.12700000000E+01 0.  1.
         -4    1    3    3    0  502 -0.65720968027E+02  0.52296676411E+02 -0.10209335393E+03  0.13220761634E+03  0.12700000000E+01 0.  1.
          3    1    1    2  503    0  0.16354727509E+03  0.76859760697E+02  0.90564263767E+03  0.92349538232E+03  0.00000000000E+00 0. -1.
         -1    1    1    2    0  501 -0.92284030551E+02 -0.72818433003E+02 -0.66512408965E+03  0.67543239566E+03  0.00000000000E+00 0.  1.
<mgrwt>
<rscale>  0 0.14408504E+03</rscale>
<asrwt>0</asrwt>
<pdfrwt beam="1">  1        2 0.14481609E+00 0.17660443E+03</pdfrwt>
<pdfrwt beam="2">  1       -2 0.14141765E+00 0.11755367E+03</pdfrwt>
<totfact> 0.11351457E+01</totfact>
</mgrwt>
</event>
<event>
 7    1  0.4252091E-004  0.8216593E+02  0.7546771E-02  0.1352135E+00
          2   -1    0    0  503    0  0.00000000000E+00  0.00000000000E+00  0.12961995611E+04  0.12961995611E+04  0.00000000000E+00 0. -1.
          1   -1    0    0  502    0 -0.00000000000E+00 -0.00000000000E+00 -0.16259395771E+03  0.16259395771E+03  0.00000000000E+00 0. -1.
         25    2    1    2    0    0  0.68327044047E+02  0.25760441252E+02  0.14236240395E+03  0.20304111683E+03  0.12500582299E+03 0.  0.
          4    1    3    3  501    0  0.39381448500E+02 -0.49131999546E+02  0.77173516788E+02  0.99610323054E+02  0.12700000000E+01 0.  1.
         -4    1    3    3    0  501  0.28945595546E+02  0.74892440799E+02  0.65188887166E+02  0.10343079377E+03  0.12700000000E+01 0.  1.
          2    1    1    2  502    0  0.65405041007E+01 -0.63448816178E+02 -0.12289700970E+03  0.13846373338E+03  0.00000000000E+00 0. -1.
          1    1    1    2  503    0 -0.74867548148E+02  0.37688374926E+02  0.11141402091E+04  0.11172886686E+04  0.00000000000E+00 0. -1.
<mgrwt>
<rscale>  0 0.72394452E+02</rscale>
<asrwt>0</asrwt>
<pdfrwt beam="1">  1        2 0.19941531E+00 0.82165932E+02</pdfrwt>
<pdfrwt beam="2">  1        1 0.25014456E-01 0.63785033E+02</pdfrwt>
<totfact> 0.48121423E+02</totfact>
</mgrwt>
</event>
<event>
 7    1  0.4252091E-004  0.6275033E+02  0.7546771E-02  0.1390929E+00
          1   -1    0    0  503    0  0.00000000000E+00  0.00000000000E+00  0.10417321120E+03  0.10417321120E+03  0.00000000000E+00 0. -1.
         -1   -1    0    0    0  501 -0.00000000000E+00 -0.00000000000E+00 -0.23649693534E+03  0.23649693534E+03  0.00000000000E+00 0.  1.
         25    2    1    2    0    0 -0.82281653453E+02  0.11372919136E+02  0.11757694280E+02  0.15054184037E+03  0.12499995417E+03 0.  0.
          4    1    3    3  502    0 -0.77362527530E+02  0.61244629031E+02  0.17023213870E+02  0.10013624699E+03  0.12700000000E+01 0. -1.
         -4    1    3    3    0  502 -0.49191259225E+01 -0.49871709895E+02 -0.52655195902E+01  0.50405593382E+02  0.12700000000E+01 0. -1.
          2    1    1    2  503    0  0.33081696727E+02 -0.50798265938E+02 -0.63148612346E+02  0.87536333724E+02  0.00000000000E+00 0. -1.
         -2    1    1    2    0  501  0.49199956725E+02  0.39425346802E+02 -0.80932806067E+02  0.10259197244E+03  0.00000000000E+00 0.  1.
<mgrwt>
<rscale>  0 0.61676294E+02</rscale>
<asrwt>0</asrwt>
<pdfrwt beam="1">  1        1 0.16026648E-01 0.60620644E+02</pdfrwt>
<pdfrwt beam="2">  1       -1 0.36384144E-01 0.62750328E+02</pdfrwt>
<totfact> 0.23164752E+03</totfact>
</mgrwt>
</event>
<event>
 7    1  0.4252091E-004  0.7337351E+02  0.7546771E-02  0.1391000E+00
          1   -1    0    0  502    0 -0.00000000000E+00  0.00000000000E+00  0.11989375913E+03  0.11989375913E+03  0.00000000000E+00 0. -1.
          2   -1    0    0  503    0  0.00000000000E+00 -0.00000000000E+00 -0.82086039054E+03  0.82086039054E+03  0.00000000000E+00 0. -1.
         25    2    1    2    0    0 -0.14534358776E+02 -0.46382063653E+02 -0.15845094104E+03  0.20759214044E+03  0.12500101057E+03 0.  0.
          4    1    3    3  501    0 -0.68372862326E+02 -0.40761454354E+02 -0.10170282145E+03  0.12915657651E+03  0.12700000000E+01 0. -1.
         -4    1    3    3    0  501  0.53838503550E+02 -0.56206092987E+01 -0.56748119583E+02  0.78435563934E+02  0.12700000000E+01 0. -1.
          2    1    1    2  502    0  0.46082670202E+02 -0.23687544625E+02  0.85763842305E+02  0.10020054346E+03  0.00000000000E+00 0. -1.
          1    1    1    2  503    0 -0.31548311427E+02  0.70069608279E+02 -0.62827953268E+03  0.63296146577E+03  0.00000000000E+00 0. -1.
<mgrwt>
<rscale>  0 0.61658659E+02</rscale>
<asrwt>0</asrwt>
<pdfrwt beam="2">  1        2 0.12628622E+00 0.73373507E+02</pdfrwt>
<pdfrwt beam="1">  1        1 0.18445193E-01 0.51814209E+02</pdfrwt>
<totfact> 0.13087171E+03</totfact>
</mgrwt>
</event>
<event>
 7    1  0.4252091E-004  0.2349498E+03  0.7546771E-02  0.1197442E+00
          2   -1    0    0  503    0  0.00000000000E+00  0.00000000000E+00  0.21769860716E+03  0.21769860716E+03  0.00000000000E+00 0. -1.
          1   -1    0    0  502    0 -0.00000000000E+00 -0.00000000000E+00 -0.10991166619E+04  0.10991166619E+04  0.00000000000E+00 0. -1.
         25    2    1    2    0    0  0.13969135944E+03 -0.50187259684E+02  0.34626089007E+02  0.19712200694E+03  0.12500273054E+03 0.  0.
          4    1    3    3  501    0  0.12838523352E+03 -0.87262278417E+02  0.29235845990E+02  0.15796778473E+03  0.12700000000E+01 0.  1.
         -4    1    3    3    0  501  0.11306125924E+02  0.37075018733E+02  0.53902430178E+01  0.39154222215E+02  0.12700000000E+01 0.  1.
          2    1    1    2  502    0 -0.23731456291E+03  0.66493394810E+02 -0.97420400355E+03  0.10048945287E+04  0.00000000000E+00 0. -1.
          1    1    1    2  503    0  0.97623203467E+02 -0.16306135126E+02  0.58159859806E+02  0.11479873340E+03  0.00000000000E+00 0. -1.
<mgrwt>
<rscale>  0 0.15249363E+03</rscale>
<asrwt>0</asrwt>
<pdfrwt beam="1">  1        2 0.33492095E-01 0.98975653E+02</pdfrwt>
<pdfrwt beam="2">  1        1 0.16909487E+00 0.23494976E+03</pdfrwt>
<totfact> 0.28482074E+02</totfact>
</mgrwt>
</event>
<event>
 7    1  0.4252091E-004  0.1149157E+03  0.7546771E-02  0.1404639E+00
          1   -1    0    0  502    0 -0.00000000000E+00  0.00000000000E+00  0.85615756290E+02  0.85615756290E+02  0.00000000000E+00 0. -1.
          2   -1    0    0  503    0  0.00000000000E+00 -0.00000000000E+00 -0.80516607177E+03  0.80516607177E+03  0.00000000000E+00 0. -1.
         25    2    1    2    0    0  0.13198879789E+03 -0.50364260838E+02 -0.40935484823E+03  0.45072560131E+03  0.12499829748E+03 0.  0.
          4    1    3    3  501    0  0.56789341979E+02 -0.87831604303E+02 -0.22892501611E+03  0.25168968191E+03  0.12700000000E+01 0.  1.
         -4    1    3    3    0  501  0.75199455911E+02  0.37467343465E+02 -0.18042983212E+03  0.19903591940E+03  0.12700000000E+01 0.  1.
          2    1    1    2  502    0 -0.10595988522E+03  0.36089227185E+02  0.15504780807E+02  0.11300587517E+03  0.00000000000E+00 0. -1.
          1    1    1    2  503    0 -0.26028912666E+02  0.14275033653E+02 -0.32570024805E+03  0.32705035157E+03  0.00000000000E+00 0. -1.
<mgrwt>
<rscale>  0 0.58407456E+02</rscale>
<asrwt>0</asrwt>
<pdfrwt beam="2">  1        2 0.12387170E+00 0.29686375E+02</pdfrwt>
<pdfrwt beam="1">  1        1 0.13171655E-01 0.11491571E+03</pdfrwt>
<totfact> 0.22082886E+03</totfact>
</mgrwt>
</event>
<event>
 7    1  0.4252091E-004  0.4515729E+02  0.7546771E-02  0.1489286E+00
          1   -1    0    0  502    0 -0.00000000000E+00  0.00000000000E+00  0.22181234968E+03  0.22181234968E+03  0.00000000000E+00 0. -1.
          2   -1    0    0  503    0  0.00000000000E+00 -0.00000000000E+00 -0.10316951918E+04  0.10316951918E+04  0.00000000000E+00 0. -1.
         25    2    1    2    0    0 -0.19363932385E+02  0.77433481761E+01 -0.17611785218E+03  0.21697132553E+03  0.12499654766E+03 0.  0.
          4    1    3    3  501    0  0.13253531676E+02  0.53459959454E+02 -0.13932052757E+03  0.14981804187E+03  0.12700000000E+01 0. -1.
         -4    1    3    3    0  501 -0.32617464061E+02 -0.45716611278E+02 -0.36797324614E+02  0.67153283667E+02  0.12700000000E+01 0. -1.
          2    1    1    2  502    0  0.34739820488E+02  0.29574633941E+02  0.19830616192E+03  0.20348672673E+03  0.00000000000E+00 0. -1.
          1    1    1    2  503    0 -0.15375888102E+02 -0.37317982117E+02 -0.83207115188E+03  0.83304948923E+03  0.00000000000E+00 0. -1.
<mgrwt>
<rscale>  0 0.42692102E+02</rscale>
<asrwt>0</asrwt>
<pdfrwt beam="2">  1        2 0.15872233E+00 0.40361488E+02</pdfrwt>
<pdfrwt beam="1">  1        1 0.34124978E-01 0.45157294E+02</pdfrwt>
<totfact> 0.47592469E+02</totfact>
</mgrwt>
</event>
<event>
 7    1  0.4252091E-004  0.1537757E+03  0.7546771E-02  0.1204706E+00
          2   -1    0    0  503    0  0.00000000000E+00  0.00000000000E+00  0.28622970698E+03  0.28622970698E+03  0.00000000000E+00 0. -1.
          1   -1    0    0  502    0 -0.00000000000E+00 -0.00000000000E+00 -0.94483151592E+03  0.94483151592E+03  0.00000000000E+00 0. -1.
         25    2    1    2    0    0 -0.37636409407E+02 -0.31443510957E+02 -0.28602215638E+03  0.31597209925E+03  0.12499799946E+03 0.  0.
          4    1    3    3  501    0  0.32937955524E+02 -0.20360745193E+02 -0.26867408131E+02  0.47148058057E+02  0.12700000000E+01 0. -1.
         -4    1    3    3    0  501 -0.70574364931E+02 -0.11082765764E+02 -0.25915474825E+03  0.26882404119E+03  0.12700000000E+01 0. -1.
          2    1    1    2  502    0  0.43843875026E+02 -0.13271725168E+03 -0.61031538651E+03  0.62611582417E+03  0.00000000000E+00 0. -1.
          1    1    1    2  503    0 -0.62074656186E+01  0.16416076263E+03  0.23773573395E+03  0.28897329948E+03  0.00000000000E+00 0. -1.
<mgrwt>
<rscale>  0 0.14660665E+03</rscale>
<asrwt>0</asrwt>
<pdfrwt beam="1">  1        2 0.44035338E-01 0.15377574E+03</pdfrwt>
<pdfrwt beam="2">  1        1 0.14535870E+00 0.13977179E+03</pdfrwt>
<totfact> 0.28692541E+02</totfact>
</mgrwt>
</event>
<event>
 7    1  0.4252091E-004  0.1039028E+03  0.7546771E-02  0.1376867E+00
          1   -1    0    0  502    0 -0.00000000000E+00  0.00000000000E+00  0.20593319850E+03  0.20593319850E+03  0.00000000000E+00 0. -1.
          2   -1    0    0  503    0  0.00000000000E+00 -0.00000000000E+00 -0.40726292823E+03  0.40726292823E+03  0.00000000000E+00 0. -1.
         25    2    1    2    0    0 -0.14846621720E+02  0.13340213475E+03 -0.89361285091E+02  0.20403444748E+03  0.12501225841E+03 0.  0.
          4    1    3    3  501    0 -0.10541465125E+02  0.15463658140E+03 -0.94756780137E+02  0.18167018213E+03  0.12700000000E+01 0.  1.
         -4    1    3    3    0  501 -0.43051565946E+01 -0.21234446648E+02  0.53954950466E+01  0.22364265348E+02  0.12700000000E+01 0.  1.
          2    1    1    2  502    0 -0.92550048198E+01 -0.10019402704E+03  0.12963265550E+03  0.16410095533E+03  0.00000000000E+00 0. -1.
          1    1    1    2  503    0  0.24101626540E+02 -0.33208107711E+02 -0.24160110014E+03  0.24506072392E+03  0.00000000000E+00 0. -1.
<mgrwt>
<rscale>  0 0.65294662E+02</rscale>
<asrwt>0</asrwt>
<pdfrwt beam="2">  1        2 0.62655834E-01 0.41032509E+02</pdfrwt>
<pdfrwt beam="1">  1        1 0.31682031E-01 0.10390281E+03</pdfrwt>
<totfact> 0.14957885E+03</totfact>
</mgrwt>
</event>
<event>
 7    1  0.4252091E-004  0.1835130E+03  0.7546771E-02  0.1185887E+00
          2   -1    0    0  503    0  0.00000000000E+00  0.00000000000E+00  0.48231472496E+03  0.48231472496E+03  0.00000000000E+00 0. -1.
          1   -1    0    0  502    0 -0.00000000000E+00 -0.00000000000E+00 -0.15782254784E+04  0.15782254784E+04  0.00000000000E+00 0. -1.
         25    2    1    2    0    0 -0.70235128907E+00  0.20428659997E+03 -0.24439591792E+02  0.24073992755E+03  0.12499964337E+03 0.  0.
          4    1    3    3  501    0 -0.21607236577E+02  0.10091823249E+02 -0.38073787249E+02  0.44943784270E+02  0.12700000000E+01 0. -1.
         -4    1    3    3    0  501  0.20904885288E+02  0.19419477673E+03  0.13634195457E+02  0.19579614328E+03  0.12700000000E+01 0. -1.
          2    1    1    2  502    0  0.12800182370E+03 -0.65788303382E+02 -0.14181172786E+04  0.14254014114E+04  0.00000000000E+00 0. -1.
          1    1    1    2  503    0 -0.12729947241E+03 -0.13849829659E+03  0.34664611697E+03  0.39439886440E+03  0.00000000000E+00 0. -1.
<mgrwt>
<rscale>  0 0.16251443E+03</rscale>
<asrwt>0</asrwt>
<pdfrwt beam="1">  1        2 0.74202266E-01 0.18351302E+03</pdfrwt>
<pdfrwt beam="2">  1        1 0.24280392E+00 0.14391861E+03</pdfrwt>
<totfact> 0.60304240E+01</totfact>
</mgrwt>
</event>
<event>
 7    1  0.4252091E-004  0.1236655E+03  0.7546771E-02  0.1347422E+00
          2   -1    0    0  503    0  0.00000000000E+00  0.00000000000E+00  0.15848352400E+04  0.15848352400E+04  0.00000000000E+00 0. -1.
          1   -1    0    0  502    0 -0.00000000000E+00 -0.00000000000E+00 -0.24734037649E+02  0.24734037649E+02  0.00000000000E+00 0. -1.
         25    2    1    2    0    0  0.19466357325E+02 -0.95574316048E+02  0.57435819271E+03  0.59583996771E+03  0.12499817851E+03 0.  0.
          4    1    3    3  501    0  0.51246211276E+02 -0.81328963107E+02  0.53370266848E+03  0.54229210363E+03  0.12700000000E+01 0. -1.
         -4    1    3    3    0  501 -0.31779853950E+02 -0.14245352940E+02  0.40655524228E+02  0.53547864082E+02  0.12700000000E+01 0. -1.
          2    1    1    2  502    0 -0.16146156195E+02  0.13956865467E+03  0.36019145420E+03  0.38662383709E+03  0.00000000000E+00 0. -1.
          1    1    1    2  503    0 -0.33202011303E+01 -0.43994338622E+02  0.62555155542E+03  0.62710547283E+03  0.00000000000E+00 0. -1.
<mgrwt>
<rscale>  0 0.73865116E+02</rscale>
<asrwt>0</asrwt>
<pdfrwt beam="1">  1        2 0.24382073E+00 0.44119447E+02</pdfrwt>
<pdfrwt beam="2">  1        1 0.38052378E-02 0.12366554E+03</pdfrwt>
<totfact> 0.44195128E+03</totfact>
</mgrwt>
</event>
<event>
 7    1  0.4252091E-004  0.1445891E+03  0.7546771E-02  0.1293943E+00
          2   -1    0    0  503    0  0.00000000000E+00  0.00000000000E+00  0.14639455337E+04  0.14639455337E+04  0.00000000000E+00 0. -1.
         -2   -1    0    0    0  501 -0.00000000000E+00 -0.00000000000E+00 -0.27230514300E+03  0.27230514300E+03  0.00000000000E+00 0.  1.
         25    2    1    2    0    0 -0.90285079395E+02  0.29868899701E+02  0.22716381376E+03  0.27617508052E+03  0.12500292030E+03 0.  0.
          4    1    3    3  502    0  0.24051379724E+02 -0.14336570585E+02  0.16745652993E+02  0.32650205465E+02  0.12700000000E+01 0.  1.
         -4    1    3    3    0  502 -0.11433645912E+03  0.44205470286E+02  0.21041816077E+03  0.24352487505E+03  0.12700000000E+01 0.  1.
          3    1    1    2  503    0  0.15100621291E+03 -0.33475064478E+02  0.12035179619E+04  0.12134162274E+04  0.00000000000E+00 0. -1.
         -1    1    1    2    0  501 -0.60721133518E+02  0.36061647770E+01 -0.23904138497E+03  0.24665936878E+03  0.00000000000E+00 0.  1.
<mgrwt>
<rscale>  0 0.93782121E+02</rscale>
<asrwt>0</asrwt>
<pdfrwt beam="1">  1        2 0.22522239E+00 0.14458915E+03</pdfrwt>
<pdfrwt beam="2">  1       -2 0.41893100E-01 0.60828122E+02</pdfrwt>
<totfact> 0.81790788E+01</totfact>
</mgrwt>
</event>
<event>
 7    1  0.4252091E-004  0.8478103E+02  0.7546771E-02  0.1372300E+00
         -2   -1    0    0    0  501 -0.00000000000E+00  0.00000000000E+00  0.21120796856E+03  0.21120796856E+03  0.00000000000E+00 0.  1.
          2   -1    0    0  503    0  0.00000000000E+00 -0.00000000000E+00 -0.51986834492E+03  0.51986834492E+03  0.00000000000E+00 0. -1.
         25    2    1    2    0    0 -0.39475259070E+02  0.62167432819E+01 -0.18619899723E+03  0.22780011082E+03  0.12500351974E+03 0.  0.
          4    1    3    3  502    0  0.55997941344E+01 -0.54324310184E+02 -0.93084863665E+02  0.10793003806E+03  0.12700000000E+01 0. -1.
         -4    1    3    3    0  502 -0.45075053205E+02  0.60541053466E+02 -0.93114133561E+02  0.11987007277E+03  0.12700000000E+01 0. -1.
          1    1    1    2  503    0 -0.45399850217E+02 -0.25784076469E+02 -0.30053782598E+03  0.30503925951E+03  0.00000000000E+00 0. -1.
         -1    1    1    2    0  501  0.84875109288E+02  0.19567333187E+02  0.17807644685E+03  0.19823694315E+03  0.00000000000E+00 0.  1.
<mgrwt>
<rscale>  0 0.66531823E+02</rscale>
<asrwt>0</asrwt>
<pdfrwt beam="2">  1        2 0.79979745E-01 0.52210775E+02</pdfrwt>
<pdfrwt beam="1">  1       -2 0.32493534E-01 0.84781035E+02</pdfrwt>
<totfact> 0.53343600E+02</totfact>
</mgrwt>
</event>
<event>
 7    1  0.4252091E-004  0.6553949E+02  0.7546771E-02  0.1489095E+00
         -2   -1    0    0    0  501 -0.00000000000E+00  0.00000000000E+00  0.58820371983E+03  0.58820371983E+03  0.00000000000E+00 0.  1.
          2   -1    0    0  503    0  0.00000000000E+00 -0.00000000000E+00 -0.27918770252E+02  0.27918770252E+02  0.00000000000E+00 0. -1.
         25    2    1    2    0    0  0.49853167851E+02 -0.47058014753E+02  0.28337784829E+03  0.31721732642E+03  0.12499612866E+03 0.  0.
          4    1    3    3  502    0  0.17233811209E+02 -0.56337942528E+02  0.39391703562E+02  0.70882206700E+02  0.12700000000E+01 0.  1.
         -4    1    3    3    0  502  0.32619356642E+02  0.92799277753E+01  0.24398614473E+03  0.24633511972E+03  0.12700000000E+01 0.  1.
          1    1    1    2  503    0  0.12292292890E+02  0.24986609060E+02  0.21667367427E+02  0.35283224173E+02  0.00000000000E+00 0. -1.
         -1    1    1    2    0  501 -0.62145460740E+02  0.22071405693E+02  0.25523973387E+03  0.26362193950E+03  0.00000000000E+00 0.  1.
<mgrwt>
<rscale>  0 0.42720599E+02</rscale>
<asrwt>0</asrwt>
<pdfrwt beam="2">  1        2 0.42951959E-02 0.27846563E+02</pdfrwt>
<pdfrwt beam="1">  1       -2 0.90492871E-01 0.65539489E+02</pdfrwt>
<totfact> 0.17085162E+03</totfact>
</mgrwt>
</event>
<event>
 7    1  0.4252091E-004  0.1077171E+03  0.7546771E-02  0.1337036E+00
          2   -1    0    0  503    0  0.00000000000E+00  0.00000000000E+00  0.14586224450E+04  0.14586224450E+04  0.00000000000E+00 0. -1.
         -2   -1    0    0    0  501 -0.00000000000E+00 -0.00000000000E+00 -0.93289798839E+03  0.93289798839E+03  0.00000000000E+00 0.  1.
         25    2    1    2    0    0  0.15052972873E+03  0.45688581018E+02 -0.25647218537E+03  0.32580439439E+03  0.12499550339E+03 0.  0.
          4    1    3    3  502    0  0.61298222893E+02 -0.11206300565E+02 -0.19203657383E+03  0.20189777585E+03  0.12700000000E+01 0.  1.
         -4    1    3    3    0  502  0.89231505840E+02  0.56894881584E+02 -0.64435611539E+02  0.12390661855E+03  0.12700000000E+01 0.  1.
          1    1    1    2  503    0 -0.52690804079E+02 -0.17123288864E+02  0.14193656301E+04  0.14204465213E+04  0.00000000000E+00 0. -1.
         -1    1    1    2    0  501 -0.97838924655E+02 -0.28565292154E+02 -0.63716898812E+03  0.64526951773E+03  0.00000000000E+00 0.  1.
<mgrwt>
<rscale>  0 0.77252091E+02</rscale>
<asrwt>0</asrwt>
<pdfrwt beam="1">  1        2 0.22440345E+00 0.55403320E+02</pdfrwt>
<pdfrwt beam="2">  1       -2 0.14352277E+00 0.10771711E+03</pdfrwt>
<totfact> 0.61360205E+00</totfact>
</mgrwt>
</event>
<event>
 7    1  0.4252091E-004  0.1147865E+03  0.7546771E-02  0.1282478E+00
          2   -1    0    0  503    0  0.00000000000E+00  0.00000000000E+00  0.48889714418E+03  0.48889714418E+03  0.00000000000E+00 0. -1.
          1   -1    0    0  502    0 -0.00000000000E+00 -0.00000000000E+00 -0.50227171231E+03  0.50227171231E+03  0.00000000000E+00 0. -1.
         25    2    1    2    0    0 -0.19156801707E+03  0.37895882696E+02  0.70835791575E+02  0.24243811162E+03  0.12499650199E+03 0.  0.
          4    1    3    3  501    0 -0.14553775026E+03 -0.98582875944E+01  0.92404728852E+02  0.17268083101E+03  0.12700000000E+01 0.  1.
         -4    1    3    3    0  501 -0.46030266814E+02  0.47754170290E+02 -0.21568937277E+02  0.69757280612E+02  0.12700000000E+01 0.  1.
          2    1    1    2  502    0  0.10650122978E+03 -0.31175556275E+02 -0.40337238533E+03  0.41835834939E+03  0.00000000000E+00 0. -1.
          1    1    1    2  503    0  0.85066787291E+02 -0.67203264205E+01  0.31916202564E+03  0.33037239548E+03  0.00000000000E+00 0. -1.
<mgrwt>
<rscale>  0 0.98969388E+02</rscale>
<asrwt>0</asrwt>
<pdfrwt beam="1">  1        2 0.75214945E-01 0.85331829E+02</pdfrwt>
<pdfrwt beam="2">  1        1 0.77272571E-01 0.11478647E+03</pdfrwt>
<totfact> 0.40591135E+02</totfact>
</mgrwt>
</event>
<event>
 7    1  0.4252091E-004  0.9565446E+02  0.7546771E-02  0.1307001E+00
          2   -1    0    0  503    0  0.00000000000E+00  0.00000000000E+00  0.14277057021E+04  0.14277057021E+04  0.00000000000E+00 0. -1.
          1   -1    0    0  502    0 -0.00000000000E+00 -0.00000000000E+00 -0.27801088279E+04  0.27801088279E+04  0.00000000000E+00 0. -1.
         25    2    1    2    0    0  0.43085406260E+01  0.79789158545E+02  0.12369542184E+03  0.19315633615E+03  0.12499575779E+03 0.  0.
          4    1    3    3  501    0  0.12756455717E+02 -0.23958564740E+02 -0.50008496445E+01  0.27628995350E+02  0.12700000000E+01 0.  1.
         -4    1    3    3    0  501 -0.84479150909E+01  0.10374772329E+03  0.12869627149E+03  0.16552734080E+03  0.12700000000E+01 0.  1.
          2    1    1    2  502    0 -0.80822534147E+02 -0.51643954361E+02 -0.27432302736E+04  0.27449065037E+04  0.00000000000E+00 0. -1.
          1    1    1    2  503    0  0.76513993521E+02 -0.28145204184E+02  0.12671317260E+04  0.12697516902E+04  0.00000000000E+00 0. -1.
<mgrwt>
<rscale>  0 0.88308312E+02</rscale>
<asrwt>0</asrwt>
<pdfrwt beam="1">  1        2 0.21964703E+00 0.81526338E+02</pdfrwt>
<pdfrwt beam="2">  1        1 0.42770905E+00 0.95654462E+02</pdfrwt>
<totfact> 0.27123732E+00</totfact>
</mgrwt>
</event>
<event>
 7    1  0.4252091E-004  0.3985656E+02  0.7546771E-02  0.1535415E+00
          1   -1    0    0  503    0  0.00000000000E+00  0.00000000000E+00  0.53098884328E+03  0.53098884328E+03  0.00000000000E+00 0. -1.
         -1   -1    0    0    0  501 -0.00000000000E+00 -0.00000000000E+00 -0.25316954834E+03  0.25316954834E+03  0.00000000000E+00 0.  1.
         25    2    1    2    0    0 -0.60657443122E+01  0.12880429914E+02 -0.10754090080E+03  0.16550859029E+03  0.12500139753E+03 0.  0.
          4    1    3    3  502    0 -0.16338939527E+02 -0.52918470965E+02 -0.69238058540E+02  0.88672696838E+02  0.12700000000E+01 0. -1.
         -4    1    3    3    0  502  0.10273195215E+02  0.65798900879E+02 -0.38302842262E+02  0.76835893449E+02  0.12700000000E+01 0. -1.
          2    1    1    2  503    0  0.14410060016E+02  0.30222262724E+02  0.49729096496E+03  0.49841683241E+03  0.00000000000E+00 0. -1.
         -2    1    1    2    0  501 -0.83443157040E+01 -0.43102692638E+02 -0.11193076923E+03  0.12023296893E+03  0.00000000000E+00 0.  1.
<mgrwt>
<rscale>  0 0.36530423E+02</rscale>
<asrwt>0</asrwt>
<pdfrwt beam="1">  1        1 0.81690591E-01 0.33481861E+02</pdfrwt>
<pdfrwt beam="2">  1       -1 0.38949161E-01 0.39856561E+02</pdfrwt>
<totfact> 0.28375127E+02</totfact>
</mgrwt>
</event>
<event>
 7    1  0.4252091E-004  0.4403295E+02  0.7546771E-02  0.1595302E+00
         -1   -1    0    0    0  501 -0.00000000000E+00  0.00000000000E+00  0.20729633474E+03  0.20729633474E+03  0.00000000000E+00 0.  1.
          1   -1    0    0  503    0  0.00000000000E+00 -0.00000000000E+00 -0.19780909504E+03  0.19780909504E+03  0.00000000000E+00 0. -1.
         25    2    1    2    0    0  0.24812625768E+02 -0.11294519494E+02  0.94745110421E+02  0.15920400572E+03  0.12500418762E+03 0.  0.
          4    1    3    3  502    0 -0.34221676786E+02 -0.13826396432E+02  0.93012804019E+02  0.10007640587E+03  0.12700000000E+01 0. -1.
         -4    1    3    3    0  502  0.59034302555E+02  0.25318769378E+01  0.17323064024E+01  0.59127599853E+02  0.12700000000E+01 0. -1.
          2    1    1    2  503    0  0.16690269302E+02 -0.12389750035E+02 -0.15772976790E+03  0.15909352808E+03  0.00000000000E+00 0. -1.
         -2    1    1    2    0  501 -0.41502895070E+02  0.23684269529E+02  0.72471897187E+02  0.86807895978E+02  0.00000000000E+00 0.  1.
<mgrwt>
<rscale>  0 0.30253643E+02</rscale>
<asrwt>0</asrwt>
<pdfrwt beam="2">  1        1 0.30432168E-01 0.20786318E+02</pdfrwt>
<pdfrwt beam="1">  1       -1 0.31891744E-01 0.44032950E+02</pdfrwt>
<totfact> 0.12607158E+03</totfact>
</mgrwt>
</event>
<event>
 7    1  0.4252091E-004  0.6992385E+02  0.7546771E-02  0.1469459E+00
         -2   -1    0    0    0  501 -0.00000000000E+00  0.00000000000E+00  0.11504373929E+03  0.11504373929E+03  0.00000000000E+00 0.  1.
          2   -1    0    0  503    0  0.00000000000E+00 -0.00000000000E+00 -0.25715955200E+03  0.25715955200E+03  0.00000000000E+00 0. -1.
         25    2    1    2    0    0 -0.76234119176E+02  0.47297982684E+02 -0.10729476911E+03  0.18757734043E+03  0.12499740425E+03 0.  0.
          4    1    3    3  502    0  0.15167777953E+02  0.56012711076E+02 -0.21467796885E+02  0.61886706918E+02  0.12700000000E+01 0. -1.
         -4    1    3    3    0  502 -0.91401897128E+02 -0.87147283915E+01 -0.85826972229E+02  0.12569063351E+03  0.12700000000E+01 0. -1.
          1    1    1    2  503    0  0.61965857039E+02 -0.20921995714E+02 -0.96191999442E+02  0.11632023942E+03  0.00000000000E+00 0. -1.
         -1    1    1    2    0  501  0.14268262137E+02 -0.26375986970E+02  0.61370955852E+02  0.68305711439E+02  0.00000000000E+00 0.  1.
<mgrwt>
<rscale>  0 0.45791611E+02</rscale>
<asrwt>0</asrwt>
<pdfrwt beam="2">  1        2 0.39563007E-01 0.69923851E+02</pdfrwt>
<pdfrwt beam="1">  1       -2 0.17699037E-01 0.29987931E+02</pdfrwt>
<totfact> 0.29715531E+03</totfact>
</mgrwt>
</event>
<event>
 7    1  0.4252091E-004  0.8024904E+02  0.7546771E-02  0.1332870E+00
          1   -1    0    0  502    0 -0.00000000000E+00  0.00000000000E+00  0.42245759132E+02  0.42245759132E+02  0.00000000000E+00 0. -1.
          2   -1    0    0  503    0  0.00000000000E+00 -0.00000000000E+00 -0.24075125701E+04  0.24075125701E+04  0.00000000000E+00 0. -1.
         25    2    1    2    0    0  0.88874722066E+01 -0.13477494051E+02 -0.10935955168E+04  0.11008330711E+04  0.12498666314E+03 0.  0.
          4    1    3    3  501    0 -0.16587653546E+02 -0.19720047193E+02 -0.10472298897E+04  0.10475476530E+04  0.12700000000E+01 0. -1.
         -4    1    3    3    0  501  0.25475125753E+02  0.62425531424E+01 -0.46365627093E+02  0.53285418058E+02  0.12700000000E+01 0. -1.
          2    1    1    2  502    0  0.40129138085E+02  0.73017509499E+02 -0.88898317465E+01  0.83791011006E+02  0.00000000000E+00 0. -1.
          3    1    1    2  503    0 -0.49016610291E+02 -0.59540015448E+02 -0.12627814624E+04  0.12651342471E+04  0.00000000000E+00 0. -1.
<mgrwt>
<rscale>  0 0.78669449E+02</rscale>
<asrwt>0</asrwt>
<pdfrwt beam="2">  1        2 0.37038663E+00 0.77120954E+02</pdfrwt>
<pdfrwt beam="1">  1        1 0.64993462E-02 0.80249037E+02</pdfrwt>
<totfact> 0.75606748E+02</totfact>
</mgrwt>
</event>
<event>
 7    1  0.4252091E-004  0.5880368E+02  0.7546771E-02  0.1403491E+00
         -1   -1    0    0    0  501 -0.00000000000E+00  0.00000000000E+00  0.16618877513E+03  0.16618877513E+03  0.00000000000E+00 0.  1.
          1   -1    0    0  503    0  0.00000000000E+00 -0.00000000000E+00 -0.23280056731E+03  0.23280056731E+03  0.00000000000E+00 0. -1.
         25    2    1    2    0    0  0.25681146255E+02  0.32684440941E+02  0.48400842868E+02  0.14033615588E+03  0.12499520432E+03 0.  0.
          4    1    3    3  502    0  0.61917190974E+02  0.73876258044E+01 -0.13941684530E+02  0.63908520721E+02  0.12700000000E+01 0. -1.
         -4    1    3    3    0  502 -0.36236044719E+02  0.25296815137E+02  0.62342527398E+02  0.76427635155E+02  0.12700000000E+01 0. -1.
          2    1    1    2  503    0 -0.58774300118E+02  0.15923341181E+02 -0.16849822720E+03  0.17916367857E+03  0.00000000000E+00 0. -1.
         -2    1    1    2    0  501  0.33093153863E+02 -0.48607782122E+02  0.53485592151E+02  0.79489508007E+02  0.00000000000E+00 0.  1.
<mgrwt>
<rscale>  0 0.58671980E+02</rscale>
<asrwt>0</asrwt>
<pdfrwt beam="2">  1        1 0.35815472E-01 0.58540570E+02</pdfrwt>
<pdfrwt beam="1">  1       -1 0.25567504E-01 0.58803685E+02</pdfrwt>
<totfact> 0.15414683E+03</totfact>
</mgrwt>
</event>
<event>
 7    1  0.4252091E-004  0.6255151E+02  0.7546771E-02  0.1477986E+00
          2   -1    0    0  503    0  0.00000000000E+00  0.00000000000E+00  0.10516556180E+03  0.10516556180E+03  0.00000000000E+00 0. -1.
          1   -1    0    0  502    0 -0.00000000000E+00 -0.00000000000E+00 -0.10479447219E+04  0.10479447219E+04  0.00000000000E+00 0. -1.
         25    2    1    2    0    0  0.14820160378E+02  0.39976665309E+02 -0.11593395777E+03  0.17573609431E+03  0.12499888542E+03 0.  0.
          4    1    3    3  501    0  0.49653137098E+02 -0.11611500744E+02 -0.87096295791E+01  0.51746802033E+02  0.12700000000E+01 0. -1.
         -4    1    3    3    0  501 -0.34832976721E+02  0.51588166053E+02 -0.10722432819E+03  0.12398929228E+03  0.12700000000E+01 0. -1.
          2    1    1    2  502    0 -0.19677455250E+02  0.24656970474E+02 -0.88782296799E+03  0.88838324553E+03  0.00000000000E+00 0. -1.
          1    1    1    2  503    0  0.48572948727E+01 -0.64633635784E+02  0.60977765652E+02  0.88990943876E+02  0.00000000000E+00 0. -1.
<mgrwt>
<rscale>  0 0.44421481E+02</rscale>
<asrwt>0</asrwt>
<pdfrwt beam="1">  1        2 0.16179317E-01 0.62551507E+02</pdfrwt>
<pdfrwt beam="2">  1        1 0.16122227E+00 0.31546290E+02</pdfrwt>
<totfact> 0.77660053E+02</totfact>
</mgrwt>
</event>
<event>
 7    1  0.4252091E-004  0.2898693E+03  0.7546771E-02  0.1222346E+00
         -1   -1    0    0    0  501 -0.00000000000E+00  0.00000000000E+00  0.11712639140E+04  0.11712639140E+04  0.00000000000E+00 0.  1.
          1   -1    0    0  503    0  0.00000000000E+00 -0.00000000000E+00 -0.33714309442E+03  0.33714309442E+03  0.00000000000E+00 0. -1.
         25    2    1    2    0    0  0.28416072391E+02 -0.23187101887E+03 -0.16320450601E+03  0.31117839914E+03  0.12499857099E+03 0.  0.
          4    1    3    3  502    0  0.75739304372E+02 -0.10544558830E+03 -0.84572391417E+02  0.15494940016E+03  0.12700000000E+01 0. -1.
         -4    1    3    3    0  502 -0.47323231981E+02 -0.12642543057E+03 -0.78632114595E+02  0.15622899899E+03  0.12700000000E+01 0. -1.
          2    1    1    2  503    0 -0.10902871150E+01 -0.61478338944E+02 -0.68139077126E+02  0.91780764416E+02  0.00000000000E+00 0. -1.
         -2    1    1    2    0  501 -0.27325785276E+02  0.29334935781E+03  0.10654644027E+04  0.11054478449E+04  0.00000000000E+00 0.  1.
<mgrwt>
<rscale>  0 0.13350464E+03</rscale>
<asrwt>0</asrwt>
<pdfrwt beam="2">  1        1 0.51868169E-01 0.61488006E+02</pdfrwt>
<pdfrwt beam="1">  1       -1 0.18019445E+00 0.28986934E+03</pdfrwt>
<totfact> 0.17500738E+01</totfact>
</mgrwt>
</event>
<event>
 7    1  0.4252091E-004  0.2186287E+03  0.7546771E-02  0.1228909E+00
          1   -1    0    0  502    0 -0.00000000000E+00  0.00000000000E+00  0.53273683074E+02  0.53273683074E+02  0.00000000000E+00 0. -1.
          2   -1    0    0  503    0  0.00000000000E+00 -0.00000000000E+00 -0.27277156128E+04  0.27277156128E+04  0.00000000000E+00 0. -1.
         25    2    1    2    0    0 -0.15011894681E+03  0.22540773445E+03 -0.59508876368E+03  0.66565762980E+03  0.12500039409E+03 0.  0.
          4    1    3    3  501    0 -0.79416525302E+02  0.32270418363E+02 -0.24567655661E+03  0.26020558749E+03  0.12700000000E+01 0. -1.
         -4    1    3    3    0  501 -0.70702421507E+02  0.19313731609E+03 -0.34941220707E+03  0.40545204232E+03  0.12700000000E+01 0. -1.
          2    1    1    2  502    0  0.97416303706E+00 -0.76138786091E+02 -0.10483342101E+03  0.12956893880E+03  0.00000000000E+00 0. -1.
          3    1    1    2  503    0  0.14914478377E+03 -0.14926894836E+03 -0.19745197450E+04  0.19857627273E+04  0.00000000000E+00 0. -1.
<mgrwt>
<rscale>  0 0.12902515E+03</rscale>
<asrwt>0</asrwt>
<pdfrwt beam="2">  1        2 0.41964854E+00 0.21862875E+03</pdfrwt>
<pdfrwt beam="1">  1        1 0.81959515E-02 0.76145018E+02</pdfrwt>
<totfact> 0.32394940E+02</totfact>
</mgrwt>
</event>
<event>
 7    1  0.4252091E-004  0.6357625E+02  0.7546771E-02  0.1440005E+00
         -1   -1    0    0    0  501 -0.00000000000E+00  0.00000000000E+00  0.50867454490E+03  0.50867454490E+03  0.00000000000E+00 0.  1.
          1   -1    0    0  503    0  0.00000000000E+00 -0.00000000000E+00 -0.43546438059E+03  0.43546438059E+03  0.00000000000E+00 0. -1.
         25    2    1    2    0    0  0.70518531026E+02  0.58494179349E+02  0.16106479289E+03  0.22352874274E+03  0.12501519543E+03 0.  0.
          4    1    3    3  502    0  0.38955661723E+02 -0.74971853856E+00  0.15061863338E+03  0.15558178325E+03  0.12700000000E+01 0. -1.
         -4    1    3    3    0  502  0.31562869304E+02  0.59243897888E+02  0.10446159506E+02  0.67946959491E+02  0.12700000000E+01 0. -1.
          2    1    1    2  503    0 -0.40628441766E+02 -0.48462577833E+01 -0.40019920692E+03  0.40228542320E+03  0.00000000000E+00 0. -1.
         -2    1    1    2    0  501 -0.29890089261E+02 -0.53647921566E+02  0.31234457834E+03  0.31832475955E+03  0.00000000000E+00 0.  1.
<mgrwt>
<rscale>  0 0.51003089E+02</rscale>
<asrwt>0</asrwt>
<pdfrwt beam="2">  1        1 0.66994520E-01 0.40916458E+02</pdfrwt>
<pdfrwt beam="1">  1       -1 0.78257622E-01 0.63576253E+02</pdfrwt>
<totfact> 0.10085147E+02</totfact>
</mgrwt>
</event>
<event>
 7    1  0.4252091E-004  0.1686615E+03  0.7546771E-02  0.1279694E+00
         -2   -1    0    0    0  501 -0.00000000000E+00  0.00000000000E+00  0.99202596383E+03  0.99202596383E+03  0.00000000000E+00 0.  1.
          2   -1    0    0  503    0  0.00000000000E+00 -0.00000000000E+00 -0.18226709182E+03  0.18226709182E+03  0.00000000000E+00 0. -1.
         25    2    1    2    0    0  0.24689410066E+02  0.17161443799E+03  0.46117104555E+03  0.50829532931E+03  0.12499730496E+03 0.  0.
          4    1    3    3  502    0  0.21078457365E+02 -0.15611188927E+02  0.49555646550E+02  0.56083737300E+02  0.12700000000E+01 0.  1.
         -4    1    3    3    0  502  0.36109527008E+01  0.18722562691E+03  0.41161539900E+03  0.45221159201E+03  0.12700000000E+01 0.  1.
          1    1    1    2  503    0 -0.59379921382E+02 -0.54645821928E+01 -0.13817384606E+03  0.15049202124E+03  0.00000000000E+00 0. -1.
         -1    1    1    2    0  501  0.34690511316E+02 -0.16614985579E+03  0.48676167252E+03  0.51550570510E+03  0.00000000000E+00 0.  1.
<mgrwt>
<rscale>  0 0.10028673E+03</rscale>
<asrwt>0</asrwt>
<pdfrwt beam="2">  1        2 0.28041092E-01 0.59630837E+02</pdfrwt>
<pdfrwt beam="1">  1       -2 0.15261938E+00 0.16866155E+03</pdfrwt>
<totfact> 0.57079013E+01</totfact>
</mgrwt>
</event>
<event>
 7    1  0.4252091E-004  0.6305109E+02  0.7546771E-02  0.1439620E+00
          2   -1    0    0  503    0  0.00000000000E+00  0.00000000000E+00  0.11983762864E+04  0.11983762864E+04  0.00000000000E+00 0. -1.
          1   -1    0    0  502    0 -0.00000000000E+00 -0.00000000000E+00 -0.34358753708E+04  0.34358753708E+04  0.00000000000E+00 0. -1.
         25    2    1    2    0    0 -0.20963303048E+02  0.13161139083E+02 -0.19796961162E+03  0.23544012719E+03  0.12500964247E+03 0.  0.
          4    1    3    3  501    0  0.47984298747E+02  0.23275790862E+02 -0.56334107910E+02  0.77584792199E+02  0.12700000000E+01 0.  1.
         -4    1    3    3    0  501 -0.68947601795E+02 -0.10114651779E+02 -0.14163550371E+03  0.15785533499E+03  0.12700000000E+01 0.  1.
          2    1    1    2  502    0  0.38976925420E+02 -0.50410152465E+02 -0.32184922224E+04  0.32191229504E+04  0.00000000000E+00 0. -1.
          1    1    1    2  503    0 -0.18013622372E+02  0.37249013382E+02  0.11789627497E+04  0.11796885796E+04  0.00000000000E+00 0. -1.
<mgrwt>
<rscale>  0 0.51076478E+02</rscale>
<asrwt>0</asrwt>
<pdfrwt beam="1">  1        2 0.18436558E+00 0.41376075E+02</pdfrwt>
<pdfrwt beam="2">  1        1 0.52859621E+00 0.63051089E+02</pdfrwt>
<totfact> 0.14312588E+00</totfact>
</mgrwt>
</event>
<event>
 7    1  0.4252091E-004  0.5657624E+02  0.7546771E-02  0.1425089E+00
          2   -1    0    0  503    0  0.00000000000E+00  0.00000000000E+00  0.21953230488E+04  0.21953230488E+04  0.00000000000E+00 0. -1.
         -2   -1    0    0    0  501 -0.00000000000E+00 -0.00000000000E+00 -0.33971683629E+02  0.33971683629E+02  0.00000000000E+00 0.  1.
         25    2    1    2    0    0 -0.54494065420E+01  0.25728172895E+01  0.13041000140E+03  0.18075163678E+03  0.12501228064E+03 0.  0.
          4    1    3    3  502    0 -0.12491068065E+02  0.52560814776E+02  0.17070553771E+02  0.56671710203E+02  0.12700000000E+01 0.  1.
         -4    1    3    3    0  502  0.70416615232E+01 -0.49987997487E+02  0.11333944763E+03  0.12407992657E+03  0.12700000000E+01 0.  1.
          1    1    1    2  503    0  0.54852730556E+02 -0.16982631504E+02  0.19603186588E+04  0.19611594723E+04  0.00000000000E+00 0. -1.
         -1    1    1    2    0  501 -0.49403324014E+02  0.14409814215E+02  0.70622704970E+02  0.87383623332E+02  0.00000000000E+00 0.  1.
<mgrwt>
<rscale>  0 0.53958530E+02</rscale>
<asrwt>0</asrwt>
<pdfrwt beam="1">  1        2 0.33774190E+00 0.56576239E+02</pdfrwt>
<pdfrwt beam="2">  1       -2 0.52264146E-02 0.51461939E+02</pdfrwt>
<totfact> 0.11079865E+03</totfact>
</mgrwt>
</event>
<event>
 7    1  0.4252091E-004  0.1507689E+03  0.7546771E-02  0.1228719E+00
         -1   -1    0    0    0  502 -0.00000000000E+00  0.00000000000E+00  0.63290258164E+03  0.63290258164E+03  0.00000000000E+00 0.  1.
         -2   -1    0    0    0  501  0.00000000000E+00 -0.00000000000E+00 -0.65442401336E+03  0.65442401336E+03  0.00000000000E+00 0.  1.
         25    2    1    2    0    0 -0.64868219290E+02 -0.32817077579E+02 -0.25144418503E+03  0.29005249448E+03  0.12498569882E+03 0.  0.
          4    1    3    3  503    0 -0.96472266953E+02 -0.15380741068E+02 -0.12557635030E+03  0.15910530519E+03  0.12700000000E+01 0.  1.
         -4    1    3    3    0  503  0.31604047663E+02 -0.17436336511E+02 -0.12586783474E+03  0.13094718928E+03  0.12700000000E+01 0.  1.
         -2    1    1    2    0  502  0.14933166574E+03 -0.38639799827E+02  0.59558813280E+03  0.61523833142E+03  0.00000000000E+00 0.  1.
         -1    1    1    2    0  501 -0.84463446446E+02  0.71456877406E+02 -0.36566537948E+03  0.38203576909E+03  0.00000000000E+00 0.  1.
<mgrwt>
<rscale>  0 0.12915243E+03</rscale>
<asrwt>0</asrwt>
<pdfrwt beam="2">  1       -2 0.10068062E+00 0.11063525E+03</pdfrwt>
<pdfrwt beam="1">  1       -1 0.97369628E-01 0.15076886E+03</pdfrwt>
<totfact> 0.71377880E+00</totfact>
</mgrwt>
</event>
<event>
 7    1  0.4252091E-004  0.3544473E+02  0.7546771E-02  0.1604102E+00
          2   -1    0    0  503    0  0.00000000000E+00  0.00000000000E+00  0.15550062503E+04  0.15550062503E+04  0.00000000000E+00 0. -1.
          1   -1    0    0  502    0 -0.00000000000E+00 -0.00000000000E+00 -0.69171938296E+01  0.69171938296E+01  0.00000000000E+00 0. -1.
         25    2    1    2    0    0  0.26702841805E+01 -0.18318534390E+02  0.99765832275E+03  0.10056293020E+04  0.12500186023E+03 0.  0.
          4    1    3    3  501    0  0.10284540435E+02 -0.48823791751E+02  0.92626800174E+03  0.92761174980E+03  0.12700000000E+01 0.  1.
         -4    1    3    3    0  501 -0.76142562542E+01  0.30505257362E+02  0.71390321008E+02  0.78017552248E+02  0.12700000000E+01 0.  1.
          2    1    1    2  502    0 -0.24576566339E+02  0.29268934734E+02  0.13969077450E+03  0.14482468931E+03  0.00000000000E+00 0. -1.
          1    1    1    2  503    0  0.21906282158E+02 -0.10950400344E+02  0.41073995926E+03  0.41146945281E+03  0.00000000000E+00 0. -1.
<mgrwt>
<rscale>  0 0.29462989E+02</rscale>
<asrwt>0</asrwt>
<pdfrwt beam="1">  1        2 0.23923145E+00 0.24490742E+02</pdfrwt>
<pdfrwt beam="2">  1        1 0.10641849E-02 0.35444728E+02</pdfrwt>
<totfact> 0.22920175E+04</totfact>
</mgrwt>
</event>
<event>
 7    1  0.4252091E-004  0.3904029E+02  0.7546771E-02  0.1538380E+00
          2   -1    0    0  503    0  0.00000000000E+00  0.00000000000E+00  0.25442574206E+03  0.25442574206E+03  0.00000000000E+00 0. -1.
          1   -1    0    0  502    0 -0.00000000000E+00 -0.00000000000E+00 -0.14372947638E+03  0.14372947638E+03  0.00000000000E+00 0. -1.
         25    2    1    2    0    0  0.38658546165E+01 -0.68616375937E+02  0.11931736326E+02  0.14314627253E+03  0.12500134851E+03 0.  0.
          4    1    3    3  501    0  0.25156083198E+02  0.21249243507E+01  0.52923637799E+02  0.58650389285E+02  0.12700000000E+01 0. -1.
         -4    1    3    3    0  501 -0.21290228581E+02 -0.70741300287E+02 -0.40991901474E+02  0.84495883248E+02  0.12700000000E+01 0. -1.
          2    1    1    2  502    0 -0.10767059607E+02  0.35808370571E+02 -0.71921817998E+02  0.81061192193E+02  0.00000000000E+00 0. -1.
          1    1    1    2  503    0  0.69012049901E+01  0.32808005365E+02  0.17068634736E+03  0.17394775371E+03  0.00000000000E+00 0. -1.
<mgrwt>
<rscale>  0 0.36178232E+02</rscale>
<asrwt>0</asrwt>
<pdfrwt beam="1">  1        2 0.39142422E-01 0.33525988E+02</pdfrwt>
<pdfrwt beam="2">  1        1 0.22112227E-01 0.39040295E+02</pdfrwt>
<totfact> 0.36210816E+03</totfact>
</mgrwt>
</event>
<event>
 7    1  0.4252091E-004  0.1314261E+03  0.7546771E-02  0.1228074E+00
          2   -1    0    0  503    0  0.00000000000E+00  0.00000000000E+00  0.69647371600E+03  0.69647371600E+03  0.00000000000E+00 0. -1.
          1   -1    0    0  502    0 -0.00000000000E+00 -0.00000000000E+00 -0.82339686321E+03  0.82339686321E+03  0.00000000000E+00 0. -1.
         25    2    1    2    0    0 -0.33933368092E+02  0.10635475865E+03  0.20685218356E+03  0.26622632458E+03  0.12500328756E+03 0.  0.
          4    1    3    3  501    0 -0.63203012848E+02  0.97371468149E+02  0.94265899326E+02  0.14954429551E+03  0.12700000000E+01 0. -1.
         -4    1    3    3    0  501  0.29269644756E+02  0.89832904966E+01  0.11258628423E+03  0.11668202908E+03  0.12700000000E+01 0. -1.
          2    1    1    2  502    0  0.12613047709E+03  0.20395547228E+02 -0.77497224883E+03  0.78543418696E+03  0.00000000000E+00 0. -1.
          1    1    1    2  503    0 -0.92197109001E+02 -0.12675030587E+03  0.44119691806E+03  0.46821006766E+03  0.00000000000E+00 0. -1.
<mgrwt>
<rscale>  0 0.12958454E+03</rscale>
<asrwt>0</asrwt>
<pdfrwt beam="1">  1        2 0.10714980E+00 0.13142605E+03</pdfrwt>
<pdfrwt beam="2">  1        1 0.12667644E+00 0.12776884E+03</pdfrwt>
<totfact> 0.13533778E+02</totfact>
</mgrwt>
</event>
<event>
 7    1  0.4252091E-004  0.9455418E+02  0.7546771E-02  0.1340588E+00
         -2   -1    0    0    0  501 -0.00000000000E+00  0.00000000000E+00  0.24186223174E+03  0.24186223174E+03  0.00000000000E+00 0.  1.
          2   -1    0    0  503    0  0.00000000000E+00 -0.00000000000E+00 -0.58487666136E+03  0.58487666136E+03  0.00000000000E+00 0. -1.
         25    2    1    2    0    0 -0.59359694663E+02  0.16869043248E+02 -0.36957355640E+03  0.39498936769E+03  0.12499539601E+03 0.  0.
          4    1    3    3  502    0 -0.11025257702E+02  0.40219489082E+02 -0.30477969795E+02  0.51668976691E+02  0.12700000000E+01 0. -1.
         -4    1    3    3    0  502 -0.48334436960E+02 -0.23350445834E+02 -0.33909558661E+03  0.34332039100E+03  0.12700000000E+01 0. -1.
          1    1    1    2  503    0 -0.28979448038E+02 -0.53904009812E+02 -0.18750033644E+03  0.19723546042E+03  0.00000000000E+00 0. -1.
         -1    1    1    2    0  501  0.88339142701E+02  0.37034966563E+02  0.21405946322E+03  0.23451406499E+03  0.00000000000E+00 0.  1.
<mgrwt>
<rscale>  0 0.76070520E+02</rscale>
<asrwt>0</asrwt>
<pdfrwt beam="2">  1        2 0.89981024E-01 0.61200087E+02</pdfrwt>
<pdfrwt beam="1">  1       -2 0.37209574E-01 0.94554180E+02</pdfrwt>
<totfact> 0.36648806E+02</totfact>
</mgrwt>
</event>
<event>
 7    1  0.4252091E-004  0.3201366E+02  0.7546771E-02  0.1592559E+00
          1   -1    0    0  502    0 -0.00000000000E+00  0.00000000000E+00  0.30072464204E+03  0.30072464204E+03  0.00000000000E+00 0. -1.
          2   -1    0    0  503    0  0.00000000000E+00 -0.00000000000E+00 -0.10652485847E+04  0.10652485847E+04  0.00000000000E+00 0. -1.
         25    2    1    2    0    0 -0.18056555884E+01 -0.34790742008E+01 -0.82235565629E+02  0.14969914627E+03  0.12502712422E+03 0.  0.
          4    1    3    3  501    0 -0.30183045813E+02  0.30895727251E+02  0.12509014633E+02  0.44985003768E+02  0.12700000000E+01 0.  1.
         -4    1    3    3    0  501  0.28377390225E+02 -0.34374801452E+02 -0.94744580262E+02  0.10471414250E+03  0.12700000000E+01 0.  1.
          2    1    1    2  502    0  0.53571415605E+01 -0.28572064042E+02  0.26592667023E+03  0.26751085165E+03  0.00000000000E+00 0. -1.
          1    1    1    2  503    0 -0.35514859720E+01  0.32051138243E+02 -0.94821504725E+03  0.94876322881E+03  0.00000000000E+00 0. -1.
<mgrwt>
<rscale>  0 0.30506317E+02</rscale>
<asrwt>0</asrwt>
<pdfrwt beam="2">  1        2 0.16388440E+00 0.32013659E+02</pdfrwt>
<pdfrwt beam="1">  1        1 0.46265329E-01 0.29069947E+02</pdfrwt>
<totfact> 0.32102644E+02</totfact>
</mgrwt>
</event>
<event>
 7    1  0.4252091E-004  0.4061281E+02  0.7546771E-02  0.1552204E+00
          1   -1    0    0  502    0 -0.00000000000E+00  0.00000000000E+00  0.59267929727E+03  0.59267929727E+03  0.00000000000E+00 0. -1.
          2   -1    0    0  503    0  0.00000000000E+00 -0.00000000000E+00 -0.11646720907E+03  0.11646720907E+03  0.00000000000E+00 0. -1.
         25    2    1    2    0    0  0.35869717685E+02  0.36256588492E+02  0.25752641970E+03  0.29076604814E+03  0.12499544411E+03 0.  0.
          4    1    3    3  501    0  0.48717536567E+02 -0.31639696111E+02  0.16735718990E+03  0.17715674035E+03  0.12700000000E+01 0.  1.
         -4    1    3    3    0  501 -0.12847818883E+02  0.67896284603E+02  0.90169229805E+02  0.11360930779E+03  0.12700000000E+01 0.  1.
          2    1    1    2  502    0 -0.29228308386E+02  0.37913311991E+01  0.31368737805E+03  0.31506894380E+03  0.00000000000E+00 0. -1.
          1    1    1    2  503    0 -0.66414092992E+01 -0.40047919691E+02 -0.95001709559E+02  0.10331151440E+03  0.00000000000E+00 0. -1.
<mgrwt>
<rscale>  0 0.34597522E+02</rscale>
<asrwt>0</asrwt>
<pdfrwt beam="2">  1        2 0.17918033E-01 0.40612810E+02</pdfrwt>
<pdfrwt beam="1">  1        1 0.91181428E-01 0.29473178E+02</pdfrwt>
<totfact> 0.15209337E+03</totfact>
</mgrwt>
</event>
<event>
 7    1  0.4252091E-004  0.1092780E+03  0.7546771E-02  0.1386577E+00
          2   -1    0    0  503    0  0.00000000000E+00  0.00000000000E+00  0.63007252188E+02  0.63007252188E+02  0.00000000000E+00 0. -1.
          1   -1    0    0  502    0 -0.00000000000E+00 -0.00000000000E+00 -0.10905975091E+04  0.10905975091E+04  0.00000000000E+00 0. -1.
         25    2    1    2    0    0  0.10559278370E+03 -0.44455680477E+02 -0.63872170598E+03  0.66084362842E+03  0.12499095979E+03 0.  0.
          4    1    3    3  501    0 -0.20317383131E+02  0.19584584695E+02 -0.10115723212E+03  0.10502737989E+03  0.12700000000E+01 0.  1.
         -4    1    3    3    0  501  0.12591016683E+03 -0.64040265172E+02 -0.53756447386E+03  0.55581624853E+03  0.12700000000E+01 0.  1.
          2    1    1    2  502    0  0.33526821392E+01  0.35894686077E+02 -0.38153457435E+03  0.38323400213E+03  0.00000000000E+00 0. -1.
          1    1    1    2  503    0 -0.10894546584E+03  0.85609944001E+01 -0.73339765633E+01  0.10952713072E+03  0.00000000000E+00 0. -1.
<mgrwt>
<rscale>  0 0.62766023E+02</rscale>
<asrwt>0</asrwt>
<pdfrwt beam="1">  1        2 0.96934240E-02 0.10927803E+03</pdfrwt>
<pdfrwt beam="2">  1        1 0.16778422E+00 0.36050922E+02</pdfrwt>
<totfact> 0.13578808E+03</totfact>
</mgrwt>
</event>
<event>
 7    1  0.4252091E-004  0.1928785E+03  0.7546771E-02  0.1366020E+00
         -2   -1    0    0    0  501 -0.00000000000E+00  0.00000000000E+00  0.97195146867E+03  0.97195146867E+03  0.00000000000E+00 0.  1.
          2   -1    0    0  503    0  0.00000000000E+00 -0.00000000000E+00 -0.19491531356E+03  0.19491531356E+03  0.00000000000E+00 0. -1.
         25    2    1    2    0    0 -0.20995220515E+03  0.31767701127E+02  0.67127103683E+03  0.71506519786E+03  0.12499726804E+03 0.  0.
          4    1    3    3  502    0 -0.92221105314E+02  0.10199396083E+01  0.47695533921E+03  0.48579191125E+03  0.12700000000E+01 0.  1.
         -4    1    3    3    0  502 -0.11773109984E+03  0.30747761518E+02  0.19431569763E+03  0.22927328661E+03  0.12700000000E+01 0.  1.
          1    1    1    2  503    0  0.18719985001E+03 -0.39941160221E+02 -0.11923071016E+03  0.22551062584E+03  0.00000000000E+00 0. -1.
         -1    1    1    2    0  501  0.22752355147E+02  0.81734590946E+01  0.22499582844E+03  0.22629095853E+03  0.00000000000E+00 0.  1.
<mgrwt>
<rscale>  0 0.68286267E+02</rscale>
<asrwt>0</asrwt>
<pdfrwt beam="2">  1        2 0.29986972E-01 0.19287846E+03</pdfrwt>
<pdfrwt beam="1">  1       -2 0.14953099E+00 0.24175920E+02</pdfrwt>
<totfact> 0.62715619E+01</totfact>
</mgrwt>
</event>
<event>
 7    1  0.4252091E-004  0.9613682E+02  0.7546771E-02  0.1360196E+00
          1   -1    0    0  503    0  0.00000000000E+00  0.00000000000E+00  0.17603433640E+04  0.17603433640E+04  0.00000000000E+00 0. -1.
         -1   -1    0    0    0  501 -0.00000000000E+00 -0.00000000000E+00 -0.13521839440E+03  0.13521839440E+03  0.00000000000E+00 0.  1.
         25    2    1    2    0    0  0.11112970990E+03  0.45741938108E+02  0.90719005923E+02  0.19568953860E+03  0.12498928016E+03 0.  0.
          4    1    3    3  502    0  0.24627802123E+02  0.46560126639E+02  0.95470517614E+02  0.10904405836E+03  0.12700000000E+01 0.  1.
         -4    1    3    3    0  502  0.86501907781E+02 -0.81818853075E+00 -0.47515116906E+01  0.86645480237E+02  0.12700000000E+01 0.  1.
          2    1    1    2  503    0 -0.17941232706E+02 -0.47659937642E+02  0.15903491633E+04  0.15911642965E+04  0.00000000000E+00 0. -1.
         -2    1    1    2    0  501 -0.93188477198E+02  0.19179995332E+01 -0.55943199574E+02  0.10870792328E+03  0.00000000000E+00 0.  1.
<mgrwt>
<rscale>  0 0.69969774E+02</rscale>
<asrwt>0</asrwt>
<pdfrwt beam="1">  1        1 0.27082204E+00 0.50925018E+02</pdfrwt>
<pdfrwt beam="2">  1       -1 0.20802831E-01 0.96136820E+02</pdfrwt>
<totfact> 0.10710284E+02</totfact>
</mgrwt>
</event>
<event>
 7    1  0.4252091E-004  0.5012878E+02  0.7546771E-02  0.1477065E+00
          2   -1    0    0  503    0  0.00000000000E+00  0.00000000000E+00  0.10322478586E+04  0.10322478586E+04  0.00000000000E+00 0. -1.
          1   -1    0    0  502    0 -0.00000000000E+00 -0.00000000000E+00 -0.69816229344E+03  0.69816229344E+03  0.00000000000E+00 0. -1.
         25    2    1    2    0    0 -0.12855915788E+02 -0.55773781524E+01  0.16735977403E+03  0.20935141108E+03  0.12498935011E+03 0.  0.
          4    1    3    3  501    0  0.11311268232E+02  0.53032853235E+02  0.11488059934E+03  0.12704169912E+03  0.12700000000E+01 0.  1.
         -4    1    3    3    0  501 -0.24167184021E+02 -0.58610231388E+02  0.52479174697E+02  0.82309711964E+02  0.12700000000E+01 0.  1.
          2    1    1    2  502    0  0.49343752236E+02 -0.98667386191E+01 -0.67576540750E+03  0.67763636590E+03  0.00000000000E+00 0. -1.
          1    1    1    2  503    0 -0.36487836447E+02  0.15444116772E+02  0.84249119867E+03  0.84342237508E+03  0.00000000000E+00 0. -1.
<mgrwt>
<rscale>  0 0.44566692E+02</rscale>
<asrwt>0</asrwt>
<pdfrwt beam="1">  1        2 0.15880736E+00 0.39621748E+02</pdfrwt>
<pdfrwt beam="2">  1        1 0.10740958E+00 0.50128783E+02</pdfrwt>
<totfact> 0.11575141E+02</totfact>
</mgrwt>
</event>
<event>
 7    1  0.4252091E-004  0.1292711E+03  0.7546771E-02  0.1392335E+00
          2   -1    0    0  503    0  0.00000000000E+00  0.00000000000E+00  0.13265335642E+04  0.13265335642E+04  0.00000000000E+00 0. -1.
          1   -1    0    0  502    0 -0.00000000000E+00 -0.00000000000E+00 -0.89561800336E+03  0.89561800336E+03  0.00000000000E+00 0. -1.
         25    2    1    2    0    0  0.11074758112E+03  0.11548087716E+02  0.32903867864E+03  0.36917508733E+03  0.12500163202E+03 0.  0.
          4    1    3    3  501    0  0.12327884264E+03 -0.20767882024E+02  0.20263961188E+03  0.23810376555E+03  0.12700000000E+01 0. -1.
         -4    1    3    3    0  501 -0.12531261514E+02  0.32315969740E+02  0.12639906676E+03  0.13107132178E+03  0.12700000000E+01 0. -1.
          2    1    1    2  502    0 -0.12401473254E+03 -0.37443792142E+02 -0.87053924339E+03  0.88012514209E+03  0.00000000000E+00 0. -1.
          1    1    1    2  503    0  0.13267151420E+02  0.25895704426E+02  0.97241612555E+03  0.97285133810E+03  0.00000000000E+00 0. -1.
<mgrwt>
<rscale>  0 0.61329709E+02</rscale>
<asrwt>0</asrwt>
<pdfrwt beam="1">  1        2 0.20408209E+00 0.29096474E+02</pdfrwt>
<pdfrwt beam="2">  1        1 0.13778738E+00 0.12927110E+03</pdfrwt>
<totfact> 0.55030219E+01</totfact>
</mgrwt>
</event>
<event>
 7    1  0.4252091E-004  0.3552948E+02  0.7546771E-02  0.1561884E+00
         -2   -1    0    0    0  501 -0.00000000000E+00  0.00000000000E+00  0.18401199654E+03  0.18401199654E+03  0.00000000000E+00 0.  1.
          2   -1    0    0  503    0  0.00000000000E+00 -0.00000000000E+00 -0.13436982279E+04  0.13436982279E+04  0.00000000000E+00 0. -1.
         25    2    1    2    0    0  0.24958365933E+02 -0.19044844470E+02 -0.26477426666E+03  0.29447997821E+03  0.12500967622E+03 0.  0.
          4    1    3    3  502    0  0.58725774460E+02 -0.31262863747E+02 -0.24413768646E+03  0.25304328896E+03  0.12700000000E+01 0. -1.
         -4    1    3    3    0  502 -0.33767408527E+02  0.12218019277E+02 -0.20636580195E+02  0.41436689248E+02  0.12700000000E+01 0. -1.
          1    1    1    2  503    0  0.88270336396E+01  0.30422754161E+02 -0.10619540264E+04  0.10624263809E+04  0.00000000000E+00 0. -1.
         -1    1    1    2    0  501 -0.33785399573E+02 -0.11377909691E+02  0.16704206170E+03  0.17080386539E+03  0.00000000000E+00 0.  1.
<mgrwt>
<rscale>  0 0.33548222E+02</rscale>
<asrwt>0</asrwt>
<pdfrwt beam="2">  1        2 0.20672281E+00 0.31677445E+02</pdfrwt>
<pdfrwt beam="1">  1       -2 0.28309538E-01 0.35529482E+02</pdfrwt>
<totfact> 0.21161453E+02</totfact>
</mgrwt>
</event>
<event>
 7    1  0.4252091E-004  0.8449650E+02  0.7546771E-02  0.1328046E+00
          2   -1    0    0  503    0  0.00000000000E+00  0.00000000000E+00  0.10155760843E+03  0.10155760843E+03  0.00000000000E+00 0. -1.
          1   -1    0    0  502    0 -0.00000000000E+00 -0.00000000000E+00 -0.10155622854E+04  0.10155622854E+04  0.00000000000E+00 0. -1.
         25    2    1    2    0    0 -0.30959691899E+01  0.21599576139E+02 -0.18451059538E+03  0.22393075080E+03  0.12499877853E+03 0.  0.
          4    1    3    3  501    0  0.45783380624E+02  0.51899977806E+02 -0.10610190158E+03  0.12668445862E+03  0.12700000000E+01 0.  1.
         -4    1    3    3    0  501 -0.48879349814E+02 -0.30300401667E+02 -0.78408693805E+02  0.97246292184E+02  0.12700000000E+01 0.  1.
          2    1    1    2  502    0 -0.39348297663E+02 -0.85145123618E+02 -0.79010512519E+03  0.79565324700E+03  0.00000000000E+00 0. -1.
          3    1    1    2  503    0  0.42444266853E+02  0.63545547479E+02  0.60611043642E+02  0.97535895979E+02  0.00000000000E+00 0. -1.
<mgrwt>
<rscale>  0 0.80355247E+02</rscale>
<asrwt>0</asrwt>
<pdfrwt beam="1">  1        2 0.15624247E-01 0.76416964E+02</pdfrwt>
<pdfrwt beam="2">  1        1 0.15624036E+00 0.84496496E+02</pdfrwt>
<totfact> 0.80187752E+02</totfact>
</mgrwt>
</event>
<event>
 7    1  0.4252091E-004  0.1066467E+03  0.7546771E-02  0.1285640E+00
          2   -1    0    0  503    0  0.00000000000E+00  0.00000000000E+00  0.35797208825E+04  0.35797208825E+04  0.00000000000E+00 0. -1.
          1   -1    0    0  502    0 -0.00000000000E+00 -0.00000000000E+00 -0.14993030277E+03  0.14993030277E+03  0.00000000000E+00 0. -1.
         25    2    1    2    0    0  0.10692838251E+03  0.12872970945E+03  0.13477660667E+03  0.24858361614E+03  0.12499625365E+03 0.  0.
          4    1    3    3  501    0  0.26454578086E+02 -0.21786553614E+02  0.42308666827E+02  0.54462232866E+02  0.12700000000E+01 0.  1.
         -4    1    3    3    0  501  0.80473804422E+02  0.15051626307E+03  0.92467939843E+02  0.19412138328E+03  0.12700000000E+01 0.  1.
          2    1    1    2  502    0 -0.23538633264E+02 -0.97232115705E+02 -0.65367894048E+02  0.11950361146E+03  0.00000000000E+00 0. -1.
          1    1    1    2  503    0 -0.83389749244E+02 -0.31497593749E+02  0.33603818671E+04  0.33615639577E+04  0.00000000000E+00 0. -1.
<mgrwt>
<rscale>  0 0.97501237E+02</rscale>
<asrwt>0</asrwt>
<pdfrwt beam="1">  1        2 0.55072623E+00 0.89140051E+02</pdfrwt>
<pdfrwt beam="2">  1        1 0.23066203E-01 0.10664669E+03</pdfrwt>
<totfact> 0.31094661E+01</totfact>
</mgrwt>
</event>
<event>
 7    1  0.4252091E-004  0.7741543E+02  0.7546771E-02  0.1423026E+00
          1   -1    0    0  502    0 -0.00000000000E+00  0.00000000000E+00  0.13782651514E+04  0.13782651514E+04  0.00000000000E+00 0. -1.
          2   -1    0    0  503    0  0.00000000000E+00 -0.00000000000E+00 -0.37102627229E+03  0.37102627229E+03  0.00000000000E+00 0. -1.
         25    2    1    2    0    0 -0.60210791258E+02 -0.54259819868E+02  0.94778624529E+02  0.17657357373E+03  0.12500308731E+03 0.  0.
          4    1    3    3  501    0 -0.32813463563E+02  0.92194902512E+01 -0.22191707635E+02  0.40691610674E+02  0.12700000000E+01 0.  1.
         -4    1    3    3    0  501 -0.27397327696E+02 -0.63479310119E+02  0.11697033216E+03  0.13588196306E+03  0.12700000000E+01 0.  1.
          2    1    1    2  502    0  0.26803082227E+02  0.72798877894E+02  0.12402676461E+04  0.12426914000E+04  0.00000000000E+00 0. -1.
          1    1    1    2  503    0  0.33407709032E+02 -0.18539058026E+02 -0.32780739152E+03  0.33002644989E+03  0.00000000000E+00 0. -1.
<mgrwt>
<rscale>  0 0.54385733E+02</rscale>
<asrwt>0</asrwt>
<pdfrwt beam="2">  1        2 0.57080965E-01 0.38206959E+02</pdfrwt>
<pdfrwt beam="1">  1        1 0.21204079E+00 0.77415426E+02</pdfrwt>
<totfact> 0.11439799E+02</totfact>
</mgrwt>
</event>
<event>
 7    1  0.4252091E-004  0.1051275E+03  0.7546771E-02  0.1448433E+00
          2   -1    0    0  503    0  0.00000000000E+00  0.00000000000E+00  0.82482787834E+03  0.82482787834E+03  0.00000000000E+00 0. -1.
         -2   -1    0    0    0  501 -0.00000000000E+00 -0.00000000000E+00 -0.28170822731E+03  0.28170822731E+03  0.00000000000E+00 0.  1.
         25    2    1    2    0    0  0.78703552493E+02  0.72118256750E+02  0.97748603477E+02  0.19124960129E+03  0.12500531340E+03 0.  0.
          4    1    3    3  502    0  0.34313877978E+02 -0.26295748814E+02 -0.32939154498E+01  0.43374778461E+02  0.12700000000E+01 0. -1.
         -4    1    3    3    0  502  0.44389674515E+02  0.98414005565E+02  0.10104251893E+03  0.14787482283E+03  0.12700000000E+01 0. -1.
          1    1    1    2  503    0 -0.18466745417E+02  0.14114229430E+02  0.66834374933E+03  0.66874778461E+03  0.00000000000E+00 0. -1.
         -1    1    1    2    0  501 -0.60236807076E+02 -0.86232486180E+02 -0.22297270177E+03  0.24653871975E+03  0.00000000000E+00 0.  1.
<mgrwt>
<rscale>  0 0.49431444E+02</rscale>
<asrwt>0</asrwt>
<pdfrwt beam="1">  1        2 0.12689660E+00 0.23242895E+02</pdfrwt>
<pdfrwt beam="2">  1       -2 0.43339728E-01 0.10512751E+03</pdfrwt>
<totfact> 0.19305268E+02</totfact>
</mgrwt>
</event>
<event>
 7    1  0.4252091E-004  0.7470095E+02  0.7546771E-02  0.1431907E+00
          2   -1    0    0  503    0  0.00000000000E+00  0.00000000000E+00  0.52325407868E+03  0.52325407868E+03  0.00000000000E+00 0. -1.
          1   -1    0    0  502    0 -0.00000000000E+00 -0.00000000000E+00 -0.21918757225E+04  0.21918757225E+04  0.00000000000E+00 0. -1.
         25    2    1    2    0    0 -0.34342496563E+02  0.83267316062E+02  0.12786578910E+03  0.20021321978E+03  0.12499128113E+03 0.  0.
          4    1    3    3  501    0 -0.61534286936E+02 -0.56734100842E+00  0.29890719325E+02  0.68424106470E+02  0.12700000000E+01 0. -1.
         -4    1    3    3    0  501  0.27191790373E+02  0.83834657071E+02  0.97975069773E+02  0.13178911331E+03  0.12700000000E+01 0. -1.
          2    1    1    2  502    0 -0.16491754867E+01 -0.74651885595E+02 -0.21541001785E+04  0.21553939786E+04  0.00000000000E+00 0. -1.
          1    1    1    2  503    0  0.35991672050E+02 -0.86154304676E+01  0.35761274562E+03  0.35952260281E+03  0.00000000000E+00 0. -1.
<mgrwt>
<rscale>  0 0.52579150E+02</rscale>
<asrwt>0</asrwt>
<pdfrwt beam="1">  1        2 0.80500628E-01 0.37008460E+02</pdfrwt>
<pdfrwt beam="2">  1        1 0.33721165E+00 0.74700946E+02</pdfrwt>
<totfact> 0.24973792E+01</totfact>
</mgrwt>
</event>
<event>
 7    1  0.4252091E-004  0.1845578E+03  0.7546771E-02  0.1212550E+00
         -1   -1    0    0    0  502 -0.00000000000E+00  0.00000000000E+00  0.65001852523E+03  0.65001852523E+03  0.00000000000E+00 0.  1.
         -2   -1    0    0    0  501  0.00000000000E+00 -0.00000000000E+00 -0.31574570473E+03  0.31574570473E+03  0.00000000000E+00 0.  1.
         25    2    1    2    0    0 -0.15987560375E+03 -0.85088801542E+02  0.16966466633E+03  0.27786970759E+03  0.12500065028E+03 0.  0.
          4    1    3    3  503    0 -0.35338068049E+02 -0.94631242787E+01 -0.17583726114E+02  0.40609482866E+02  0.12700000000E+01 0. -1.
         -4    1    3    3    0  503 -0.12453753570E+03 -0.75625677263E+02  0.18724839245E+03  0.23726022472E+03  0.12700000000E+01 0. -1.
         -2    1    1    2    0  502  0.19427927336E+03 -0.16316503079E+02  0.39130213854E+03  0.43718191631E+03  0.00000000000E+00 0.  1.
         -1    1    1    2    0  501 -0.34403669608E+02  0.10140530462E+03 -0.22669398437E+03  0.25071260606E+03  0.00000000000E+00 0.  1.
<mgrwt>
<rscale>  0 0.14058060E+03</rscale>
<asrwt>0</asrwt>
<pdfrwt beam="2">  1       -2 0.48576262E-01 0.10708244E+03</pdfrwt>
<pdfrwt beam="1">  1       -1 0.10000285E+00 0.18455785E+03</pdfrwt>
<totfact> 0.31273790E+01</totfact>
</mgrwt>
</event>
<event>
 7    1  0.4252091E-004  0.5422454E+02  0.7546771E-02  0.1494960E+00
         -2   -1    0    0    0  501  0.00000000000E+00  0.00000000000E+00  0.10169741938E+04  0.10169741938E+04  0.00000000000E+00 0.  1.
         -1   -1    0    0    0  502 -0.00000000000E+00 -0.00000000000E+00 -0.72899712272E+02  0.72899712272E+02  0.00000000000E+00 0.  1.
         25    2    1    2    0    0  0.60008112518E+02 -0.51521102640E+02  0.17731039523E+03  0.23091185307E+03  0.12500364012E+03 0.  0.
          4    1    3    3  503    0  0.23464530122E+02 -0.57580532673E+02  0.18312228915E+03  0.19339464212E+03  0.12700000000E+01 0.  1.
         -4    1    3    3    0  503  0.36543582397E+02  0.60594300338E+01 -0.58118939127E+01  0.37517210951E+02  0.12700000000E+01 0.  1.
         -2    1    1    2    0  502 -0.10814271899E+02  0.30450084463E+02 -0.39438150580E+02  0.50985525806E+02  0.00000000000E+00 0.  1.
         -1    1    1    2    0  501 -0.49193840619E+02  0.21071018176E+02  0.80620223691E+03  0.80797652724E+03  0.00000000000E+00 0.  1.
<mgrwt>
<rscale>  0 0.41859044E+02</rscale>
<asrwt>0</asrwt>
<pdfrwt beam="1">  1       -2 0.15645756E+00 0.54224541E+02</pdfrwt>
<pdfrwt beam="2">  1       -1 0.11215341E-01 0.32313405E+02</pdfrwt>
<totfact> 0.10155120E+02</totfact>
</mgrwt>
</event>
<event>
 7    1  0.4252091E-004  0.7996220E+02  0.7546771E-02  0.1425409E+00
         -2   -1    0    0    0  501 -0.00000000000E+00  0.00000000000E+00  0.11611090892E+03  0.11611090892E+03  0.00000000000E+00 0.  1.
          2   -1    0    0  503    0  0.00000000000E+00 -0.00000000000E+00 -0.59954662785E+03  0.59954662785E+03  0.00000000000E+00 0. -1.
         25    2    1    2    0    0  0.97301855612E+01  0.59791123628E+02 -0.36343496830E+03  0.38907614116E+03  0.12500244981E+03 0.  0.
          4    1    3    3  502    0  0.39427956295E+02 -0.25978969562E+02 -0.10415261169E+03  0.11436279998E+03  0.12700000000E+01 0. -1.
         -4    1    3    3    0  502 -0.29697770733E+02  0.85770093190E+02 -0.25928235661E+03  0.27471334118E+03  0.12700000000E+01 0. -1.
          1    1    1    2  503    0  0.35562122126E+02  0.73927563222E+01 -0.20556025269E+03  0.20874466427E+03  0.00000000000E+00 0. -1.
         -1    1    1    2    0  501 -0.45292307687E+02 -0.67183879950E+02  0.85559502058E+02  0.11783673134E+03  0.00000000000E+00 0.  1.
<mgrwt>
<rscale>  0 0.53892667E+02</rscale>
<asrwt>0</asrwt>
<pdfrwt beam="2">  1        2 0.92237944E-01 0.36322409E+02</pdfrwt>
<pdfrwt beam="1">  1       -2 0.17863217E-01 0.79962196E+02</pdfrwt>
<totfact> 0.12874563E+03</totfact>
</mgrwt>
</event>
<event>
 7    1  0.4252091E-004  0.1254251E+03  0.7546771E-02  0.1428390E+00
          1   -1    0    0  502    0 -0.00000000000E+00  0.00000000000E+00  0.61918769151E+03  0.61918769151E+03  0.00000000000E+00 0. -1.
          2   -1    0    0  503    0  0.00000000000E+00 -0.00000000000E+00 -0.88881399956E+02  0.88881399956E+02  0.00000000000E+00 0. -1.
         25    2    1    2    0    0  0.61218262162E+02  0.94541801559E+02  0.36491462322E+03  0.40183476436E+03  0.12499067063E+03 0.  0.
          4    1    3    3  501    0  0.68206958270E+02  0.78283251463E+02  0.36924841597E+03  0.38357067434E+03  0.12700000000E+01 0. -1.
         -4    1    3    3    0  501 -0.69886961087E+01  0.16258550096E+02 -0.43337927542E+01  0.18264090017E+02  0.12700000000E+01 0. -1.
          2    1    1    2  502    0 -0.77942711045E+01  0.21252786604E+02  0.17676041281E+03  0.17820402671E+03  0.00000000000E+00 0. -1.
          1    1    1    2  503    0 -0.53423991057E+02 -0.11579458816E+03 -0.11368744474E+02  0.12803030039E+03  0.00000000000E+00 0. -1.
<mgrwt>
<rscale>  0 0.53284529E+02</rscale>
<asrwt>0</asrwt>
<pdfrwt beam="2">  1        2 0.13674062E-01 0.12542506E+03</pdfrwt>
<pdfrwt beam="1">  1        1 0.95259642E-01 0.22636952E+02</pdfrwt>
<totfact> 0.20907132E+03</totfact>
</mgrwt>
</event>
<event>
 7    1  0.4252091E-004  0.8099827E+02  0.7546771E-02  0.1410378E+00
         -2   -1    0    0    0  501  0.00000000000E+00  0.00000000000E+00  0.71270457309E+03  0.71270457309E+03  0.00000000000E+00 0.  1.
         -1   -1    0    0    0  502 -0.00000000000E+00 -0.00000000000E+00 -0.12304808026E+04  0.12304808026E+04  0.00000000000E+00 0.  1.
         25    2    1    2    0    0  0.11252507332E+03 -0.22840899593E+02 -0.91562527271E+02  0.19285805172E+03  0.12500773134E+03 0.  0.
          4    1    3    3  503    0  0.13592034374E+03  0.12237514285E+01 -0.69450129434E+02  0.15264590001E+03  0.12700000000E+01 0.  1.
         -4    1    3    3    0  503 -0.23395270428E+02 -0.24064651022E+02 -0.22112397837E+02  0.40212151712E+02  0.12700000000E+01 0.  1.
         -2    1    1    2    0  502 -0.73349695672E+02  0.32150052236E+02 -0.10861826743E+04  0.10891311242E+04  0.00000000000E+00 0.  1.
         -1    1    1    2    0  501 -0.39175377643E+02 -0.93091526427E+01  0.65996897206E+03  0.66119619979E+03  0.00000000000E+00 0.  1.
<mgrwt>
<rscale>  0 0.57109510E+02</rscale>
<asrwt>0</asrwt>
<pdfrwt beam="1">  1       -2 0.10964686E+00 0.40266246E+02</pdfrwt>
<pdfrwt beam="2">  1       -1 0.18930474E+00 0.80998268E+02</pdfrwt>
<totfact> 0.11981224E+00</totfact>
</mgrwt>
</event>
<event>
 7    1  0.4252091E-004  0.6064565E+02  0.7546771E-02  0.1482554E+00
          2   -1    0    0  503    0  0.00000000000E+00  0.00000000000E+00  0.90176426727E+03  0.90176426727E+03  0.00000000000E+00 0. -1.
         -2   -1    0    0    0  501 -0.00000000000E+00 -0.00000000000E+00 -0.82170075436E+02  0.82170075436E+02  0.00000000000E+00 0.  1.
         25    2    1    2    0    0 -0.37511307609E+02  0.56567889877E+02  0.30583707584E+03  0.33729889280E+03  0.12500880674E+03 0.  0.
          4    1    3    3  502    0  0.25239911547E+02 -0.15751195729E+02  0.16058823969E+03  0.16332589791E+03  0.12700000000E+01 0.  1.
         -4    1    3    3    0  502 -0.62751219156E+02  0.72319085605E+02  0.14524883615E+03  0.17397299489E+03  0.12700000000E+01 0.  1.
          1    1    1    2  503    0  0.53124382641E+02 -0.29203895485E+02  0.57477558160E+03  0.57796369847E+03  0.00000000000E+00 0. -1.
         -1    1    1    2    0  501 -0.15613075032E+02 -0.27363994392E+02 -0.61018465603E+02  0.68671751438E+02  0.00000000000E+00 0.  1.
<mgrwt>
<rscale>  0 0.43710785E+02</rscale>
<asrwt>0</asrwt>
<pdfrwt beam="1">  1        2 0.13873296E+00 0.60645647E+02</pdfrwt>
<pdfrwt beam="2">  1       -2 0.12641551E-01 0.31504862E+02</pdfrwt>
<totfact> 0.12925407E+03</totfact>
</mgrwt>
</event>
<event>
 7    1  0.4252091E-004  0.8123567E+02  0.7546771E-02  0.1355900E+00
          1   -1    0    0  502    0 -0.00000000000E+00  0.00000000000E+00  0.14007964634E+03  0.14007964634E+03  0.00000000000E+00 0. -1.
          2   -1    0    0  503    0  0.00000000000E+00 -0.00000000000E+00 -0.20706563441E+04  0.20706563441E+04  0.00000000000E+00 0. -1.
         25    2    1    2    0    0 -0.11884523985E+03  0.64614010694E+02 -0.35364684627E+03  0.39873453093E+03  0.12499589139E+03 0.  0.
          4    1    3    3  501    0  0.23276004068E+02 -0.73014507353E+01 -0.57371530929E+02  0.62355344674E+02  0.12700000000E+01 0.  1.
         -4    1    3    3    0  501 -0.14212124392E+03  0.71915461429E+02 -0.29627531534E+03  0.33637918625E+03  0.12700000000E+01 0.  1.
          2    1    1    2  502    0  0.41755568660E+02 -0.46489115720E+02  0.10823423166E+03  0.12497765519E+03  0.00000000000E+00 0. -1.
          1    1    1    2  503    0  0.77089671188E+02 -0.18124894974E+02 -0.16851640831E+04  0.16870238043E+04  0.00000000000E+00 0. -1.
<mgrwt>
<rscale>  0 0.71247909E+02</rscale>
<asrwt>0</asrwt>
<pdfrwt beam="2">  1        2 0.31856250E+00 0.81235672E+02</pdfrwt>
<pdfrwt beam="1">  1        1 0.21550716E-01 0.62488122E+02</pdfrwt>
<totfact> 0.23496825E+02</totfact>
</mgrwt>
</event>
<event>
 7    1  0.4252091E-004  0.9328395E+02  0.7546771E-02  0.1351184E+00
         -2   -1    0    0    0  501 -0.00000000000E+00  0.00000000000E+00  0.16786623894E+04  0.16786623894E+04  0.00000000000E+00 0.  1.
          2   -1    0    0  503    0  0.00000000000E+00 -0.00000000000E+00 -0.80253935176E+03  0.80253935176E+03  0.00000000000E+00 0. -1.
         25    2    1    2    0    0  0.13264128323E+02 -0.14819637336E+03  0.23080394399E+03  0.30171736153E+03  0.12499921402E+03 0.  0.
          4    1    3    3  502    0 -0.43546523984E+02 -0.12110577682E+03  0.13045352454E+03  0.18325567903E+03  0.12700000000E+01 0. -1.
         -4    1    3    3    0  502  0.56810652306E+02 -0.27090596541E+02  0.10035041945E+03  0.11846168250E+03  0.12700000000E+01 0. -1.
          1    1    1    2  503    0 -0.14452389017E+02  0.91569647893E+02 -0.76371077831E+03  0.76931659599E+03  0.00000000000E+00 0. -1.
         -1    1    1    2    0  501  0.11882606944E+01  0.56626725465E+02  0.14090298719E+04  0.14101677836E+04  0.00000000000E+00 0.  1.
<mgrwt>
<rscale>  0 0.72687878E+02</rscale>
<asrwt>0</asrwt>
<pdfrwt beam="2">  1        2 0.12346759E+00 0.93283951E+02</pdfrwt>
<pdfrwt beam="1">  1       -2 0.25825575E+00 0.56639191E+02</pdfrwt>
<totfact> 0.27698409E+00</totfact>
</mgrwt>
</event>
<event>
 7    1  0.4252091E-004  0.5296531E+02  0.7546771E-02  0.1479303E+00
          2   -1    0    0  503    0  0.00000000000E+00  0.00000000000E+00  0.20794193197E+04  0.20794193197E+04  0.00000000000E+00 0. -1.
          1   -1    0    0  502    0 -0.00000000000E+00 -0.00000000000E+00 -0.40743101949E+02  0.40743101949E+02  0.00000000000E+00 0. -1.
         25    2    1    2    0    0 -0.70862600154E+01 -0.16479156995E+02  0.25155785259E+03  0.28148053452E+03  0.12501264103E+03 0.  0.
          4    1    3    3  501    0 -0.64948472858E+02  0.26826687273E+01  0.13966951906E+03  0.15406066433E+03  0.12700000000E+01 0. -1.
         -4    1    3    3    0  501  0.57862212843E+02 -0.19161825722E+02  0.11188833353E+03  0.12741987019E+03  0.12700000000E+01 0. -1.
          2    1    1    2  502    0 -0.26413360712E+02 -0.25781838356E+02 -0.11956813656E+02  0.38798636650E+02  0.00000000000E+00 0. -1.
          1    1    1    2  503    0  0.33499620727E+02  0.42260995351E+02  0.17990751788E+04  0.17998832505E+04  0.00000000000E+00 0. -1.
<mgrwt>
<rscale>  0 0.44214978E+02</rscale>
<asrwt>0</asrwt>
<pdfrwt beam="1">  1        2 0.31991058E+00 0.52965305E+02</pdfrwt>
<pdfrwt beam="2">  1        1 0.62681711E-02 0.36910281E+02</pdfrwt>
<totfact> 0.11300204E+03</totfact>
</mgrwt>
</event>
<event>
 7    1  0.4252091E-004  0.8191602E+02  0.7546771E-02  0.1327760E+00
          1   -1    0    0  502    0 -0.00000000000E+00  0.00000000000E+00  0.25166029986E+03  0.25166029986E+03  0.00000000000E+00 0. -1.
          2   -1    0    0  503    0  0.00000000000E+00 -0.00000000000E+00 -0.52922885375E+03  0.52922885375E+03  0.00000000000E+00 0. -1.
         25    2    1    2    0    0  0.64735370621E+01 -0.97562885296E+02 -0.40890683435E+03  0.43862336395E+03  0.12500093182E+03 0.  0.
          4    1    3    3  501    0  0.45756743825E+02 -0.11382758234E+02 -0.55958304264E+02  0.73186006221E+02  0.12700000000E+01 0. -1.
         -4    1    3    3    0  501 -0.39283206763E+02 -0.86180127062E+02 -0.35294853008E+03  0.36543735773E+03  0.12700000000E+01 0. -1.
          2    1    1    2  502    0 -0.67002706523E+02  0.41897369159E+02  0.21250438622E+03  0.22672200243E+03  0.00000000000E+00 0. -1.
          1    1    1    2  503    0  0.60529169461E+02  0.55665516137E+02 -0.81166105765E+02  0.11554378723E+03  0.00000000000E+00 0. -1.
<mgrwt>
<rscale>  0 0.80456889E+02</rscale>
<asrwt>0</asrwt>
<pdfrwt beam="2">  1        2 0.81419823E-01 0.81916025E+02</pdfrwt>
<pdfrwt beam="1">  1        1 0.38716970E-01 0.79023745E+02</pdfrwt>
<totfact> 0.88082863E+02</totfact>
</mgrwt>
</event>
<event>
 7    1  0.4252091E-004  0.6439664E+02  0.7546771E-02  0.1444374E+00
          1   -1    0    0  503    0  0.00000000000E+00  0.00000000000E+00  0.61771247728E+03  0.61771247728E+03  0.00000000000E+00 0. -1.
         -1   -1    0    0    0  501 -0.00000000000E+00 -0.00000000000E+00 -0.93147410877E+02  0.93147410877E+02  0.00000000000E+00 0.  1.
         25    2    1    2    0    0 -0.15133788106E+02 -0.23227025295E+02  0.22563007376E+03  0.25944070867E+03  0.12502809638E+03 0.  0.
          4    1    3    3  502    0 -0.13422437876E+02  0.39590546800E+02  0.17139007187E+03  0.17641922477E+03  0.12700000000E+01 0. -1.
         -4    1    3    3    0  502 -0.17113502302E+01 -0.62817572095E+02  0.54240001898E+02  0.83021483903E+02  0.12700000000E+01 0. -1.
          2    1    1    2  503    0 -0.26069082014E+02 -0.29143432584E+02  0.35935114046E+03  0.36147223800E+03  0.00000000000E+00 0. -1.
         -2    1    1    2    0  501  0.41202870120E+02  0.52370457879E+02 -0.60416147817E+02  0.89946941480E+02  0.00000000000E+00 0.  1.
<mgrwt>
<rscale>  0 0.50179807E+02</rscale>
<asrwt>0</asrwt>
<pdfrwt beam="1">  1        1 0.95032686E-01 0.39101620E+02</pdfrwt>
<pdfrwt beam="2">  1       -1 0.14330371E-01 0.64396641E+02</pdfrwt>
<totfact> 0.11680930E+03</totfact>
</mgrwt>
</event>
<event>
 7    1  0.4252091E-004  0.8456024E+02  0.7546771E-02  0.1412250E+00
          1   -1    0    0  502    0 -0.00000000000E+00  0.00000000000E+00  0.27334727971E+03  0.27334727971E+03  0.00000000000E+00 0. -1.
          2   -1    0    0  503    0  0.00000000000E+00 -0.00000000000E+00 -0.70320777909E+03  0.70320777909E+03  0.00000000000E+00 0. -1.
         25    2    1    2    0    0  0.44287049358E+02 -0.20358359388E+02 -0.15302142656E+02  0.13503008491E+03  0.12499265068E+03 0.  0.
          4    1    3    3  501    0  0.50035487534E+02 -0.68085740021E+02 -0.19608310145E+02  0.86748583468E+02  0.12700000000E+01 0. -1.
         -4    1    3    3    0  501 -0.57484381753E+01  0.47727380633E+02  0.43061674891E+01  0.48281501447E+02  0.12700000000E+01 0. -1.
          2    1    1    2  502    0  0.30811760286E+02 -0.22260996119E+02  0.20879113022E+03  0.21222311981E+03  0.00000000000E+00 0. -1.
          1    1    1    2  503    0 -0.75098809645E+02  0.42619355508E+02 -0.62334948695E+03  0.62930185408E+03  0.00000000000E+00 0. -1.
<mgrwt>
<rscale>  0 0.56694872E+02</rscale>
<asrwt>0</asrwt>
<pdfrwt beam="2">  1        2 0.10818581E+00 0.84560235E+02</pdfrwt>
<pdfrwt beam="1">  1        1 0.42053428E-01 0.38012058E+02</pdfrwt>
<totfact> 0.57541497E+02</totfact>
</mgrwt>
</event>
<event>
 7    1  0.4252091E-004  0.8864796E+02  0.7546771E-02  0.1321004E+00
          2   -1    0    0  503    0  0.00000000000E+00  0.00000000000E+00  0.12360883157E+04  0.12360883157E+04  0.00000000000E+00 0. -1.
          1   -1    0    0  502    0 -0.00000000000E+00 -0.00000000000E+00 -0.14074305633E+04  0.14074305633E+04  0.00000000000E+00 0. -1.
         25    2    1    2    0    0 -0.10282694440E+03  0.30155835305E+02 -0.26810868767E+02  0.16681379105E+03  0.12500105320E+03 0.  0.
          4    1    3    3  501    0 -0.12878468507E+03  0.15679865335E+02 -0.48412024687E+01  0.12983221260E+03  0.12700000000E+01 0. -1.
         -4    1    3    3    0  501  0.25957740672E+02  0.14475969970E+02 -0.21969666298E+02  0.36981578450E+02  0.12700000000E+01 0. -1.
          2    1    1    2  502    0  0.60778453302E+02  0.48140855583E+02 -0.13077750098E+04  0.13100713869E+04  0.00000000000E+00 0. -1.
          1    1    1    2  503    0  0.42048491099E+02 -0.78296690888E+02  0.11632436310E+04  0.11666337011E+04  0.00000000000E+00 0. -1.
<mgrwt>
<rscale>  0 0.82905094E+02</rscale>
<asrwt>0</asrwt>
<pdfrwt beam="1">  1        2 0.19016743E+00 0.88647962E+02</pdfrwt>
<pdfrwt beam="2">  1        1 0.21652778E+00 0.77534266E+02</pdfrwt>
<totfact> 0.25974846E+01</totfact>
</mgrwt>
</event>
<event>
 7    1  0.4252091E-004  0.4343040E+02  0.7546771E-02  0.1551832E+00
          1   -1    0    0  502    0 -0.00000000000E+00  0.00000000000E+00  0.20254170315E+03  0.20254170315E+03  0.00000000000E+00 0. -1.
          2   -1    0    0  503    0  0.00000000000E+00 -0.00000000000E+00 -0.59994131802E+03  0.59994131802E+03  0.00000000000E+00 0. -1.
         25    2    1    2    0    0 -0.11408897454E+02  0.61590869070E+02 -0.48617570707E+02  0.14802066436E+03  0.12499140291E+03 0.  0.
          4    1    3    3  501    0 -0.82913872309E+01  0.82772653780E+02 -0.76378634991E+02  0.11293966575E+03  0.12700000000E+01 0. -1.
         -4    1    3    3    0  501 -0.31175102232E+01 -0.21181784710E+02  0.27761064284E+02  0.35080998613E+02  0.12700000000E+01 0. -1.
          2    1    1    2  502    0 -0.11589493028E+02 -0.25078396232E+02  0.15065371609E+03  0.15316587243E+03  0.00000000000E+00 0. -1.
          1    1    1    2  503    0  0.22998390482E+02 -0.36512472837E+02 -0.49943576025E+03  0.50129648438E+03  0.00000000000E+00 0. -1.
<mgrwt>
<rscale>  0 0.34638777E+02</rscale>
<asrwt>0</asrwt>
<pdfrwt beam="2">  1        2 0.92298662E-01 0.43430405E+02</pdfrwt>
<pdfrwt beam="1">  1        1 0.31160263E-01 0.27626840E+02</pdfrwt>
<totfact> 0.98785985E+02</totfact>
</mgrwt>
</event>
<event>
 7    1  0.4252091E-004  0.5104480E+02  0.7546771E-02  0.1449523E+00
          1   -1    0    0  502    0 -0.00000000000E+00  0.00000000000E+00  0.43078183856E+03  0.43078183856E+03  0.00000000000E+00 0. -1.
          2   -1    0    0  503    0  0.00000000000E+00 -0.00000000000E+00 -0.34104281590E+03  0.34104281590E+03  0.00000000000E+00 0. -1.
         25    2    1    2    0    0 -0.74590861735E+02  0.26078609059E+02  0.66638891976E+02  0.16220150689E+03  0.12499878562E+03 0.  0.
          4    1    3    3  501    0  0.76291975161E+01  0.57954515959E+02  0.16493591899E+02  0.60750160893E+02  0.12700000000E+01 0. -1.
         -4    1    3    3    0  501 -0.82220059251E+02 -0.31875906900E+02  0.50145300077E+02  0.10145134599E+03  0.12700000000E+01 0. -1.
          2    1    1    2  502    0  0.44994506885E+02  0.15177476541E+02  0.31235599192E+03  0.31594481660E+03  0.00000000000E+00 0. -1.
          1    1    1    2  503    0  0.29596354850E+02 -0.41256085599E+02 -0.28925586124E+03  0.29367833097E+03  0.00000000000E+00 0. -1.
<mgrwt>
<rscale>  0 0.49232932E+02</rscale>
<asrwt>0</asrwt>
<pdfrwt beam="2">  1        2 0.52468125E-01 0.51044795E+02</pdfrwt>
<pdfrwt beam="1">  1        1 0.66274129E-01 0.47485381E+02</pdfrwt>
<totfact> 0.73049855E+02</totfact>
</mgrwt>
</event>
<event>
 7    1  0.4252091E-004  0.9018119E+02  0.7546771E-02  0.1355796E+00
          2   -1    0    0  503    0  0.00000000000E+00  0.00000000000E+00  0.12126098730E+04  0.12126098730E+04  0.00000000000E+00 0. -1.
          1   -1    0    0  502    0 -0.00000000000E+00 -0.00000000000E+00 -0.19436250714E+04  0.19436250714E+04  0.00000000000E+00 0. -1.
         25    2    1    2    0    0 -0.10266684221E+03 -0.74116697335E+02 -0.10306832232E+04  0.10459294450E+04  0.12500692756E+03 0.  0.
          4    1    3    3  501    0 -0.10844027058E+02 -0.84721324451E+02 -0.48034626862E+03  0.48788261541E+03  0.12700000000E+01 0. -1.
         -4    1    3    3    0  501 -0.91822815151E+02  0.10604627115E+02 -0.55033695457E+03  0.55804682954E+03  0.12700000000E+01 0. -1.
          2    1    1    2  502    0  0.46652904648E+02  0.68073113073E+02 -0.90277712943E+03  0.90654122226E+03  0.00000000000E+00 0. -1.
          1    1    1    2  503    0  0.56013937562E+02  0.60435842625E+01  0.12024451542E+04  0.12037642772E+04  0.00000000000E+00 0. -1.
<mgrwt>
<rscale>  0 0.71279175E+02</rscale>
<asrwt>0</asrwt>
<pdfrwt beam="1">  1        2 0.18655536E+00 0.56339028E+02</pdfrwt>
<pdfrwt beam="2">  1        1 0.29901924E+00 0.90181192E+02</pdfrwt>
<totfact> 0.12461601E+01</totfact>
</mgrwt>
</event>
<event>
 7    1  0.4252091E-004  0.6085468E+02  0.7546771E-02  0.1479124E+00
          1   -1    0    0  502    0 -0.00000000000E+00  0.00000000000E+00  0.56891433705E+04  0.56891433705E+04  0.00000000000E+00 0. -1.
          2   -1    0    0  503    0  0.00000000000E+00 -0.00000000000E+00 -0.35084896005E+01  0.35084896005E+01  0.00000000000E+00 0. -1.
         25    2    1    2    0    0 -0.54801428642E+00  0.55165346340E+02  0.28416208863E+04  0.28449037572E+04  0.12499844212E+03 0.  0.
          4    1    3    3  501    0  0.40258057475E+02 -0.52467371437E+00  0.34745279983E+03  0.34977999869E+03  0.12700000000E+01 0.  1.
         -4    1    3    3    0  501 -0.40806071761E+02  0.55690020054E+02  0.24941680865E+04  0.24951237585E+04  0.12700000000E+01 0.  1.
          2    1    1    2  502    0 -0.32151816429E+02 -0.94487111776E+00  0.22741176568E+04  0.22743451253E+04  0.00000000000E+00 0. -1.
          1    1    1    2  503    0  0.32699830715E+02 -0.54220475222E+02  0.56989633780E+03  0.57340297759E+03  0.00000000000E+00 0. -1.
<mgrwt>
<rscale>  0 0.44242890E+02</rscale>
<asrwt>0</asrwt>
<pdfrwt beam="2">  1        2 0.53977218E-03 0.60854684E+02</pdfrwt>
<pdfrwt beam="1">  1        1 0.87524545E+00 0.32165697E+02</pdfrwt>
<totfact> 0.83046522E+00</totfact>
</mgrwt>
</event>
<event>
 7    1  0.4252091E-004  0.9361619E+02  0.7546771E-02  0.1308320E+00
          1   -1    0    0  502    0 -0.00000000000E+00  0.00000000000E+00  0.14172201928E+04  0.14172201928E+04  0.00000000000E+00 0. -1.
          2   -1    0    0  503    0  0.00000000000E+00 -0.00000000000E+00 -0.83875030275E+03  0.83875030275E+03  0.00000000000E+00 0. -1.
         25    2    1    2    0    0  0.50103736249E+02 -0.39774937644E+02  0.13405051865E+03  0.19411617499E+03  0.12497646895E+03 0.  0.
          4    1    3    3  501    0 -0.14904657713E+02  0.21945116036E+02  0.90751388803E+02  0.94557730562E+02  0.12700000000E+01 0.  1.
         -4    1    3    3    0  501  0.65008393962E+02 -0.61720053680E+02  0.43299129849E+02  0.99558444431E+02  0.12700000000E+01 0.  1.
          2    1    1    2  502    0 -0.62024212539E+02 -0.54104939352E+02  0.12490092906E+04  0.12517182412E+04  0.00000000000E+00 0. -1.
          1    1    1    2  503    0  0.11920476290E+02  0.93879876996E+02 -0.80458991917E+03  0.81013607936E+03  0.00000000000E+00 0. -1.
<mgrwt>
<rscale>  0 0.87779347E+02</rscale>
<asrwt>0</asrwt>
<pdfrwt beam="2">  1        2 0.12903851E+00 0.93616190E+02</pdfrwt>
<pdfrwt beam="1">  1        1 0.21803388E+00 0.82306424E+02</pdfrwt>
<totfact> 0.43204632E+01</totfact>
</mgrwt>
</event>
<event>
 7    1  0.4252091E-004  0.8626490E+02  0.7546771E-02  0.1322194E+00
          1   -1    0    0  502    0 -0.00000000000E+00  0.00000000000E+00  0.80164757513E+03  0.80164757513E+03  0.00000000000E+00 0. -1.
          2   -1    0    0  503    0  0.00000000000E+00 -0.00000000000E+00 -0.27978503583E+04  0.27978503583E+04  0.00000000000E+00 0. -1.
         25    2    1    2    0    0 -0.18036344824E+01  0.75351571694E+01 -0.71397192403E+03  0.72487288096E+03  0.12499901424E+03 0.  0.
          4    1    3    3  501    0 -0.59606170749E+02 -0.14636604999E+02 -0.41882488489E+03  0.42330015698E+03  0.12700000000E+01 0.  1.
         -4    1    3    3    0  501  0.57802536267E+02  0.22171762168E+02 -0.29514703914E+03  0.30157272398E+03  0.12700000000E+01 0.  1.
          2    1    1    2  502    0  0.30075170349E+02 -0.81126547875E+02  0.79309592216E+03  0.79780146301E+03  0.00000000000E+00 0. -1.
          1    1    1    2  503    0 -0.28271535866E+02  0.73591390706E+02 -0.20753267813E+04  0.20768235895E+04  0.00000000000E+00 0. -1.
<mgrwt>
<rscale>  0 0.82466368E+02</rscale>
<asrwt>0</asrwt>
<pdfrwt beam="2">  1        2 0.43043852E+00 0.78835097E+02</pdfrwt>
<pdfrwt beam="1">  1        1 0.12333040E+00 0.86264901E+02</pdfrwt>
<totfact> 0.10927741E+01</totfact>
</mgrwt>
</event>
<event>
 7    1  0.4252091E-004  0.9175554E+02  0.7546771E-02  0.1350137E+00
          2   -1    0    0  503    0  0.00000000000E+00  0.00000000000E+00  0.30195507808E+02  0.30195507808E+02  0.00000000000E+00 0. -1.
          1   -1    0    0  502    0 -0.00000000000E+00 -0.00000000000E+00 -0.83743912123E+03  0.83743912123E+03  0.00000000000E+00 0. -1.
         25    2    1    2    0    0 -0.65301962631E+02 -0.56256808242E+02 -0.40681555728E+03  0.43422901844E+03  0.12500707188E+03 0.  0.
          4    1    3    3  501    0  0.15233105447E+02 -0.98579135657E+01 -0.13433232127E+01  0.18238513609E+02  0.12700000000E+01 0.  1.
         -4    1    3    3    0  501 -0.80535068078E+02 -0.46398894676E+02 -0.40547223406E+03  0.41599050484E+03  0.12700000000E+01 0.  1.
          2    1    1    2  502    0 -0.34062389631E+02  0.47066526981E+02 -0.21640128182E+03  0.22406476546E+03  0.00000000000E+00 0. -1.
          1    1    1    2  503    0  0.99364352262E+02  0.91902812606E+01 -0.18402677432E+03  0.20934084512E+03  0.00000000000E+00 0. -1.
<mgrwt>
<rscale>  0 0.73013105E+02</rscale>
<asrwt>0</asrwt>
<pdfrwt beam="1">  1        2 0.46454624E-02 0.91755541E+02</pdfrwt>
<pdfrwt beam="2">  1        1 0.12883680E+00 0.58099091E+02</pdfrwt>
<totfact> 0.49762904E+03</totfact>
</mgrwt>
</event>
<event>
 7    1  0.4252091E-004  0.1084107E+03  0.7546771E-02  0.1283830E+00
         -2   -1    0    0    0  501  0.00000000000E+00  0.00000000000E+00  0.78387739691E+03  0.78387739691E+03  0.00000000000E+00 0.  1.
         -1   -1    0    0    0  502 -0.00000000000E+00 -0.00000000000E+00 -0.64547238510E+03  0.64547238510E+03  0.00000000000E+00 0.  1.
         25    2    1    2    0    0 -0.82461658185E+02 -0.23084734843E+02 -0.43359318472E+02  0.15759961251E+03  0.12499910925E+03 0.  0.
          4    1    3    3  503    0  0.25233756085E+02  0.15464301504E+02  0.10144934891E+02  0.31311653918E+02  0.12700000000E+01 0.  1.
         -4    1    3    3    0  503 -0.10769541427E+03 -0.38549036347E+02 -0.53504253363E+02  0.12628795859E+03  0.12700000000E+01 0.  1.
         -2    1    1    2    0  502  0.40597089190E+02 -0.79427881515E+02 -0.53707496666E+03  0.54443221050E+03  0.00000000000E+00 0.  1.
         -1    1    1    2    0  501  0.41864568995E+02  0.10251261636E+03  0.71883929694E+03  0.72731795899E+03  0.00000000000E+00 0.  1.
<mgrwt>
<rscale>  0 0.98338176E+02</rscale>
<asrwt>0</asrwt>
<pdfrwt beam="1">  1       -2 0.12059652E+00 0.10841067E+03</pdfrwt>
<pdfrwt beam="2">  1       -1 0.99303444E-01 0.89201525E+02</pdfrwt>
<totfact> 0.45786137E+00</totfact>
</mgrwt>
</event>
<event>
 7    1  0.4252091E-004  0.1520544E+03  0.7546771E-02  0.1286047E+00
          1   -1    0    0  502    0 -0.00000000000E+00  0.00000000000E+00  0.27762262543E+03  0.27762262543E+03  0.00000000000E+00 0. -1.
          2   -1    0    0  503    0  0.00000000000E+00 -0.00000000000E+00 -0.31790837201E+04  0.31790837201E+04  0.00000000000E+00 0. -1.
         25    2    1    2    0    0 -0.10393573120E+03 -0.80672207113E+02 -0.11168767674E+03  0.21304115778E+03  0.12490699162E+03 0.  0.
          4    1    3    3  501    0 -0.12731271536E+03 -0.76007548520E+02 -0.11664284764E+03  0.18866065231E+03  0.12700000000E+01 0.  1.
         -4    1    3    3    0  501  0.23376984167E+02 -0.46646585924E+01  0.49551709008E+01  0.24380505474E+02  0.12700000000E+01 0.  1.
          2    1    1    2  502    0  0.15165087948E+03  0.40645204686E+02  0.19942856966E+03  0.25381445252E+03  0.00000000000E+00 0. -1.
          1    1    1    2  503    0 -0.47715148281E+02  0.40027002427E+02 -0.29892019876E+04  0.29898507352E+04  0.00000000000E+00 0. -1.
<mgrwt>
<rscale>  0 0.97314260E+02</rscale>
<asrwt>0</asrwt>
<pdfrwt beam="2">  1        2 0.48908982E+00 0.62280786E+02</pdfrwt>
<pdfrwt beam="1">  1        1 0.42711172E-01 0.15205436E+03</pdfrwt>
<totfact> 0.27431657E+01</totfact>
</mgrwt>
</event>
<event>
 7    1  0.4252091E-004  0.7331710E+02  0.7546771E-02  0.1507857E+00
          2   -1    0    0  503    0  0.00000000000E+00  0.00000000000E+00  0.54819261178E+03  0.54819261178E+03  0.00000000000E+00 0. -1.
          1   -1    0    0  502    0 -0.00000000000E+00 -0.00000000000E+00 -0.19703431398E+04  0.19703431398E+04  0.00000000000E+00 0. -1.
         25    2    1    2    0    0 -0.25916481920E+02  0.85889996237E+02  0.47228371292E+02  0.16094759362E+03  0.12499941339E+03 0.  0.
          4    1    3    3  501    0 -0.37775128720E+02  0.22310166637E+02  0.77855801441E+02  0.89374731346E+02  0.12700000000E+01 0. -1.
         -4    1    3    3    0  501  0.11858646799E+02  0.63579829601E+02 -0.30627430148E+02  0.71572862269E+02  0.12700000000E+01 0. -1.
          2    1    1    2  502    0  0.84438412856E+01 -0.72727617064E+02 -0.19125132464E+04  0.19139141889E+04  0.00000000000E+00 0. -1.
          1    1    1    2  503    0  0.17472640635E+02 -0.13162379174E+02  0.44313434702E+03  0.44367396915E+03  0.00000000000E+00 0. -1.
<mgrwt>
<rscale>  0 0.40048154E+02</rscale>
<asrwt>0</asrwt>
<pdfrwt beam="1">  1        2 0.84337325E-01 0.21875589E+02</pdfrwt>
<pdfrwt beam="2">  1        1 0.30312971E+00 0.73317096E+02</pdfrwt>
<totfact> 0.33013965E+01</totfact>
</mgrwt>
</event>
<event>
 7    1  0.4252091E-004  0.3197837E+02  0.7546771E-02  0.1578792E+00
          2   -1    0    0  503    0  0.00000000000E+00  0.00000000000E+00  0.18326762578E+04  0.18326762578E+04  0.00000000000E+00 0. -1.
         -2   -1    0    0    0  501 -0.00000000000E+00 -0.00000000000E+00 -0.21654285773E+02  0.21654285773E+02  0.00000000000E+00 0.  1.
         25    2    1    2    0    0  0.11873514536E+02  0.16429942417E+02  0.68693279246E+03  0.69850761390E+03  0.12500120785E+03 0.  0.
          4    1    3    3  502    0  0.52217037754E+02 -0.26482216574E+02  0.47299771046E+03  0.47660924647E+03  0.12700000000E+01 0.  1.
         -4    1    3    3    0  502 -0.40343523218E+02  0.42912158992E+02  0.21393508200E+03  0.22189836742E+03  0.12700000000E+01 0.  1.
          1    1    1    2  503    0  0.17650407136E+02 -0.27873445874E+02  0.11236718417E+04  0.11241560718E+04  0.00000000000E+00 0. -1.
         -1    1    1    2    0  501 -0.29523921672E+02  0.11443503457E+02  0.41733792132E+00  0.31666857962E+02  0.00000000000E+00 0.  1.
<mgrwt>
<rscale>  0 0.31820849E+02</rscale>
<asrwt>0</asrwt>
<pdfrwt beam="1">  1        2 0.28195007E+00 0.31978366E+02</pdfrwt>
<pdfrwt beam="2">  1       -2 0.33314300E-02 0.31664108E+02</pdfrwt>
<totfact> 0.31896123E+03</totfact>
</mgrwt>
</event>
<event>
 7    1  0.4252091E-004  0.6715724E+02  0.7546771E-02  0.1423420E+00
          1   -1    0    0  502    0 -0.00000000000E+00  0.00000000000E+00  0.71953223664E+03  0.71953223664E+03  0.00000000000E+00 0. -1.
          2   -1    0    0  503    0  0.00000000000E+00 -0.00000000000E+00 -0.20025800339E+04  0.20025800339E+04  0.00000000000E+00 0. -1.
         25    2    1    2    0    0  0.25830759105E+02 -0.21496499746E+01 -0.83791943092E+02  0.15271536796E+03  0.12501617805E+03 0.  0.
          4    1    3    3  501    0 -0.99177905853E+01 -0.54466911962E+02 -0.67440029590E+02  0.87262692829E+02  0.12700000000E+01 0. -1.
         -4    1    3    3    0  501  0.35748549690E+02  0.52317261987E+02 -0.16351913502E+02  0.65452675132E+02  0.12700000000E+01 0. -1.
          2    1    1    2  502    0  0.40380086644E+02  0.17250747226E+02  0.68375415897E+03  0.68516267382E+03  0.00000000000E+00 0. -1.
          1    1    1    2  503    0 -0.66210845749E+02 -0.15101097252E+02 -0.18830100132E+04  0.18842342288E+04  0.00000000000E+00 0. -1.
<mgrwt>
<rscale>  0 0.54303902E+02</rscale>
<asrwt>0</asrwt>
<pdfrwt beam="2">  1        2 0.30808923E+00 0.67157238E+02</pdfrwt>
<pdfrwt beam="1">  1        1 0.11069727E+00 0.43910587E+02</pdfrwt>
<totfact> 0.34584734E+01</totfact>
</mgrwt>
</event>
<event>
 7    1  0.4252091E-004  0.1190227E+03  0.7546771E-02  0.1379772E+00
          1   -1    0    0  502    0 -0.00000000000E+00  0.00000000000E+00  0.10129913102E+03  0.10129913102E+03  0.00000000000E+00 0. -1.
          2   -1    0    0  503    0  0.00000000000E+00 -0.00000000000E+00 -0.20480459678E+04  0.20480459678E+04  0.00000000000E+00 0. -1.
         25    2    1    2    0    0  0.23271759461E+02  0.10176349630E+03 -0.55108197471E+03  0.57464376132E+03  0.12500690226E+03 0.  0.
          4    1    3    3  501    0  0.46205016589E+01  0.69827043987E+02 -0.52433040837E+03  0.52898124272E+03  0.12700000000E+01 0. -1.
         -4    1    3    3    0  501  0.18651257802E+02  0.31936452308E+02 -0.26751566337E+02  0.45662518603E+02  0.12700000000E+01 0. -1.
          2    1    1    2  502    0  0.34323595443E+02  0.67406218878E+01  0.83454991059E+02  0.90489119347E+02  0.00000000000E+00 0. -1.
          1    1    1    2  503    0 -0.57595354903E+02 -0.10850411818E+03 -0.14791198531E+04  0.14842122181E+04  0.00000000000E+00 0. -1.
<mgrwt>
<rscale>  0 0.64523788E+02</rscale>
<asrwt>0</asrwt>
<pdfrwt beam="2">  1        2 0.31508399E+00 0.11902267E+03</pdfrwt>
<pdfrwt beam="1">  1        1 0.15584482E-01 0.34979211E+02</pdfrwt>
<totfact> 0.33510464E+02</totfact>
</mgrwt>
</event>
<event>
 7    1  0.4252091E-004  0.6391470E+02  0.7546771E-02  0.1510692E+00
         -1   -1    0    0    0  501 -0.00000000000E+00  0.00000000000E+00  0.25407006227E+03  0.25407006227E+03  0.00000000000E+00 0.  1.
          1   -1    0    0  503    0  0.00000000000E+00 -0.00000000000E+00 -0.11455191588E+04  0.11455191588E+04  0.00000000000E+00 0. -1.
         25    2    1    2    0    0 -0.36599269115E+02 -0.70510553353E+02  0.17782429673E+02  0.14916211106E+03  0.12498750313E+03 0.  0.
          4    1    3    3  502    0 -0.16922661664E+02  0.23684760985E+02  0.40871714500E+02  0.50194166263E+02  0.12700000000E+01 0. -1.
         -4    1    3    3    0  502 -0.19676607450E+02 -0.94195314338E+02 -0.23089284826E+02  0.98967944799E+02  0.12700000000E+01 0. -1.
          2    1    1    2  503    0  0.43293815159E+02  0.46822723024E+02 -0.10779941360E+04  0.10798787335E+04  0.00000000000E+00 0. -1.
         -2    1    1    2    0  501 -0.66945460447E+01  0.23687830329E+02  0.16876260981E+03  0.17054837649E+03  0.00000000000E+00 0.  1.
<mgrwt>
<rscale>  0 0.39664869E+02</rscale>
<asrwt>0</asrwt>
<pdfrwt beam="2">  1        1 0.17623372E+00 0.63914697E+02</pdfrwt>
<pdfrwt beam="1">  1       -1 0.39087702E-01 0.24615651E+02</pdfrwt>
<totfact> 0.88705528E+01</totfact>
</mgrwt>
</event>
<event>
 7    1  0.4252091E-004  0.3174075E+02  0.7546771E-02  0.1619605E+00
          2   -1    0    0  503    0  0.00000000000E+00  0.00000000000E+00  0.14790821329E+04  0.14790821329E+04  0.00000000000E+00 0. -1.
         -2   -1    0    0    0  501 -0.00000000000E+00 -0.00000000000E+00 -0.12040932263E+02  0.12040932263E+02  0.00000000000E+00 0.  1.
         25    2    1    2    0    0 -0.50164250094E+02 -0.18735482531E+02  0.11496132458E+04  0.11576292554E+04  0.12500963005E+03 0.  0.
          4    1    3    3  502    0  0.16844547482E+02 -0.56330111065E+02  0.45807571201E+03  0.46183524230E+03  0.12700000000E+01 0.  1.
         -4    1    3    3    0  502 -0.67008797576E+02  0.37594628534E+02  0.69153753383E+03  0.69579401309E+03  0.12700000000E+01 0.  1.
          3    1    1    2  503    0  0.24944936461E+02  0.39900065252E+00  0.29253043945E+03  0.29359234844E+03  0.00000000000E+00 0. -1.
         -1    1    1    2    0  501  0.25219313633E+02  0.18336481879E+02  0.24897515370E+02  0.39901461369E+02  0.00000000000E+00 0.  1.
<mgrwt>
<rscale>  0 0.28140227E+02</rscale>
<asrwt>0</asrwt>
<pdfrwt beam="1">  1        2 0.22755095E+00 0.24948127E+02</pdfrwt>
<pdfrwt beam="2">  1       -2 0.18524523E-02 0.31740755E+02</pdfrwt>
<totfact> 0.10928647E+04</totfact>
</mgrwt>
</event>
<event>
 7    1  0.4252091E-004  0.6245197E+02  0.7546771E-02  0.1529234E+00
          2   -1    0    0  503    0  0.00000000000E+00  0.00000000000E+00  0.33807388822E+03  0.33807388822E+03  0.00000000000E+00 0. -1.
          1   -1    0    0  502    0 -0.00000000000E+00 -0.00000000000E+00 -0.50833279268E+03  0.50833279268E+03  0.00000000000E+00 0. -1.
         25    2    1    2    0    0  0.81248440977E+02 -0.75847455873E+01 -0.98218767592E+02  0.17869002918E+03  0.12499745075E+03 0.  0.
          4    1    3    3  501    0  0.28754558051E+02  0.57760107364E+02 -0.52585175477E+02  0.83245829874E+02  0.12700000000E+01 0.  1.
         -4    1    3    3    0  501  0.52493882925E+02 -0.65344852951E+02 -0.45633592115E+02  0.95444199306E+02  0.12700000000E+01 0.  1.
          2    1    1    2  502    0 -0.19319785034E+02  0.11045677576E+02 -0.36630781508E+03  0.36698321008E+03  0.00000000000E+00 0. -1.
          1    1    1    2  503    0 -0.61928655943E+02 -0.34609319890E+01  0.29426767822E+03  0.30073344164E+03  0.00000000000E+00 0. -1.
<mgrwt>
<rscale>  0 0.37280491E+02</rscale>
<asrwt>0</asrwt>
<pdfrwt beam="1">  1        2 0.52011368E-01 0.62451970E+02</pdfrwt>
<pdfrwt beam="2">  1        1 0.78205045E-01 0.22254462E+02</pdfrwt>
<totfact> 0.61126372E+02</totfact>
</mgrwt>
</event>
<event>
 7    1  0.4252091E-004  0.8401173E+02  0.7546771E-02  0.1381005E+00
          2   -1    0    0  503    0  0.00000000000E+00  0.00000000000E+00  0.24006717833E+04  0.24006717833E+04  0.00000000000E+00 0. -1.
         -2   -1    0    0    0  501 -0.00000000000E+00 -0.00000000000E+00 -0.20897186500E+02  0.20897186500E+02  0.00000000000E+00 0.  1.
         25    2    1    2    0    0 -0.77440863555E+02  0.28585169003E+02  0.50076728050E+03  0.52269646043E+03  0.12501808385E+03 0.  0.
          4    1    3    3  502    0  0.18388149977E+02  0.86838188665E+00  0.83134417187E+01  0.20238684737E+02  0.12700000000E+01 0.  1.
         -4    1    3    3    0  502 -0.95829013533E+02  0.27716787116E+02  0.49245383878E+03  0.50245777569E+03  0.12700000000E+01 0.  1.
          3    1    1    2  503    0  0.49923088161E+02 -0.69202000671E+02  0.18205815104E+04  0.18225801128E+04  0.00000000000E+00 0. -1.
         -1    1    1    2    0  501  0.27517775395E+02  0.40616831668E+02  0.58425805917E+02  0.76292396570E+02  0.00000000000E+00 0.  1.
<mgrwt>
<rscale>  0 0.64200284E+02</rscale>
<asrwt>0</asrwt>
<pdfrwt beam="1">  1        2 0.36933390E+00 0.84011727E+02</pdfrwt>
<pdfrwt beam="2">  1       -2 0.32149537E-02 0.49060727E+02</pdfrwt>
<totfact> 0.16626228E+03</totfact>
</mgrwt>
</event>
<event>
 7    1  0.4252091E-004  0.4396329E+02  0.7546771E-02  0.1583293E+00
          2   -1    0    0  503    0  0.00000000000E+00  0.00000000000E+00  0.33236869841E+04  0.33236869841E+04  0.00000000000E+00 0. -1.
          1   -1    0    0  502    0 -0.00000000000E+00 -0.00000000000E+00 -0.11425076345E+03  0.11425076345E+03  0.00000000000E+00 0. -1.
         25    2    1    2    0    0  0.69930451417E+00  0.23387840428E+02  0.10316410690E+04  0.10394501132E+04  0.12500305034E+03 0.  0.
          4    1    3    3  501    0 -0.55244027918E+02 -0.12279200454E+02  0.34535722542E+03  0.34996558036E+03  0.12700000000E+01 0.  1.
         -4    1    3    3    0  501  0.55943332432E+02  0.35667040882E+02  0.68628384357E+03  0.68948453289E+03  0.12700000000E+01 0.  1.
          2    1    1    2  502    0  0.80186214517E+01  0.20917295622E+02 -0.10898410839E+03  0.11126260570E+03  0.00000000000E+00 0. -1.
          1    1    1    2  503    0 -0.87179259658E+01 -0.44305136050E+02  0.22867792601E+04  0.22872250286E+04  0.00000000000E+00 0. -1.
<mgrwt>
<rscale>  0 0.31382285E+02</rscale>
<asrwt>0</asrwt>
<pdfrwt beam="1">  1        2 0.51133639E+00 0.43963286E+02</pdfrwt>
<pdfrwt beam="2">  1        1 0.17577043E-01 0.22401597E+02</pdfrwt>
<totfact> 0.67157357E+01</totfact>
</mgrwt>
</event>
<event>
 7    1  0.4252091E-004  0.9980395E+02  0.7546771E-02  0.1321525E+00
          2   -1    0    0  503    0  0.00000000000E+00  0.00000000000E+00  0.13119097378E+04  0.13119097378E+04  0.00000000000E+00 0. -1.
          1   -1    0    0  502    0 -0.00000000000E+00 -0.00000000000E+00 -0.13096740337E+03  0.13096740337E+03  0.00000000000E+00 0. -1.
         25    2    1    2    0    0 -0.74345468762E+02  0.14254369575E+02  0.13706563449E+03  0.20036101098E+03  0.12500844286E+03 0.  0.
          4    1    3    3  501    0 -0.82362097275E+02  0.58186527219E+02  0.86280896115E+02  0.13272223985E+03  0.12700000000E+01 0. -1.
         -4    1    3    3    0  501  0.80166285131E+01 -0.43932157644E+02  0.50784738376E+02  0.67638771129E+02  0.12700000000E+01 0. -1.
          2    1    1    2  502    0 -0.13998808390E+02 -0.67103630132E+02 -0.84864018611E+02  0.10909062961E+03  0.00000000000E+00 0. -1.
          1    1    1    2  503    0  0.88344277152E+02  0.52849260557E+02  0.11287407186E+04  0.11334255006E+04  0.00000000000E+00 0. -1.
<mgrwt>
<rscale>  0 0.82712676E+02</rscale>
<asrwt>0</asrwt>
<pdfrwt beam="1">  1        2 0.20183226E+00 0.99803946E+02</pdfrwt>
<pdfrwt beam="2">  1        1 0.20148832E-01 0.68548259E+02</pdfrwt>
<totfact> 0.60962175E+02</totfact>
</mgrwt>
</event>
<event>
 7    1  0.4252091E-004  0.8762786E+02  0.7546771E-02  0.1414155E+00
          1   -1    0    0  502    0 -0.00000000000E+00  0.00000000000E+00  0.22982372127E+03  0.22982372127E+03  0.00000000000E+00 0. -1.
          2   -1    0    0  503    0  0.00000000000E+00 -0.00000000000E+00 -0.33748142534E+03  0.33748142534E+03  0.00000000000E+00 0. -1.
         25    2    1    2    0    0 -0.62565462447E+02  0.71042789576E+02  0.52802621980E+02  0.16548935220E+03  0.12504836569E+03 0.  0.
          4    1    3    3  501    0 -0.34527871632E+02  0.63780070595E+02  0.91735000163E+02  0.11694868310E+03  0.12700000000E+01 0. -1.
         -4    1    3    3    0  501 -0.28037590815E+02  0.72627189816E+01 -0.38932378183E+02  0.48540669100E+02  0.12700000000E+01 0. -1.
          2    1    1    2  502    0 -0.16051409217E+02 -0.32382682996E+02  0.11091206120E+03  0.11665235195E+03  0.00000000000E+00 0. -1.
          1    1    1    2  503    0  0.78616871663E+02 -0.38660106580E+02 -0.27137238725E+03  0.28516344246E+03  0.00000000000E+00 0. -1.
<mgrwt>
<rscale>  0 0.56276963E+02</rscale>
<asrwt>0</asrwt>
<pdfrwt beam="2">  1        2 0.51920219E-01 0.87627857E+02</pdfrwt>
<pdfrwt beam="1">  1        1 0.35357496E-01 0.36142577E+02</pdfrwt>
<totfact> 0.15624621E+03</totfact>
</mgrwt>
</event>
<event>
 7    1  0.4252091E-004  0.7072935E+02  0.7546771E-02  0.1518952E+00
         -2   -1    0    0    0  501 -0.00000000000E+00  0.00000000000E+00  0.25095256086E+03  0.25095256086E+03  0.00000000000E+00 0.  1.
          2   -1    0    0  503    0  0.00000000000E+00 -0.00000000000E+00 -0.20271841845E+04  0.20271841845E+04  0.00000000000E+00 0. -1.
         25    2    1    2    0    0 -0.79542279450E+02 -0.26355335289E+02 -0.67440704910E+02  0.16491160703E+03  0.12500404608E+03 0.  0.
          4    1    3    3  502    0 -0.79078509884E+02  0.15243214986E+01  0.12639006846E+02  0.80106751747E+02  0.12700000000E+01 0. -1.
         -4    1    3    3    0  502 -0.46376956617E+00 -0.27879656787E+02 -0.80079711755E+02  0.84804855283E+02  0.12700000000E+01 0. -1.
          1    1    1    2  503    0  0.70178560288E+02  0.75132288557E+01 -0.19098070761E+04  0.19111108149E+04  0.00000000000E+00 0. -1.
         -1    1    1    2    0  501  0.93637191617E+01  0.18842106433E+02  0.20101615737E+03  0.20211432343E+03  0.00000000000E+00 0.  1.
<mgrwt>
<rscale>  0 0.38576981E+02</rscale>
<asrwt>0</asrwt>
<pdfrwt beam="2">  1        2 0.31187449E+00 0.70729345E+02</pdfrwt>
<pdfrwt beam="1">  1       -2 0.38608086E-01 0.21040537E+02</pdfrwt>
<totfact> 0.51449936E+01</totfact>
</mgrwt>
</event>
<event>
 7    1  0.4252091E-004  0.3519180E+03  0.7546771E-02  0.1241021E+00
          2   -1    0    0  503    0  0.00000000000E+00  0.00000000000E+00  0.13185556381E+03  0.13185556381E+03  0.00000000000E+00 0. -1.
          1   -1    0    0  502    0 -0.00000000000E+00 -0.00000000000E+00 -0.24331570171E+04  0.24331570171E+04  0.00000000000E+00 0. -1.
         25    2    1    2    0    0 -0.22521117705E+03  0.22988628141E+03 -0.42892795496E+03  0.55060951114E+03  0.12499546615E+03 0.  0.
          4    1    3    3  501    0 -0.85709340147E+02  0.13029300266E+03 -0.11802566266E+03  0.19558636833E+03  0.12700000000E+01 0.  1.
         -4    1    3    3    0  501 -0.13950183691E+03  0.99593278759E+02 -0.31090229230E+03  0.35502314281E+03  0.12700000000E+01 0.  1.
          2    1    1    2  502    0  0.26416703395E+03 -0.24500693008E+03 -0.19185720282E+04  0.19521094347E+04  0.00000000000E+00 0. -1.
          1    1    1    2  503    0 -0.38955856895E+02  0.15120648661E+02  0.46198529900E+02  0.62293635046E+02  0.00000000000E+00 0. -1.
<mgrwt>
<rscale>  0 0.12126732E+03</rscale>
<asrwt>0</asrwt>
<pdfrwt beam="1">  1        2 0.20285471E-01 0.41787472E+02</pdfrwt>
<pdfrwt beam="2">  1        1 0.37433186E+00 0.35191796E+03</pdfrwt>
<totfact> 0.59085184E+01</totfact>
</mgrwt>
</event>
<event>
 7    1  0.4252091E-004  0.5082872E+02  0.7546771E-02  0.1518760E+00
          1   -1    0    0  502    0 -0.00000000000E+00  0.00000000000E+00  0.16420582871E+03  0.16420582871E+03  0.00000000000E+00 0. -1.
          2   -1    0    0  503    0  0.00000000000E+00 -0.00000000000E+00 -0.33874854561E+03  0.33874854561E+03  0.00000000000E+00 0. -1.
         25    2    1    2    0    0  0.62545705152E+02  0.22670265245E+02 -0.22659083802E+03  0.26719877811E+03  0.12500349191E+03 0.  0.
          4    1    3    3  501    0  0.86627861149E+02  0.38784915225E+02 -0.21666025980E+03  0.23654161801E+03  0.12700000000E+01 0. -1.
         -4    1    3    3    0  501 -0.24082155997E+02 -0.16114649980E+02 -0.99305782233E+01  0.30657160098E+02  0.12700000000E+01 0. -1.
          2    1    1    2  502    0 -0.27819242559E+02  0.92477649368E+01  0.13618242948E+03  0.13930213750E+03  0.00000000000E+00 0. -1.
          1    1    1    2  503    0 -0.34726462593E+02 -0.31918030182E+02 -0.84134308361E+02  0.96453458716E+02  0.00000000000E+00 0. -1.
<mgrwt>
<rscale>  0 0.38601785E+02</rscale>
<asrwt>0</asrwt>
<pdfrwt beam="2">  1        2 0.52115160E-01 0.50828718E+02</pdfrwt>
<pdfrwt beam="1">  1        1 0.25262436E-01 0.29316061E+02</pdfrwt>
<totfact> 0.22956822E+03</totfact>
</mgrwt>
</event>
<event>
 7    1  0.4252091E-004  0.5801514E+02  0.7546771E-02  0.1531878E+00
          2   -1    0    0  503    0  0.00000000000E+00  0.00000000000E+00  0.47927630742E+03  0.47927630742E+03  0.00000000000E+00 0. -1.
          1   -1    0    0  502    0 -0.00000000000E+00 -0.00000000000E+00 -0.48854316918E+02  0.48854316918E+02  0.00000000000E+00 0. -1.
         25    2    1    2    0    0  0.52441334012E+02 -0.11779891817E+01  0.27255017319E+03  0.30440069131E+03  0.12499881117E+03 0.  0.
          4    1    3    3  501    0  0.20637290046E+02 -0.31250288275E+01  0.27169686456E+03  0.27250039019E+03  0.12700000000E+01 0. -1.
         -4    1    3    3    0  501  0.31804043966E+02  0.19470396458E+01  0.85330863771E+00  0.31900301121E+02  0.12700000000E+01 0. -1.
          2    1    1    2  502    0  0.41731535793E+01  0.23169648003E+02 -0.23012343110E+02  0.32921356819E+02  0.00000000000E+00 0. -1.
          1    1    1    2  503    0 -0.56614487591E+02 -0.21991658822E+02  0.18088416041E+03  0.19080857620E+03  0.00000000000E+00 0. -1.
<mgrwt>
<rscale>  0 0.36956998E+02</rscale>
<asrwt>0</asrwt>
<pdfrwt beam="1">  1        2 0.73734813E-01 0.58015144E+02</pdfrwt>
<pdfrwt beam="2">  1        1 0.75160491E-02 0.23542468E+02</pdfrwt>
<totfact> 0.69734109E+03</totfact>
</mgrwt>
</event>
<event>
 7    1  0.4252091E-004  0.1857285E+03  0.7546771E-02  0.1271933E+00
          1   -1    0    0  502    0 -0.00000000000E+00  0.00000000000E+00  0.51248131249E+02  0.51248131249E+02  0.00000000000E+00 0. -1.
          2   -1    0    0  503    0  0.00000000000E+00 -0.00000000000E+00 -0.24550644599E+04  0.24550644599E+04  0.00000000000E+00 0. -1.
         25    2    1    2    0    0 -0.13531993052E+02 -0.23331664743E+03 -0.74882086387E+03  0.79434099604E+03  0.12500063604E+03 0.  0.
          4    1    3    3  501    0 -0.69209128009E+01  0.11967428930E+02 -0.94680083240E+02  0.95692473328E+02  0.12700000000E+01 0. -1.
         -4    1    3    3    0  501 -0.66110802510E+01 -0.24528407636E+03 -0.65414078063E+03  0.69864852271E+03  0.12700000000E+01 0. -1.
          2    1    1    2  502    0  0.98529571174E+01  0.57492842404E+02 -0.11951546167E+02  0.59542817766E+02  0.00000000000E+00 0. -1.
          1    1    1    2  503    0  0.36790359346E+01  0.17582380502E+03 -0.16430439186E+04  0.16524287773E+04  0.00000000000E+00 0. -1.
<mgrwt>
<rscale>  0 0.10408520E+03</rscale>
<asrwt>0</asrwt>
<pdfrwt beam="2">  1        2 0.37770212E+00 0.18572845E+03</pdfrwt>
<pdfrwt beam="1">  1        1 0.78843300E-02 0.58331018E+02</pdfrwt>
<totfact> 0.48101177E+02</totfact>
</mgrwt>
</event>
<event>
 7    1  0.4252091E-004  0.5301792E+02  0.7546771E-02  0.1567588E+00
          2   -1    0    0  503    0  0.00000000000E+00  0.00000000000E+00  0.96002429662E+03  0.96002429662E+03  0.00000000000E+00 0. -1.
          1   -1    0    0  502    0 -0.00000000000E+00 -0.00000000000E+00 -0.31016625322E+02  0.31016625322E+02  0.00000000000E+00 0. -1.
         25    2    1    2    0    0  0.72349879005E+00 -0.34589854383E+02  0.34334091198E+03  0.36702288306E+03  0.12500333346E+03 0.  0.
          4    1    3    3  501    0  0.50416789030E+01 -0.77789900292E+02  0.27672723185E+03  0.28750001889E+03  0.12700000000E+01 0. -1.
         -4    1    3    3    0  501 -0.43181801129E+01  0.43200045909E+02  0.66613680129E+02  0.79522864173E+02  0.12700000000E+01 0. -1.
          2    1    1    2  502    0  0.28724956706E+01 -0.20276736718E+02 -0.12060830933E+02  0.23766803027E+02  0.00000000000E+00 0. -1.
          1    1    1    2  503    0 -0.35959944606E+01  0.54866591101E+02  0.59772759026E+03  0.60025123586E+03  0.00000000000E+00 0. -1.
<mgrwt>
<rscale>  0 0.32950935E+02</rscale>
<asrwt>0</asrwt>
<pdfrwt beam="1">  1        2 0.14769602E+00 0.53017919E+02</pdfrwt>
<pdfrwt beam="2">  1        1 0.47717892E-02 0.20479191E+02</pdfrwt>
<totfact> 0.55340188E+03</totfact>
</mgrwt>
</event>
<event>
 7    1  0.4252091E-004  0.7290806E+02  0.7546771E-02  0.1397698E+00
         -1   -1    0    0    0  501 -0.00000000000E+00  0.00000000000E+00  0.13724277529E+03  0.13724277529E+03  0.00000000000E+00 0.  1.
          1   -1    0    0  503    0  0.00000000000E+00 -0.00000000000E+00 -0.18682098255E+03  0.18682098255E+03  0.00000000000E+00 0. -1.
         25    2    1    2    0    0 -0.87220833018E+02  0.38895996107E+02  0.42044500340E+02  0.16281407070E+03  0.12498123613E+03 0.  0.
          4    1    3    3  502    0 -0.16466595480E+02 -0.42017069925E+02  0.30979439110E+02  0.54753278252E+02  0.12700000000E+01 0. -1.
         -4    1    3    3    0  502 -0.70754237538E+02  0.80913066033E+02  0.11065061230E+02  0.10806079245E+03  0.12700000000E+01 0. -1.
          2    1    1    2  503    0  0.48243510550E+02  0.10764117679E+02 -0.84264760165E+02  0.97692642227E+02  0.00000000000E+00 0. -1.
         -2    1    1    2    0  501  0.38977322468E+02 -0.49660113787E+02 -0.73579474308E+01  0.63557044916E+02  0.00000000000E+00 0.  1.
<mgrwt>
<rscale>  0 0.60031899E+02</rscale>
<asrwt>0</asrwt>
<pdfrwt beam="2">  1        1 0.28741690E-01 0.49429774E+02</pdfrwt>
<pdfrwt beam="1">  1       -1 0.21114273E-01 0.72908059E+02</pdfrwt>
<totfact> 0.27375859E+03</totfact>
</mgrwt>
</event>
<event>
 7    1  0.4252091E-004  0.8185763E+02  0.7546771E-02  0.1444318E+00
          1   -1    0    0  502    0 -0.00000000000E+00  0.00000000000E+00  0.15943725326E+03  0.15943725326E+03  0.00000000000E+00 0. -1.
          2   -1    0    0  503    0  0.00000000000E+00 -0.00000000000E+00 -0.29925050522E+03  0.29925050522E+03  0.00000000000E+00 0. -1.
         25    2    1    2    0    0 -0.98410034755E+01 -0.62144444411E+02 -0.14437854741E+03  0.20107172629E+03  0.12500358731E+03 0.  0.
          4    1    3    3  501    0 -0.56566450720E+02 -0.68610551210E+02 -0.11541842218E+03  0.14570585494E+03  0.12700000000E+01 0.  1.
         -4    1    3    3    0  501  0.46725447245E+02  0.64661067991E+01 -0.28960125229E+02  0.55365871353E+02  0.12700000000E+01 0.  1.
          2    1    1    2  502    0 -0.13220938563E+02  0.82520160460E+02  0.11545918522E+03  0.14253137742E+03  0.00000000000E+00 0. -1.
          1    1    1    2  503    0  0.23061942038E+02 -0.20375716049E+02 -0.11089388977E+03  0.11508465477E+03  0.00000000000E+00 0. -1.
<mgrwt>
<rscale>  0 0.50190290E+02</rscale>
<asrwt>0</asrwt>
<pdfrwt beam="2">  1        2 0.46038539E-01 0.30773738E+02</pdfrwt>
<pdfrwt beam="1">  1        1 0.24528808E-01 0.81857627E+02</pdfrwt>
<totfact> 0.27765664E+03</totfact>
</mgrwt>
</event>
<event>
 7    1  0.4252091E-004  0.4096028E+02  0.7546771E-02  0.1562845E+00
          1   -1    0    0  503    0  0.00000000000E+00  0.00000000000E+00  0.15836764489E+04  0.15836764489E+04  0.00000000000E+00 0. -1.
         -1   -1    0    0    0  501 -0.00000000000E+00 -0.00000000000E+00 -0.49307356505E+02  0.49307356505E+02  0.00000000000E+00 0.  1.
         25    2    1    2    0    0 -0.63600013454E+02 -0.19319331241E+01  0.21251547214E+03  0.25463019183E+03  0.12500005846E+03 0.  0.
          4    1    3    3  502    0 -0.82018110457E+02  0.21720174420E+01  0.61781619455E+02  0.10271450484E+03  0.12700000000E+01 0.  1.
         -4    1    3    3    0  502  0.18418097003E+02 -0.41039505661E+01  0.15073385268E+03  0.15191568698E+03  0.12700000000E+01 0.  1.
          2    1    1    2  503    0  0.24953665078E+02  0.11099868003E+02  0.13359337463E+04  0.13362128824E+04  0.00000000000E+00 0. -1.
         -2    1    1    2    0  501  0.38646348376E+02 -0.91679348789E+01 -0.14080126094E+02  0.42140731171E+02  0.00000000000E+00 0.  1.
<mgrwt>
<rscale>  0 0.33446487E+02</rscale>
<asrwt>0</asrwt>
<pdfrwt beam="1">  1        1 0.24364249E+00 0.27311032E+02</pdfrwt>
<pdfrwt beam="2">  1       -1 0.75857484E-02 0.40960278E+02</pdfrwt>
<totfact> 0.64560991E+02</totfact>
</mgrwt>
</event>
<event>
 7    1  0.4252091E-004  0.1607954E+03  0.7546771E-02  0.1247898E+00
          1   -1    0    0  502    0 -0.00000000000E+00  0.00000000000E+00  0.24076630178E+04  0.24076630178E+04  0.00000000000E+00 0. -1.
          2   -1    0    0  503    0  0.00000000000E+00 -0.00000000000E+00 -0.18002621699E+04  0.18002621699E+04  0.00000000000E+00 0. -1.
         25    2    1    2    0    0  0.61720942879E+00 -0.22038551772E+03 -0.10868752479E+03  0.27569976067E+03  0.12500889018E+03 0.  0.
          4    1    3    3  501    0  0.50509769004E+02 -0.14842042150E+03 -0.33611863681E+02  0.16034721252E+03  0.12700000000E+01 0. -1.
         -4    1    3    3    0  501 -0.49892559575E+02 -0.71965096217E+02 -0.75075661105E+02  0.11535254815E+03  0.12700000000E+01 0. -1.
          2    1    1    2  502    0  0.50377106531E+02  0.15196811450E+03  0.23202644585E+04  0.23257814424E+04  0.00000000000E+00 0. -1.
          1    1    1    2  503    0 -0.50994315960E+02  0.68417403219E+02 -0.16041760858E+04  0.16064439846E+04  0.00000000000E+00 0. -1.
<mgrwt>
<rscale>  0 0.11713587E+03</rscale>
<asrwt>0</asrwt>
<pdfrwt beam="2">  1        2 0.27696341E+00 0.85330893E+02</pdfrwt>
<pdfrwt beam="1">  1        1 0.37040969E+00 0.16079538E+03</pdfrwt>
<totfact> 0.28477047E+00</totfact>
</mgrwt>
</event>
<event>
 7    1  0.4252091E-004  0.4730046E+02  0.7546771E-02  0.1486244E+00
         -1   -1    0    0    0  501 -0.00000000000E+00  0.00000000000E+00  0.16224295989E+03  0.16224295989E+03  0.00000000000E+00 0.  1.
          1   -1    0    0  503    0  0.00000000000E+00 -0.00000000000E+00 -0.11293115876E+04  0.11293115876E+04  0.00000000000E+00 0. -1.
         25    2    1    2    0    0 -0.64951920753E+01  0.44148352009E+02 -0.29402736938E+03  0.32259252219E+03  0.12499030732E+03 0.  0.
          4    1    3    3  502    0 -0.56722815927E+02 -0.61525675861E+01 -0.90363947551E+02  0.10687650748E+03  0.12700000000E+01 0.  1.
         -4    1    3    3    0  502  0.50227623852E+02  0.50300919595E+02 -0.20366342183E+03  0.21571601471E+03  0.12700000000E+01 0.  1.
          2    1    1    2  503    0 -0.34169949897E+02 -0.19536454036E+02 -0.81669782909E+03  0.81764576839E+03  0.00000000000E+00 0. -1.
         -2    1    1    2    0  501  0.40665141972E+02 -0.24611897973E+02  0.14365657074E+03  0.15131625693E+03  0.00000000000E+00 0.  1.
<mgrwt>
<rscale>  0 0.43148298E+02</rscale>
<asrwt>0</asrwt>
<pdfrwt beam="2">  1        1 0.17374024E+00 0.39360621E+02</pdfrwt>
<pdfrwt beam="1">  1       -1 0.24960456E-01 0.47300463E+02</pdfrwt>
<totfact> 0.19940186E+02</totfact>
</mgrwt>
</event>
<event>
 7    1  0.4252091E-004  0.4335448E+02  0.7546771E-02  0.1577866E+00
         -2   -1    0    0    0  501 -0.00000000000E+00  0.00000000000E+00  0.21796464236E+02  0.21796464236E+02  0.00000000000E+00 0.  1.
          2   -1    0    0  503    0  0.00000000000E+00 -0.00000000000E+00 -0.12081413766E+04  0.12081413766E+04  0.00000000000E+00 0. -1.
         25    2    1    2    0    0 -0.44596966520E+02  0.46826457930E+02 -0.52228254477E+03  0.54091717372E+03  0.12502290055E+03 0.  0.
          4    1    3    3  502    0  0.78528282042E+01 -0.33277112211E+02 -0.62334308303E+02  0.71107046061E+02  0.12700000000E+01 0. -1.
         -4    1    3    3    0  502 -0.52449794724E+02  0.80103570141E+02 -0.45994823647E+03  0.46981012766E+03  0.12700000000E+01 0. -1.
          1    1    1    2  503    0  0.19326500143E+02 -0.13351190554E+02 -0.64046490364E+03  0.64089551464E+03  0.00000000000E+00 0. -1.
         -1    1    1    2    0  501  0.25270466377E+02 -0.33475267376E+02 -0.23597463970E+02  0.48125152494E+02  0.00000000000E+00 0.  1.
<mgrwt>
<rscale>  0 0.31912154E+02</rscale>
<asrwt>0</asrwt>
<pdfrwt beam="2">  1        2 0.18586796E+00 0.23489740E+02</pdfrwt>
<pdfrwt beam="1">  1       -2 0.33533012E-02 0.43354483E+02</pdfrwt>
<totfact> 0.67872326E+03</totfact>
</mgrwt>
</event>
<event>
 7    1  0.4252091E-004  0.1485086E+03  0.7546771E-02  0.1290291E+00
          1   -1    0    0  502    0 -0.00000000000E+00  0.00000000000E+00  0.52629837939E+03  0.52629837939E+03  0.00000000000E+00 0. -1.
          2   -1    0    0  503    0  0.00000000000E+00 -0.00000000000E+00 -0.11635385359E+04  0.11635385359E+04  0.00000000000E+00 0. -1.
         25    2    1    2    0    0  0.69370427731E+02  0.12015156224E+03 -0.14854002099E+02  0.18733550773E+03  0.12500118770E+03 0.  0.
          4    1    3    3  501    0  0.30498317717E+02  0.12024324867E+03  0.30336922262E+02  0.12771267747E+03  0.12700000000E+01 0. -1.
         -4    1    3    3    0  501  0.38872110014E+02 -0.91686429788E-01 -0.45190924362E+02  0.59622830258E+02  0.12700000000E+01 0. -1.
          2    1    1    2  502    0 -0.12214694244E+03 -0.89015983966E+02  0.42615903310E+03  0.45216727264E+03  0.00000000000E+00 0. -1.
          1    1    1    2  503    0  0.52776514708E+02 -0.31135578279E+02 -0.10485451875E+04  0.10503341349E+04  0.00000000000E+00 0. -1.
<mgrwt>
<rscale>  0 0.95394231E+02</rscale>
<asrwt>0</asrwt>
<pdfrwt beam="2">  1        2 0.17900593E+00 0.61276298E+02</pdfrwt>
<pdfrwt beam="1">  1        1 0.80968982E-01 0.14850863E+03</pdfrwt>
<totfact> 0.13475212E+02</totfact>
</mgrwt>
</event>
<event>
 7    1  0.4252091E-004  0.8346805E+02  0.7546771E-02  0.1327251E+00
          2   -1    0    0  503    0  0.00000000000E+00  0.00000000000E+00  0.11278239897E+04  0.11278239897E+04  0.00000000000E+00 0. -1.
          1   -1    0    0  502    0 -0.00000000000E+00 -0.00000000000E+00 -0.59185622658E+03  0.59185622658E+03  0.00000000000E+00 0. -1.
         25    2    1    2    0    0  0.79640250764E+02  0.10754925498E+03  0.36739489523E+03  0.41050351797E+03  0.12499886973E+03 0.  0.
          4    1    3    3  501    0  0.22487801873E+02 -0.10336709567E+02  0.18089084241E+03  0.18258055364E+03  0.12700000000E+01 0. -1.
         -4    1    3    3    0  501  0.57152448891E+02  0.11788596455E+03  0.18650405281E+03  0.22792296433E+03  0.12700000000E+01 0. -1.
          2    1    1    2  502    0 -0.56915692729E+01 -0.83041904059E+02 -0.56519177950E+03  0.57128810543E+03  0.00000000000E+00 0. -1.
          1    1    1    2  503    0 -0.73948681491E+02 -0.24507350926E+02  0.73376464737E+03  0.73788859286E+03  0.00000000000E+00 0. -1.
<mgrwt>
<rscale>  0 0.80637996E+02</rscale>
<asrwt>0</asrwt>
<pdfrwt beam="1">  1        2 0.17351138E+00 0.77903901E+02</pdfrwt>
<pdfrwt beam="2">  1        1 0.91054804E-01 0.83468046E+02</pdfrwt>
<totfact> 0.12083630E+02</totfact>
</mgrwt>
</event>
<event>
 7    1  0.4252091E-004  0.8463945E+02  0.7546771E-02  0.1342784E+00
          1   -1    0    0  503    0  0.00000000000E+00  0.00000000000E+00  0.21371332611E+04  0.21371332611E+04  0.00000000000E+00 0. -1.
         -1   -1    0    0    0  501 -0.00000000000E+00 -0.00000000000E+00 -0.88486434247E+03  0.88486434247E+03  0.00000000000E+00 0.  1.
         25    2    1    2    0    0 -0.42794466412E+02 -0.10640414825E+03 -0.20939137490E+03  0.26948736074E+03  0.12500192237E+03 0.  0.
          4    1    3    3  502    0 -0.77795620984E+02 -0.33175866158E+02 -0.13542158603E+03  0.15966657635E+03  0.12700000000E+01 0.  1.
         -4    1    3    3    0  502  0.35001154572E+02 -0.73228282088E+02 -0.73969788871E+02  0.10982078439E+03  0.12700000000E+01 0.  1.
          2    1    1    2  503    0 -0.19793666428E+02  0.82259981667E+02  0.21044898083E+04  0.21061898886E+04  0.00000000000E+00 0. -1.
         -2    1    1    2    0  501  0.62588132840E+02  0.24144166579E+02 -0.64282951477E+03  0.64632035417E+03  0.00000000000E+00 0.  1.
<mgrwt>
<rscale>  0 0.75351993E+02</rscale>
<asrwt>0</asrwt>
<pdfrwt beam="1">  1        1 0.32878973E+00 0.84639453E+02</pdfrwt>
<pdfrwt beam="2">  1       -1 0.13613298E+00 0.67083643E+02</pdfrwt>
<totfact> 0.17068791E+00</totfact>
</mgrwt>
</event>
<event>
 7    1  0.4252091E-004  0.4951445E+02  0.7546771E-02  0.1536449E+00
          1   -1    0    0  502    0 -0.00000000000E+00  0.00000000000E+00  0.11149238375E+04  0.11149238375E+04  0.00000000000E+00 0. -1.
          2   -1    0    0  503    0  0.00000000000E+00 -0.00000000000E+00 -0.10715698023E+03  0.10715698023E+03  0.00000000000E+00 0. -1.
         25    2    1    2    0    0 -0.41652272198E+02  0.62629735674E+02  0.20982730592E+03  0.25555822418E+03  0.12500044825E+03 0.  0.
          4    1    3    3  501    0 -0.65433767359E+02  0.83189534757E+02  0.11813210671E+03  0.15861552301E+03  0.12700000000E+01 0. -1.
         -4    1    3    3    0  501  0.23781495161E+02 -0.20559799083E+02  0.91695199219E+02  0.96942701170E+02  0.12700000000E+01 0. -1.
          2    1    1    2  502    0  0.24201497828E+02 -0.42330137614E+02  0.87941316083E+03  0.88076390735E+03  0.00000000000E+00 0. -1.
          1    1    1    2  503    0  0.17450774370E+02 -0.20299598060E+02 -0.81473609513E+02  0.85758686176E+02  0.00000000000E+00 0. -1.
<mgrwt>
<rscale>  0 0.36407065E+02</rscale>
<asrwt>0</asrwt>
<pdfrwt beam="2">  1        2 0.16485690E-01 0.26769445E+02</pdfrwt>
<pdfrwt beam="1">  1        1 0.17152674E+00 0.49514450E+02</pdfrwt>
<totfact> 0.63065118E+02</totfact>
</mgrwt>
</event>
<event>
 7    1  0.4252091E-004  0.6485834E+02  0.7546771E-02  0.1508268E+00
          2   -1    0    0  503    0  0.00000000000E+00  0.00000000000E+00  0.17564940194E+04  0.17564940194E+04  0.00000000000E+00 0. -1.
         -2   -1    0    0    0  501 -0.00000000000E+00 -0.00000000000E+00 -0.56237362449E+02  0.56237362449E+02  0.00000000000E+00 0.  1.
         25    2    1    2    0    0  0.49254918660E+02 -0.28502914738E+01  0.33438600829E+03  0.36038043196E+03  0.12500352806E+03 0.  0.
          4    1    3    3  502    0  0.28473546486E+02  0.57485909409E+02  0.11266171191E+03  0.12965202220E+03  0.12700000000E+01 0. -1.
         -4    1    3    3    0  502  0.20781372174E+02 -0.60336200883E+02  0.22172429637E+03  0.23072840976E+03  0.12700000000E+01 0. -1.
          1    1    1    2  503    0 -0.61244096138E+02  0.24399246427E+02  0.14047579360E+04  0.14063040287E+04  0.00000000000E+00 0. -1.
         -1    1    1    2    0  501  0.11989177478E+02 -0.21548954953E+02 -0.38887287297E+02  0.46046921173E+02  0.00000000000E+00 0.  1.
<mgrwt>
<rscale>  0 0.39992290E+02</rscale>
<asrwt>0</asrwt>
<pdfrwt beam="1">  1        2 0.27022981E+00 0.64858339E+02</pdfrwt>
<pdfrwt beam="2">  1       -2 0.86519033E-02 0.24659640E+02</pdfrwt>
<totfact> 0.78913208E+02</totfact>
</mgrwt>
</event>
<event>
 7    1  0.4252091E-004  0.8777903E+02  0.7546771E-02  0.1331876E+00
          2   -1    0    0  503    0  0.00000000000E+00  0.00000000000E+00  0.16192243138E+04  0.16192243138E+04  0.00000000000E+00 0. -1.
          1   -1    0    0  502    0 -0.00000000000E+00 -0.00000000000E+00 -0.43755297420E+03  0.43755297420E+03  0.00000000000E+00 0. -1.
         25    2    1    2    0    0  0.10541282485E+03  0.10612504590E+03  0.51326280016E+03  0.54903314477E+03  0.12499721206E+03 0.  0.
          4    1    3    3  501    0  0.10092286962E+03  0.95301887460E+02  0.25362708338E+03  0.28913004978E+03  0.12700000000E+01 0. -1.
         -4    1    3    3    0  501  0.44899552322E+01  0.10823158440E+02  0.25963571678E+03  0.25990309499E+03  0.12700000000E+01 0. -1.
          2    1    1    2  502    0 -0.40336290082E+02 -0.77429854291E+02 -0.41394729346E+03  0.42305408685E+03  0.00000000000E+00 0. -1.
          1    1    1    2  503    0 -0.65076534766E+02 -0.28695191608E+02  0.10823558329E+04  0.10846900563E+04  0.00000000000E+00 0. -1.
<mgrwt>
<rscale>  0 0.79012906E+02</rscale>
<asrwt>0</asrwt>
<pdfrwt beam="1">  1        2 0.24911143E+00 0.71122215E+02</pdfrwt>
<pdfrwt beam="2">  1        1 0.67315843E-01 0.87779033E+02</pdfrwt>
<totfact> 0.99698280E+01</totfact>
</mgrwt>
</event>
<event>
 7    1  0.4252091E-004  0.8630447E+02  0.7546771E-02  0.1367842E+00
         -2   -1    0    0    0  501 -0.00000000000E+00  0.00000000000E+00  0.51361444904E+02  0.51361444904E+02  0.00000000000E+00 0.  1.
          2   -1    0    0  503    0  0.00000000000E+00 -0.00000000000E+00 -0.30682116903E+04  0.30682116903E+04  0.00000000000E+00 0. -1.
         25    2    1    2    0    0  0.48076941559E+02 -0.44618361948E+02 -0.14223992076E+03  0.20040277782E+03  0.12500755083E+03 0.  0.
          4    1    3    3  502    0  0.88656232867E+02 -0.27053143769E+02 -0.11767875611E+03  0.14980554981E+03  0.12700000000E+01 0.  1.
         -4    1    3    3    0  502 -0.40579291308E+02 -0.17565218179E+02 -0.24561164653E+02  0.50597228006E+02  0.12700000000E+01 0.  1.
          1    1    1    2  503    0 -0.86710916380E+02  0.80194677978E+01 -0.28634774024E+04  0.28648012023E+04  0.00000000000E+00 0. -1.
         -1    1    1    2    0  501  0.38633974820E+02  0.36598894151E+02 -0.11132922237E+02  0.54369155051E+02  0.00000000000E+00 0.  1.
<mgrwt>
<rscale>  0 0.67770762E+02</rscale>
<asrwt>0</asrwt>
<pdfrwt beam="2">  1        2 0.47203257E+00 0.86304467E+02</pdfrwt>
<pdfrwt beam="1">  1       -2 0.79017608E-02 0.53217131E+02</pdfrwt>
<totfact> 0.19453980E+02</totfact>
</mgrwt>
</event>
<event>
 7    1  0.4252091E-004  0.1156328E+03  0.7546771E-02  0.1309418E+00
         -2   -1    0    0    0  501  0.00000000000E+00  0.00000000000E+00  0.98590814861E+02  0.98590814861E+02  0.00000000000E+00 0.  1.
         -1   -1    0    0    0  502 -0.00000000000E+00 -0.00000000000E+00 -0.48861243192E+03  0.48861243192E+03  0.00000000000E+00 0.  1.
         25    2    1    2    0    0 -0.18195759269E+01  0.90786572901E+02 -0.32129560295E+03  0.35651439991E+03  0.12500456069E+03 0.  0.
          4    1    3    3  503    0  0.12858306518E+02  0.25444964157E+02 -0.27163819240E+03  0.27313312270E+03  0.12700000000E+01 0.  1.
         -4    1    3    3    0  503 -0.14677882445E+02  0.65341608744E+02 -0.49657410548E+02  0.83381277207E+02  0.12700000000E+01 0.  1.
         -2    1    1    2    0  502 -0.65117181819E+02  0.10595191298E+02 -0.85560598582E+02  0.10804222080E+03  0.00000000000E+00 0.  1.
         -1    1    1    2    0  501  0.66936757746E+02 -0.10138176420E+03  0.16834584476E+02  0.12264662606E+03  0.00000000000E+00 0.  1.
<mgrwt>
<rscale>  0 0.87342455E+02</rscale>
<asrwt>0</asrwt>
<pdfrwt beam="1">  1       -2 0.15167818E-01 0.11563282E+03</pdfrwt>
<pdfrwt beam="2">  1       -1 0.75171142E-01 0.65973521E+02</pdfrwt>
<totfact> 0.46304601E+02</totfact>
</mgrwt>
</event>
<event>
 7    1  0.4252091E-004  0.7869597E+02  0.7546771E-02  0.1419646E+00
         -1   -1    0    0    0  501 -0.00000000000E+00  0.00000000000E+00  0.63445371793E+03  0.63445371793E+03  0.00000000000E+00 0.  1.
          1   -1    0    0  503    0  0.00000000000E+00 -0.00000000000E+00 -0.19463379520E+04  0.19463379520E+04  0.00000000000E+00 0. -1.
         25    2    1    2    0    0  0.52768515860E+02  0.12512348255E+02 -0.32898462025E+03  0.35608609382E+03  0.12500140288E+03 0.  0.
          4    1    3    3  502    0  0.62425978858E+02  0.57077095622E+02 -0.15920339714E+03  0.18028347745E+03  0.12700000000E+01 0. -1.
         -4    1    3    3    0  502 -0.96574629985E+01 -0.44564747367E+02 -0.16978122311E+03  0.17580261637E+03  0.12700000000E+01 0. -1.
          2    1    1    2  503    0  0.24171343826E+02 -0.30060716096E+02 -0.16010618477E+04  0.16015264408E+04  0.00000000000E+00 0. -1.
         -2    1    1    2    0  501 -0.76939859686E+02  0.17548367841E+02  0.61816223389E+03  0.62317913527E+03  0.00000000000E+00 0.  1.
<mgrwt>
<rscale>  0 0.55095955E+02</rscale>
<asrwt>0</asrwt>
<pdfrwt beam="2">  1        1 0.29943661E+00 0.38573314E+02</pdfrwt>
<pdfrwt beam="1">  1       -1 0.97608264E-01 0.78695968E+02</pdfrwt>
<totfact> 0.52730612E+00</totfact>
</mgrwt>
</event>
<event>
 7    1  0.4252091E-004  0.1497904E+03  0.7546771E-02  0.1374142E+00
          2   -1    0    0  503    0  0.00000000000E+00  0.00000000000E+00  0.96929605954E+03  0.96929605954E+03  0.00000000000E+00 0. -1.
         -2   -1    0    0    0  501 -0.00000000000E+00 -0.00000000000E+00 -0.18505335378E+03  0.18505335378E+03  0.00000000000E+00 0.  1.
         25    2    1    2    0    0  0.12704265062E+03 -0.62131195477E+02  0.17476241526E+03  0.25722955540E+03  0.12500008741E+03 0.  0.
          4    1    3    3  502    0  0.57737047142E+02 -0.95599632419E+02  0.99698068802E+02  0.14971364051E+03  0.12700000000E+01 0. -1.
         -4    1    3    3    0  502  0.69305603479E+02  0.33468436943E+02  0.75064346462E+02  0.10751591489E+03  0.12700000000E+01 0. -1.
          1    1    1    2  503    0 -0.12161784307E+03  0.90727359846E+02  0.74408833986E+03  0.75940095542E+03  0.00000000000E+00 0. -1.
         -1    1    1    2    0  501 -0.54248075542E+01 -0.28596164370E+02 -0.13460804936E+03  0.13771890250E+03  0.00000000000E+00 0.  1.
<mgrwt>
<rscale>  0 0.66028974E+02</rscale>
<asrwt>0</asrwt>
<pdfrwt beam="1">  1        2 0.14912247E+00 0.14979042E+03</pdfrwt>
<pdfrwt beam="2">  1       -2 0.28469747E-01 0.29106170E+02</pdfrwt>
<totfact> 0.30165668E+02</totfact>
</mgrwt>
</event>
<event>
 7    1  0.4252091E-004  0.6935410E+02  0.7546771E-02  0.1463487E+00
         -2   -1    0    0    0  501 -0.00000000000E+00  0.00000000000E+00  0.44910808110E+03  0.44910808110E+03  0.00000000000E+00 0.  1.
          2   -1    0    0  503    0  0.00000000000E+00 -0.00000000000E+00 -0.47376726735E+03  0.47376726735E+03  0.00000000000E+00 0. -1.
         25    2    1    2    0    0 -0.19977350555E+02 -0.49393453312E+02 -0.18020954267E+03  0.22569836154E+03  0.12500185346E+03 0.  0.
          4    1    3    3  502    0 -0.46730227869E+00 -0.62429868001E+02 -0.22695339289E+02  0.66440937046E+02  0.12700000000E+01 0.  1.
         -4    1    3    3    0  502 -0.19510048276E+02  0.13036414689E+02 -0.15751420338E+03  0.15925742450E+03  0.12700000000E+01 0.  1.
          1    1    1    2  503    0  0.51355474890E+02  0.52798521875E+02 -0.26520316206E+03  0.27524132299E+03  0.00000000000E+00 0. -1.
         -1    1    1    2    0  501 -0.31378124335E+02 -0.34050685623E+01  0.42075351848E+03  0.42193566392E+03  0.00000000000E+00 0.  1.
<mgrwt>
<rscale>  0 0.46786512E+02</rscale>
<asrwt>0</asrwt>
<pdfrwt beam="2">  1        2 0.72887272E-01 0.69354104E+02</pdfrwt>
<pdfrwt beam="1">  1       -2 0.69093551E-01 0.31562338E+02</pdfrwt>
<totfact> 0.13641289E+02</totfact>
</mgrwt>
</event>
<event>
 7    1  0.4252091E-004  0.1488373E+03  0.7546771E-02  0.1283372E+00
          2   -1    0    0  503    0  0.00000000000E+00  0.00000000000E+00  0.19579171170E+03  0.19579171170E+03  0.00000000000E+00 0. -1.
          1   -1    0    0  502    0 -0.00000000000E+00 -0.00000000000E+00 -0.85845278049E+03  0.85845278049E+03  0.00000000000E+00 0. -1.
         25    2    1    2    0    0  0.11240157069E+03  0.11785910600E+03 -0.19572390347E+03  0.28364973669E+03  0.12499777907E+03 0.  0.
          4    1    3    3  501    0  0.37983282175E+02  0.69290117980E+02 -0.12502592866E+02  0.80011111121E+02  0.12700000000E+01 0.  1.
         -4    1    3    3    0  501  0.74418288511E+02  0.48568988025E+02 -0.18322131060E+03  0.20363862557E+03  0.12700000000E+01 0.  1.
          2    1    1    2  502    0 -0.50769054654E+02 -0.13929785569E+03 -0.60232379271E+03  0.62030262032E+03  0.00000000000E+00 0. -1.
          1    1    1    2  503    0 -0.61632516032E+02  0.21438749687E+02  0.13538662740E+03  0.15029213518E+03  0.00000000000E+00 0. -1.
<mgrwt>
<rscale>  0 0.98551239E+02</rscale>
<asrwt>0</asrwt>
<pdfrwt beam="1">  1        2 0.30121802E-01 0.65254785E+02</pdfrwt>
<pdfrwt beam="2">  1        1 0.13206966E+00 0.14883731E+03</pdfrwt>
<totfact> 0.49162807E+02</totfact>
</mgrwt>
</event>
<event>
 7    1  0.4252091E-004  0.6117216E+02  0.7546771E-02  0.1450727E+00
         -2   -1    0    0    0  501 -0.00000000000E+00  0.00000000000E+00  0.50343808597E+01  0.50343808597E+01  0.00000000000E+00 0.  1.
          2   -1    0    0  503    0  0.00000000000E+00 -0.00000000000E+00 -0.33079491073E+04  0.33079491073E+04  0.00000000000E+00 0. -1.
         25    2    1    2    0    0  0.30014129845E+02 -0.42486681843E+02 -0.12515769271E+04  0.12588786749E+04  0.12499899078E+03 0.  0.
          4    1    3    3  502    0 -0.14314565823E+02  0.15730490683E+02 -0.42051645241E+02  0.47141371420E+02  0.12700000000E+01 0. -1.
         -4    1    3    3    0  502  0.44328695668E+02 -0.58217172527E+02 -0.12095252818E+04  0.12117373035E+04  0.12700000000E+01 0. -1.
          1    1    1    2  503    0  0.23683884348E+01  0.64709065188E+02 -0.14820608602E+04  0.14834747271E+04  0.00000000000E+00 0. -1.
         -1    1    1    2    0  501 -0.32382518280E+02 -0.22222383345E+02 -0.56927693917E+03  0.57063008620E+03  0.00000000000E+00 0.  1.
<mgrwt>
<rscale>  0 0.49015169E+02</rscale>
<asrwt>0</asrwt>
<pdfrwt beam="2">  1        2 0.50891610E+00 0.61172158E+02</pdfrwt>
<pdfrwt beam="1">  1       -2 0.77451883E-03 0.39274188E+02</pdfrwt>
<totfact> 0.38925683E+03</totfact>
</mgrwt>
</event>
<event>
 7    1  0.4252091E-004  0.1361207E+03  0.7546771E-02  0.1415363E+00
          2   -1    0    0  503    0  0.00000000000E+00  0.00000000000E+00  0.13657168723E+04  0.13657168723E+04  0.00000000000E+00 0. -1.
          1   -1    0    0  502    0 -0.00000000000E+00 -0.00000000000E+00 -0.46225129982E+03  0.46225129982E+03  0.00000000000E+00 0. -1.
         25    2    1    2    0    0 -0.64128613029E+02  0.95246813145E+02  0.81827305671E+02  0.18842103745E+03  0.12498937945E+03 0.  0.
          4    1    3    3  501    0 -0.14224345936E+02  0.88113770321E+02 -0.34715810020E+01  0.89331032190E+02  0.12700000000E+01 0.  1.
         -4    1    3    3    0  501 -0.49904267093E+02  0.71330428234E+01  0.85298886673E+02  0.99090005256E+02  0.12700000000E+01 0.  1.
          2    1    1    2  502    0 -0.99019766713E+01  0.20814677299E+02 -0.40477559574E+03  0.40543135404E+03  0.00000000000E+00 0. -1.
          1    1    1    2  503    0  0.74030589701E+02 -0.11606149044E+03  0.12264138625E+04  0.12341157806E+04  0.00000000000E+00 0. -1.
<mgrwt>
<rscale>  0 0.56014050E+02</rscale>
<asrwt>0</asrwt>
<pdfrwt beam="1">  1        2 0.21011029E+00 0.13612067E+03</pdfrwt>
<pdfrwt beam="2">  1        1 0.71115585E-01 0.23049944E+02</pdfrwt>
<totfact> 0.12192201E+02</totfact>
</mgrwt>
</event>
<event>
 7    1  0.4252091E-004  0.7127088E+02  0.7546771E-02  0.1399532E+00
          1   -1    0    0  502    0 -0.00000000000E+00  0.00000000000E+00  0.25669187537E+03  0.25669187537E+03  0.00000000000E+00 0. -1.
          2   -1    0    0  503    0  0.00000000000E+00 -0.00000000000E+00 -0.17669471201E+03  0.17669471201E+03  0.00000000000E+00 0. -1.
         25    2    1    2    0    0 -0.34574143151E+02  0.34864932968E+02  0.12167720574E+03  0.18122089113E+03  0.12499893623E+03 0.  0.
          4    1    3    3  501    0 -0.35188118775E+02 -0.35501048862E+02  0.92263972035E+02  0.10494180106E+03  0.12700000000E+01 0.  1.
         -4    1    3    3    0  501  0.61397562444E+00  0.70365981831E+02  0.29413233708E+02  0.76279090072E+02  0.12700000000E+01 0.  1.
          2    1    1    2  502    0  0.83886059892E+02 -0.27665979157E+02  0.80939604271E+02  0.11980608076E+03  0.00000000000E+00 0. -1.
          1    1    1    2  503    0 -0.49311916741E+02 -0.71989538114E+01 -0.12261964665E+03  0.13235961550E+03  0.00000000000E+00 0. -1.
<mgrwt>
<rscale>  0 0.59596624E+02</rscale>
<asrwt>0</asrwt>
<pdfrwt beam="2">  1        2 0.27183802E-01 0.49834627E+02</pdfrwt>
<pdfrwt beam="1">  1        1 0.39491058E-01 0.71270876E+02</pdfrwt>
<totfact> 0.26891961E+03</totfact>
</mgrwt>
</event>
<event>
 7    1  0.4252091E-004  0.8132969E+02  0.7546771E-02  0.1350560E+00
          1   -1    0    0  502    0 -0.00000000000E+00  0.00000000000E+00  0.12400104144E+03  0.12400104144E+03  0.00000000000E+00 0. -1.
          2   -1    0    0  503    0  0.00000000000E+00 -0.00000000000E+00 -0.10915993745E+04  0.10915993745E+04  0.00000000000E+00 0. -1.
         25    2    1    2    0    0 -0.25992402581E+02  0.10771820530E+02 -0.26918727953E+03  0.29812329907E+03  0.12499629145E+03 0.  0.
          4    1    3    3  501    0  0.29891880308E+02 -0.41306596796E+02 -0.12354428708E+03  0.13365838252E+03  0.12700000000E+01 0. -1.
         -4    1    3    3    0  501 -0.55884282889E+02  0.52078417327E+02 -0.14564299245E+03  0.16446491655E+03  0.12700000000E+01 0. -1.
          2    1    1    2  502    0 -0.65051321527E+02 -0.58165582229E+01  0.96955647750E+02  0.11690125924E+03  0.00000000000E+00 0. -1.
          1    1    1    2  503    0  0.91043724108E+02 -0.49552623076E+01 -0.79536670126E+03  0.80057585762E+03  0.00000000000E+00 0. -1.
<mgrwt>
<rscale>  0 0.72881486E+02</rscale>
<asrwt>0</asrwt>
<pdfrwt beam="2">  1        2 0.16793836E+00 0.81329690E+02</pdfrwt>
<pdfrwt beam="1">  1        1 0.19077084E-01 0.65310847E+02</pdfrwt>
<totfact> 0.86925019E+02</totfact>
</mgrwt>
</event>
<event>
 7    1  0.4252091E-004  0.6407665E+02  0.7546771E-02  0.1534576E+00
          2   -1    0    0  503    0  0.00000000000E+00  0.00000000000E+00  0.15868723274E+04  0.15868723274E+04  0.00000000000E+00 0. -1.
         -2   -1    0    0    0  501 -0.00000000000E+00 -0.00000000000E+00 -0.61525661709E+02  0.61525661709E+02  0.00000000000E+00 0.  1.
         25    2    1    2    0    0  0.42796177496E+02  0.13368124405E+02  0.83824054091E+02  0.15703134366E+03  0.12498860464E+03 0.  0.
          4    1    3    3  502    0  0.18514386703E+02  0.47934616862E+02 -0.11576429699E+02  0.52689056105E+02  0.12700000000E+01 0. -1.
         -4    1    3    3    0  502  0.24281790793E+02 -0.34566492457E+02  0.95400483790E+02  0.10434228756E+03  0.12700000000E+01 0. -1.
          1    1    1    2  503    0 -0.58348619208E+02 -0.27391303348E+02  0.14612060198E+04  0.14626270465E+04  0.00000000000E+00 0. -1.
         -1    1    1    2    0  501  0.15552441712E+02  0.14023178943E+02 -0.19683408182E+02  0.28739598963E+02  0.00000000000E+00 0.  1.
<mgrwt>
<rscale>  0 0.36631038E+02</rscale>
<asrwt>0</asrwt>
<pdfrwt beam="1">  1        2 0.24413417E+00 0.64076650E+02</pdfrwt>
<pdfrwt beam="2">  1       -2 0.94654876E-02 0.20941060E+02</pdfrwt>
<totfact> 0.82420111E+02</totfact>
</mgrwt>
</event>
<event>
 7    1  0.4252091E-004  0.8002459E+02  0.7546771E-02  0.1407552E+00
          1   -1    0    0  502    0 -0.00000000000E+00  0.00000000000E+00  0.19410954937E+04  0.19410954937E+04  0.00000000000E+00 0. -1.
          2   -1    0    0  503    0  0.00000000000E+00 -0.00000000000E+00 -0.60824675320E+03  0.60824675320E+03  0.00000000000E+00 0. -1.
         25    2    1    2    0    0  0.43898838132E+02 -0.52444390890E+02 -0.25924991634E+03  0.29582653150E+03  0.12500118196E+03 0.  0.
          4    1    3    3  501    0 -0.27691279620E+02 -0.57506870170E+02 -0.77450012572E+02  0.10036914083E+03  0.12700000000E+01 0.  1.
         -4    1    3    3    0  501  0.71590117753E+02  0.50624792801E+01 -0.18179990377E+03  0.19545739067E+03  0.12700000000E+01 0.  1.
          2    1    1    2  502    0  0.35840319705E+02  0.21249616511E+02  0.19170347883E+04  0.19174875369E+04  0.00000000000E+00 0. -1.
          1    1    1    2  503    0 -0.79739157837E+02  0.31194774379E+02 -0.32493613143E+03  0.33602817850E+03  0.00000000000E+00 0. -1.
<mgrwt>
<rscale>  0 0.57743598E+02</rscale>
<asrwt>0</asrwt>
<pdfrwt beam="2">  1        2 0.93576424E-01 0.80024592E+02</pdfrwt>
<pdfrwt beam="1">  1        1 0.29863007E+00 0.41666230E+02</pdfrwt>
<totfact> 0.32369457E+01</totfact>
</mgrwt>
</event>
<event>
 7    1  0.4252091E-004  0.3804603E+02  0.7546771E-02  0.1537681E+00
          1   -1    0    0  502    0 -0.00000000000E+00  0.00000000000E+00  0.66942627356E+03  0.66942627356E+03  0.00000000000E+00 0. -1.
          2   -1    0    0  503    0  0.00000000000E+00 -0.00000000000E+00 -0.28572342672E+04  0.28572342672E+04  0.00000000000E+00 0. -1.
         25    2    1    2    0    0  0.21007686888E+02 -0.10590590606E+02 -0.12679519226E+04  0.12743185645E+04  0.12502896556E+03 0.  0.
          4    1    3    3  501    0  0.54522120054E+02  0.38108320872E+02 -0.57108437286E+03  0.57494684930E+03  0.12700000000E+01 0. -1.
         -4    1    3    3    0  501 -0.33514433166E+02 -0.48698911478E+02 -0.69686754975E+03  0.69937171519E+03  0.12700000000E+01 0. -1.
          2    1    1    2  502    0 -0.18177252621E+02 -0.29392737640E+02  0.66554130251E+03  0.66643797227E+03  0.00000000000E+00 0. -1.
          1    1    1    2  503    0 -0.28304342671E+01  0.39983328246E+02 -0.15853973735E+04  0.15859040040E+04  0.00000000000E+00 0. -1.
<mgrwt>
<rscale>  0 0.36260782E+02</rscale>
<asrwt>0</asrwt>
<pdfrwt beam="2">  1        2 0.43957450E+00 0.38046029E+02</pdfrwt>
<pdfrwt beam="1">  1        1 0.10298866E+00 0.34559305E+02</pdfrwt>
<totfact> 0.15357768E+01</totfact>
</mgrwt>
</event>
<event>
 7    1  0.4252091E-004  0.5515944E+02  0.7546771E-02  0.1462573E+00
          2   -1    0    0  503    0  0.00000000000E+00  0.00000000000E+00  0.79449026200E+03  0.79449026200E+03  0.00000000000E+00 0. -1.
          1   -1    0    0  502    0 -0.00000000000E+00 -0.00000000000E+00 -0.31429847068E+02  0.31429847068E+02  0.00000000000E+00 0. -1.
         25    2    1    2    0    0 -0.14280414034E+02 -0.28277183317E+02  0.35489730807E+03  0.37759574899E+03  0.12499168395E+03 0.  0.
          4    1    3    3  501    0 -0.27194537890E+01  0.10365782242E+00  0.34550549291E+03  0.34551854466E+03  0.12700000000E+01 0.  1.
         -4    1    3    3    0  501 -0.11560960245E+02 -0.28380841140E+02  0.93918151638E+01  0.32077204330E+02  0.12700000000E+01 0.  1.
          2    1    1    2  502    0  0.53963814619E+02  0.23687903210E+02  0.26571032272E+02  0.64646962827E+02  0.00000000000E+00 0. -1.
          1    1    1    2  503    0 -0.39683400585E+02  0.45892801067E+01  0.38159207458E+03  0.38367739725E+03  0.00000000000E+00 0. -1.
<mgrwt>
<rscale>  0 0.46941488E+02</rscale>
<asrwt>0</asrwt>
<pdfrwt beam="1">  1        2 0.12222926E+00 0.39947888E+02</pdfrwt>
<pdfrwt beam="2">  1        1 0.48353617E-02 0.55159443E+02</pdfrwt>
<totfact> 0.78525030E+03</totfact>
</mgrwt>
</event>
<event>
 7    1  0.4252091E-004  0.1926021E+03  0.7546771E-02  0.1206804E+00
          2   -1    0    0  503    0  0.00000000000E+00  0.00000000000E+00  0.14629013120E+04  0.14629013120E+04  0.00000000000E+00 0. -1.
         -2   -1    0    0    0  501 -0.00000000000E+00 -0.00000000000E+00 -0.80506342375E+02  0.80506342375E+02  0.00000000000E+00 0.  1.
         25    2    1    2    0    0  0.69676807331E+02  0.14808741516E+03  0.90209290929E+03  0.92530071177E+03  0.12500020080E+03 0.  0.
          4    1    3    3  502    0  0.67022133315E+02  0.58565813115E+02  0.68038647885E+03  0.68618459202E+03  0.12700000000E+01 0.  1.
         -4    1    3    3    0  502  0.26546740155E+01  0.89521602045E+02  0.22170643044E+03  0.23911611975E+03  0.12700000000E+01 0.  1.
          1    1    1    2  503    0 -0.95777613710E+02  0.52256960838E+02  0.37444596922E+03  0.39001785229E+03  0.00000000000E+00 0. -1.
         -1    1    1    2    0  501  0.26100806379E+02 -0.20034437600E+03  0.10585609109E+03  0.22808909029E+03  0.00000000000E+00 0.  1.
<mgrwt>
<rscale>  0 0.14496230E+03</rscale>
<asrwt>0</asrwt>
<pdfrwt beam="1">  1        2 0.22506172E+00 0.10910610E+03</pdfrwt>
<pdfrwt beam="2">  1       -2 0.12385592E-01 0.19260214E+03</pdfrwt>
<totfact> 0.70942389E+02</totfact>
</mgrwt>
</event>
<event>
 7    1  0.4252091E-004  0.7921903E+02  0.7546771E-02  0.1398278E+00
          2   -1    0    0  503    0  0.00000000000E+00  0.00000000000E+00  0.56356328400E+03  0.56356328400E+03  0.00000000000E+00 0. -1.
          1   -1    0    0  502    0 -0.00000000000E+00 -0.00000000000E+00 -0.28777942164E+03  0.28777942164E+03  0.00000000000E+00 0. -1.
         25    2    1    2    0    0  0.92540497254E+02 -0.80630261528E+02  0.18426548116E+03  0.25425361952E+03  0.12500461105E+03 0.  0.
          4    1    3    3  501    0  0.40465619896E+02  0.15055747370E+02  0.12052491397E+03  0.12803128411E+03  0.12700000000E+01 0.  1.
         -4    1    3    3    0  501  0.52074877357E+02 -0.95686008898E+02  0.63740567191E+02  0.12622233541E+03  0.12700000000E+01 0.  1.
          2    1    1    2  502    0 -0.62415243083E+02  0.46822060958E+02 -0.24521259482E+03  0.25732699940E+03  0.00000000000E+00 0. -1.
          1    1    1    2  503    0 -0.30125254171E+02  0.33808200570E+02  0.33673097602E+03  0.33976208672E+03  0.00000000000E+00 0. -1.
<mgrwt>
<rscale>  0 0.59893688E+02</rscale>
<asrwt>0</asrwt>
<pdfrwt beam="1">  1        2 0.86702043E-01 0.45282727E+02</pdfrwt>
<pdfrwt beam="2">  1        1 0.44273757E-01 0.79219032E+02</pdfrwt>
<totfact> 0.70655194E+02</totfact>
</mgrwt>
</event>
<event>
 7    1  0.4252091E-004  0.7462347E+02  0.7546771E-02  0.1362527E+00
          2   -1    0    0  503    0  0.00000000000E+00  0.00000000000E+00  0.13132599581E+03  0.13132599581E+03  0.00000000000E+00 0. -1.
         -2   -1    0    0    0  501 -0.00000000000E+00 -0.00000000000E+00 -0.46951778548E+03  0.46951778548E+03  0.00000000000E+00 0.  1.
         25    2    1    2    0    0 -0.28749726609E+02  0.27658861636E+01 -0.65497418419E+02  0.14404413629E+03  0.12499841788E+03 0.  0.
          4    1    3    3  502    0  0.35787272468E+02 -0.21532641429E+02 -0.62278838417E+02  0.74997667512E+02  0.12700000000E+01 0.  1.
         -4    1    3    3    0  502 -0.64536999077E+02  0.24298527592E+02 -0.32185800016E+01  0.69046468775E+02  0.12700000000E+01 0.  1.
          1    1    1    2  503    0  0.61060445415E+02 -0.58400407939E+02  0.69008741437E+02  0.10909258470E+03  0.00000000000E+00 0. -1.
         -1    1    1    2    0  501 -0.32310718806E+02  0.55634521776E+02 -0.34170311268E+03  0.34770706030E+03  0.00000000000E+00 0.  1.
<mgrwt>
<rscale>  0 0.69289330E+02</rscale>
<asrwt>0</asrwt>
<pdfrwt beam="1">  1        2 0.20203999E-01 0.74623469E+02</pdfrwt>
<pdfrwt beam="2">  1       -2 0.72233505E-01 0.64336479E+02</pdfrwt>
<totfact> 0.48045180E+02</totfact>
</mgrwt>
</event>
<event>
 7    1  0.4252091E-004  0.9033686E+02  0.7546771E-02  0.1342854E+00
          2   -1    0    0  503    0  0.00000000000E+00  0.00000000000E+00  0.11474491194E+04  0.11474491194E+04  0.00000000000E+00 0. -1.
         -2   -1    0    0    0  501 -0.00000000000E+00 -0.00000000000E+00 -0.24037783325E+03  0.24037783325E+03  0.00000000000E+00 0.  1.
         25    2    1    2    0    0  0.12876803396E+02  0.12200448571E+03  0.13868972713E+03  0.22338542225E+03  0.12496119343E+03 0.  0.
          4    1    3    3  502    0 -0.41574361255E+02  0.37211685084E+01  0.53106098929E+02  0.67558458037E+02  0.12700000000E+01 0. -1.
         -4    1    3    3    0  502  0.54451164651E+02  0.11828331720E+03  0.85583628202E+02  0.15582696422E+03  0.12700000000E+01 0. -1.
          1    1    1    2  503    0  0.38993479017E+02 -0.49246513884E+02  0.95524764329E+03  0.95731069698E+03  0.00000000000E+00 0. -1.
         -1    1    1    2    0  501 -0.51870282412E+02 -0.72757971827E+02 -0.18686608433E+03  0.20713083337E+03  0.00000000000E+00 0.  1.
<mgrwt>
<rscale>  0 0.75329279E+02</rscale>
<asrwt>0</asrwt>
<pdfrwt beam="1">  1        2 0.17653063E+00 0.62814891E+02</pdfrwt>
<pdfrwt beam="2">  1       -2 0.36981206E-01 0.90336865E+02</pdfrwt>
<totfact> 0.16185367E+02</totfact>
</mgrwt>
</event>
<event>
 7    1  0.4252091E-004  0.1727597E+03  0.7546771E-02  0.1272320E+00
          1   -1    0    0  502    0 -0.00000000000E+00  0.00000000000E+00  0.26713587680E+03  0.26713587680E+03  0.00000000000E+00 0. -1.
          2   -1    0    0  503    0  0.00000000000E+00 -0.00000000000E+00 -0.13061085989E+04  0.13061085989E+04  0.00000000000E+00 0. -1.
         25    2    1    2    0    0 -0.13969775634E+03 -0.23046306779E+02 -0.75606967377E+02  0.20343778284E+03  0.12499569028E+03 0.  0.
          4    1    3    3  501    0 -0.95349345779E+02  0.24453073091E+02  0.65715969566E+01  0.98662299338E+02  0.12700000000E+01 0. -1.
         -4    1    3    3    0  501 -0.44348410560E+02 -0.47499379870E+02 -0.82178564334E+02  0.10477548350E+03  0.12700000000E+01 0. -1.
          2    1    1    2  502    0  0.18204208729E+03 -0.22890456965E+02  0.16076328502E+03  0.24394287933E+03  0.00000000000E+00 0. -1.
          1    1    1    2  503    0 -0.42344330951E+02  0.45936763743E+02 -0.11241290398E+04  0.11258638136E+04  0.00000000000E+00 0. -1.
<mgrwt>
<rscale>  0 0.10389084E+03</rscale>
<asrwt>0</asrwt>
<pdfrwt beam="2">  1        2 0.20093979E+00 0.62475824E+02</pdfrwt>
<pdfrwt beam="1">  1        1 0.41097826E-01 0.17275973E+03</pdfrwt>
<totfact> 0.26692886E+02</totfact>
</mgrwt>
</event>
<event>
 7    1  0.4252091E-004  0.6208215E+02  0.7546771E-02  0.1525651E+00
         -2   -1    0    0    0  501 -0.00000000000E+00  0.00000000000E+00  0.62735486822E+02  0.62735486822E+02  0.00000000000E+00 0.  1.
          2   -1    0    0  503    0  0.00000000000E+00 -0.00000000000E+00 -0.31188416586E+03  0.31188416586E+03  0.00000000000E+00 0. -1.
         25    2    1    2    0    0  0.51844802221E+02  0.54070095548E+02 -0.74498464027E+02  0.16365956702E+03  0.12499189568E+03 0.  0.
          4    1    3    3  502    0  0.53567959599E+02  0.63666949640E+02 -0.10363472494E+03  0.13290890070E+03  0.12700000000E+01 0. -1.
         -4    1    3    3    0  502 -0.17231573772E+01 -0.95968540926E+01  0.29136260908E+02  0.30750666326E+02  0.12700000000E+01 0. -1.
          1    1    1    2  503    0 -0.37893645898E+01 -0.22609056733E+02 -0.14408224573E+03  0.14589455872E+03  0.00000000000E+00 0. -1.
         -1    1    1    2    0  501 -0.48055437632E+02 -0.31461038815E+02 -0.30567969280E+02  0.65065526934E+02  0.00000000000E+00 0.  1.
<mgrwt>
<rscale>  0 0.37725281E+02</rscale>
<asrwt>0</asrwt>
<pdfrwt beam="2">  1        2 0.47982179E-01 0.22924413E+02</pdfrwt>
<pdfrwt beam="1">  1       -2 0.96516135E-02 0.62082147E+02</pdfrwt>
<totfact> 0.65289333E+03</totfact>
</mgrwt>
</event>
<event>
 7    1  0.4252091E-004  0.1544131E+03  0.7546771E-02  0.1284283E+00
          2   -1    0    0  503    0  0.00000000000E+00  0.00000000000E+00  0.17680853191E+04  0.17680853191E+04  0.00000000000E+00 0. -1.
          1   -1    0    0  502    0 -0.00000000000E+00 -0.00000000000E+00 -0.73639339931E+02  0.73639339931E+02  0.00000000000E+00 0. -1.
         25    2    1    2    0    0 -0.49695336208E+01 -0.16585973942E+03  0.95677716986E+03  0.97907096743E+03  0.12499302810E+03 0.  0.
          4    1    3    3  501    0  0.43571982761E+02 -0.11283419549E+02  0.17686490462E+03  0.18250654954E+03  0.12700000000E+01 0.  1.
         -4    1    3    3    0  501 -0.48541516382E+02 -0.15457631987E+03  0.77991226524E+03  0.79656441789E+03  0.12700000000E+01 0.  1.
          2    1    1    2  502    0  0.57642945786E+02  0.23790298093E+02 -0.37532629453E+02  0.72783141976E+02  0.00000000000E+00 0. -1.
          1    1    1    2  503    0 -0.52673412165E+02  0.14206944133E+03  0.77520143876E+03  0.78987054962E+03  0.00000000000E+00 0. -1.
<mgrwt>
<rscale>  0 0.98127985E+02</rscale>
<asrwt>0</asrwt>
<pdfrwt beam="1">  1        2 0.27201309E+00 0.15441314E+03</pdfrwt>
<pdfrwt beam="2">  1        1 0.11329131E-01 0.62359342E+02</pdfrwt>
<totfact> 0.70349705E+02</totfact>
</mgrwt>
</event>
<event>
 7    1  0.4252091E-004  0.9189192E+02  0.7546771E-02  0.1371069E+00
          2   -1    0    0  503    0  0.00000000000E+00  0.00000000000E+00  0.38538789069E+04  0.38538789069E+04  0.00000000000E+00 0. -1.
          1   -1    0    0  502    0 -0.00000000000E+00 -0.00000000000E+00 -0.66967663906E+03  0.66967663906E+03  0.00000000000E+00 0. -1.
         25    2    1    2    0    0  0.22366466249E+02 -0.39628008265E+02  0.23901674103E+03  0.27354027666E+03  0.12499857044E+03 0.  0.
          4    1    3    3  501    0  0.14231800881E+01 -0.55820529731E+02  0.24059203074E+03  0.24699007093E+03  0.12700000000E+01 0. -1.
         -4    1    3    3    0  501  0.20943286161E+02  0.16192521467E+02 -0.15752897139E+01  0.26550205730E+02  0.12700000000E+01 0. -1.
          2    1    1    2  502    0  0.33005356663E+02 -0.35759114548E+02 -0.65089845444E+03  0.65271499587E+03  0.00000000000E+00 0. -1.
          1    1    1    2  503    0 -0.55371822911E+02  0.75387122813E+02  0.35960839813E+04  0.35973002735E+04  0.00000000000E+00 0. -1.
<mgrwt>
<rscale>  0 0.66870903E+02</rscale>
<asrwt>0</asrwt>
<pdfrwt beam="1">  1        2 0.59290444E+00 0.91891916E+02</pdfrwt>
<pdfrwt beam="2">  1        1 0.10302718E+00 0.48662797E+02</pdfrwt>
<totfact> 0.31520430E+00</totfact>
</mgrwt>
</event>
<event>
 7    1  0.4252091E-004  0.6602312E+02  0.7546771E-02  0.1413075E+00
          1   -1    0    0  502    0 -0.00000000000E+00  0.00000000000E+00  0.46532470893E+02  0.46532470893E+02  0.00000000000E+00 0. -1.
          2   -1    0    0  503    0  0.00000000000E+00 -0.00000000000E+00 -0.47589402938E+03  0.47589402938E+03  0.00000000000E+00 0. -1.
         25    2    1    2    0    0  0.59500603442E+02 -0.33562218982E+00 -0.23898968264E+03  0.27619572458E+03  0.12501030123E+03 0.  0.
          4    1    3    3  501    0  0.70694933606E+02  0.47287552278E+02 -0.11614639717E+03  0.14396348396E+03  0.12700000000E+01 0.  1.
         -4    1    3    3    0  501 -0.11194330163E+02 -0.47623174468E+02 -0.12284328547E+03  0.13223224062E+03  0.12700000000E+01 0.  1.
          2    1    1    2  502    0 -0.51524263403E+02 -0.47375422984E+02 -0.25638608554E+02  0.74542059743E+02  0.00000000000E+00 0. -1.
          1    1    1    2  503    0 -0.79763400393E+01  0.47711045174E+02 -0.16473326730E+03  0.17168871596E+03  0.00000000000E+00 0. -1.
<mgrwt>
<rscale>  0 0.56513266E+02</rscale>
<asrwt>0</asrwt>
<pdfrwt beam="2">  1        2 0.73214463E-01 0.48373193E+02</pdfrwt>
<pdfrwt beam="1">  1        1 0.71588420E-02 0.66023122E+02</pdfrwt>
<totfact> 0.82855197E+03</totfact>
</mgrwt>
</event>
<event>
 7    1  0.4252091E-004  0.1082913E+03  0.7546771E-02  0.1285029E+00
          1   -1    0    0  502    0 -0.00000000000E+00  0.00000000000E+00  0.22256430779E+04  0.22256430779E+04  0.00000000000E+00 0. -1.
          2   -1    0    0  503    0  0.00000000000E+00 -0.00000000000E+00 -0.12599385231E+03  0.12599385231E+03  0.00000000000E+00 0. -1.
         25    2    1    2    0    0 -0.26102304842E+02 -0.13879914445E+02 -0.42287165520E-02  0.12844739020E+03  0.12499899875E+03 0.  0.
          4    1    3    3  501    0  0.28314414869E+01 -0.66986853032E+02  0.75689399739E+01  0.67484496682E+02  0.12700000000E+01 0. -1.
         -4    1    3    3    0  501 -0.28933746329E+02  0.53106938587E+02 -0.75731686905E+01  0.60962893523E+02  0.12700000000E+01 0. -1.
          2    1    1    2  502    0  0.10886948096E+03 -0.16866890059E+02  0.21276985852E+04  0.21305488320E+04  0.00000000000E+00 0. -1.
          1    1    1    2  503    0 -0.82767176122E+02  0.30746804504E+02 -0.28045130862E+02  0.92640708090E+02  0.00000000000E+00 0. -1.
<mgrwt>
<rscale>  0 0.97782599E+02</rscale>
<asrwt>0</asrwt>
<pdfrwt beam="2">  1        2 0.19383671E-01 0.88293666E+02</pdfrwt>
<pdfrwt beam="1">  1        1 0.34240660E+00 0.10829131E+03</pdfrwt>
<totfact> 0.10195250E+02</totfact>
</mgrwt>
</event>
<event>
 7    1  0.4252091E-004  0.1238073E+03  0.7546771E-02  0.1352041E+00
          2   -1    0    0  503    0  0.00000000000E+00  0.00000000000E+00  0.10965187581E+04  0.10965187581E+04  0.00000000000E+00 0. -1.
          1   -1    0    0  502    0 -0.00000000000E+00 -0.00000000000E+00 -0.43386019493E+03  0.43386019493E+03  0.00000000000E+00 0. -1.
         25    2    1    2    0    0 -0.15810428273E+03 -0.39007888442E+02  0.16747274778E+03  0.26492640611E+03  0.12498119789E+03 0.  0.
          4    1    3    3  501    0 -0.40527034748E+01 -0.43690704550E+02  0.69801184262E+02  0.82456778338E+02  0.12700000000E+01 0.  1.
         -4    1    3    3    0  501 -0.15405157926E+03  0.46828161088E+01  0.97671563520E+02  0.18246962777E+03  0.12700000000E+01 0.  1.
          2    1    1    2  502    0  0.41384897359E+02  0.90613880768E+01 -0.37982658930E+03  0.38218196768E+03  0.00000000000E+00 0. -1.
          1    1    1    2  503    0  0.11671938538E+03  0.29946500365E+02  0.87501240470E+03  0.88327057926E+03  0.00000000000E+00 0. -1.
<mgrwt>
<rscale>  0 0.72423306E+02</rscale>
<asrwt>0</asrwt>
<pdfrwt beam="1">  1        2 0.16869519E+00 0.12380735E+03</pdfrwt>
<pdfrwt beam="2">  1        1 0.66747723E-01 0.42365298E+02</pdfrwt>
<totfact> 0.18446124E+02</totfact>
</mgrwt>
</event>
<event>
 7    1  0.4252091E-004  0.7503789E+02  0.7546771E-02  0.1419421E+00
          2   -1    0    0  503    0  0.00000000000E+00  0.00000000000E+00  0.29782775987E+03  0.29782775987E+03  0.00000000000E+00 0. -1.
         -2   -1    0    0    0  501 -0.00000000000E+00 -0.00000000000E+00 -0.47668799527E+03  0.47668799527E+03  0.00000000000E+00 0.  1.
         25    2    1    2    0    0 -0.46222072148E+02  0.50077441063E+01 -0.74847989134E+02  0.15296500523E+03  0.12503804978E+03 0.  0.
          4    1    3    3  502    0  0.20541603798E+02  0.44680937588E+02 -0.52928631423E+02  0.72259231899E+02  0.12700000000E+01 0.  1.
         -4    1    3    3    0  502 -0.66763675946E+02 -0.39673193482E+02 -0.21919357711E+02  0.80705773333E+02  0.12700000000E+01 0.  1.
          1    1    1    2  503    0  0.64812274928E+02 -0.41015883443E+02  0.25191056156E+03  0.26332843504E+03  0.00000000000E+00 0. -1.
         -1    1    1    2    0  501 -0.18590202780E+02  0.36008139337E+02 -0.35592280783E+03  0.35822231487E+03  0.00000000000E+00 0.  1.
<mgrwt>
<rscale>  0 0.55143665E+02</rscale>
<asrwt>0</asrwt>
<pdfrwt beam="1">  1        2 0.45819655E-01 0.75037894E+02</pdfrwt>
<pdfrwt beam="2">  1       -2 0.73336615E-01 0.40523842E+02</pdfrwt>
<totfact> 0.19539180E+02</totfact>
</mgrwt>
</event>
<event>
 7    1  0.4252091E-004  0.1138034E+03  0.7546771E-02  0.1294408E+00
          2   -1    0    0  503    0  0.00000000000E+00  0.00000000000E+00  0.45485106512E+04  0.45485106512E+04  0.00000000000E+00 0. -1.
         -2   -1    0    0    0  501 -0.00000000000E+00 -0.00000000000E+00 -0.22405113766E+03  0.22405113766E+03  0.00000000000E+00 0.  1.
         25    2    1    2    0    0  0.87476483194E+02 -0.91361416654E+02  0.65963620447E+02  0.18965989498E+03  0.12498253068E+03 0.  0.
          4    1    3    3  502    0  0.48845903782E+02  0.60959749534E+01  0.69006279491E+02  0.84773596928E+02  0.12700000000E+01 0. -1.
         -4    1    3    3    0  502  0.38630579412E+02 -0.97457391607E+02 -0.30426590439E+01  0.10488629805E+03  0.12700000000E+01 0. -1.
          1    1    1    2  503    0 -0.13669416829E+02  0.11312697838E+03  0.44107952193E+04  0.44122668814E+04  0.00000000000E+00 0. -1.
         -1    1    1    2    0  501 -0.73807066365E+02 -0.21765561726E+02 -0.15229932620E+03  0.17063501248E+03  0.00000000000E+00 0.  1.
<mgrwt>
<rscale>  0 0.93579436E+02</rscale>
<asrwt>0</asrwt>
<pdfrwt beam="1">  1        2 0.69977080E+00 0.11380338E+03</pdfrwt>
<pdfrwt beam="2">  1       -2 0.34469409E-01 0.76949482E+02</pdfrwt>
<totfact> 0.14781214E+00</totfact>
</mgrwt>
</event>
<event>
 7    1  0.4252091E-004  0.7007116E+02  0.7546771E-02  0.1398021E+00
         -1   -1    0    0    0  501 -0.00000000000E+00  0.00000000000E+00  0.23386800789E+03  0.23386800789E+03  0.00000000000E+00 0.  1.
          1   -1    0    0  503    0  0.00000000000E+00 -0.00000000000E+00 -0.19585590223E+03  0.19585590223E+03  0.00000000000E+00 0. -1.
         25    2    1    2    0    0  0.15314997395E+02 -0.45331287129E+02  0.12834026357E+02  0.13445763385E+03  0.12499867332E+03 0.  0.
          4    1    3    3  502    0  0.32716524913E+02 -0.81911400267E+02  0.25796275072E+02  0.91907068301E+02  0.12700000000E+01 0.  1.
         -4    1    3    3    0  502 -0.17401527518E+02  0.36580113138E+02 -0.12962248715E+02  0.42550565553E+02  0.12700000000E+01 0.  1.
          2    1    1    2  503    0 -0.65775478143E+02  0.36092188625E+02 -0.11987000582E+03  0.14141385328E+03  0.00000000000E+00 0. -1.
         -2    1    1    2    0  501  0.50460480748E+02  0.92390985035E+01  0.14504808512E+03  0.15385242298E+03  0.00000000000E+00 0.  1.
<mgrwt>
<rscale>  0 0.59955012E+02</rscale>
<asrwt>0</asrwt>
<pdfrwt beam="2">  1        1 0.30131677E-01 0.70071160E+02</pdfrwt>
<pdfrwt beam="1">  1       -1 0.35979693E-01 0.51299328E+02</pdfrwt>
<totfact> 0.10844996E+03</totfact>
</mgrwt>
</event>
<event>
 7    1  0.4252091E-004  0.2840003E+03  0.7546771E-02  0.1154404E+00
          1   -1    0    0  502    0 -0.00000000000E+00  0.00000000000E+00  0.11914304903E+03  0.11914304903E+03  0.00000000000E+00 0. -1.
          2   -1    0    0  503    0  0.00000000000E+00 -0.00000000000E+00 -0.19956706894E+04  0.19956706894E+04  0.00000000000E+00 0. -1.
         25    2    1    2    0    0  0.18112232589E+03 -0.14737412228E+03 -0.27883898961E+03  0.38457870617E+03  0.12500068104E+03 0.  0.
          4    1    3    3  501    0  0.19351233805E+03 -0.11458718121E+03 -0.26314036924E+03  0.34615273204E+03  0.12700000000E+01 0.  1.
         -4    1    3    3    0  501 -0.12390012167E+02 -0.32786941072E+02 -0.15698620370E+02  0.38425974131E+02  0.12700000000E+01 0.  1.
          2    1    1    2  502    0 -0.29491918809E+03  0.21679124340E+03 -0.47503232212E+03  0.59969281951E+03  0.00000000000E+00 0. -1.
          1    1    1    2  503    0  0.11379686221E+03 -0.69417121121E+02 -0.11226563287E+04  0.11305422128E+04  0.00000000000E+00 0. -1.
<mgrwt>
<rscale>  0 0.19456822E+03</rscale>
<asrwt>0</asrwt>
<pdfrwt beam="2">  1        2 0.30702622E+00 0.13329840E+03</pdfrwt>
<pdfrwt beam="1">  1        1 0.18329702E-01 0.28400035E+03</pdfrwt>
<totfact> 0.31258168E+02</totfact>
</mgrwt>
</event>
<event>
 7    1  0.4252091E-004  0.3258591E+02  0.7546771E-02  0.1622869E+00
          2   -1    0    0  503    0  0.00000000000E+00  0.00000000000E+00  0.12079196319E+04  0.12079196319E+04  0.00000000000E+00 0. -1.
         -2   -1    0    0    0  501 -0.00000000000E+00 -0.00000000000E+00 -0.54233750103E+02  0.54233750103E+02  0.00000000000E+00 0.  1.
         25    2    1    2    0    0 -0.25971605392E+02  0.54911496402E+01  0.33241329452E+03  0.35613408290E+03  0.12501283781E+03 0.  0.
          4    1    3    3  502    0  0.26251867848E+02  0.28058092494E+02  0.30972862776E+02  0.49369507274E+02  0.12700000000E+01 0. -1.
         -4    1    3    3    0  502 -0.52223473241E+02 -0.22566942854E+02  0.30144043174E+03  0.30676457562E+03  0.12700000000E+01 0. -1.
          3    1    1    2  503    0 -0.12936680246E+01 -0.23805992411E+02  0.85709016740E+03  0.85742168966E+03  0.00000000000E+00 0. -1.
         -1    1    1    2    0  501  0.27265273417E+02  0.18314842771E+02 -0.35817580108E+02  0.48597609458E+02  0.00000000000E+00 0.  1.
<mgrwt>
<rscale>  0 0.27872648E+02</rscale>
<asrwt>0</asrwt>
<pdfrwt beam="1">  1        2 0.18583377E+00 0.23841117E+02</pdfrwt>
<pdfrwt beam="2">  1       -2 0.83436548E-02 0.32585911E+02</pdfrwt>
<totfact> 0.17431486E+03</totfact>
</mgrwt>
</event>
<event>
 7    1  0.4252091E-004  0.3585967E+03  0.7546771E-02  0.1183320E+00
          2   -1    0    0  503    0  0.00000000000E+00  0.00000000000E+00  0.29968004332E+03  0.29968004332E+03  0.00000000000E+00 0. -1.
          1   -1    0    0  502    0 -0.00000000000E+00 -0.00000000000E+00 -0.12589366965E+04  0.12589366965E+04  0.00000000000E+00 0. -1.
         25    2    1    2    0    0 -0.28246666524E+03 -0.19770840244E+03 -0.23537838428E+03  0.43577944269E+03  0.12499883808E+03 0.  0.
          4    1    3    3  501    0 -0.52043970839E+01 -0.41336358750E+02 -0.32468360458E+01  0.41808314341E+02  0.12700000000E+01 0.  1.
         -4    1    3    3    0  501 -0.27726226815E+03 -0.15637204369E+03 -0.23213154823E+03  0.39397112835E+03  0.12700000000E+01 0.  1.
          2    1    1    2  502    0 -0.55431319698E+02  0.51684953809E+02 -0.74999215777E+03  0.75381178179E+03  0.00000000000E+00 0. -1.
          1    1    1    2  503    0  0.33789798494E+03  0.14602344863E+03  0.26113888875E+02  0.36902551533E+03  0.00000000000E+00 0. -1.
<mgrwt>
<rscale>  0 0.16485652E+03</rscale>
<asrwt>0</asrwt>
<pdfrwt beam="1">  1        2 0.46104621E-01 0.35859673E+03</pdfrwt>
<pdfrwt beam="2">  1        1 0.19368257E+00 0.75788955E+02</pdfrwt>
<totfact> 0.17237339E+02</totfact>
</mgrwt>
</event>
<event>
 7    1  0.4252091E-004  0.5528671E+02  0.7546771E-02  0.1428138E+00
          2   -1    0    0  503    0  0.00000000000E+00  0.00000000000E+00  0.15304598194E+04  0.15304598194E+04  0.00000000000E+00 0. -1.
          1   -1    0    0  502    0 -0.00000000000E+00 -0.00000000000E+00 -0.55622684943E+02  0.55622684943E+02  0.00000000000E+00 0. -1.
         25    2    1    2    0    0 -0.63617292369E+01 -0.14860137408E+02  0.74006405854E+03  0.75072080679E+03  0.12500249483E+03 0.  0.
          4    1    3    3  501    0  0.17017476818E+02 -0.23047303165E+02  0.35121847799E+02  0.45342362016E+02  0.12700000000E+01 0. -1.
         -4    1    3    3    0  501 -0.23379206055E+02  0.81871657571E+01  0.70494221074E+03  0.70537844477E+03  0.12700000000E+01 0. -1.
          2    1    1    2  502    0  0.60806593931E+01 -0.51092933680E+02 -0.35345517375E+02  0.62424097023E+02  0.00000000000E+00 0. -1.
          1    1    1    2  503    0  0.28106984373E+00  0.65953071088E+02  0.77011859325E+03  0.77293760049E+03  0.00000000000E+00 0. -1.
<mgrwt>
<rscale>  0 0.53335676E+02</rscale>
<asrwt>0</asrwt>
<pdfrwt beam="1">  1        2 0.23545533E+00 0.55286706E+02</pdfrwt>
<pdfrwt beam="2">  1        1 0.85573373E-02 0.51453496E+02</pdfrwt>
<totfact> 0.14402311E+03</totfact>
</mgrwt>
</event>
<event>
 7    1  0.4252091E-004  0.1556232E+03  0.7546771E-02  0.1286466E+00
          1   -1    0    0  503    0  0.00000000000E+00  0.00000000000E+00  0.61493846477E+02  0.61493846477E+02  0.00000000000E+00 0. -1.
         -1   -1    0    0    0  501 -0.00000000000E+00 -0.00000000000E+00 -0.12367866761E+04  0.12367866761E+04  0.00000000000E+00 0.  1.
         25    2    1    2    0    0 -0.13480543689E+03  0.13224820564E+03 -0.33852098718E+03  0.40729297904E+03  0.12501607219E+03 0.  0.
          4    1    3    3  502    0 -0.54908047936E+02  0.31808336991E+02 -0.24461990948E+02  0.68019599612E+02  0.12700000000E+01 0.  1.
         -4    1    3    3    0  502 -0.79897388952E+02  0.10043986865E+03 -0.31405899623E+03  0.33927337943E+03  0.12700000000E+01 0.  1.
          2    1    1    2  503    0  0.29017212671E+01 -0.60543200547E+02 -0.25194572081E+02  0.65640426424E+02  0.00000000000E+00 0. -1.
         -2    1    1    2    0  501  0.13190371562E+03 -0.71705005097E+02 -0.81157727034E+03  0.82534711709E+03  0.00000000000E+00 0.  1.
<mgrwt>
<rscale>  0 0.97122305E+02</rscale>
<asrwt>0</asrwt>
<pdfrwt beam="1">  1        1 0.94605922E-02 0.60612698E+02</pdfrwt>
<pdfrwt beam="2">  1       -1 0.19027487E+00 0.15562320E+03</pdfrwt>
<totfact> 0.12848876E+02</totfact>
</mgrwt>
</event>
<event>
 7    1  0.4252091E-004  0.5162255E+02  0.7546771E-02  0.1484403E+00
         -2   -1    0    0    0  501 -0.00000000000E+00  0.00000000000E+00  0.18624160902E+04  0.18624160902E+04  0.00000000000E+00 0.  1.
          2   -1    0    0  503    0  0.00000000000E+00 -0.00000000000E+00 -0.14759357203E+03  0.14759357203E+03  0.00000000000E+00 0. -1.
         25    2    1    2    0    0 -0.11058514066E+02  0.79088412228E+02  0.13930993826E+04  0.14009741861E+04  0.12500205107E+03 0.  0.
          4    1    3    3  502    0 -0.64367269915E+02  0.48753999330E+02  0.58474555757E+03  0.59029575458E+03  0.12700000000E+01 0.  1.
         -4    1    3    3    0  502  0.53308755849E+02  0.30334412898E+02  0.80835382502E+03  0.81067843155E+03  0.12700000000E+01 0.  1.
          1    1    1    2  503    0 -0.11396459018E+02 -0.50270109954E+02 -0.13828467859E+03  0.14757918405E+03  0.00000000000E+00 0. -1.
         -1    1    1    2    0  501  0.22454973084E+02 -0.28818302274E+02  0.46000781416E+03  0.46145629203E+03  0.00000000000E+00 0.  1.
<mgrwt>
<rscale>  0 0.43427745E+02</rscale>
<asrwt>0</asrwt>
<pdfrwt beam="2">  1        2 0.22706705E-01 0.51622546E+02</pdfrwt>
<pdfrwt beam="1">  1       -2 0.28652554E+00 0.36533825E+02</pdfrwt>
<totfact> 0.12462610E+01</totfact>
</mgrwt>
</event>
<event>
 7    1  0.4252091E-004  0.1149986E+03  0.7546771E-02  0.1300345E+00
          2   -1    0    0  503    0  0.00000000000E+00  0.00000000000E+00  0.13336336868E+04  0.13336336868E+04  0.00000000000E+00 0. -1.
          1   -1    0    0  502    0 -0.00000000000E+00 -0.00000000000E+00 -0.18719993629E+03  0.18719993629E+03  0.00000000000E+00 0. -1.
         25    2    1    2    0    0  0.93448966888E+02  0.15951065857E+03  0.56420284911E+02  0.23018489635E+03  0.12500191337E+03 0.  0.
          4    1    3    3  501    0  0.62256257172E+02  0.79233484992E+02 -0.32988446498E+02  0.10603601842E+03  0.12700000000E+01 0.  1.
         -4    1    3    3    0  501  0.31192709717E+02  0.80277173580E+02  0.89408731410E+02  0.12414887792E+03  0.12700000000E+01 0.  1.
          2    1    1    2  502    0 -0.34927089970E+02 -0.63050046698E+02 -0.84308387582E+02  0.11091940416E+03  0.00000000000E+00 0. -1.
          1    1    1    2  503    0 -0.58521876918E+02 -0.96460611874E+02  0.11743218531E+04  0.11797293226E+04  0.00000000000E+00 0. -1.
<mgrwt>
<rscale>  0 0.91043095E+02</rscale>
<asrwt>0</asrwt>
<pdfrwt beam="1">  1        2 0.20517441E+00 0.11499858E+03</pdfrwt>
<pdfrwt beam="2">  1        1 0.28799991E-01 0.72077805E+02</pdfrwt>
<totfact> 0.37916305E+02</totfact>
</mgrwt>
</event>
<event>
 7    1  0.4252091E-004  0.5350226E+02  0.7546771E-02  0.1472378E+00
          1   -1    0    0  502    0 -0.00000000000E+00  0.00000000000E+00  0.61482255594E+03  0.61482255594E+03  0.00000000000E+00 0. -1.
          2   -1    0    0  503    0  0.00000000000E+00 -0.00000000000E+00 -0.60863591103E+03  0.60863591103E+03  0.00000000000E+00 0. -1.
         25    2    1    2    0    0  0.54236640462E+02 -0.97183673063E+01  0.98751652573E+02  0.16855292253E+03  0.12498855537E+03 0.  0.
          4    1    3    3  501    0  0.82438866071E+02 -0.42051411141E+02  0.57141370476E+02  0.10877148955E+03  0.12700000000E+01 0.  1.
         -4    1    3    3    0  501 -0.28202225610E+02  0.32333043835E+02  0.41610282097E+02  0.59781432980E+02  0.12700000000E+01 0.  1.
          2    1    1    2  502    0 -0.20845194371E+02 -0.32228872907E+02  0.47914858954E+03  0.48068346470E+03  0.00000000000E+00 0. -1.
          1    1    1    2  503    0 -0.33391446091E+02  0.41947240213E+02 -0.57171359721E+03  0.57422207975E+03  0.00000000000E+00 0. -1.
<mgrwt>
<rscale>  0 0.45316164E+02</rscale>
<asrwt>0</asrwt>
<pdfrwt beam="2">  1        2 0.93636294E-01 0.53502259E+02</pdfrwt>
<pdfrwt beam="1">  1        1 0.94588085E-01 0.38382579E+02</pdfrwt>
<totfact> 0.25617775E+02</totfact>
</mgrwt>
</event>
<event>
 7    1  0.4252091E-004  0.5918418E+02  0.7546771E-02  0.1535318E+00
          2   -1    0    0  503    0  0.00000000000E+00  0.00000000000E+00  0.48570366766E+03  0.48570366766E+03  0.00000000000E+00 0. -1.
         -2   -1    0    0    0  501 -0.00000000000E+00 -0.00000000000E+00 -0.54291735641E+02  0.54291735641E+02  0.00000000000E+00 0.  1.
         25    2    1    2    0    0 -0.18953469800E+02 -0.69166055031E+02  0.15403301755E+03  0.21093646142E+03  0.12499937230E+03 0.  0.
          4    1    3    3  502    0  0.34611219746E+02 -0.62720321420E+02  0.33949685644E+02  0.79284105007E+02  0.12700000000E+01 0.  1.
         -4    1    3    3    0  502 -0.53564689547E+02 -0.64457336106E+01  0.12008333190E+03  0.13165235641E+03  0.12700000000E+01 0.  1.
          1    1    1    2  503    0 -0.75148061955E+00  0.58176778614E+02  0.29484224536E+03  0.30052795535E+03  0.00000000000E+00 0. -1.
         -1    1    1    2    0  501  0.19704950420E+02  0.10989276417E+02 -0.17463330888E+02  0.28530986540E+02  0.00000000000E+00 0.  1.
<mgrwt>
<rscale>  0 0.36542038E+02</rscale>
<asrwt>0</asrwt>
<pdfrwt beam="1">  1        2 0.74723638E-01 0.59184177E+02</pdfrwt>
<pdfrwt beam="2">  1       -2 0.83525750E-02 0.22562120E+02</pdfrwt>
<totfact> 0.47081961E+03</totfact>
</mgrwt>
</event>
<event>
 7    1  0.4252091E-004  0.7691463E+02  0.7546771E-02  0.1347648E+00
          1   -1    0    0  502    0 -0.00000000000E+00  0.00000000000E+00  0.46367535019E+03  0.46367535019E+03  0.00000000000E+00 0. -1.
          2   -1    0    0  503    0  0.00000000000E+00 -0.00000000000E+00 -0.14258489383E+04  0.14258489383E+04  0.00000000000E+00 0. -1.
         25    2    1    2    0    0  0.20594243098E+02 -0.40942958793E+02  0.10191442903E+00  0.13313541293E+03  0.12499831625E+03 0.  0.
          4    1    3    3  501    0  0.27711339473E+02 -0.19791917548E+02  0.60111091182E+02  0.69098440784E+02  0.12700000000E+01 0. -1.
         -4    1    3    3    0  501 -0.71170963752E+01 -0.21151041245E+02 -0.60009176753E+02  0.64036972142E+02  0.12700000000E+01 0. -1.
          2    1    1    2  502    0  0.45622641443E+02  0.66000002927E+02  0.39206937245E+03  0.40019472587E+03  0.00000000000E+00 0. -1.
          1    1    1    2  503    0 -0.66216884541E+02 -0.25057044134E+02 -0.13543448750E+04  0.13561941497E+04  0.00000000000E+00 0. -1.
<mgrwt>
<rscale>  0 0.73793608E+02</rscale>
<asrwt>0</asrwt>
<pdfrwt beam="2">  1        2 0.21936137E+00 0.70799232E+02</pdfrwt>
<pdfrwt beam="1">  1        1 0.71334669E-01 0.76914627E+02</pdfrwt>
<totfact> 0.11631018E+02</totfact>
</mgrwt>
</event>
<event>
 7    1  0.4252091E-004  0.3040580E+02  0.7546771E-02  0.1640524E+00
          1   -1    0    0  502    0 -0.00000000000E+00  0.00000000000E+00  0.18868290851E+04  0.18868290851E+04  0.00000000000E+00 0. -1.
          2   -1    0    0  503    0  0.00000000000E+00 -0.00000000000E+00 -0.13505572957E+04  0.13505572957E+04  0.00000000000E+00 0. -1.
         25    2    1    2    0    0 -0.86713259619E+01 -0.40595618213E+01  0.67276395942E+03  0.68434483449E+03  0.12499934184E+03 0.  0.
          4    1    3    3  501    0 -0.80044199012E+01 -0.12166294026E+02  0.67550856272E+03  0.67566672306E+03  0.12700000000E+01 0.  1.
         -4    1    3    3    0  501 -0.66690606076E+00  0.81067322043E+01 -0.27446032957E+01  0.86781114291E+01  0.12700000000E+01 0.  1.
          2    1    1    2  502    0 -0.21392948667E+02  0.86418919140E+01  0.12079925771E+04  0.12082128980E+04  0.00000000000E+00 0. -1.
          1    1    1    2  503    0  0.30064274629E+02 -0.45823300927E+01 -0.13444847470E+04  0.13448286483E+04  0.00000000000E+00 0. -1.
<mgrwt>
<rscale>  0 0.26486561E+02</rscale>
<asrwt>0</asrwt>
<pdfrwt beam="2">  1        2 0.20777804E+00 0.30405796E+02</pdfrwt>
<pdfrwt beam="1">  1        1 0.29028140E+00 0.23072506E+02</pdfrwt>
<totfact> 0.14382375E+01</totfact>
</mgrwt>
</event>
<event>
 7    1  0.4252091E-004  0.3492650E+02  0.7546771E-02  0.1600026E+00
          2   -1    0    0  503    0  0.00000000000E+00  0.00000000000E+00  0.37910086318E+03  0.37910086318E+03  0.00000000000E+00 0. -1.
          1   -1    0    0  502    0 -0.00000000000E+00 -0.00000000000E+00 -0.25910424545E+03  0.25910424545E+03  0.00000000000E+00 0. -1.
         25    2    1    2    0    0 -0.47642885503E+02 -0.36051706176E+02  0.17458528622E+03  0.22287678765E+03  0.12499788099E+03 0.  0.
          4    1    3    3  501    0 -0.66108051052E+02 -0.92362448824E+00  0.29414123285E+02  0.72373552108E+02  0.12700000000E+01 0. -1.
         -4    1    3    3    0  501  0.18465165549E+02 -0.35128081687E+02  0.14517116293E+03  0.15050323554E+03  0.12700000000E+01 0. -1.
          2    1    1    2  502    0  0.29846781318E+02  0.17831199514E+02 -0.23276176183E+03  0.23534404561E+03  0.00000000000E+00 0. -1.
          1    1    1    2  503    0  0.17796104185E+02  0.18220506662E+02  0.17817309335E+03  0.17998427537E+03  0.00000000000E+00 0. -1.
<mgrwt>
<rscale>  0 0.29825419E+02</rscale>
<asrwt>0</asrwt>
<pdfrwt beam="1">  1        2 0.58323210E-01 0.25469358E+02</pdfrwt>
<pdfrwt beam="2">  1        1 0.39862191E-01 0.34926504E+02</pdfrwt>
<totfact> 0.11974228E+03</totfact>
</mgrwt>
</event>
<event>
 7    1  0.4252091E-004  0.9031577E+02  0.7546771E-02  0.1443909E+00
          1   -1    0    0  502    0 -0.00000000000E+00  0.00000000000E+00  0.53187202742E+02  0.53187202742E+02  0.00000000000E+00 0. -1.
          2   -1    0    0  503    0  0.00000000000E+00 -0.00000000000E+00 -0.24036720983E+04  0.24036720983E+04  0.00000000000E+00 0. -1.
         25    2    1    2    0    0  0.65005898097E+02 -0.94784756735E+01 -0.84708251918E+03  0.85876878038E+03  0.12497766025E+03 0.  0.
          4    1    3    3  501    0 -0.20770277901E+02 -0.16105293898E+02 -0.51659226088E+03  0.51726198569E+03  0.12700000000E+01 0. -1.
         -4    1    3    3    0  501  0.85776175998E+02  0.66268182245E+01 -0.33049025830E+03  0.34150679469E+03  0.12700000000E+01 0. -1.
          2    1    1    2  502    0 -0.88058714644E+02  0.25329758733E+02  0.27575228730E+01  0.91670812338E+02  0.00000000000E+00 0. -1.
          1    1    1    2  503    0  0.23052816548E+02 -0.15851283059E+02 -0.15061598992E+04  0.15064197083E+04  0.00000000000E+00 0. -1.
<mgrwt>
<rscale>  0 0.50266659E+02</rscale>
<asrwt>0</asrwt>
<pdfrwt beam="2">  1        2 0.36979576E+00 0.27976696E+02</pdfrwt>
<pdfrwt beam="1">  1        1 0.81826455E-02 0.90315774E+02</pdfrwt>
<totfact> 0.65346957E+02</totfact>
</mgrwt>
</event>
<event>
 7    1  0.4252091E-004  0.5228302E+02  0.7546771E-02  0.1447401E+00
          2   -1    0    0  503    0  0.00000000000E+00  0.00000000000E+00  0.16501602809E+04  0.16501602809E+04  0.00000000000E+00 0. -1.
          1   -1    0    0  502    0 -0.00000000000E+00 -0.00000000000E+00 -0.12777402168E+03  0.12777402168E+03  0.00000000000E+00 0. -1.
         25    2    1    2    0    0 -0.45738786025E+01 -0.87811764302E+02  0.68830054511E+02  0.16761278057E+03  0.12499856596E+03 0.  0.
          4    1    3    3  501    0  0.39088982621E+02 -0.33683478886E+01  0.60575997850E+02  0.72182814751E+02  0.12700000000E+01 0.  1.
         -4    1    3    3    0  501 -0.43662861223E+02 -0.84443416413E+02  0.82540566608E+01  0.95429965824E+02  0.12700000000E+01 0.  1.
          2    1    1    2  502    0  0.24965026190E+02  0.39931295651E+02 -0.70824811595E+02  0.85052424084E+02  0.00000000000E+00 0. -1.
          1    1    1    2  503    0 -0.20391147587E+02  0.47880468650E+02  0.15243810163E+04  0.15252690979E+04  0.00000000000E+00 0. -1.
<mgrwt>
<rscale>  0 0.49620255E+02</rscale>
<asrwt>0</asrwt>
<pdfrwt beam="1">  1        2 0.25387080E+00 0.52283015E+02</pdfrwt>
<pdfrwt beam="2">  1        1 0.19657543E-01 0.47093109E+02</pdfrwt>
<totfact> 0.43959920E+02</totfact>
</mgrwt>
</event>
<event>
 7    1  0.4252091E-004  0.6955869E+02  0.7546771E-02  0.1466657E+00
          1   -1    0    0  503    0  0.00000000000E+00  0.00000000000E+00  0.81121267883E+03  0.81121267883E+03  0.00000000000E+00 0. -1.
         -1   -1    0    0    0  501 -0.00000000000E+00 -0.00000000000E+00 -0.38573661227E+03  0.38573661227E+03  0.00000000000E+00 0.  1.
         25    2    1    2    0    0  0.55419924366E+02  0.56202994117E+02 -0.50686649693E+02  0.15628287714E+03  0.12500022666E+03 0.  0.
          4    1    3    3  502    0 -0.16907363551E+02 -0.29842599205E+02 -0.20132003191E+02  0.39791332247E+02  0.12700000000E+01 0.  1.
         -4    1    3    3    0  502  0.72327287916E+02  0.86045593322E+02 -0.30554646503E+02  0.11649154489E+03  0.12700000000E+01 0.  1.
          2    1    1    2  503    0 -0.25812293957E+02 -0.64537198190E+02  0.75597749268E+03  0.75916618333E+03  0.00000000000E+00 0. -1.
         -2    1    1    2    0  501 -0.29607630409E+02  0.83342040736E+01 -0.27981477643E+03  0.28150023063E+03  0.00000000000E+00 0.  1.
<mgrwt>
<rscale>  0 0.46254779E+02</rscale>
<asrwt>0</asrwt>
<pdfrwt beam="1">  1        1 0.12480195E+00 0.69558693E+02</pdfrwt>
<pdfrwt beam="2">  1       -1 0.59344094E-01 0.30758263E+02</pdfrwt>
<totfact> 0.74788550E+01</totfact>
</mgrwt>
</event>
<event>
 7    1  0.4252091E-004  0.5184504E+02  0.7546771E-02  0.1506480E+00
          2   -1    0    0  503    0  0.00000000000E+00  0.00000000000E+00  0.40090749628E+03  0.40090749628E+03  0.00000000000E+00 0. -1.
          1   -1    0    0  502    0 -0.00000000000E+00 -0.00000000000E+00 -0.66256136316E+03  0.66256136316E+03  0.00000000000E+00 0. -1.
         25    2    1    2    0    0 -0.34197809216E+02  0.13955947235E+02 -0.16976571287E+03  0.21403043390E+03  0.12499748298E+03 0.  0.
          4    1    3    3  501    0  0.25456238184E+02  0.45537750590E+01 -0.14734069289E+03  0.14959829414E+03  0.12700000000E+01 0. -1.
         -4    1    3    3    0  501 -0.59654047400E+02  0.94021721761E+01 -0.22425019982E+02  0.64432139760E+02  0.12700000000E+01 0. -1.
          2    1    1    2  502    0  0.28962601877E+02 -0.44740922506E+02 -0.46850621688E+03  0.47152800311E+03  0.00000000000E+00 0. -1.
          1    1    1    2  503    0  0.52352073387E+01  0.30784975271E+02  0.37661806287E+03  0.37791042243E+03  0.00000000000E+00 0. -1.
<mgrwt>
<rscale>  0 0.40236329E+02</rscale>
<asrwt>0</asrwt>
<pdfrwt beam="1">  1        2 0.61678077E-01 0.31226945E+02</pdfrwt>
<pdfrwt beam="2">  1        1 0.10193252E+00 0.51845037E+02</pdfrwt>
<totfact> 0.35677455E+02</totfact>
</mgrwt>
</event>
<event>
 7    1  0.4252091E-004  0.1396363E+03  0.7546771E-02  0.1355514E+00
          2   -1    0    0  503    0  0.00000000000E+00  0.00000000000E+00  0.10154801834E+04  0.10154801834E+04  0.00000000000E+00 0. -1.
          1   -1    0    0  502    0 -0.00000000000E+00 -0.00000000000E+00 -0.57609441534E+03  0.57609441534E+03  0.00000000000E+00 0. -1.
         25    2    1    2    0    0  0.48010080976E+02  0.10117067317E+03 -0.15488808366E+02  0.16854058640E+03  0.12500221237E+03 0.  0.
          4    1    3    3  501    0  0.80513158525E+02  0.66476793997E+02  0.23516296253E+02  0.10703346171E+03  0.12700000000E+01 0. -1.
         -4    1    3    3    0  501 -0.32503077550E+02  0.34693879169E+02 -0.39005104618E+02  0.61507124695E+02  0.12700000000E+01 0. -1.
          2    1    1    2  502    0 -0.79449254864E+02 -0.11965872954E+03 -0.47305913934E+03  0.49438380330E+03  0.00000000000E+00 0. -1.
          3    1    1    2  503    0  0.31439173889E+02  0.18488056370E+02  0.92793371577E+03  0.92865020904E+03  0.00000000000E+00 0. -1.
<mgrwt>
<rscale>  0 0.71364266E+02</rscale>
<asrwt>0</asrwt>
<pdfrwt beam="1">  1        2 0.15622772E+00 0.36472317E+02</pdfrwt>
<pdfrwt beam="2">  1        1 0.88629910E-01 0.13963628E+03</pdfrwt>
<totfact> 0.14861360E+02</totfact>
</mgrwt>
</event>
<event>
 7    1  0.4252091E-004  0.6969553E+02  0.7546771E-02  0.1455165E+00
          1   -1    0    0  502    0 -0.00000000000E+00  0.00000000000E+00  0.23220561347E+03  0.23220561347E+03  0.00000000000E+00 0. -1.
          2   -1    0    0  503    0  0.00000000000E+00 -0.00000000000E+00 -0.10041228373E+03  0.10041228373E+03  0.00000000000E+00 0. -1.
         25    2    1    2    0    0  0.56406418687E+02  0.12538677107E+02  0.15682808866E+03  0.20870913698E+03  0.12500220787E+03 0.  0.
          4    1    3    3  501    0 -0.46826243146E+01 -0.41090349570E+02  0.12783859426E+02  0.43305701242E+02  0.12700000000E+01 0.  1.
         -4    1    3    3    0  501  0.61089043001E+02  0.53629026677E+02  0.14404422924E+03  0.16540343574E+03  0.12700000000E+01 0.  1.
          2    1    1    2  502    0 -0.14082581735E+01  0.33337226821E+02  0.20384862263E+02  0.39101106029E+02  0.00000000000E+00 0. -1.
          3    1    1    2  503    0 -0.54998160513E+02 -0.45875903928E+02 -0.45419621183E+02  0.84807654191E+02  0.00000000000E+00 0. -1.
<mgrwt>
<rscale>  0 0.48223726E+02</rscale>
<asrwt>0</asrwt>
<pdfrwt beam="2">  1        2 0.15448044E-01 0.69695528E+02</pdfrwt>
<pdfrwt beam="1">  1        1 0.35723940E-01 0.33366958E+02</pdfrwt>
<totfact> 0.56541805E+03</totfact>
</mgrwt>
</event>
<event>
 7    1  0.4252091E-004  0.3521933E+02  0.7546771E-02  0.1568934E+00
          1   -1    0    0  502    0 -0.00000000000E+00  0.00000000000E+00  0.10021107130E+03  0.10021107130E+03  0.00000000000E+00 0. -1.
          2   -1    0    0  503    0  0.00000000000E+00 -0.00000000000E+00 -0.35469501256E+03  0.35469501256E+03  0.00000000000E+00 0. -1.
         25    2    1    2    0    0  0.39593119507E+02 -0.12364183548E+01  0.77276320886E+01  0.13135160716E+03  0.12499753822E+03 0.  0.
          4    1    3    3  501    0  0.54207260875E+02 -0.53835885690E+02  0.71380713435E+01  0.76741740156E+02  0.12700000000E+01 0.  1.
         -4    1    3    3    0  501 -0.14614141368E+02  0.52599467335E+02  0.58956074509E+00  0.54609867000E+02  0.12700000000E+01 0.  1.
          2    1    1    2  502    0 -0.15003355294E+02  0.26634566386E+02  0.21675763688E+02  0.37474518384E+02  0.00000000000E+00 0. -1.
          1    1    1    2  503    0 -0.24589764212E+02 -0.25398148031E+02 -0.28388733703E+03  0.28607995832E+03  0.00000000000E+00 0. -1.
<mgrwt>
<rscale>  0 0.32812208E+02</rscale>
<asrwt>0</asrwt>
<pdfrwt beam="2">  1        2 0.54568463E-01 0.35219329E+02</pdfrwt>
<pdfrwt beam="1">  1        1 0.15417088E-01 0.30569606E+02</pdfrwt>
<totfact> 0.39741932E+03</totfact>
</mgrwt>
</event>
<event>
 7    1  0.4252091E-004  0.4433490E+02  0.7546771E-02  0.1543097E+00
         -2   -1    0    0    0  501 -0.00000000000E+00  0.00000000000E+00  0.55686951594E+03  0.55686951594E+03  0.00000000000E+00 0.  1.
          2   -1    0    0  503    0  0.00000000000E+00 -0.00000000000E+00 -0.22924527403E+03  0.22924527403E+03  0.00000000000E+00 0. -1.
         25    2    1    2    0    0 -0.12774704220E+02 -0.22924023073E+02  0.21877199060E+01  0.12774435143E+03  0.12500051721E+03 0.  0.
          4    1    3    3  502    0  0.98720765878E+01  0.20618764457E+01  0.59972328262E+02  0.60827644109E+02  0.12700000000E+01 0.  1.
         -4    1    3    3    0  502 -0.22646780807E+02 -0.24985899518E+02 -0.57784608356E+02  0.66916707320E+02  0.12700000000E+01 0.  1.
          1    1    1    2  503    0  0.41164829071E+02  0.19223419949E+02 -0.16294005145E+03  0.16915538239E+03  0.00000000000E+00 0. -1.
         -1    1    1    2    0  501 -0.28390124852E+02  0.37006031238E+01  0.48837657346E+03  0.48921505614E+03  0.00000000000E+00 0.  1.
<mgrwt>
<rscale>  0 0.35627532E+02</rscale>
<asrwt>0</asrwt>
<pdfrwt beam="2">  1        2 0.35268504E-01 0.44334896E+02</pdfrwt>
<pdfrwt beam="1">  1       -2 0.85672233E-01 0.28630293E+02</pdfrwt>
<totfact> 0.18295163E+02</totfact>
</mgrwt>
</event>
<event>
 7    1  0.4252091E-004  0.3634301E+02  0.7546771E-02  0.1603669E+00
          1   -1    0    0  502    0 -0.00000000000E+00  0.00000000000E+00  0.27978111449E+02  0.27978111449E+02  0.00000000000E+00 0. -1.
          2   -1    0    0  503    0  0.00000000000E+00 -0.00000000000E+00 -0.13964284851E+04  0.13964284851E+04  0.00000000000E+00 0. -1.
         25    2    1    2    0    0  0.81758072407E+01 -0.98725383727E+01 -0.83048333401E+03  0.83993545589E+03  0.12499876464E+03 0.  0.
          4    1    3    3  501    0  0.22455313074E+02  0.13750498627E+02 -0.79263529321E+03  0.79307353899E+03  0.12700000000E+01 0.  1.
         -4    1    3    3    0  501 -0.14279505833E+02 -0.23623036999E+02 -0.37848040798E+02  0.46861916907E+02  0.12700000000E+01 0.  1.
          2    1    1    2  502    0 -0.24282843163E+02  0.27593758107E+02  0.82975918954E+01  0.37681852261E+02  0.00000000000E+00 0. -1.
          1    1    1    2  503    0  0.16107035923E+02 -0.17721219734E+02 -0.54626463158E+03  0.54678928844E+03  0.00000000000E+00 0. -1.
<mgrwt>
<rscale>  0 0.29501200E+02</rscale>
<asrwt>0</asrwt>
<pdfrwt beam="2">  1        2 0.21483511E+00 0.23947406E+02</pdfrwt>
<pdfrwt beam="1">  1        1 0.43043258E-02 0.36343009E+02</pdfrwt>
<totfact> 0.42642312E+03</totfact>
</mgrwt>
</event>
<event>
 7    1  0.4252091E-004  0.4098752E+02  0.7546771E-02  0.1580280E+00
         -2   -1    0    0    0  501 -0.00000000000E+00  0.00000000000E+00  0.88697663464E+02  0.88697663464E+02  0.00000000000E+00 0.  1.
          2   -1    0    0  503    0  0.00000000000E+00 -0.00000000000E+00 -0.19677767970E+04  0.19677767970E+04  0.00000000000E+00 0. -1.
         25    2    1    2    0    0 -0.46440544923E+02  0.14193928645E+02 -0.40418097580E+03  0.42584688501E+03  0.12500046580E+03 0.  0.
          4    1    3    3  502    0 -0.88169570604E+02 -0.43623987161E+01 -0.27507119409E+03  0.28889215708E+03  0.12700000000E+01 0. -1.
         -4    1    3    3    0  502  0.41729025681E+02  0.18556327361E+02 -0.12910978171E+03  0.13695472793E+03  0.12700000000E+01 0. -1.
          1    1    1    2  503    0  0.27809831016E+02 -0.30070794920E+02 -0.15505619395E+04  0.15511028230E+04  0.00000000000E+00 0. -1.
         -3    1    1    2    0  501  0.18630713907E+02  0.15876866275E+02  0.75663781741E+02  0.79524752441E+02  0.00000000000E+00 0.  1.
<mgrwt>
<rscale>  0 0.31674871E+02</rscale>
<asrwt>0</asrwt>
<pdfrwt beam="2">  1        2 0.30273488E+00 0.40987521E+02</pdfrwt>
<pdfrwt beam="1">  1       -2 0.13645795E-01 0.24478121E+02</pdfrwt>
<totfact> 0.32951533E+02</totfact>
</mgrwt>
</event>
<event>
 7    1  0.4252091E-004  0.3447070E+02  0.7546771E-02  0.1627750E+00
          1   -1    0    0  502    0 -0.00000000000E+00  0.00000000000E+00  0.25871400743E+03  0.25871400743E+03  0.00000000000E+00 0. -1.
          2   -1    0    0  503    0  0.00000000000E+00 -0.00000000000E+00 -0.48372366265E+02  0.48372366265E+02  0.00000000000E+00 0. -1.
         25    2    1    2    0    0 -0.37853209738E+02 -0.24318211415E+02  0.11156540525E+03  0.17347935110E+03  0.12499601880E+03 0.  0.
          4    1    3    3  501    0  0.18803324719E+02  0.30420283925E+02  0.81745424709E+02  0.89235004652E+02  0.12700000000E+01 0. -1.
         -4    1    3    3    0  501 -0.56656534457E+02 -0.54738495340E+02  0.29819980538E+02  0.84244346446E+02  0.12700000000E+01 0. -1.
          2    1    1    2  502    0  0.16603794769E+02  0.29640063691E+02  0.10538520741E+03  0.11072606431E+03  0.00000000000E+00 0. -1.
          1    1    1    2  503    0  0.21249414970E+02 -0.53218522761E+01 -0.66089714892E+01  0.22880958292E+02  0.00000000000E+00 0. -1.
<mgrwt>
<rscale>  0 0.27479171E+02</rscale>
<asrwt>0</asrwt>
<pdfrwt beam="2">  1        2 0.74419027E-02 0.21905701E+02</pdfrwt>
<pdfrwt beam="1">  1        1 0.39802154E-01 0.34470700E+02</pdfrwt>
<totfact> 0.10648138E+04</totfact>
</mgrwt>
</event>
<event>
 7    1  0.4252091E-004  0.2308276E+03  0.7546771E-02  0.1230500E+00
          2   -1    0    0  503    0  0.00000000000E+00  0.00000000000E+00  0.62984032565E+03  0.62984032565E+03  0.00000000000E+00 0. -1.
          1   -1    0    0  502    0 -0.00000000000E+00 -0.00000000000E+00 -0.12173392258E+04  0.12173392258E+04  0.00000000000E+00 0. -1.
         25    2    1    2    0    0  0.74045151763E+02  0.26159514364E+03 -0.28649679946E+03  0.41427047794E+03  0.12499963647E+03 0.  0.
          4    1    3    3  501    0  0.46857022750E+02  0.21744250917E+03 -0.15009801845E+03  0.26834279088E+03  0.12700000000E+01 0.  1.
         -4    1    3    3    0  501  0.27188129013E+02  0.44152634466E+02 -0.13639878101E+03  0.14592768706E+03  0.12700000000E+01 0.  1.
          2    1    1    2  502    0  0.35859529020E+02 -0.61215949157E+02 -0.84233135090E+03  0.84531378964E+03  0.00000000000E+00 0. -1.
          1    1    1    2  503    0 -0.10990468078E+03 -0.20037919448E+03  0.54132925023E+03  0.58759528384E+03  0.00000000000E+00 0. -1.
<mgrwt>
<rscale>  0 0.12796967E+03</rscale>
<asrwt>0</asrwt>
<pdfrwt beam="1">  1        2 0.96898513E-01 0.23082761E+03</pdfrwt>
<pdfrwt beam="2">  1        1 0.18728295E+00 0.70945742E+02</pdfrwt>
<totfact> 0.81082926E+01</totfact>
</mgrwt>
</event>
<event>
 7    1  0.4252091E-004  0.1156703E+03  0.7546771E-02  0.1293201E+00
          2   -1    0    0  503    0  0.00000000000E+00  0.00000000000E+00  0.42733638781E+03  0.42733638781E+03  0.00000000000E+00 0. -1.
          1   -1    0    0  502    0 -0.00000000000E+00 -0.00000000000E+00 -0.21990844022E+04  0.21990844022E+04  0.00000000000E+00 0. -1.
         25    2    1    2    0    0 -0.12644108857E+03  0.57724405575E+02 -0.13655414255E+03  0.23149924334E+03  0.12500163975E+03 0.  0.
          4    1    3    3  501    0 -0.14643513534E+03  0.68756756156E+02 -0.13046782599E+03  0.20783216040E+03  0.12700000000E+01 0. -1.
         -4    1    3    3    0  501  0.19994046767E+02 -0.11032350581E+02 -0.60863165585E+01  0.23667082936E+02  0.12700000000E+01 0. -1.
          2    1    1    2  502    0  0.65117937950E+02  0.40268040843E+02 -0.20055156834E+04  0.20069765861E+04  0.00000000000E+00 0. -1.
          1    1    1    2  503    0  0.61323150621E+02 -0.97992446418E+02  0.37032181151E+03  0.38794496058E+03  0.00000000000E+00 0. -1.
<mgrwt>
<rscale>  0 0.94106522E+02</rscale>
<asrwt>0</asrwt>
<pdfrwt beam="1">  1        2 0.65744059E-01 0.11567025E+03</pdfrwt>
<pdfrwt beam="2">  1        1 0.33832068E+00 0.76562791E+02</pdfrwt>
<totfact> 0.30158514E+01</totfact>
</mgrwt>
</event>
<event>
 7    1  0.4252091E-004  0.6385762E+02  0.7546771E-02  0.1445604E+00
          1   -1    0    0  503    0  0.00000000000E+00  0.00000000000E+00  0.94025637099E+03  0.94025637099E+03  0.00000000000E+00 0. -1.
         -1   -1    0    0    0  501 -0.00000000000E+00 -0.00000000000E+00 -0.18641120500E+03  0.18641120500E+03  0.00000000000E+00 0.  1.
         25    2    1    2    0    0 -0.88988634218E+02 -0.45236211024E+02  0.15687446965E+03  0.22406010978E+03  0.12501216643E+03 0.  0.
          4    1    3    3  502    0  0.71833691316E+01 -0.37012511797E+02 -0.24171812627E+01  0.37801884700E+02  0.12700000000E+01 0.  1.
         -4    1    3    3    0  502 -0.96172003350E+02 -0.82236992270E+01  0.15929165092E+03  0.18625822508E+03  0.12700000000E+01 0.  1.
          2    1    1    2  503    0  0.50988878672E+02  0.36139667334E+02  0.74596318385E+03  0.74857665804E+03  0.00000000000E+00 0. -1.
         -2    1    1    2    0  501  0.37999755546E+02  0.90965436905E+01 -0.14899248751E+03  0.15403080816E+03  0.00000000000E+00 0.  1.
<mgrwt>
<rscale>  0 0.49951303E+02</rscale>
<asrwt>0</asrwt>
<pdfrwt beam="1">  1        1 0.14465482E+00 0.63857621E+02</pdfrwt>
<pdfrwt beam="2">  1       -1 0.28678648E-01 0.39073374E+02</pdfrwt>
<totfact> 0.20712271E+02</totfact>
</mgrwt>
</event>
<event>
 7    1  0.4252091E-004  0.5804904E+02  0.7546771E-02  0.1500265E+00
         -1   -1    0    0    0  501 -0.00000000000E+00  0.00000000000E+00  0.11340490998E+02  0.11340490998E+02  0.00000000000E+00 0.  1.
          1   -1    0    0  503    0  0.00000000000E+00 -0.00000000000E+00 -0.12214745784E+04  0.12214745784E+04  0.00000000000E+00 0. -1.
         25    2    1    2    0    0  0.92343617478E+01  0.36005263175E+02 -0.68871678291E+03  0.70095443795E+03  0.12499865841E+03 0.  0.
          4    1    3    3  502    0  0.70524480553E+01  0.52117604799E+02 -0.10923357958E+03  0.12124178142E+03  0.12700000000E+01 0.  1.
         -4    1    3    3    0  502  0.21819136925E+01 -0.16112341624E+02 -0.57948320332E+03  0.57971265653E+03  0.12700000000E+01 0.  1.
          2    1    1    2  503    0  0.16319069141E+02  0.24094232020E+02 -0.28841009497E+03  0.28987450201E+03  0.00000000000E+00 0. -1.
         -2    1    1    2    0  501 -0.25553430889E+02 -0.60099495195E+02 -0.23300720951E+03  0.24198612943E+03  0.00000000000E+00 0.  1.
<mgrwt>
<rscale>  0 0.41100619E+02</rscale>
<asrwt>0</asrwt>
<pdfrwt beam="2">  1        1 0.18791911E+00 0.29100585E+02</pdfrwt>
<pdfrwt beam="1">  1       -1 0.17446915E-02 0.58049035E+02</pdfrwt>
<totfact> 0.90585160E+03</totfact>
</mgrwt>
</event>
<event>
 7    1  0.4252091E-004  0.6186215E+02  0.7546771E-02  0.1401074E+00
          2   -1    0    0  503    0  0.00000000000E+00  0.00000000000E+00  0.21533307162E+04  0.21533307162E+04  0.00000000000E+00 0. -1.
         -2   -1    0    0    0  501 -0.00000000000E+00 -0.00000000000E+00 -0.24344713787E+03  0.24344713787E+03  0.00000000000E+00 0.  1.
         25    2    1    2    0    0 -0.90116259371E+02  0.56481921565E+02  0.40903955285E+03  0.44073745603E+03  0.12500000675E+03 0.  0.
          4    1    3    3  502    0 -0.10740345426E+03  0.14352942836E+02  0.20726730104E+03  0.23388641674E+03  0.12700000000E+01 0. -1.
         -4    1    3    3    0  502  0.17287194891E+02  0.42128978729E+02  0.20177225181E+03  0.20685103930E+03  0.12700000000E+01 0. -1.
          1    1    1    2  503    0  0.33722961986E+02 -0.50423829104E+02  0.17243670420E+04  0.17254337125E+04  0.00000000000E+00 0. -1.
         -1    1    1    2    0  501  0.56393297385E+02 -0.60580924611E+01 -0.22352301655E+03  0.23060668551E+03  0.00000000000E+00 0.  1.
<mgrwt>
<rscale>  0 0.59234132E+02</rscale>
<asrwt>0</asrwt>
<pdfrwt beam="1">  1        2 0.33128164E+00 0.61862145E+02</pdfrwt>
<pdfrwt beam="2">  1       -2 0.37453407E-01 0.56717762E+02</pdfrwt>
<totfact> 0.49058823E+01</totfact>
</mgrwt>
</event>
<event>
 7    1  0.4252091E-004  0.7811400E+02  0.7546771E-02  0.1364668E+00
          2   -1    0    0  503    0  0.00000000000E+00  0.00000000000E+00  0.27272167246E+03  0.27272167246E+03  0.00000000000E+00 0. -1.
          1   -1    0    0  502    0 -0.00000000000E+00 -0.00000000000E+00 -0.14943869500E+04  0.14943869500E+04  0.00000000000E+00 0. -1.
         25    2    1    2    0    0 -0.97301578061E+02  0.22741119056E+02 -0.61262358037E+02  0.17135711889E+03  0.12500172036E+03 0.  0.
          4    1    3    3  501    0 -0.70970090028E+02 -0.43778182169E+02 -0.54190107128E+02  0.99455837049E+02  0.12700000000E+01 0.  1.
         -4    1    3    3    0  501 -0.26331488033E+02  0.66519301225E+02 -0.70722509086E+01  0.71901281841E+02  0.12700000000E+01 0.  1.
          2    1    1    2  502    0  0.47521905861E+02  0.37233858827E+02 -0.13704140950E+04  0.13717432280E+04  0.00000000000E+00 0. -1.
          1    1    1    2  503    0  0.49779672199E+02 -0.59974977882E+02  0.21001117545E+03  0.22400827563E+03  0.00000000000E+00 0. -1.
<mgrwt>
<rscale>  0 0.68671993E+02</rscale>
<asrwt>0</asrwt>
<pdfrwt beam="1">  1        2 0.41957180E-01 0.78114005E+02</pdfrwt>
<pdfrwt beam="2">  1        1 0.22990569E+00 0.60371283E+02</pdfrwt>
<totfact> 0.13632605E+02</totfact>
</mgrwt>
</event>
<event>
 7    1  0.4252091E-004  0.1167601E+03  0.7546771E-02  0.1310581E+00
         -1   -1    0    0    0  501 -0.00000000000E+00  0.00000000000E+00  0.66125071237E+02  0.66125071237E+02  0.00000000000E+00 0.  1.
          1   -1    0    0  503    0  0.00000000000E+00 -0.00000000000E+00 -0.75036974147E+03  0.75036974147E+03  0.00000000000E+00 0. -1.
         25    2    1    2    0    0  0.15387928097E+03 -0.30506783402E+02 -0.14497928645E+03  0.24749544922E+03  0.12500202774E+03 0.  0.
          4    1    3    3  502    0  0.42549501441E+02 -0.70440699116E+02 -0.59750822478E+02  0.10170607579E+03  0.12700000000E+01 0.  1.
         -4    1    3    3    0  502  0.11132977953E+03  0.39933915715E+02 -0.85228463971E+02  0.14578937343E+03  0.12700000000E+01 0.  1.
          2    1    1    2  503    0 -0.10835862087E+03 -0.15401901108E+02 -0.25537050221E+03  0.27783610758E+03  0.00000000000E+00 0.  1.
         -2    1    1    2    0  501 -0.45520660100E+02  0.45908684509E+02 -0.28389488157E+03  0.29116325591E+03  0.00000000000E+00 0. -1.
<mgrwt>
<rscale>  0 0.86882944E+02</rscale>
<asrwt>0</asrwt>
<pdfrwt beam="2">  1        1 0.11544150E+00 0.11676012E+03</pdfrwt>
<pdfrwt beam="1">  1       -1 0.10173088E-01 0.64650892E+02</pdfrwt>
<totfact> 0.14363348E+03</totfact>
</mgrwt>
</event>
<event>
 7    1  0.4252091E-004  0.4988710E+02  0.7546771E-02  0.1496401E+00
          2   -1    0    0  503    0  0.00000000000E+00  0.00000000000E+00  0.41406029671E+02  0.41406029671E+02  0.00000000000E+00 0. -1.
          1   -1    0    0  502    0 -0.00000000000E+00 -0.00000000000E+00 -0.14802833640E+04  0.14802833640E+04  0.00000000000E+00 0. -1.
         25    2    1    2    0    0 -0.37780580686E+02  0.43995261995E+02 -0.37591247801E+03  0.40037315410E+03  0.12500206417E+03 0.  0.
          4    1    3    3  501    0  0.23484235024E+02 -0.27321202540E+02 -0.17324879026E+03  0.17695963842E+03  0.12700000000E+01 0.  1.
         -4    1    3    3    0  501 -0.61264815710E+02  0.71316464534E+02 -0.20266368775E+03  0.22341351568E+03  0.12700000000E+01 0.  1.
          2    1    1    2  502    0  0.48793016710E+02 -0.11010263271E+02 -0.10809905890E+04  0.10821472349E+04  0.00000000000E+00 0. -1.
          1    1    1    2  503    0 -0.11012436024E+02 -0.32984998724E+02  0.18025732719E+02  0.39169004685E+02  0.00000000000E+00 0. -1.
<mgrwt>
<rscale>  0 0.41651074E+02</rscale>
<asrwt>0</asrwt>
<pdfrwt beam="1">  1        2 0.63701597E-02 0.34774759E+02</pdfrwt>
<pdfrwt beam="2">  1        1 0.22773586E+00 0.49887102E+02</pdfrwt>
<totfact> 0.11309916E+03</totfact>
</mgrwt>
</event>
<event>
 7    1  0.4252091E-004  0.1082480E+03  0.7546771E-02  0.1448575E+00
          1   -1    0    0  503    0  0.00000000000E+00  0.00000000000E+00  0.43878574684E+03  0.43878574684E+03  0.00000000000E+00 0. -1.
         -1   -1    0    0    0  501 -0.00000000000E+00 -0.00000000000E+00 -0.14422619511E+03  0.14422619511E+03  0.00000000000E+00 0.  1.
         25    2    1    2    0    0 -0.56348229426E+01  0.12353936105E+03 -0.38539257456E+02  0.17999035805E+03  0.12497011510E+03 0.  0.
          4    1    3    3  502    0 -0.21458989101E+02  0.92664998434E+02  0.32824877727E+02  0.10062989439E+03  0.12700000000E+01 0. -1.
         -4    1    3    3    0  502  0.15824166158E+02  0.30874362614E+02 -0.71364135183E+02  0.79360463657E+02  0.12700000000E+01 0. -1.
          2    1    1    2  503    0  0.19141827584E+02 -0.10548328751E+03  0.35545409734E+03  0.37126910566E+03  0.00000000000E+00 0. -1.
         -2    1    1    2    0  501 -0.13507004641E+02 -0.18056073541E+02 -0.22355288147E+02  0.31752478238E+02  0.00000000000E+00 0.  1.
<mgrwt>
<rscale>  0 0.49405384E+02</rscale>
<asrwt>0</asrwt>
<pdfrwt beam="1">  1        1 0.67505499E-01 0.10824797E+03</pdfrwt>
<pdfrwt beam="2">  1       -1 0.22188646E-01 0.22549079E+02</pdfrwt>
<totfact> 0.84957148E+02</totfact>
</mgrwt>
</event>
<event>
 7    1  0.4252091E-004  0.6239214E+02  0.7546771E-02  0.1446931E+00
          2   -1    0    0  503    0  0.00000000000E+00  0.00000000000E+00  0.10946877350E+04  0.10946877350E+04  0.00000000000E+00 0. -1.
          1   -1    0    0  502    0 -0.00000000000E+00 -0.00000000000E+00 -0.37551927440E+03  0.37551927440E+03  0.00000000000E+00 0. -1.
         25    2    1    2    0    0  0.22830031650E+02  0.87511908401E+01  0.28538254143E+03  0.31251621625E+03  0.12500158711E+03 0.  0.
          4    1    3    3  501    0  0.53173762181E+02 -0.30319526416E+02  0.23105645105E+03  0.23903016366E+03  0.12700000000E+01 0.  1.
         -4    1    3    3    0  501 -0.30343730530E+02  0.39070717256E+02  0.54326090381E+02  0.73486052591E+02  0.12700000000E+01 0.  1.
          2    1    1    2  502    0 -0.62379952856E+02 -0.67592751251E+01 -0.35873510756E+03  0.36418103152E+03  0.00000000000E+00 0. -1.
          1    1    1    2  503    0  0.39549921205E+02 -0.19919157150E+01  0.79252102671E+03  0.79350976161E+03  0.00000000000E+00 0. -1.
<mgrwt>
<rscale>  0 0.49706459E+02</rscale>
<asrwt>0</asrwt>
<pdfrwt beam="1">  1        2 0.16841350E+00 0.39600050E+02</pdfrwt>
<pdfrwt beam="2">  1        1 0.57772197E-01 0.62392143E+02</pdfrwt>
<totfact> 0.23460206E+02</totfact>
</mgrwt>
</event>
<event>
 7    1  0.4252091E-004  0.1051788E+03  0.7546771E-02  0.1305050E+00
          2   -1    0    0  503    0  0.00000000000E+00  0.00000000000E+00  0.11427282923E+04  0.11427282923E+04  0.00000000000E+00 0. -1.
          1   -1    0    0  502    0 -0.00000000000E+00 -0.00000000000E+00 -0.38262308682E+02  0.38262308682E+02  0.00000000000E+00 0. -1.
         25    2    1    2    0    0 -0.68719966403E+02 -0.89051497607E+02  0.29115500126E+03  0.33621287166E+03  0.12496102315E+03 0.  0.
          4    1    3    3  501    0 -0.81806690176E+02 -0.13465363139E+02  0.97956425805E+02  0.12833832171E+03  0.12700000000E+01 0.  1.
         -4    1    3    3    0  501  0.13086723774E+02 -0.75586134469E+02  0.19319857545E+03  0.20787454996E+03  0.12700000000E+01 0.  1.
          2    1    1    2  502    0  0.10815351883E+03  0.24695381655E+02  0.21703878623E+03  0.24374757484E+03  0.00000000000E+00 0. -1.
          1    1    1    2  503    0 -0.39433552429E+02  0.64356115952E+02  0.59627219617E+03  0.60103015452E+03  0.00000000000E+00 0. -1.
<mgrwt>
<rscale>  0 0.89098449E+02</rscale>
<asrwt>0</asrwt>
<pdfrwt beam="1">  1        2 0.17580433E+00 0.75476584E+02</pdfrwt>
<pdfrwt beam="2">  1        1 0.58865099E-02 0.10517876E+03</pdfrwt>
<totfact> 0.38861524E+03</totfact>
</mgrwt>
</event>
<event>
 7    1  0.4252091E-004  0.8767521E+02  0.7546771E-02  0.1363864E+00
          1   -1    0    0  502    0 -0.00000000000E+00  0.00000000000E+00  0.58442463310E+03  0.58442463310E+03  0.00000000000E+00 0. -1.
          2   -1    0    0  503    0  0.00000000000E+00 -0.00000000000E+00 -0.54977957125E+03  0.54977957125E+03  0.00000000000E+00 0. -1.
         25    2    1    2    0    0 -0.84856224999E+02 -0.70313112648E+02  0.23973161001E+03  0.29195778244E+03  0.12499435650E+03 0.  0.
          4    1    3    3  501    0 -0.30376842911E+02  0.18558406738E+02  0.61209543967E+01  0.36142025795E+02  0.12700000000E+01 0. -1.
         -4    1    3    3    0  501 -0.54479382088E+02 -0.88871519386E+02  0.23361065561E+03  0.25581575664E+03  0.12700000000E+01 0. -1.
          2    1    1    2  502    0  0.52973277668E+02 -0.11226917822E+02  0.31257629898E+03  0.31723202000E+03  0.00000000000E+00 0. -1.
          1    1    1    2  503    0  0.31882947330E+02  0.81540030470E+02 -0.51766284714E+03  0.52501440190E+03  0.00000000000E+00 0. -1.
<mgrwt>
<rscale>  0 0.68902859E+02</rscale>
<asrwt>0</asrwt>
<pdfrwt beam="2">  1        2 0.84581473E-01 0.87675211E+02</pdfrwt>
<pdfrwt beam="1">  1        1 0.89911482E-01 0.54149901E+02</pdfrwt>
<totfact> 0.29949265E+02</totfact>
</mgrwt>
</event>
<event>
 7    1  0.4252091E-004  0.1010261E+03  0.7546771E-02  0.1315852E+00
          1   -1    0    0  502    0 -0.00000000000E+00  0.00000000000E+00  0.57320612714E+03  0.57320612714E+03  0.00000000000E+00 0. -1.
          2   -1    0    0  503    0  0.00000000000E+00 -0.00000000000E+00 -0.12497654591E+04  0.12497654591E+04  0.00000000000E+00 0. -1.
         25    2    1    2    0    0  0.39926531448E+02  0.35583842640E+02 -0.31244103765E+03  0.34074526577E+03  0.12501038502E+03 0.  0.
          4    1    3    3  501    0 -0.44853757410E+02  0.16136444396E+02 -0.89042747949E+02  0.10100726832E+03  0.12700000000E+01 0.  1.
         -4    1    3    3    0  501  0.84780288858E+02  0.19447398244E+02 -0.22339828970E+03  0.23973799745E+03  0.12700000000E+01 0.  1.
          2    1    1    2  502    0 -0.10189259573E+03 -0.42183211276E+00  0.55301810492E+03  0.56232668741E+03  0.00000000000E+00 0. -1.
          1    1    1    2  503    0  0.61966064279E+02 -0.35162010527E+02 -0.91713639926E+03  0.91989963309E+03  0.00000000000E+00 0. -1.
<mgrwt>
<rscale>  0 0.84839982E+02</rscale>
<asrwt>0</asrwt>
<pdfrwt beam="2">  1        2 0.19227161E+00 0.71247176E+02</pdfrwt>
<pdfrwt beam="1">  1        1 0.88185558E-01 0.10102607E+03</pdfrwt>
<totfact> 0.10834139E+02</totfact>
</mgrwt>
</event>
<event>
 7    1  0.4252091E-004  0.1017676E+03  0.7546771E-02  0.1357132E+00
          2   -1    0    0  503    0  0.00000000000E+00  0.00000000000E+00  0.48575234214E+03  0.48575234214E+03  0.00000000000E+00 0. -1.
         -2   -1    0    0    0  501 -0.00000000000E+00 -0.00000000000E+00 -0.16517297711E+03  0.16517297711E+03  0.00000000000E+00 0.  1.
         25    2    1    2    0    0  0.60702969501E+02  0.12344634013E+03  0.19247442739E+03  0.26757629068E+03  0.12500726674E+03 0.  0.
          4    1    3    3  502    0 -0.16288921258E+02  0.89307172272E+02  0.54406522689E+02  0.10584319811E+03  0.12700000000E+01 0.  1.
         -4    1    3    3    0  502  0.76991890759E+02  0.34139167854E+02  0.13806790470E+03  0.16173309257E+03  0.12700000000E+01 0.  1.
          1    1    1    2  503    0 -0.57531361771E+02 -0.74183726181E+02  0.24180822444E+03  0.25939217456E+03  0.00000000000E+00 0. -1.
         -1    1    1    2    0  501 -0.31716077301E+01 -0.49262613945E+02 -0.11370328680E+03  0.12395685401E+03  0.00000000000E+00 0.  1.
<mgrwt>
<rscale>  0 0.70878196E+02</rscale>
<asrwt>0</asrwt>
<pdfrwt beam="1">  1        2 0.74731129E-01 0.10176763E+03</pdfrwt>
<pdfrwt beam="2">  1       -2 0.25411227E-01 0.49364605E+02</pdfrwt>
<totfact> 0.86169255E+02</totfact>
</mgrwt>
</event>
<event>
 7    1  0.4252091E-004  0.6483747E+02  0.7546771E-02  0.1435466E+00
          1   -1    0    0  503    0  0.00000000000E+00  0.00000000000E+00  0.23737659538E+03  0.23737659538E+03  0.00000000000E+00 0. -1.
         -1   -1    0    0    0  501 -0.00000000000E+00 -0.00000000000E+00 -0.10787609713E+04  0.10787609713E+04  0.00000000000E+00 0.  1.
         25    2    1    2    0    0 -0.97992762840E+02  0.30641042864E+01  0.96374189784E+02  0.18582045401E+03  0.12501714430E+03 0.  0.
          4    1    3    3  502    0 -0.10233558042E+03  0.39379667423E+02  0.36361755638E+02  0.11552973384E+03  0.12700000000E+01 0.  1.
         -4    1    3    3    0  502  0.43428175850E+01 -0.36315563137E+02  0.60012434145E+02  0.70290720174E+02  0.12700000000E+01 0.  1.
          2    1    1    2  503    0  0.37103365411E+02  0.18610697480E+02  0.90743235656E+02  0.99786535177E+02  0.00000000000E+00 0. -1.
         -2    1    1    2    0  501  0.60889397429E+02 -0.21674801766E+02 -0.10285018014E+04  0.10305305775E+04  0.00000000000E+00 0.  1.
<mgrwt>
<rscale>  0 0.51878267E+02</rscale>
<asrwt>0</asrwt>
<pdfrwt beam="1">  1        1 0.36519476E-01 0.41509249E+02</pdfrwt>
<pdfrwt beam="2">  1       -1 0.16596323E+00 0.64837467E+02</pdfrwt>
<totfact> 0.37279527E+01</totfact>
</mgrwt>
</event>
<event>
 7    1  0.4252091E-004  0.4110339E+03  0.7546771E-02  0.1262877E+00
          2   -1    0    0  503    0  0.00000000000E+00  0.00000000000E+00  0.56891253314E+03  0.56891253314E+03  0.00000000000E+00 0. -1.
          1   -1    0    0  502    0 -0.00000000000E+00 -0.00000000000E+00 -0.18790762835E+04  0.18790762835E+04  0.00000000000E+00 0. -1.
         25    2    1    2    0    0 -0.41413047475E+03 -0.13409003239E+03 -0.13664807724E+04  0.14395747513E+04  0.12498630503E+03 0.  0.
          4    1    3    3  501    0 -0.16480856707E+03 -0.81003184095E+02 -0.75650407312E+03  0.77847505109E+03  0.12700000000E+01 0.  1.
         -4    1    3    3    0  501 -0.24932190767E+03 -0.53086848295E+02 -0.60997669929E+03  0.66109970026E+03  0.12700000000E+01 0.  1.
          2    1    1    2  502    0  0.20640342776E+02  0.20056251544E+02 -0.39663269985E+03  0.39767546513E+03  0.00000000000E+00 0. -1.
          1    1    1    2  503    0  0.39349013197E+03  0.11403378084E+03  0.45294972191E+03  0.61073860015E+03  0.00000000000E+00 0. -1.
<mgrwt>
<rscale>  0 0.10876338E+03</rscale>
<asrwt>0</asrwt>
<pdfrwt beam="1">  1        2 0.87525005E-01 0.41103385E+03</pdfrwt>
<pdfrwt beam="2">  1        1 0.28908866E+00 0.28779802E+02</pdfrwt>
<totfact> 0.38624607E+01</totfact>
</mgrwt>
</event>
<event>
 7    1  0.4252091E-004  0.4981321E+02  0.7546771E-02  0.1567691E+00
          1   -1    0    0  502    0 -0.00000000000E+00  0.00000000000E+00  0.12253878659E+03  0.12253878659E+03  0.00000000000E+00 0. -1.
          2   -1    0    0  503    0  0.00000000000E+00 -0.00000000000E+00 -0.22951925988E+04  0.22951925988E+04  0.00000000000E+00 0. -1.
         25    2    1    2    0    0 -0.54383935020E+02  0.27945267729E+02 -0.16373787108E+03  0.21487038537E+03  0.12498256561E+03 0.  0.
          4    1    3    3  501    0  0.31086200650E+02  0.15347530506E+02 -0.10450723756E+03  0.11011482264E+03  0.12700000000E+01 0.  1.
         -4    1    3    3    0  501 -0.85470135671E+02  0.12597737223E+02 -0.59230633519E+02  0.10475556272E+03  0.12700000000E+01 0.  1.
          2    1    1    2  502    0  0.51253113874E+01 -0.21170987163E+02  0.95451912123E+02  0.97905806989E+02  0.00000000000E+00 0. -1.
          1    1    1    2  503    0  0.49258623633E+02 -0.67742805655E+01 -0.21043678533E+04  0.21049551931E+04  0.00000000000E+00 0. -1.
<mgrwt>
<rscale>  0 0.32940229E+02</rscale>
<asrwt>0</asrwt>
<pdfrwt beam="2">  1        2 0.35310657E+00 0.49813206E+02</pdfrwt>
<pdfrwt beam="1">  1        1 0.18852120E-01 0.21782551E+02</pdfrwt>
<totfact> 0.21556859E+02</totfact>
</mgrwt>
</event>
<event>
 7    1  0.4252091E-004  0.4236762E+02  0.7546771E-02  0.1500289E+00
          1   -1    0    0  502    0 -0.00000000000E+00  0.00000000000E+00  0.16511920041E+04  0.16511920041E+04  0.00000000000E+00 0. -1.
          2   -1    0    0  503    0  0.00000000000E+00 -0.00000000000E+00 -0.24976823543E+04  0.24976823543E+04  0.00000000000E+00 0. -1.
         25    2    1    2    0    0 -0.81049926397E+02  0.94091245346E+01 -0.22146627602E+03  0.26707726427E+03  0.12500132593E+03 0.  0.
          4    1    3    3  501    0 -0.52023547049E+02  0.45412969966E+02 -0.20758693854E+03  0.21877554077E+03  0.12700000000E+01 0.  1.
         -4    1    3    3    0  501 -0.29026379348E+02 -0.36003845431E+02 -0.13879337477E+02  0.48301723496E+02  0.12700000000E+01 0.  1.
          2    1    1    2  502    0  0.39850188016E+02 -0.10818694508E+01  0.16279464646E+04  0.16284344935E+04  0.00000000000E+00 0. -1.
          1    1    1    2  503    0  0.41199738381E+02 -0.83272550838E+01 -0.22529705388E+04  0.22533626007E+04  0.00000000000E+00 0. -1.
<mgrwt>
<rscale>  0 0.41097199E+02</rscale>
<asrwt>0</asrwt>
<pdfrwt beam="2">  1        2 0.38425882E+00 0.42367623E+02</pdfrwt>
<pdfrwt beam="1">  1        1 0.25402954E+00 0.39864871E+02</pdfrwt>
<totfact> 0.49577913E+00</totfact>
</mgrwt>
</event>
<event>
 7    1  0.4252091E-004  0.1443354E+03  0.7546771E-02  0.1217418E+00
          2   -1    0    0  503    0  0.00000000000E+00  0.00000000000E+00  0.99665527034E+03  0.99665527034E+03  0.00000000000E+00 0. -1.
         -2   -1    0    0    0  501 -0.00000000000E+00 -0.00000000000E+00 -0.16595518323E+03  0.16595518323E+03  0.00000000000E+00 0.  1.
         25    2    1    2    0    0  0.56240065272E+02  0.27361063345E+02  0.28064249363E+03  0.31352826114E+03  0.12501275364E+03 0.  0.
          4    1    3    3  502    0  0.45056746370E+02  0.54821799185E+02  0.27409786885E+03  0.28313741305E+03  0.12700000000E+01 0.  1.
         -4    1    3    3    0  502  0.11183318903E+02 -0.27460735841E+02  0.65446247869E+01  0.30390848099E+02  0.12700000000E+01 0.  1.
          1    1    1    2  503    0  0.88679872516E+02 -0.95119923642E+02  0.64838779230E+03  0.66130072498E+03  0.00000000000E+00 0. -1.
         -1    1    1    2    0  501 -0.14491993779E+03  0.67758860298E+02 -0.98330198818E+02  0.18778146745E+03  0.00000000000E+00 0.  1.
<mgrwt>
<rscale>  0 0.13700443E+03</rscale>
<asrwt>0</asrwt>
<pdfrwt beam="1">  1        2 0.15333158E+00 0.13004584E+03</pdfrwt>
<pdfrwt beam="2">  1       -2 0.25531567E-01 0.14433537E+03</pdfrwt>
<totfact> 0.37202990E+02</totfact>
</mgrwt>
</event>
<event>
 7    1  0.4252091E-004  0.5140709E+02  0.7546771E-02  0.1535456E+00
          1   -1    0    0  502    0 -0.00000000000E+00  0.00000000000E+00  0.19850896159E+03  0.19850896159E+03  0.00000000000E+00 0. -1.
          2   -1    0    0  503    0  0.00000000000E+00 -0.00000000000E+00 -0.11253070044E+04  0.11253070044E+04  0.00000000000E+00 0. -1.
         25    2    1    2    0    0 -0.39184710943E+02 -0.30918852397E+01 -0.62451254151E+03  0.63810961877E+03  0.12499187871E+03 0.  0.
          4    1    3    3  501    0  0.56849919522E+01 -0.57159094799E+02 -0.35328780032E+03  0.35792927236E+03  0.12700000000E+01 0. -1.
         -4    1    3    3    0  501 -0.44869702895E+02  0.54067209560E+02 -0.27122474118E+03  0.28018034642E+03  0.12700000000E+01 0. -1.
          2    1    1    2  502    0  0.42692133010E+02  0.28805755467E+02  0.18790211647E+03  0.19483222307E+03  0.00000000000E+00 0. -1.
          1    1    1    2  503    0 -0.35074220676E+01 -0.25713870228E+02 -0.49018761774E+03  0.49087412410E+03  0.00000000000E+00 0. -1.
<mgrwt>
<rscale>  0 0.36525546E+02</rscale>
<asrwt>0</asrwt>
<pdfrwt beam="2">  1        2 0.17312416E+00 0.25951977E+02</pdfrwt>
<pdfrwt beam="1">  1        1 0.30539840E-01 0.51407086E+02</pdfrwt>
<totfact> 0.49892478E+02</totfact>
</mgrwt>
</event>
<event>
 7    1  0.4252091E-004  0.9436005E+02  0.7546771E-02  0.1314646E+00
          1   -1    0    0  502    0 -0.00000000000E+00  0.00000000000E+00  0.35598847730E+03  0.35598847730E+03  0.00000000000E+00 0. -1.
          2   -1    0    0  503    0  0.00000000000E+00 -0.00000000000E+00 -0.21150143416E+04  0.21150143416E+04  0.00000000000E+00 0. -1.
         25    2    1    2    0    0 -0.15526445289E+03 -0.28012197198E+02 -0.50470345466E+03  0.54336393280E+03  0.12500821095E+03 0.  0.
          4    1    3    3  501    0 -0.14002642659E+03  0.47493147146E+01 -0.25413173727E+03  0.29019736202E+03  0.12700000000E+01 0. -1.
         -4    1    3    3    0  501 -0.15238026300E+02 -0.32761511912E+02 -0.25057171739E+03  0.25316657078E+03  0.12700000000E+01 0. -1.
          2    1    1    2  502    0  0.75610875306E+02 -0.15143100363E+02  0.33093228945E+03  0.33979773123E+03  0.00000000000E+00 0. -1.
          1    1    1    2  503    0  0.79653577587E+02  0.43155297561E+02 -0.15852546990E+04  0.15878411548E+04  0.00000000000E+00 0. -1.
<mgrwt>
<rscale>  0 0.85301391E+02</rscale>
<asrwt>0</asrwt>
<pdfrwt beam="2">  1        2 0.32538682E+00 0.94360050E+02</pdfrwt>
<pdfrwt beam="1">  1        1 0.54767458E-01 0.77112372E+02</pdfrwt>
<totfact> 0.70722472E+01</totfact>
</mgrwt>
</event>
<event>
 7    1  0.4252091E-004  0.9524605E+02  0.7546771E-02  0.1426139E+00
          1   -1    0    0  503    0  0.00000000000E+00  0.00000000000E+00  0.16689484511E+04  0.16689484511E+04  0.00000000000E+00 0. -1.
         -1   -1    0    0    0  501 -0.00000000000E+00 -0.00000000000E+00 -0.12911434515E+03  0.12911434515E+03  0.00000000000E+00 0.  1.
         25    2    1    2    0    0 -0.53759431956E+01 -0.89052818103E+02  0.55773280238E+02  0.16338275687E+03  0.12499584504E+03 0.  0.
          4    1    3    3  502    0  0.30151693477E+02 -0.10548249022E+03  0.22510328225E+02  0.11200003633E+03  0.12700000000E+01 0. -1.
         -4    1    3    3    0  502 -0.35527636673E+02  0.16429672113E+02  0.33262952014E+02  0.51382720539E+02  0.12700000000E+01 0. -1.
          2    1    1    2  503    0 -0.24778296972E+02  0.92263492553E+02  0.15547910368E+04  0.15577232373E+04  0.00000000000E+00 0. -1.
         -2    1    1    2    0  501  0.30154240167E+02 -0.32106744493E+01 -0.70730211043E+02  0.76956802069E+02  0.00000000000E+00 0.  1.
<mgrwt>
<rscale>  0 0.53742967E+02</rscale>
<asrwt>0</asrwt>
<pdfrwt beam="1">  1        1 0.25676128E+00 0.95246046E+02</pdfrwt>
<pdfrwt beam="2">  1       -1 0.19863747E-01 0.30324687E+02</pdfrwt>
<totfact> 0.11610213E+02</totfact>
</mgrwt>
</event>
<event>
 7    1  0.4252091E-004  0.7227272E+02  0.7546771E-02  0.1495981E+00
          1   -1    0    0  502    0 -0.00000000000E+00  0.00000000000E+00  0.91874454681E+03  0.91874454681E+03  0.00000000000E+00 0. -1.
          2   -1    0    0  503    0  0.00000000000E+00 -0.00000000000E+00 -0.58994600327E+02  0.58994600327E+02  0.00000000000E+00 0. -1.
         25    2    1    2    0    0 -0.78317272801E+02 -0.49620633330E+02  0.44717914560E+03  0.47348715126E+03  0.12500036669E+03 0.  0.
          4    1    3    3  501    0 -0.49386389626E+02  0.29618587677E+02  0.92955020491E+02  0.10935504081E+03  0.12700000000E+01 0. -1.
         -4    1    3    3    0  501 -0.28930883174E+02 -0.79239221008E+02  0.35422412511E+03  0.36413211045E+03  0.12700000000E+01 0. -1.
          2    1    1    2  502    0  0.13837669254E+02  0.19698907381E+02  0.43031417178E+03  0.43098702356E+03  0.00000000000E+00 0. -1.
          1    1    1    2  503    0  0.64479603547E+02  0.29921725949E+02 -0.17743370903E+02  0.73264972315E+02  0.00000000000E+00 0. -1.
<mgrwt>
<rscale>  0 0.41711502E+02</rscale>
<asrwt>0</asrwt>
<pdfrwt beam="2">  1        2 0.90760930E-02 0.72272725E+02</pdfrwt>
<pdfrwt beam="1">  1        1 0.14134530E+00 0.24073389E+02</pdfrwt>
<totfact> 0.19295255E+03</totfact>
</mgrwt>
</event>
<event>
 7    1  0.4252091E-004  0.7189267E+02  0.7546771E-02  0.1402162E+00
         -2   -1    0    0    0  501 -0.00000000000E+00  0.00000000000E+00  0.44336510659E+02  0.44336510659E+02  0.00000000000E+00 0.  1.
          2   -1    0    0  503    0  0.00000000000E+00 -0.00000000000E+00 -0.63262417056E+03  0.63262417056E+03  0.00000000000E+00 0. -1.
         25    2    1    2    0    0 -0.59546853218E+02  0.33636483302E+02 -0.18561853059E+03  0.23399959105E+03  0.12499731586E+03 0.  0.
          4    1    3    3  502    0 -0.82314205754E+02  0.30843961415E+02 -0.19112627054E+03  0.21037548007E+03  0.12700000000E+01 0. -1.
         -4    1    3    3    0  502  0.22767352536E+02  0.27925218863E+01  0.55077399486E+01  0.23624110974E+02  0.12700000000E+01 0. -1.
          1    1    1    2  503    0 -0.17136191560E+02 -0.45250861986E+02 -0.33950746170E+03  0.34293819578E+03  0.00000000000E+00 0. -1.
         -1    1    1    2    0  501  0.76683044777E+02  0.11614378684E+02 -0.63161667607E+02  0.10002289440E+03  0.00000000000E+00 0.  1.
<mgrwt>
<rscale>  0 0.58980180E+02</rscale>
<asrwt>0</asrwt>
<pdfrwt beam="2">  1        2 0.97326794E-01 0.48386874E+02</pdfrwt>
<pdfrwt beam="1">  1       -2 0.68210017E-02 0.71892670E+02</pdfrwt>
<totfact> 0.54071852E+03</totfact>
</mgrwt>
</event>
<event>
 7    1  0.4252091E-004  0.3235597E+02  0.7546771E-02  0.1598546E+00
          1   -1    0    0  502    0 -0.00000000000E+00  0.00000000000E+00  0.15947937666E+04  0.15947937666E+04  0.00000000000E+00 0. -1.
          2   -1    0    0  503    0  0.00000000000E+00 -0.00000000000E+00 -0.17228861921E+02  0.17228861921E+02  0.00000000000E+00 0. -1.
         25    2    1    2    0    0 -0.91592197635E+01  0.19721731003E+01  0.78360347633E+03  0.79356544206E+03  0.12499568769E+03 0.  0.
          4    1    3    3  501    0 -0.70689320331E+01 -0.12716548591E+02  0.59510985183E+01  0.15770506705E+02  0.12700000000E+01 0. -1.
         -4    1    3    3    0  501 -0.20902877303E+01  0.14688721692E+02  0.77765237781E+03  0.77779493535E+03  0.12700000000E+01 0. -1.
          2    1    1    2  502    0  0.20910755341E+02 -0.27098818469E+02  0.78964256730E+03  0.79038407736E+03  0.00000000000E+00 0. -1.
          1    1    1    2  503    0 -0.11751535578E+02  0.25126645369E+02  0.43188610933E+01  0.28073109145E+02  0.00000000000E+00 0. -1.
<mgrwt>
<rscale>  0 0.29958623E+02</rscale>
<asrwt>0</asrwt>
<pdfrwt beam="2">  1        2 0.26505954E-02 0.27738906E+02</pdfrwt>
<pdfrwt beam="1">  1        1 0.24535277E+00 0.32355965E+02</pdfrwt>
<totfact> 0.29392622E+03</totfact>
</mgrwt>
</event>
<event>
 7    1  0.4252091E-004  0.5209016E+02  0.7546771E-02  0.1454384E+00
         -1   -1    0    0    0  502 -0.00000000000E+00  0.00000000000E+00  0.50698583836E+03  0.50698583836E+03  0.00000000000E+00 0.  1.
         -2   -1    0    0    0  501  0.00000000000E+00 -0.00000000000E+00 -0.25332711248E+03  0.25332711248E+03  0.00000000000E+00 0.  1.
         25    2    1    2    0    0 -0.26541271720E+02  0.15263926935E+02 -0.18110580017E+03  0.22219591628E+03  0.12503714562E+03 0.  0.
          4    1    3    3  503    0 -0.48157790511E+02  0.55641865477E+02 -0.14919457458E+03  0.16636052406E+03  0.12700000000E+01 0.  1.
         -4    1    3    3    0  503  0.21616518791E+02 -0.40377938542E+02 -0.31911225588E+02  0.55835392217E+02  0.12700000000E+01 0.  1.
         -2    1    1    2    0  502 -0.39173990193E+02 -0.34333406155E+02  0.46166400764E+03  0.46459341390E+03  0.00000000000E+00 0.  1.
         -1    1    1    2    0  501  0.65715261913E+02  0.19069479220E+02 -0.26899481586E+02  0.73523620664E+02  0.00000000000E+00 0.  1.
<mgrwt>
<rscale>  0 0.48361625E+02</rscale>
<asrwt>0</asrwt>
<pdfrwt beam="2">  1       -2 0.38973402E-01 0.44899977E+02</pdfrwt>
<pdfrwt beam="1">  1       -1 0.77997821E-01 0.52090155E+02</pdfrwt>
<totfact> 0.82713598E+01</totfact>
</mgrwt>
</event>
<event>
 7    1  0.4252091E-004  0.1600397E+03  0.7546771E-02  0.1291278E+00
          1   -1    0    0  502    0 -0.00000000000E+00  0.00000000000E+00  0.17954138903E+04  0.17954138903E+04  0.00000000000E+00 0. -1.
          2   -1    0    0  503    0  0.00000000000E+00 -0.00000000000E+00 -0.28126160304E+04  0.28126160304E+04  0.00000000000E+00 0. -1.
         25    2    1    2    0    0 -0.13040079309E+03 -0.16500311005E+03 -0.18489617199E+02  0.24534981787E+03  0.12499709604E+03 0.  0.
          4    1    3    3  501    0 -0.84583551959E+02 -0.14987931934E+03 -0.59412789101E+02  0.18207053588E+03  0.12700000000E+01 0.  1.
         -4    1    3    3    0  501 -0.45817241133E+02 -0.15123790715E+02  0.40923171903E+02  0.63279281990E+02  0.12700000000E+01 0.  1.
          2    1    1    2  502    0  0.82328501360E+02  0.13562512103E+03  0.16779452720E+04  0.16854294679E+04  0.00000000000E+00 0. -1.
          3    1    1    2  503    0  0.48072291732E+02  0.29377989027E+02 -0.26766577948E+04  0.26772506349E+04  0.00000000000E+00 0. -1.
<mgrwt>
<rscale>  0 0.94954610E+02</rscale>
<asrwt>0</asrwt>
<pdfrwt beam="2">  1        2 0.43271015E+00 0.56338366E+02</pdfrwt>
<pdfrwt beam="1">  1        1 0.27621752E+00 0.16003975E+03</pdfrwt>
<totfact> 0.22607210E+00</totfact>
</mgrwt>
</event>
<event>
 7    1  0.4252091E-004  0.1192480E+03  0.7546771E-02  0.1374116E+00
          1   -1    0    0  502    0 -0.00000000000E+00  0.00000000000E+00  0.16720568307E+04  0.16720568307E+04  0.00000000000E+00 0. -1.
          2   -1    0    0  503    0  0.00000000000E+00 -0.00000000000E+00 -0.15683046802E+03  0.15683046802E+03  0.00000000000E+00 0. -1.
         25    2    1    2    0    0  0.75382288282E+02  0.41910222804E+02  0.57121096191E+02  0.16225450652E+03  0.12499899637E+03 0.  0.
          4    1    3    3  501    0  0.42110272890E+02  0.86471471453E+02  0.38235354492E+02  0.10350915752E+03  0.12700000000E+01 0. -1.
         -4    1    3    3    0  501  0.33272015391E+02 -0.44561248649E+02  0.18885741699E+02  0.58745348998E+02  0.12700000000E+01 0. -1.
          2    1    1    2  502    0 -0.11175267147E+03 -0.45715702595E+02  0.15567513127E+04  0.15614266664E+04  0.00000000000E+00 0. -1.
          1    1    1    2  503    0  0.36370383189E+02  0.38054797912E+01 -0.98646046256E+02  0.10520612573E+03  0.00000000000E+00 0. -1.
<mgrwt>
<rscale>  0 0.66036138E+02</rscale>
<asrwt>0</asrwt>
<pdfrwt beam="2">  1        2 0.24127765E-01 0.36568927E+02</pdfrwt>
<pdfrwt beam="1">  1        1 0.25723950E+00 0.11924800E+03</pdfrwt>
<totfact> 0.17166684E+02</totfact>
</mgrwt>
</event>
<event>
 7    1  0.4252091E-004  0.8092650E+02  0.7546771E-02  0.1364136E+00
          1   -1    0    0  503    0  0.00000000000E+00  0.00000000000E+00  0.13806571191E+04  0.13806571191E+04  0.00000000000E+00 0. -1.
         -1   -1    0    0    0  501 -0.00000000000E+00 -0.00000000000E+00 -0.16792014007E+03  0.16792014007E+03  0.00000000000E+00 0.  1.
         25    2    1    2    0    0 -0.19434752468E+02  0.11517919903E+03  0.39065241574E+03  0.42647184130E+03  0.12499985604E+03 0.  0.
          4    1    3    3  502    0  0.92447737658E+01 -0.67263984469E+01 -0.41902750061E+01  0.12242613392E+02  0.12700000000E+01 0. -1.
         -4    1    3    3    0  502 -0.28679526234E+02  0.12190559747E+03  0.39484269074E+03  0.41422922791E+03  0.12700000000E+01 0. -1.
          2    1    1    2  503    0  0.43919574399E+02 -0.38692886396E+02  0.96039105946E+03  0.96217309023E+03  0.00000000000E+00 0. -1.
         -2    1    1    2    0  501 -0.24484821931E+02 -0.76486312631E+02 -0.13830649620E+03  0.15993232761E+03  0.00000000000E+00 0.  1.
<mgrwt>
<rscale>  0 0.68824708E+02</rscale>
<asrwt>0</asrwt>
<pdfrwt beam="1">  1        1 0.21240878E+00 0.58532627E+02</pdfrwt>
<pdfrwt beam="2">  1       -1 0.25833869E-01 0.80926496E+02</pdfrwt>
<totfact> 0.12751988E+02</totfact>
</mgrwt>
</event>
<event>
 7    1  0.4252091E-004  0.6551441E+02  0.7546771E-02  0.1490902E+00
          2   -1    0    0  503    0  0.00000000000E+00  0.00000000000E+00  0.15083599646E+04  0.15083599646E+04  0.00000000000E+00 0. -1.
          1   -1    0    0  502    0 -0.00000000000E+00 -0.00000000000E+00 -0.30841877952E+02  0.30841877952E+02  0.00000000000E+00 0. -1.
         25    2    1    2    0    0  0.45532240090E+02 -0.56445491386E+02  0.51953348417E+03  0.53925830230E+03  0.12500078815E+03 0.  0.
          4    1    3    3  501    0  0.47281658643E+02  0.45958940532E+01  0.64350124576E+02  0.79995180599E+02  0.12700000000E+01 0. -1.
         -4    1    3    3    0  501 -0.17494185537E+01 -0.61041385439E+02  0.45518335960E+03  0.45926312170E+03  0.12700000000E+01 0. -1.
          2    1    1    2  502    0 -0.26826775135E+02 -0.60873488260E+01 -0.10365000448E+02  0.29396682027E+02  0.00000000000E+00 0. -1.
          1    1    1    2  503    0 -0.18705464954E+02  0.62532840212E+02  0.96834960289E+03  0.97054685819E+03  0.00000000000E+00 0. -1.
<mgrwt>
<rscale>  0 0.42452562E+02</rscale>
<asrwt>0</asrwt>
<pdfrwt beam="1">  1        2 0.23205532E+00 0.65514412E+02</pdfrwt>
<pdfrwt beam="2">  1        1 0.47449055E-02 0.27508756E+02</pdfrwt>
<totfact> 0.29265940E+03</totfact>
</mgrwt>
</event>
<event>
 7    1  0.4252091E-004  0.1796467E+03  0.7546771E-02  0.1266105E+00
          1   -1    0    0  502    0 -0.00000000000E+00  0.00000000000E+00  0.22179690402E+04  0.22179690402E+04  0.00000000000E+00 0. -1.
          2   -1    0    0  503    0  0.00000000000E+00 -0.00000000000E+00 -0.50225705398E+03  0.50225705398E+03  0.00000000000E+00 0. -1.
         25    2    1    2    0    0  0.12109594437E+03  0.63080323512E+02  0.87552880677E+00  0.18511906634E+03  0.12499978887E+03 0.  0.
          4    1    3    3  501    0  0.10752854201E+03 -0.30153703867E+01  0.29900488415E+02  0.11165631157E+03  0.12700000000E+01 0. -1.
         -4    1    3    3    0  501  0.13567402354E+02  0.66095693899E+02 -0.29024959608E+02  0.73462754773E+02  0.12700000000E+01 0. -1.
          2    1    1    2  502    0  0.25679046692E+02  0.58411826010E+02  0.21023327393E+04  0.21033008110E+04  0.00000000000E+00 0. -1.
          1    1    1    2  503    0 -0.14677499106E+03 -0.12149214952E+03 -0.38749628190E+03  0.43180621682E+03  0.00000000000E+00 0. -1.
<mgrwt>
<rscale>  0 0.10706421E+03</rscale>
<asrwt>0</asrwt>
<pdfrwt beam="2">  1        2 0.77270317E-01 0.17964665E+03</pdfrwt>
<pdfrwt beam="1">  1        1 0.34122600E+00 0.63807169E+02</pdfrwt>
<totfact> 0.25123415E+01</totfact>
</mgrwt>
</event>
<event>
 7    1  0.4252091E-004  0.5161837E+02  0.7546771E-02  0.1471339E+00
          1   -1    0    0  502    0 -0.00000000000E+00  0.00000000000E+00  0.33461806847E+03  0.33461806847E+03  0.00000000000E+00 0. -1.
          2   -1    0    0  503    0  0.00000000000E+00 -0.00000000000E+00 -0.63841355472E+03  0.63841355472E+03  0.00000000000E+00 0. -1.
         25    2    1    2    0    0 -0.19715943854E+02  0.68968788389E+02 -0.19798531864E+03  0.24488598914E+03  0.12500219626E+03 0.  0.
          4    1    3    3  501    0  0.71386537149E+01  0.27215155082E+02 -0.19292334003E+03  0.19496833863E+03  0.12700000000E+01 0.  1.
         -4    1    3    3    0  501 -0.26854597569E+02  0.41753633307E+02 -0.50619786108E+01  0.49917650510E+02  0.12700000000E+01 0.  1.
          2    1    1    2  502    0 -0.15177109975E+02 -0.49249456021E+02  0.30805921806E+03  0.31234009576E+03  0.00000000000E+00 0. -1.
          1    1    1    2  503    0  0.34893053829E+02 -0.19719332369E+02 -0.41386938567E+03  0.41580553829E+03  0.00000000000E+00 0. -1.
<mgrwt>
<rscale>  0 0.45484563E+02</rscale>
<asrwt>0</asrwt>
<pdfrwt beam="2">  1        2 0.98217469E-01 0.40079637E+02</pdfrwt>
<pdfrwt beam="1">  1        1 0.51479703E-01 0.51618370E+02</pdfrwt>
<totfact> 0.51586797E+02</totfact>
</mgrwt>
</event>
<event>
 7    1  0.4252091E-004  0.1183033E+03  0.7546771E-02  0.1248075E+00
          2   -1    0    0  503    0  0.00000000000E+00  0.00000000000E+00  0.15741633426E+04  0.15741633426E+04  0.00000000000E+00 0. -1.
          1   -1    0    0  502    0 -0.00000000000E+00 -0.00000000000E+00 -0.43062228153E+03  0.43062228153E+03  0.00000000000E+00 0. -1.
         25    2    1    2    0    0 -0.14965573096E+03 -0.12143033659E+03  0.53384860481E+02  0.23583407416E+03  0.12500241099E+03 0.  0.
          4    1    3    3  501    0 -0.11968341916E+03 -0.13545260001E+03  0.75630025334E+02  0.19594142314E+03  0.12700000000E+01 0.  1.
         -4    1    3    3    0  501 -0.29972311806E+02  0.14022263419E+02 -0.22245164853E+02  0.39892651025E+02  0.12700000000E+01 0.  1.
          2    1    1    2  502    0  0.11539347160E+03  0.93838889995E+01 -0.32703606064E+03  0.34692404878E+03  0.00000000000E+00 0. -1.
          1    1    1    2  503    0  0.34262259366E+02  0.11204644759E+03  0.14171922612E+04  0.14220275012E+04  0.00000000000E+00 0. -1.
<mgrwt>
<rscale>  0 0.11703204E+03</rscale>
<asrwt>0</asrwt>
<pdfrwt beam="1">  1        2 0.24217897E+00 0.11830334E+03</pdfrwt>
<pdfrwt beam="2">  1        1 0.66249582E-01 0.11577440E+03</pdfrwt>
<totfact> 0.10208640E+02</totfact>
</mgrwt>
</event>
<event>
 7    1  0.4252091E-004  0.9791664E+02  0.7546771E-02  0.1393630E+00
         -1   -1    0    0    0  502 -0.00000000000E+00  0.00000000000E+00  0.11409098432E+03  0.11409098432E+03  0.00000000000E+00 0.  1.
         -2   -1    0    0    0  501  0.00000000000E+00 -0.00000000000E+00 -0.87739253009E+03  0.87739253009E+03  0.00000000000E+00 0.  1.
         25    2    1    2    0    0 -0.60060663485E+02 -0.17295690963E+02 -0.40267641668E+03  0.42623868784E+03  0.12499879296E+03 0.  0.
          4    1    3    3  503    0 -0.59542946365E+02  0.10558807802E+02 -0.70488372300E+02  0.92882045700E+02  0.12700000000E+01 0.  1.
         -4    1    3    3    0  503 -0.51771711988E+00 -0.27854498765E+02 -0.33218804438E+03  0.33335664214E+03  0.12700000000E+01 0.  1.
         -2    1    1    2    0  502  0.93726548721E+02  0.34957741633E+02  0.76834808903E+02  0.12613602774E+03  0.00000000000E+00 0.  1.
         -1    1    1    2    0  501 -0.33665885236E+02 -0.17662050670E+02 -0.43745993799E+03  0.43910879883E+03  0.00000000000E+00 0.  1.
<mgrwt>
<rscale>  0 0.61012772E+02</rscale>
<asrwt>0</asrwt>
<pdfrwt beam="2">  1       -2 0.13498346E+00 0.38017626E+02</pdfrwt>
<pdfrwt beam="1">  1       -1 0.17552460E-01 0.97916643E+02</pdfrwt>
<totfact> 0.80434164E+01</totfact>
</mgrwt>
</event>
<event>
 7    1  0.4252091E-004  0.5690057E+02  0.7546771E-02  0.1473509E+00
         -2   -1    0    0    0  501 -0.00000000000E+00  0.00000000000E+00  0.51752227772E+03  0.51752227772E+03  0.00000000000E+00 0.  1.
          2   -1    0    0  503    0  0.00000000000E+00 -0.00000000000E+00 -0.36353294898E+04  0.36353294898E+04  0.00000000000E+00 0. -1.
         25    2    1    2    0    0  0.18847472095E+02 -0.80226462191E+02  0.37741479056E+03  0.40602867006E+03  0.12500337729E+03 0.  0.
          4    1    3    3  502    0  0.21457250326E+02  0.31044800475E+02  0.79887785015E+02  0.88362120406E+02  0.12700000000E+01 0. -1.
         -4    1    3    3    0  502 -0.26097782316E+01 -0.11127126267E+03  0.29752700555E+03  0.31766654965E+03  0.12700000000E+01 0. -1.
          3    1    1    2  503    0 -0.32098370770E+02  0.46968846229E+02 -0.36182474150E+04  0.36186946174E+04  0.00000000000E+00 0. -1.
         -1    1    1    2    0  501  0.13250898676E+02  0.33257615962E+02  0.12302541231E+03  0.12812848009E+03  0.00000000000E+00 0.  1.
<mgrwt>
<rscale>  0 0.45133721E+02</rscale>
<asrwt>0</asrwt>
<pdfrwt beam="2">  1        2 0.55928147E+00 0.56900574E+02</pdfrwt>
<pdfrwt beam="1">  1       -2 0.79618811E-01 0.35800214E+02</pdfrwt>
<totfact> 0.16806597E+00</totfact>
</mgrwt>
</event>
<event>
 7    1  0.4252091E-004  0.7068877E+02  0.7546771E-02  0.1441647E+00
          2   -1    0    0  503    0  0.00000000000E+00  0.00000000000E+00  0.71074429772E+03  0.71074429772E+03  0.00000000000E+00 0. -1.
         -2   -1    0    0    0  501 -0.00000000000E+00 -0.00000000000E+00 -0.10648120772E+03  0.10648120772E+03  0.00000000000E+00 0.  1.
         25    2    1    2    0    0 -0.35332550486E+02 -0.20474927726E+02  0.26337067828E+03  0.29437061604E+03  0.12498933403E+03 0.  0.
          4    1    3    3  502    0  0.34918021078E+02  0.80065494748E+01  0.17174151903E+03  0.17544268377E+03  0.12700000000E+01 0.  1.
         -4    1    3    3    0  502 -0.70250571564E+02 -0.28481477201E+02  0.91629159249E+02  0.11892793227E+03  0.12700000000E+01 0.  1.
          1    1    1    2  503    0 -0.35714915733E+02  0.67715715054E+01  0.41656959194E+03  0.41815264476E+03  0.00000000000E+00 0. -1.
         -1    1    1    2    0  501  0.71047466218E+02  0.13703356221E+02 -0.75677180222E+02  0.10470224465E+03  0.00000000000E+00 0.  1.
<mgrwt>
<rscale>  0 0.50691431E+02</rscale>
<asrwt>0</asrwt>
<pdfrwt beam="1">  1        2 0.10934527E+00 0.36351195E+02</pdfrwt>
<pdfrwt beam="2">  1       -2 0.16381725E-01 0.70688768E+02</pdfrwt>
<totfact> 0.12239288E+03</totfact>
</mgrwt>
</event>
<event>
 7    1  0.4252091E-004  0.1436422E+03  0.7546771E-02  0.1276023E+00
          1   -1    0    0  503    0  0.00000000000E+00  0.00000000000E+00  0.75528119661E+03  0.75528119661E+03  0.00000000000E+00 0. -1.
         -1   -1    0    0    0  501 -0.00000000000E+00 -0.00000000000E+00 -0.18845906889E+03  0.18845906889E+03  0.00000000000E+00 0.  1.
         25    2    1    2    0    0 -0.46924397886E+02  0.81011377230E+02  0.51266366192E+03  0.53592228237E+03  0.12499568047E+03 0.  0.
          4    1    3    3  502    0 -0.17741161870E+02  0.87028545451E+02  0.16859913568E+03  0.19056756807E+03  0.12700000000E+01 0.  1.
         -4    1    3    3    0  502 -0.29183236015E+02 -0.60171682215E+01  0.34406452623E+03  0.34535471430E+03  0.12700000000E+01 0.  1.
          2    1    1    2  503    0  0.31476834622E+02  0.65327368003E+02  0.19258773694E+03  0.20578749366E+03  0.00000000000E+00 0. -1.
         -2    1    1    2    0  501  0.15447563263E+02 -0.14633874523E+03 -0.13842927114E+03  0.20203048947E+03  0.00000000000E+00 0.  1.
<mgrwt>
<rscale>  0 0.10206001E+03</rscale>
<asrwt>0</asrwt>
<pdfrwt beam="1">  1        1 0.11619711E+00 0.72515213E+02</pdfrwt>
<pdfrwt beam="2">  1       -1 0.28993703E-01 0.14364220E+03</pdfrwt>
<totfact> 0.28933034E+02</totfact>
</mgrwt>
</event>
<event>
 7    1  0.4252091E-004  0.1172408E+03  0.7546771E-02  0.1263222E+00
          1   -1    0    0  502    0 -0.00000000000E+00  0.00000000000E+00  0.13751160896E+04  0.13751160896E+04  0.00000000000E+00 0. -1.
          2   -1    0    0  503    0  0.00000000000E+00 -0.00000000000E+00 -0.13254373375E+04  0.13254373375E+04  0.00000000000E+00 0. -1.
         25    2    1    2    0    0  0.10015998985E+02  0.10434461077E+03 -0.38288893089E+01  0.16317211441E+03  0.12498944154E+03 0.  0.
          4    1    3    3  501    0  0.19353830516E+02  0.35219486108E+02 -0.60942493520E+02  0.73010844220E+02  0.12700000000E+01 0.  1.
         -4    1    3    3    0  501 -0.93378315309E+01  0.69125124660E+02  0.57113604211E+02  0.90161270194E+02  0.12700000000E+01 0.  1.
          2    1    1    2  502    0  0.91430204954E+02 -0.41864452966E+02  0.12906267207E+04  0.12945383142E+04  0.00000000000E+00 0. -1.
          1    1    1    2  503    0 -0.10144620394E+03 -0.62480157802E+02 -0.12371190793E+04  0.12428429984E+04  0.00000000000E+00 0. -1.
<mgrwt>
<rscale>  0 0.10858001E+03</rscale>
<asrwt>0</asrwt>
<pdfrwt beam="2">  1        2 0.20391344E+00 0.11724080E+03</pdfrwt>
<pdfrwt beam="1">  1        1 0.21155632E+00 0.10055901E+03</pdfrwt>
<totfact> 0.23402831E+01</totfact>
</mgrwt>
</event>
<event>
 7    1  0.4252091E-004  0.7402271E+02  0.7546771E-02  0.1365440E+00
          1   -1    0    0  502    0 -0.00000000000E+00  0.00000000000E+00  0.87984560043E+03  0.87984560043E+03  0.00000000000E+00 0. -1.
          2   -1    0    0  503    0  0.00000000000E+00 -0.00000000000E+00 -0.45024454780E+03  0.45024454780E+03  0.00000000000E+00 0. -1.
         25    2    1    2    0    0  0.53047842299E+01 -0.43726749184E+01  0.32452783511E+03  0.34783856139E+03  0.12500435195E+03 0.  0.
          4    1    3    3  501    0  0.28003691750E+02 -0.55938771315E+02  0.22419096482E+03  0.23275857555E+03  0.12700000000E+01 0. -1.
         -4    1    3    3    0  501 -0.22698907520E+02  0.51566096397E+02  0.10033687030E+03  0.11507998584E+03  0.12700000000E+01 0. -1.
          2    1    1    2  502    0  0.94266029269E+01  0.76914714316E+02  0.53774191132E+03  0.54329650957E+03  0.00000000000E+00 0. -1.
          3    1    1    2  503    0 -0.14731387157E+02 -0.72542039398E+02 -0.43266869381E+03  0.43895507726E+03  0.00000000000E+00 0. -1.
<mgrwt>
<rscale>  0 0.68451446E+02</rscale>
<asrwt>0</asrwt>
<pdfrwt beam="2">  1        2 0.69268392E-01 0.74022708E+02</pdfrwt>
<pdfrwt beam="1">  1        1 0.13536086E+00 0.63299501E+02</pdfrwt>
<totfact> 0.20850992E+02</totfact>
</mgrwt>
</event>
<event>
 7    1  0.4252091E-004  0.8280906E+02  0.7546771E-02  0.1363803E+00
          1   -1    0    0  502    0 -0.00000000000E+00  0.00000000000E+00  0.47304875791E+03  0.47304875791E+03  0.00000000000E+00 0. -1.
          2   -1    0    0  503    0  0.00000000000E+00 -0.00000000000E+00 -0.83588463367E+03  0.83588463367E+03  0.00000000000E+00 0. -1.
         25    2    1    2    0    0 -0.12445990318E+03 -0.60026691373E+02 -0.14279013350E+03  0.23474405343E+03  0.12498910841E+03 0.  0.
          4    1    3    3  501    0 -0.11927447273E+03 -0.37619167877E+02 -0.42889615272E+02  0.13222228872E+03  0.12700000000E+01 0.  1.
         -4    1    3    3    0  501 -0.51854304567E+01 -0.22407523496E+02 -0.99900518227E+02  0.10252176471E+03  0.12700000000E+01 0.  1.
          2    1    1    2  502    0  0.76536442647E+02  0.28504789937E+02  0.42187649719E+03  0.42970935408E+03  0.00000000000E+00 0. -1.
          3    1    1    2  503    0  0.47923460536E+02  0.31521901435E+02 -0.64192223946E+03  0.64447998406E+03  0.00000000000E+00 0. -1.
<mgrwt>
<rscale>  0 0.68920342E+02</rscale>
<asrwt>0</asrwt>
<pdfrwt beam="2">  1        2 0.12859763E+00 0.57361035E+02</pdfrwt>
<pdfrwt beam="1">  1        1 0.72776733E-01 0.82809062E+02</pdfrwt>
<totfact> 0.24325864E+02</totfact>
</mgrwt>
</event>
<event>
 7    1  0.4252091E-004  0.9340868E+02  0.7546771E-02  0.1409342E+00
          2   -1    0    0  503    0  0.00000000000E+00  0.00000000000E+00  0.11067444500E+04  0.11067444500E+04  0.00000000000E+00 0. -1.
          1   -1    0    0  502    0 -0.00000000000E+00 -0.00000000000E+00 -0.28649691921E+03  0.28649691921E+03  0.00000000000E+00 0. -1.
         25    2    1    2    0    0 -0.51836670090E+02  0.50240544983E+02  0.55263916092E+02  0.15456439578E+03  0.12499959718E+03 0.  0.
          4    1    3    3  501    0 -0.75257907162E+02  0.74944525107E+02  0.25282578161E+02  0.10918450482E+03  0.12700000000E+01 0. -1.
         -4    1    3    3    0  501  0.23421237072E+02 -0.24703980124E+02  0.29981337930E+02  0.45379890966E+02  0.12700000000E+01 0. -1.
          2    1    1    2  502    0  0.86027147579E+02 -0.41871023154E+02 -0.22685950388E+03  0.24620943767E+03  0.00000000000E+00 0. -1.
          1    1    1    2  503    0 -0.34190477489E+02 -0.83695218296E+01  0.99184311861E+03  0.99246753579E+03  0.00000000000E+00 0. -1.
<mgrwt>
<rscale>  0 0.57340932E+02</rscale>
<asrwt>0</asrwt>
<pdfrwt beam="1">  1        2 0.17026837E+00 0.35199967E+02</pdfrwt>
<pdfrwt beam="2">  1        1 0.44076450E-01 0.93408683E+02</pdfrwt>
<totfact> 0.32340369E+02</totfact>
</mgrwt>
</event>
<event>
 7    1  0.4252091E-004  0.1449928E+03  0.7546771E-02  0.1320792E+00
          2   -1    0    0  503    0  0.00000000000E+00  0.00000000000E+00  0.20024521450E+04  0.20024521450E+04  0.00000000000E+00 0. -1.
          1   -1    0    0  502    0 -0.00000000000E+00 -0.00000000000E+00 -0.27205461244E+03  0.27205461244E+03  0.00000000000E+00 0. -1.
         25    2    1    2    0    0 -0.16865534546E+03  0.58277113585E+02  0.41924215917E+03  0.47247183643E+03  0.12499920271E+03 0.  0.
          4    1    3    3  501    0 -0.14116523211E+02  0.70982122922E+01  0.19351339233E+03  0.19416154808E+03  0.12700000000E+01 0.  1.
         -4    1    3    3    0  501 -0.15453882225E+03  0.51178901293E+02  0.22572876684E+03  0.27831028835E+03  0.12700000000E+01 0.  1.
          2    1    1    2  502    0  0.28878689160E+02 -0.37704885412E+02 -0.23990114077E+03  0.24455713936E+03  0.00000000000E+00 0. -1.
          1    1    1    2  503    0  0.13977665630E+03 -0.20572228173E+02  0.15510565141E+04  0.15574777816E+04  0.00000000000E+00 0. -1.
<mgrwt>
<rscale>  0 0.82983272E+02</rscale>
<asrwt>0</asrwt>
<pdfrwt beam="1">  1        2 0.30806955E+00 0.14499282E+03</pdfrwt>
<pdfrwt beam="2">  1        1 0.41854557E-01 0.47493548E+02</pdfrwt>
<totfact> 0.10638826E+02</totfact>
</mgrwt>
</event>
<event>
 7    1  0.4252091E-004  0.7522909E+02  0.7546771E-02  0.1428847E+00
          1   -1    0    0  502    0 -0.00000000000E+00  0.00000000000E+00  0.73877028250E+03  0.73877028250E+03  0.00000000000E+00 0. -1.
          2   -1    0    0  503    0  0.00000000000E+00 -0.00000000000E+00 -0.13934282691E+04  0.13934282691E+04  0.00000000000E+00 0. -1.
         25    2    1    2    0    0  0.37256350651E+02  0.38661906869E+02  0.56895766524E+02  0.14746194222E+03  0.12500046980E+03 0.  0.
          4    1    3    3  501    0  0.49542962918E+02  0.34745080513E+02 -0.24312704366E+02  0.65226116611E+02  0.12700000000E+01 0.  1.
         -4    1    3    3    0  501 -0.12286612267E+02  0.39168263563E+01  0.81208470890E+02  0.82235825611E+02  0.12700000000E+01 0.  1.
          2    1    1    2  502    0 -0.22467872357E+02 -0.73243071937E+02  0.63402271952E+03  0.63863460738E+03  0.00000000000E+00 0. -1.
          1    1    1    2  503    0 -0.14788478294E+02  0.34581165068E+02 -0.13455764726E+04  0.13461020020E+04  0.00000000000E+00 0. -1.
<mgrwt>
<rscale>  0 0.53192199E+02</rscale>
<asrwt>0</asrwt>
<pdfrwt beam="2">  1        2 0.21437358E+00 0.37610585E+02</pdfrwt>
<pdfrwt beam="1">  1        1 0.11365697E+00 0.75229089E+02</pdfrwt>
<totfact> 0.68516162E+01</totfact>
</mgrwt>
</event>
<event>
 7    1  0.4252091E-004  0.1180664E+03  0.7546771E-02  0.1301892E+00
          2   -1    0    0  503    0  0.00000000000E+00  0.00000000000E+00  0.31816377962E+03  0.31816377962E+03  0.00000000000E+00 0. -1.
          1   -1    0    0  502    0 -0.00000000000E+00 -0.00000000000E+00 -0.13017452173E+04  0.13017452173E+04  0.00000000000E+00 0. -1.
         25    2    1    2    0    0  0.43508928439E+02  0.16752460040E+03 -0.76725804374E+02  0.22686869541E+03  0.12500014923E+03 0.  0.
          4    1    3    3  501    0 -0.29169169949E+02  0.80057101561E+02  0.72105560394E+01  0.85519500725E+02  0.12700000000E+01 0. -1.
         -4    1    3    3    0  501  0.72678098388E+02  0.87467498834E+02 -0.83936360413E+02  0.14134919468E+03  0.12700000000E+01 0. -1.
          2    1    1    2  502    0  0.28374065775E+01 -0.11612034385E+03 -0.11420150810E+04  0.11479069781E+04  0.00000000000E+00 0. -1.
          1    1    1    2  503    0 -0.46346335017E+02 -0.51404256550E+02  0.23515944775E+03  0.24513332337E+03  0.00000000000E+00 0. -1.
<mgrwt>
<rscale>  0 0.90397336E+02</rscale>
<asrwt>0</asrwt>
<pdfrwt beam="1">  1        2 0.48948275E-01 0.69212574E+02</pdfrwt>
<pdfrwt beam="2">  1        1 0.20026849E+00 0.11806638E+03</pdfrwt>
<totfact> 0.14534136E+02</totfact>
</mgrwt>
</event>
<event>
 7    1  0.4252091E-004  0.4675731E+02  0.7546771E-02  0.1464023E+00
         -2   -1    0    0    0  501 -0.00000000000E+00  0.00000000000E+00  0.18559231675E+03  0.18559231675E+03  0.00000000000E+00 0.  1.
          2   -1    0    0  503    0  0.00000000000E+00 -0.00000000000E+00 -0.24361937872E+03  0.24361937872E+03  0.00000000000E+00 0. -1.
         25    2    1    2    0    0  0.72339304020E+01 -0.50344101657E+02 -0.25593039693E+02  0.13735658051E+03  0.12499987283E+03 0.  0.
          4    1    3    3  502    0 -0.52409180979E+01 -0.41428604137E+02 -0.74867802844E+02  0.85735624252E+02  0.12700000000E+01 0.  1.
         -4    1    3    3    0  502  0.12474848500E+02 -0.89154975202E+01  0.49274763151E+02  0.51620956256E+02  0.12700000000E+01 0.  1.
          1    1    1    2  503    0  0.35826412662E+02  0.30045199726E+02 -0.15418996450E+03  0.16112352722E+03  0.00000000000E+00 0. -1.
         -1    1    1    2    0  501 -0.43060343064E+02  0.20298901932E+02  0.12175594223E+03  0.13073158774E+03  0.00000000000E+00 0.  1.
<mgrwt>
<rscale>  0 0.46695985E+02</rscale>
<asrwt>0</asrwt>
<pdfrwt beam="2">  1        2 0.37479904E-01 0.46757308E+02</pdfrwt>
<pdfrwt beam="1">  1       -2 0.28552664E-01 0.46634742E+02</pdfrwt>
<totfact> 0.14386639E+03</totfact>
</mgrwt>
</event>
<event>
 7    1  0.4252091E-004  0.4506209E+02  0.7546771E-02  0.1503181E+00
          2   -1    0    0  503    0  0.00000000000E+00  0.00000000000E+00  0.68874794193E+03  0.68874794193E+03  0.00000000000E+00 0. -1.
         -2   -1    0    0    0  501 -0.00000000000E+00 -0.00000000000E+00 -0.36217863703E+02  0.36217863703E+02  0.00000000000E+00 0.  1.
         25    2    1    2    0    0  0.22398301110E+02 -0.42770159833E+02  0.58456927246E+03  0.59973257002E+03  0.12500780285E+03 0.  0.
          4    1    3    3  502    0 -0.32357774133E+01 -0.68815010249E+02  0.52731766921E+03  0.53180025672E+03  0.12700000000E+01 0.  1.
         -4    1    3    3    0  502  0.25634078523E+02  0.26044850416E+02  0.57251603247E+02  0.67932313292E+02  0.12700000000E+01 0.  1.
          3    1    1    2  503    0  0.21231105539E+02  0.29991159274E+02  0.70710086335E+02  0.79687801993E+02  0.00000000000E+00 0. -1.
         -3    1    1    2    0  501 -0.43629406649E+02  0.12779000559E+02 -0.27492805699E+01  0.45545433618E+02  0.00000000000E+00 0.  1.
<mgrwt>
<rscale>  0 0.40691862E+02</rscale>
<asrwt>0</asrwt>
<pdfrwt beam="1">  1        2 0.10596121E+00 0.36745469E+02</pdfrwt>
<pdfrwt beam="2">  1       -2 0.55719795E-02 0.45062091E+02</pdfrwt>
<totfact> 0.63838372E+03</totfact>
</mgrwt>
</event>
<event>
 7    1  0.4252091E-004  0.7592017E+02  0.7546771E-02  0.1357358E+00
         -2   -1    0    0    0  501 -0.00000000000E+00  0.00000000000E+00  0.59664339139E+02  0.59664339139E+02  0.00000000000E+00 0.  1.
          2   -1    0    0  503    0  0.00000000000E+00 -0.00000000000E+00 -0.17757496986E+04  0.17757496986E+04  0.00000000000E+00 0. -1.
         25    2    1    2    0    0  0.65475314279E+02  0.70640121830E+02 -0.79845134100E+02  0.17684508838E+03  0.12498758440E+03 0.  0.
          4    1    3    3  502    0 -0.59154526361E+01  0.72701061775E+02 -0.46052460706E+01  0.73097593356E+02  0.12700000000E+01 0. -1.
         -4    1    3    3    0  502  0.71390766915E+02 -0.20609399451E+01 -0.75239888029E+02  0.10374749503E+03  0.12700000000E+01 0. -1.
          1    1    1    2  503    0 -0.66015532143E+02 -0.19645465581E+01 -0.15338967518E+04  0.15353179329E+04  0.00000000000E+00 0. -1.
         -1    1    1    2    0  501  0.54021786416E+00 -0.68675575272E+02 -0.10234347356E+03  0.12325101645E+03  0.00000000000E+00 0.  1.
<mgrwt>
<rscale>  0 0.70810516E+02</rscale>
<asrwt>0</asrwt>
<pdfrwt beam="2">  1        2 0.27319224E+00 0.66044757E+02</pdfrwt>
<pdfrwt beam="1">  1       -2 0.91791299E-02 0.75920171E+02</pdfrwt>
<totfact> 0.78182816E+02</totfact>
</mgrwt>
</event>
<event>
 7    1  0.4252091E-004  0.6322261E+02  0.7546771E-02  0.1412901E+00
          1   -1    0    0  502    0 -0.00000000000E+00  0.00000000000E+00  0.87729072745E+02  0.87729072745E+02  0.00000000000E+00 0. -1.
          2   -1    0    0  503    0  0.00000000000E+00 -0.00000000000E+00 -0.14561279748E+04  0.14561279748E+04  0.00000000000E+00 0. -1.
         25    2    1    2    0    0  0.32632104197E+01 -0.46069048041E+02 -0.17129125432E+03  0.21702020399E+03  0.12499627755E+03 0.  0.
          4    1    3    3  501    0 -0.20866178167E+02 -0.57706728113E+02 -0.21785859883E+02  0.65128338315E+02  0.12700000000E+01 0.  1.
         -4    1    3    3    0  501  0.24129388586E+02  0.11637680072E+02 -0.14950539444E+03  0.15189186567E+03  0.12700000000E+01 0.  1.
          2    1    1    2  502    0  0.49711743846E+02  0.93543698171E+01  0.54045359064E+02  0.74024742804E+02  0.00000000000E+00 0. -1.
          1    1    1    2  503    0 -0.52974954265E+02  0.36714678224E+02 -0.12511530068E+04  0.12528121007E+04  0.00000000000E+00 0. -1.
<mgrwt>
<rscale>  0 0.56551438E+02</rscale>
<asrwt>0</asrwt>
<pdfrwt beam="2">  1        2 0.22401969E+00 0.63222605E+02</pdfrwt>
<pdfrwt beam="1">  1        1 0.13496780E-01 0.50584204E+02</pdfrwt>
<totfact> 0.86499541E+02</totfact>
</mgrwt>
</event>
<event>
 7    1  0.4252091E-004  0.1831137E+03  0.7546771E-02  0.1355445E+00
          1   -1    0    0  502    0 -0.00000000000E+00  0.00000000000E+00  0.91632658392E+03  0.91632658392E+03  0.00000000000E+00 0. -1.
          2   -1    0    0  503    0  0.00000000000E+00 -0.00000000000E+00 -0.73838034819E+03  0.73838034819E+03  0.00000000000E+00 0. -1.
         25    2    1    2    0    0 -0.11187665255E+03  0.12126107795E+03  0.54179155851E+03  0.57998710178E+03  0.12500524366E+03 0.  0.
          4    1    3    3  501    0 -0.11081706098E+03  0.11372779242E+03  0.54771010708E+03  0.57026520678E+03  0.12700000000E+01 0. -1.
         -4    1    3    3    0  501 -0.10595915787E+01  0.75332855330E+01 -0.59185485639E+01  0.97218949973E+01  0.12700000000E+01 0. -1.
          2    1    1    2  502    0  0.43868149610E+01  0.27480919909E+02  0.34315930275E+03  0.34428585821E+03  0.00000000000E+00 0. -1.
          1    1    1    2  503    0  0.10748983759E+03 -0.14874199786E+03 -0.70700462553E+03  0.73043397212E+03  0.00000000000E+00 0. -1.
<mgrwt>
<rscale>  0 0.71385176E+02</rscale>
<asrwt>0</asrwt>
<pdfrwt beam="2">  1        2 0.11359698E+00 0.18311366E+03</pdfrwt>
<pdfrwt beam="1">  1        1 0.14097332E+00 0.27828854E+02</pdfrwt>
<totfact> 0.11585164E+02</totfact>
</mgrwt>
</event>
<event>
 7    1  0.4252091E-004  0.6759083E+02  0.7546771E-02  0.1382462E+00
          2   -1    0    0  503    0  0.00000000000E+00  0.00000000000E+00  0.50909845845E+03  0.50909845845E+03  0.00000000000E+00 0. -1.
         -2   -1    0    0    0  501 -0.00000000000E+00 -0.00000000000E+00 -0.13461433318E+03  0.13461433318E+03  0.00000000000E+00 0.  1.
         25    2    1    2    0    0  0.69968888466E+00  0.38191189722E+02  0.25991131353E+03  0.29092589020E+03  0.12499970461E+03 0.  0.
          4    1    3    3  502    0  0.23079674710E+02 -0.30162002964E+02  0.17755950908E+03  0.18158031274E+03  0.12700000000E+01 0. -1.
         -4    1    3    3    0  502 -0.22379985825E+02  0.68353192687E+02  0.82351804445E+02  0.10934557747E+03  0.12700000000E+01 0. -1.
          1    1    1    2  503    0 -0.68243085914E+02 -0.35659498185E+02  0.21689451323E+03  0.23015635654E+03  0.00000000000E+00 0. -1.
         -1    1    1    2    0  501  0.67543397030E+02 -0.25316915370E+01 -0.10232170149E+03  0.12263054489E+03  0.00000000000E+00 0.  1.
<mgrwt>
<rscale>  0 0.63820956E+02</rscale>
<asrwt>0</asrwt>
<pdfrwt beam="1">  1        2 0.78322839E-01 0.60261349E+02</pdfrwt>
<pdfrwt beam="2">  1       -2 0.20709898E-01 0.67590827E+02</pdfrwt>
<totfact> 0.11805233E+03</totfact>
</mgrwt>
</event>
<event>
 7    1  0.4252091E-004  0.1291511E+03  0.7546771E-02  0.1416459E+00
          2   -1    0    0  503    0  0.00000000000E+00  0.00000000000E+00  0.17966625279E+04  0.17966625279E+04  0.00000000000E+00 0. -1.
          1   -1    0    0  502    0 -0.00000000000E+00 -0.00000000000E+00 -0.63375728805E+03  0.63375728805E+03  0.00000000000E+00 0. -1.
         25    2    1    2    0    0 -0.11455319433E+03  0.89505744707E+02  0.12317094145E+04  0.12465422885E+04  0.12500353066E+03 0.  0.
          4    1    3    3  501    0 -0.40910114509E+02 -0.30415659267E+02  0.32687115451E+03  0.33082489983E+03  0.12700000000E+01 0.  1.
         -4    1    3    3    0  501 -0.73643079825E+02  0.11992140397E+03  0.90483825999E+03  0.91571738871E+03  0.12700000000E+01 0.  1.
          2    1    1    2  502    0  0.90587810634E+02 -0.91940441899E+02 -0.61942530668E+03  0.63272972654E+03  0.00000000000E+00 0. -1.
          1    1    1    2  503    0  0.23965383700E+02  0.24346971924E+01  0.55062113205E+03  0.55114780089E+03  0.00000000000E+00 0. -1.
<mgrwt>
<rscale>  0 0.55777121E+02</rscale>
<asrwt>0</asrwt>
<pdfrwt beam="1">  1        2 0.27640962E+00 0.24088739E+02</pdfrwt>
<pdfrwt beam="2">  1        1 0.97501122E-01 0.12915110E+03</pdfrwt>
<totfact> 0.55770130E+01</totfact>
</mgrwt>
</event>
<event>
 7    1  0.4252091E-004  0.6545015E+02  0.7546771E-02  0.1485042E+00
          1   -1    0    0  503    0  0.00000000000E+00  0.00000000000E+00  0.34114170079E+03  0.34114170079E+03  0.00000000000E+00 0. -1.
         -1   -1    0    0    0  501 -0.00000000000E+00 -0.00000000000E+00 -0.66642364868E+03  0.66642364868E+03  0.00000000000E+00 0.  1.
         25    2    1    2    0    0  0.18304440284E+02  0.84253375251E+02  0.18717674948E+03  0.24102677692E+03  0.12500035148E+03 0.  0.
          4    1    3    3  502    0  0.61936148897E+01  0.51308823543E+02  0.19771097096E+03  0.20435801227E+03  0.12700000000E+01 0.  1.
         -4    1    3    3    0  502  0.12110825394E+02  0.32944551708E+02 -0.10534221480E+02  0.36668764653E+02  0.12700000000E+01 0.  1.
          2    1    1    2  503    0  0.11647065381E+02 -0.26215375226E+02  0.12372716226E+03  0.12700909696E+03  0.00000000000E+00 0. -1.
         -2    1    1    2    0  501 -0.29951505665E+02 -0.58038000024E+02 -0.63618585963E+03  0.63952947558E+03  0.00000000000E+00 0.  1.
<mgrwt>
<rscale>  0 0.43330341E+02</rscale>
<asrwt>0</asrwt>
<pdfrwt beam="1">  1        1 0.52483338E-01 0.28686234E+02</pdfrwt>
<pdfrwt beam="2">  1       -1 0.10252672E+00 0.65450154E+02</pdfrwt>
<totfact> 0.76954844E+01</totfact>
</mgrwt>
</event>
<event>
 7    1  0.4252091E-004  0.7678688E+02  0.7546771E-02  0.1343551E+00
          1   -1    0    0  502    0 -0.00000000000E+00  0.00000000000E+00  0.12254036950E+04  0.12254036950E+04  0.00000000000E+00 0. -1.
          2   -1    0    0  503    0  0.00000000000E+00 -0.00000000000E+00 -0.77120233377E+03  0.77120233377E+03  0.00000000000E+00 0. -1.
         25    2    1    2    0    0  0.76784598861E+02 -0.98248510294E+02  0.15020088647E+03  0.23180606311E+03  0.12500040081E+03 0.  0.
          4    1    3    3  501    0  0.10403889207E+02 -0.10734513555E+03  0.10788019482E+03  0.15254824932E+03  0.12700000000E+01 0.  1.
         -4    1    3    3    0  501  0.66380709654E+02  0.90966252526E+01  0.42320691643E+02  0.79257813787E+02  0.12700000000E+01 0.  1.
          2    1    1    2  502    0 -0.44689696701E+01  0.73321063414E+02  0.10310873258E+04  0.10337006450E+04  0.00000000000E+00 0. -1.
          3    1    1    2  503    0 -0.72315629191E+02  0.24927446880E+02 -0.72708685100E+03  0.73109932070E+03  0.00000000000E+00 0. -1.
<mgrwt>
<rscale>  0 0.75103556E+02</rscale>
<asrwt>0</asrwt>
<pdfrwt beam="2">  1        2 0.11864651E+00 0.76786883E+02</pdfrwt>
<pdfrwt beam="1">  1        1 0.18852365E+00 0.73457131E+02</pdfrwt>
<totfact> 0.64938284E+01</totfact>
</mgrwt>
</event>
<event>
 7    1  0.4252091E-004  0.2075297E+03  0.7546771E-02  0.1237834E+00
          1   -1    0    0  503    0  0.00000000000E+00  0.00000000000E+00  0.25777160752E+04  0.25777160752E+04  0.00000000000E+00 0. -1.
         -1   -1    0    0    0  501 -0.00000000000E+00 -0.00000000000E+00 -0.11018958718E+04  0.11018958718E+04  0.00000000000E+00 0.  1.
         25    2    1    2    0    0 -0.38035425801E+02 -0.20221367885E+03 -0.24825687471E+03  0.34582037476E+03  0.12499276072E+03 0.  0.
          4    1    3    3  502    0  0.22872410274E+02 -0.72234416621E+02 -0.16071508739E+03  0.17768486235E+03  0.12700000000E+01 0.  1.
         -4    1    3    3    0  502 -0.60907836075E+02 -0.12997926223E+03 -0.87541787320E+02  0.16813551241E+03  0.12700000000E+01 0.  1.
          2    1    1    2  503    0  0.10710731834E+03  0.17799718489E+03  0.25229924323E+04  0.25315303255E+04  0.00000000000E+00 0. -1.
         -2    1    1    2    0  501 -0.69071892538E+02  0.24216493962E+02 -0.79891535414E+03  0.80226124673E+03  0.00000000000E+00 0.  1.
<mgrwt>
<rscale>  0 0.12324744E+03</rscale>
<asrwt>0</asrwt>
<pdfrwt beam="1">  1        1 0.39657170E+00 0.20752966E+03</pdfrwt>
<pdfrwt beam="2">  1       -1 0.16952244E+00 0.73194022E+02</pdfrwt>
<totfact> 0.44464183E-01</totfact>
</mgrwt>
</event>
<event>
 7    1  0.4252091E-004  0.6854467E+02  0.7546771E-02  0.1499086E+00
         -1   -1    0    0    0  501 -0.00000000000E+00  0.00000000000E+00  0.54763959858E+02  0.54763959858E+02  0.00000000000E+00 0.  1.
          1   -1    0    0  503    0  0.00000000000E+00 -0.00000000000E+00 -0.66439422395E+03  0.66439422395E+03  0.00000000000E+00 0. -1.
         25    2    1    2    0    0  0.58604954776E+02 -0.57490021505E+02 -0.29789810085E+03  0.33332918781E+03  0.12500170263E+03 0.  0.
          4    1    3    3  502    0  0.17339939682E+02 -0.90596497266E+02 -0.22560736903E+03  0.24373899295E+03  0.12700000000E+01 0.  1.
         -4    1    3    3    0  502  0.41265015095E+02  0.33106475761E+02 -0.72290731823E+02  0.89590194863E+02  0.12700000000E+01 0.  1.
          2    1    1    2  503    0 -0.33760500273E+02  0.57299311051E+02 -0.34100742012E+03  0.34743206962E+03  0.00000000000E+00 0. -1.
         -2    1    1    2    0  501 -0.24844454504E+02  0.19071045393E+00  0.29275256874E+02  0.38396926376E+02  0.00000000000E+00 0.  1.
<mgrwt>
<rscale>  0 0.41267483E+02</rscale>
<asrwt>0</asrwt>
<pdfrwt beam="2">  1        1 0.10221450E+00 0.68544673E+02</pdfrwt>
<pdfrwt beam="1">  1       -1 0.84252245E-02 0.24845186E+02</pdfrwt>
<totfact> 0.21077282E+03</totfact>
</mgrwt>
</event>
<event>
 7    1  0.4252091E-004  0.8418127E+02  0.7546771E-02  0.1352787E+00
          1   -1    0    0  502    0 -0.00000000000E+00  0.00000000000E+00  0.14172016733E+03  0.14172016733E+03  0.00000000000E+00 0. -1.
          2   -1    0    0  503    0  0.00000000000E+00 -0.00000000000E+00 -0.65958874086E+03  0.65958874086E+03  0.00000000000E+00 0. -1.
         25    2    1    2    0    0  0.62496979587E+01  0.25896866116E+02 -0.41790493397E+02  0.13446183130E+03  0.12499532927E+03 0.  0.
          4    1    3    3  501    0 -0.13447603194E+02  0.53328733416E+02 -0.70982223648E+02  0.89804681467E+02  0.12700000000E+01 0.  1.
         -4    1    3    3    0  501  0.19697301153E+02 -0.27431867299E+02  0.29191730251E+02  0.44657149834E+02  0.12700000000E+01 0.  1.
          2    1    1    2  502    0  0.18188085193E+02  0.59182011342E+02  0.81464136740E+02  0.10232166185E+03  0.00000000000E+00 0. -1.
          1    1    1    2  503    0 -0.24437783152E+02 -0.85078877458E+02 -0.55754221687E+03  0.56452541504E+03  0.00000000000E+00 0. -1.
<mgrwt>
<rscale>  0 0.72194051E+02</rscale>
<asrwt>0</asrwt>
<pdfrwt beam="2">  1        2 0.10147519E+00 0.84181268E+02</pdfrwt>
<pdfrwt beam="1">  1        1 0.21803102E-01 0.61913786E+02</pdfrwt>
<totfact> 0.13815232E+03</totfact>
</mgrwt>
</event>
<event>
 7    1  0.4252091E-004  0.6034505E+02  0.7546771E-02  0.1501051E+00
          2   -1    0    0  503    0  0.00000000000E+00  0.00000000000E+00  0.12905530112E+04  0.12905530112E+04  0.00000000000E+00 0. -1.
          1   -1    0    0  502    0 -0.00000000000E+00 -0.00000000000E+00 -0.34212825407E+03  0.34212825407E+03  0.00000000000E+00 0. -1.
         25    2    1    2    0    0 -0.46846063653E+02  0.23684379023E+02 -0.11561677447E+03  0.17817563796E+03  0.12499526365E+03 0.  0.
          4    1    3    3  501    0 -0.29155156430E+02  0.74499792708E+02 -0.54885584668E+02  0.97027225892E+02  0.12700000000E+01 0. -1.
         -4    1    3    3    0  501 -0.17690907223E+02 -0.50815413684E+02 -0.60731189802E+02  0.81148412067E+02  0.12700000000E+01 0. -1.
          2    1    1    2  502    0  0.37426347203E+02 -0.49885124356E+02 -0.19009329082E+03  0.20006178124E+03  0.00000000000E+00 0. -1.
          1    1    1    2  503    0  0.94197164492E+01  0.26200745333E+02  0.12541348224E+04  0.12544438460E+04  0.00000000000E+00 0. -1.
<mgrwt>
<rscale>  0 0.40989789E+02</rscale>
<asrwt>0</asrwt>
<pdfrwt beam="1">  1        2 0.19854661E+00 0.27842595E+02</pdfrwt>
<pdfrwt beam="2">  1        1 0.52635117E-01 0.60345049E+02</pdfrwt>
<totfact> 0.21337178E+02</totfact>
</mgrwt>
</event>
<event>
 7    1  0.4252091E-004  0.6338952E+02  0.7546771E-02  0.1530079E+00
          2   -1    0    0  503    0  0.00000000000E+00  0.00000000000E+00  0.27806435713E+04  0.27806435713E+04  0.00000000000E+00 0. -1.
         -2   -1    0    0    0  501 -0.00000000000E+00 -0.00000000000E+00 -0.19339942356E+02  0.19339942356E+02  0.00000000000E+00 0.  1.
         25    2    1    2    0    0 -0.16077633435E+02 -0.76448705551E+02  0.49027163903E+03  0.51195171588E+03  0.12500153788E+03 0.  0.
          4    1    3    3  502    0  0.51640282394E+02 -0.53744034623E+02  0.28578590272E+03  0.29534782057E+03  0.12700000000E+01 0. -1.
         -4    1    3    3    0  502 -0.67717915830E+02 -0.22704670928E+02  0.20448573631E+03  0.21660389530E+03  0.12700000000E+01 0. -1.
          1    1    1    2  503    0 -0.97579139522E+00  0.62863059076E+02  0.22643568027E+04  0.22652294467E+04  0.00000000000E+00 0. -1.
         -1    1    1    2    0  501  0.17053424831E+02  0.13585646475E+02  0.66751871878E+01  0.22802351032E+02  0.00000000000E+00 0.  1.
<mgrwt>
<rscale>  0 0.37176718E+02</rscale>
<asrwt>0</asrwt>
<pdfrwt beam="1">  1        2 0.42779100E+00 0.63389523E+02</pdfrwt>
<pdfrwt beam="2">  1       -2 0.29753780E-02 0.21803419E+02</pdfrwt>
<totfact> 0.10753389E+03</totfact>
</mgrwt>
</event>
<event>
 7    1  0.4252091E-004  0.7001115E+02  0.7546771E-02  0.1493348E+00
         -2   -1    0    0    0  501 -0.00000000000E+00  0.00000000000E+00  0.11167717552E+03  0.11167717552E+03  0.00000000000E+00 0.  1.
          2   -1    0    0  503    0  0.00000000000E+00 -0.00000000000E+00 -0.14026424378E+04  0.14026424378E+04  0.00000000000E+00 0. -1.
         25    2    1    2    0    0 -0.76259488227E+02  0.53795945851E+02 -0.15872694041E+03  0.22254808323E+03  0.12499557754E+03 0.  0.
          4    1    3    3  502    0  0.25409266111E+02  0.44692369195E+02 -0.72700469640E+02  0.89050602774E+02  0.12700000000E+01 0.  1.
         -4    1    3    3    0  502 -0.10166875434E+03  0.91035766558E+01 -0.86026470767E+02  0.13349748046E+03  0.12700000000E+01 0.  1.
          3    1    1    2  503    0  0.18939777761E+02 -0.16786593370E+02 -0.11972564995E+04  0.11975239582E+04  0.00000000000E+00 0. -1.
         -1    1    1    2    0  501  0.57319710465E+02 -0.37009352481E+02  0.65018177638E+02  0.94247571864E+02  0.00000000000E+00 0.  1.
<mgrwt>
<rscale>  0 0.42093421E+02</rscale>
<asrwt>0</asrwt>
<pdfrwt beam="2">  1        2 0.21579114E+00 0.25308198E+02</pdfrwt>
<pdfrwt beam="1">  1       -2 0.17181104E-01 0.70011151E+02</pdfrwt>
<totfact> 0.48002362E+02</totfact>
</mgrwt>
</event>
<event>
 7    1  0.4252091E-004  0.9711682E+02  0.7546771E-02  0.1360809E+00
          1   -1    0    0  502    0 -0.00000000000E+00  0.00000000000E+00  0.11322385160E+03  0.11322385160E+03  0.00000000000E+00 0. -1.
          2   -1    0    0  503    0  0.00000000000E+00 -0.00000000000E+00 -0.88983523174E+03  0.88983523174E+03  0.00000000000E+00 0. -1.
         25    2    1    2    0    0 -0.44941344735E+01  0.98424942926E+02 -0.46181264835E+03  0.48848221141E+03  0.12504512008E+03 0.  0.
          4    1    3    3  501    0 -0.58618945091E+02  0.16979712434E+02 -0.16178380879E+03  0.17291646840E+03  0.12700000000E+01 0. -1.
         -4    1    3    3    0  501  0.54124810618E+02  0.81445230492E+02 -0.30002883956E+03  0.31556574301E+03  0.12700000000E+01 0. -1.
          2    1    1    2  502    0  0.49422930359E+02 -0.85229577329E+01  0.86988401901E+02  0.10041040244E+03  0.00000000000E+00 0. -1.
          1    1    1    2  503    0 -0.44928795885E+02 -0.89901985193E+02 -0.40178713370E+03  0.41416646949E+03  0.00000000000E+00 0. -1.
<mgrwt>
<rscale>  0 0.69790009E+02</rscale>
<asrwt>0</asrwt>
<pdfrwt beam="2">  1        2 0.13689773E+00 0.97116824E+02</pdfrwt>
<pdfrwt beam="1">  1        1 0.17419054E-01 0.50152436E+02</pdfrwt>
<totfact> 0.12534824E+03</totfact>
</mgrwt>
</event>
<event>
 7    1  0.4252091E-004  0.1827962E+03  0.7546771E-02  0.1232080E+00
          1   -1    0    0  502    0 -0.00000000000E+00  0.00000000000E+00  0.21129541307E+04  0.21129541307E+04  0.00000000000E+00 0. -1.
          2   -1    0    0  503    0  0.00000000000E+00 -0.00000000000E+00 -0.53201834609E+03  0.53201834609E+03  0.00000000000E+00 0. -1.
         25    2    1    2    0    0  0.11678881425E+02  0.15661558892E+03  0.24800213876E+03  0.31905122512E+03  0.12499513774E+03 0.  0.
          4    1    3    3  501    0  0.63174607211E+02  0.11326179272E+03  0.19079119015E+03  0.23069927573E+03  0.12700000000E+01 0. -1.
         -4    1    3    3    0  501 -0.51495725786E+02  0.43353796203E+02  0.57210948610E+02  0.88351949386E+02  0.12700000000E+01 0. -1.
          2    1    1    2  502    0  0.74921794443E+02 -0.17302217099E+03  0.18206082679E+04  0.18303454352E+04  0.00000000000E+00 0. -1.
          1    1    1    2  503    0 -0.86600675867E+02  0.16406582074E+02 -0.48767462200E+03  0.49557581654E+03  0.00000000000E+00 0. -1.
<mgrwt>
<rscale>  0 0.12693249E+03</rscale>
<asrwt>0</asrwt>
<pdfrwt beam="2">  1        2 0.81848978E-01 0.88141097E+02</pdfrwt>
<pdfrwt beam="1">  1        1 0.32506986E+00 0.18279619E+03</pdfrwt>
<totfact> 0.24235675E+01</totfact>
</mgrwt>
</event>
<event>
 7    1  0.4252091E-004  0.7805499E+02  0.7546771E-02  0.1360255E+00
          1   -1    0    0  502    0 -0.00000000000E+00  0.00000000000E+00  0.13511861186E+04  0.13511861186E+04  0.00000000000E+00 0. -1.
          2   -1    0    0  503    0  0.00000000000E+00 -0.00000000000E+00 -0.14199934890E+04  0.14199934890E+04  0.00000000000E+00 0. -1.
         25    2    1    2    0    0  0.12446935277E+03  0.56794904798E+02 -0.82422083899E+02  0.20280924671E+03  0.12497963693E+03 0.  0.
          4    1    3    3  501    0  0.68130946498E+01  0.54806014917E+02 -0.62569351840E+02  0.83466485607E+02  0.12700000000E+01 0. -1.
         -4    1    3    3    0  501  0.11765625812E+03  0.19888898809E+01 -0.19852732058E+02  0.11934276111E+03  0.12700000000E+01 0. -1.
          2    1    1    2  502    0 -0.61391945528E+02 -0.12694854702E+02  0.12890707704E+04  0.12905942745E+04  0.00000000000E+00 0. -1.
          1    1    1    2  503    0 -0.63077407246E+02 -0.44100050096E+02 -0.12754560570E+04  0.12777760864E+04  0.00000000000E+00 0. -1.
<mgrwt>
<rscale>  0 0.69952312E+02</rscale>
<asrwt>0</asrwt>
<pdfrwt beam="2">  1        2 0.21846054E+00 0.78054990E+02</pdfrwt>
<pdfrwt beam="1">  1        1 0.20787479E+00 0.62690751E+02</pdfrwt>
<totfact> 0.23267479E+01</totfact>
</mgrwt>
</event>
<event>
 7    1  0.4252091E-004  0.2204039E+03  0.7546771E-02  0.1147058E+00
          2   -1    0    0  503    0  0.00000000000E+00  0.00000000000E+00  0.61907089344E+03  0.61907089344E+03  0.00000000000E+00 0. -1.
         -2   -1    0    0    0  501 -0.00000000000E+00 -0.00000000000E+00 -0.95701755750E+03  0.95701755750E+03  0.00000000000E+00 0.  1.
         25    2    1    2    0    0  0.19104858176E+03 -0.55913958116E+02 -0.70279714100E+03  0.74106315927E+03  0.12499941324E+03 0.  0.
          4    1    3    3  502    0  0.18099607193E+02 -0.89199817056E+01 -0.29411766518E+03  0.29481176321E+03  0.12700000000E+01 0. -1.
         -4    1    3    3    0  502  0.17294897457E+03 -0.46993976411E+02 -0.40867947582E+03  0.44625139605E+03  0.12700000000E+01 0. -1.
          1    1    1    2  503    0 -0.17265986071E+02  0.21972656518E+03  0.50997750508E+03  0.55556721773E+03  0.00000000000E+00 0. -1.
         -1    1    1    2    0  501 -0.17378259569E+03 -0.16381260707E+03 -0.14512702814E+03  0.27945807395E+03  0.00000000000E+00 0.  1.
<mgrwt>
<rscale>  0 0.20321083E+03</rscale>
<asrwt>0</asrwt>
<pdfrwt beam="1">  1        2 0.95241676E-01 0.22040390E+03</pdfrwt>
<pdfrwt beam="2">  1       -2 0.14723347E+00 0.18735894E+03</pdfrwt>
<totfact> 0.16791866E+01</totfact>
</mgrwt>
</event>
<event>
 7    1  0.4252091E-004  0.1198314E+03  0.7546771E-02  0.1381315E+00
          2   -1    0    0  503    0  0.00000000000E+00  0.00000000000E+00  0.12580981945E+04  0.12580981945E+04  0.00000000000E+00 0. -1.
          1   -1    0    0  502    0 -0.00000000000E+00 -0.00000000000E+00 -0.24704979753E+04  0.24704979753E+04  0.00000000000E+00 0. -1.
         25    2    1    2    0    0 -0.10471384086E+03  0.97683910058E+02 -0.51278008882E+03  0.54687749132E+03  0.12499774507E+03 0.  0.
          4    1    3    3  501    0 -0.10189009097E+03  0.10540948542E+03 -0.51711290707E+03  0.53749429933E+03  0.12700000000E+01 0. -1.
         -4    1    3    3    0  501 -0.28237498881E+01 -0.77255753611E+01  0.43328182446E+01  0.93831919959E+01  0.12700000000E+01 0. -1.
          2    1    1    2  502    0  0.32417767282E+01 -0.34155433540E+02 -0.19376298071E+04  0.19379335313E+04  0.00000000000E+00 0. -1.
          3    1    1    2  503    0  0.10147206413E+03 -0.63528476517E+02  0.12380101151E+04  0.12437851471E+04  0.00000000000E+00 0. -1.
<mgrwt>
<rscale>  0 0.64119327E+02</rscale>
<asrwt>0</asrwt>
<pdfrwt beam="1">  1        2 0.19355357E+00 0.11983143E+03</pdfrwt>
<pdfrwt beam="2">  1        1 0.38007661E+00 0.34308931E+02</pdfrwt>
<totfact> 0.60723382E+00</totfact>
</mgrwt>
</event>
<event>
 7    1  0.4252091E-004  0.8361583E+02  0.7546771E-02  0.1329458E+00
          1   -1    0    0  502    0 -0.00000000000E+00  0.00000000000E+00  0.28268498907E+03  0.28268498907E+03  0.00000000000E+00 0. -1.
          2   -1    0    0  503    0  0.00000000000E+00 -0.00000000000E+00 -0.28465800233E+03  0.28465800233E+03  0.00000000000E+00 0. -1.
         25    2    1    2    0    0 -0.79750592540E+02 -0.10426122381E+03  0.18963084740E+03  0.26233435438E+03  0.12501558063E+03 0.  0.
          4    1    3    3  501    0 -0.96936954271E+02 -0.86695448519E+02  0.19752049978E+03  0.23649277924E+03  0.12700000000E+01 0.  1.
         -4    1    3    3    0  501  0.17186361731E+02 -0.17565775289E+02 -0.78896523809E+01  0.25841575140E+02  0.12700000000E+01 0.  1.
          2    1    1    2  502    0  0.19892424141E+01  0.76241077975E+02  0.19142689498E+02  0.78632700687E+02  0.00000000000E+00 0. -1.
          3    1    1    2  503    0  0.77761350126E+02  0.28020145834E+02 -0.21074655016E+03  0.22637593633E+03  0.00000000000E+00 0. -1.
<mgrwt>
<rscale>  0 0.79856937E+02</rscale>
<asrwt>0</asrwt>
<pdfrwt beam="2">  1        2 0.43793539E-01 0.83615827E+02</pdfrwt>
<pdfrwt beam="1">  1        1 0.43489998E-01 0.76267025E+02</pdfrwt>
<totfact> 0.14695873E+03</totfact>
</mgrwt>
</event>
<event>
 7    1  0.4252091E-004  0.3885303E+02  0.7546771E-02  0.1528509E+00
          1   -1    0    0  502    0 -0.00000000000E+00  0.00000000000E+00  0.73563842584E+03  0.73563842584E+03  0.00000000000E+00 0. -1.
          2   -1    0    0  503    0  0.00000000000E+00 -0.00000000000E+00 -0.55128392768E+03  0.55128392768E+03  0.00000000000E+00 0. -1.
         25    2    1    2    0    0  0.17992193078E+02  0.59725547763E+01 -0.12778244881E+02  0.12706985053E+03  0.12499629174E+03 0.  0.
          4    1    3    3  501    0 -0.18271587285E+02  0.47096665971E+02 -0.41290669664E+02  0.65257023751E+02  0.12700000000E+01 0. -1.
         -4    1    3    3    0  501  0.36263780363E+02 -0.41124111195E+02  0.28512424783E+02  0.61812826782E+02  0.12700000000E+01 0. -1.
          2    1    1    2  502    0 -0.36565210832E+01 -0.38933304639E+02  0.67725685740E+03  0.67838486367E+03  0.00000000000E+00 0. -1.
          1    1    1    2  503    0 -0.14335671995E+02  0.32960749862E+02 -0.48012411436E+03  0.48146763932E+03  0.00000000000E+00 0. -1.
<mgrwt>
<rscale>  0 0.37369868E+02</rscale>
<asrwt>0</asrwt>
<pdfrwt beam="2">  1        2 0.84812912E-01 0.35943324E+02</pdfrwt>
<pdfrwt beam="1">  1        1 0.11317514E+00 0.38853031E+02</pdfrwt>
<totfact> 0.22577825E+02</totfact>
</mgrwt>
</event>
<event>
 7    1  0.4252091E-004  0.1311706E+03  0.7546771E-02  0.1410888E+00
         -2   -1    0    0    0  501 -0.00000000000E+00  0.00000000000E+00  0.66160059681E+02  0.66160059681E+02  0.00000000000E+00 0.  1.
          2   -1    0    0  503    0  0.00000000000E+00 -0.00000000000E+00 -0.87383594448E+03  0.87383594448E+03  0.00000000000E+00 0. -1.
         25    2    1    2    0    0  0.11656925925E+02  0.11129578689E+03 -0.21373841829E+03  0.27171959033E+03  0.12499915286E+03 0.  0.
          4    1    3    3  502    0  0.59184753931E+02  0.16400312977E+02 -0.71967700318E+02  0.94619068653E+02  0.12700000000E+01 0. -1.
         -4    1    3    3    0  502 -0.47527828006E+02  0.94895473915E+02 -0.14177071797E+03  0.17710052167E+03  0.12700000000E+01 0. -1.
          3    1    1    2  503    0 -0.19915684004E+02 -0.13464403545E+03 -0.61855737297E+03  0.63335525135E+03  0.00000000000E+00 0. -1.
         -1    1    1    2    0  501  0.82587580792E+01  0.23348248553E+02  0.24619906457E+02  0.34921162487E+02  0.00000000000E+00 0.  1.
<mgrwt>
<rscale>  0 0.56996078E+02</rscale>
<asrwt>0</asrwt>
<pdfrwt beam="2">  1        2 0.13443629E+00 0.13117061E+03</pdfrwt>
<pdfrwt beam="1">  1       -2 0.10178471E-01 0.24765859E+02</pdfrwt>
<totfact> 0.17676691E+03</totfact>
</mgrwt>
</event>
<event>
 7    1  0.4252091E-004  0.1265315E+03  0.7546771E-02  0.1359058E+00
          1   -1    0    0  502    0 -0.00000000000E+00  0.00000000000E+00  0.10574812189E+04  0.10574812189E+04  0.00000000000E+00 0. -1.
          2   -1    0    0  503    0  0.00000000000E+00 -0.00000000000E+00 -0.25056369314E+03  0.25056369314E+03  0.00000000000E+00 0. -1.
         25    2    1    2    0    0 -0.93016656007E+02  0.72312790899E+02 -0.43062652153E+02  0.17709037316E+03  0.12500148093E+03 0.  0.
          4    1    3    3  501    0 -0.75930023231E+02 -0.78731298458E+01  0.13426709876E+02  0.77519313977E+02  0.12700000000E+01 0.  1.
         -4    1    3    3    0  501 -0.17086632777E+02  0.80185920745E+02 -0.56489362029E+02  0.99571059188E+02  0.12700000000E+01 0.  1.
          2    1    1    2  502    0 -0.30322674910E+02 -0.24627958549E+02  0.95886382645E+03  0.95965923047E+03  0.00000000000E+00 0. -1.
          1    1    1    2  503    0  0.12333933092E+03 -0.47684832350E+02 -0.10888364849E+03  0.17129530845E+03  0.00000000000E+00 0. -1.
<mgrwt>
<rscale>  0 0.70305289E+02</rscale>
<asrwt>0</asrwt>
<pdfrwt beam="2">  1        2 0.38548261E-01 0.12653148E+03</pdfrwt>
<pdfrwt beam="1">  1        1 0.16268942E+00 0.39064062E+02</pdfrwt>
<totfact> 0.29825465E+02</totfact>
</mgrwt>
</event>
<event>
 7    1  0.4252091E-004  0.1911635E+03  0.7546771E-02  0.1227128E+00
          1   -1    0    0  502    0 -0.00000000000E+00  0.00000000000E+00  0.20448917909E+03  0.20448917909E+03  0.00000000000E+00 0. -1.
          2   -1    0    0  503    0  0.00000000000E+00 -0.00000000000E+00 -0.97782779379E+03  0.97782779379E+03  0.00000000000E+00 0. -1.
         25    2    1    2    0    0  0.15567580992E+03  0.52975968295E+02 -0.47129110727E+03  0.51457027649E+03  0.12500340254E+03 0.  0.
          4    1    3    3  501    0  0.17692416782E+03  0.49640891131E+02 -0.40205360315E+03  0.44205779253E+03  0.12700000000E+01 0. -1.
         -4    1    3    3    0  501 -0.21248357904E+02  0.33350771642E+01 -0.69237504126E+02  0.72512483966E+02  0.12700000000E+01 0. -1.
          2    1    1    2  502    0  0.75372825182E+02 -0.46774797347E+02  0.14183661081E+03  0.16729186654E+03  0.00000000000E+00 0. -1.
          1    1    1    2  503    0 -0.23104863510E+03 -0.62011709480E+01 -0.44388411824E+03  0.50045482986E+03  0.00000000000E+00 0. -1.
<mgrwt>
<rscale>  0 0.13022116E+03</rscale>
<asrwt>0</asrwt>
<pdfrwt beam="2">  1        2 0.15043505E+00 0.19116346E+03</pdfrwt>
<pdfrwt beam="1">  1        1 0.31459874E-01 0.88707071E+02</pdfrwt>
<totfact> 0.52745228E+02</totfact>
</mgrwt>
</event>
<event>
 7    1  0.4252091E-004  0.7366357E+02  0.7546771E-02  0.1516112E+00
          1   -1    0    0  502    0 -0.00000000000E+00  0.00000000000E+00  0.10140010241E+03  0.10140010241E+03  0.00000000000E+00 0. -1.
          2   -1    0    0  503    0  0.00000000000E+00 -0.00000000000E+00 -0.16482700669E+04  0.16482700669E+04  0.00000000000E+00 0. -1.
         25    2    1    2    0    0  0.91308336626E+02  0.98986314541E+01 -0.30039758814E+02  0.15799841453E+03  0.12500366651E+03 0.  0.
          4    1    3    3  501    0  0.11812539591E+03  0.21338315518E+02 -0.40959767246E+02  0.12683945877E+03  0.12700000000E+01 0.  1.
         -4    1    3    3    0  501 -0.26817059280E+02 -0.11439684063E+02  0.10920008432E+02  0.31158955760E+02  0.12700000000E+01 0.  1.
          2    1    1    2  502    0 -0.17884563644E+02 -0.10204562096E+02  0.33652077343E+02  0.39451907607E+02  0.00000000000E+00 0. -1.
          1    1    1    2  503    0 -0.73423772982E+02  0.30593064161E+00 -0.15504822830E+04  0.15522198472E+04  0.00000000000E+00 0. -1.
<mgrwt>
<rscale>  0 0.38946234E+02</rscale>
<asrwt>0</asrwt>
<pdfrwt beam="2">  1        2 0.25358000E+00 0.73663570E+02</pdfrwt>
<pdfrwt beam="1">  1        1 0.15600016E-01 0.20591035E+02</pdfrwt>
<totfact> 0.53815299E+02</totfact>
</mgrwt>
</event>
<event>
 7    1  0.4252091E-004  0.3744071E+02  0.7546771E-02  0.1561970E+00
         -2   -1    0    0    0  501  0.00000000000E+00  0.00000000000E+00  0.19747720336E+03  0.19747720336E+03  0.00000000000E+00 0.  1.
         -1   -1    0    0    0  502 -0.00000000000E+00 -0.00000000000E+00 -0.27579939718E+03  0.27579939718E+03  0.00000000000E+00 0.  1.
         25    2    1    2    0    0  0.52158680293E+02 -0.79559754182E+01 -0.10561893247E+03  0.17194534426E+03  0.12500406810E+03 0.  0.
          4    1    3    3  503    0  0.15473046415E+02  0.57821204183E+02 -0.39583505560E+02  0.71771677080E+02  0.12700000000E+01 0.  1.
         -4    1    3    3    0  503  0.36685633878E+02 -0.65777179601E+02 -0.66035426914E+02  0.10017366718E+03  0.12700000000E+01 0.  1.
         -2    1    1    2    0  502 -0.24604092831E+02 -0.17241977178E+02 -0.13320107782E+03  0.13654733353E+03  0.00000000000E+00 0.  1.
         -1    1    1    2    0  501 -0.27554587462E+02  0.25197952596E+02  0.16049781647E+03  0.16478392275E+03  0.00000000000E+00 0.  1.
<mgrwt>
<rscale>  0 0.33539109E+02</rscale>
<asrwt>0</asrwt>
<pdfrwt beam="1">  1       -2 0.30381108E-01 0.37440706E+02</pdfrwt>
<pdfrwt beam="2">  1       -1 0.42430676E-01 0.30044087E+02</pdfrwt>
<totfact> 0.39137898E+02</totfact>
</mgrwt>
</event>
<event>
 7    1  0.4252091E-004  0.9311205E+02  0.7546771E-02  0.1378979E+00
         -2   -1    0    0    0  501 -0.00000000000E+00  0.00000000000E+00  0.81555689237E+02  0.81555689237E+02  0.00000000000E+00 0.  1.
          2   -1    0    0  503    0  0.00000000000E+00 -0.00000000000E+00 -0.57892976988E+03  0.57892976988E+03  0.00000000000E+00 0. -1.
         25    2    1    2    0    0 -0.60466061710E+02  0.11431483745E+03 -0.19742511053E+03  0.26707341641E+03  0.12501003481E+03 0.  0.
          4    1    3    3  502    0 -0.28167285718E+01  0.11903133023E+03 -0.15436214859E+03  0.19495044845E+03  0.12700000000E+01 0. -1.
         -4    1    3    3    0  502 -0.57649333138E+02 -0.47164927783E+01 -0.43062961942E+02  0.72122967954E+02  0.12700000000E+01 0. -1.
          1    1    1    2  503    0  0.28558267921E+02 -0.82578329288E+02 -0.32862899894E+03  0.34004672337E+03  0.00000000000E+00 0. -1.
         -1    1    1    2    0  501  0.31907793789E+02 -0.31736508159E+02  0.28680028824E+02  0.53365319337E+02  0.00000000000E+00 0.  1.
<mgrwt>
<rscale>  0 0.64733038E+02</rscale>
<asrwt>0</asrwt>
<pdfrwt beam="2">  1        2 0.89066115E-01 0.93112046E+02</pdfrwt>
<pdfrwt beam="1">  1       -2 0.12547030E-01 0.45003480E+02</pdfrwt>
<totfact> 0.22311096E+03</totfact>
</mgrwt>
</event>
<event>
 7    1  0.4252091E-004  0.9247961E+02  0.7546771E-02  0.1388894E+00
          1   -1    0    0  502    0 -0.00000000000E+00  0.00000000000E+00  0.53017081560E+03  0.53017081560E+03  0.00000000000E+00 0. -1.
          2   -1    0    0  503    0  0.00000000000E+00 -0.00000000000E+00 -0.28793346960E+04  0.28793346960E+04  0.00000000000E+00 0. -1.
         25    2    1    2    0    0  0.93682306276E+02 -0.22832810144E+01 -0.99357327567E+03  0.10057805771E+04  0.12500050943E+03 0.  0.
          4    1    3    3  501    0 -0.15506302152E+02 -0.33962335762E+02 -0.15010384025E+03  0.15468245348E+03  0.12700000000E+01 0. -1.
         -4    1    3    3    0  501  0.10918860843E+03  0.31679054748E+02 -0.84346943541E+03  0.85109812366E+03  0.12700000000E+01 0. -1.
          2    1    1    2  502    0 -0.84154333321E+02 -0.38427898287E+02  0.51974952440E+03  0.52791876582E+03  0.00000000000E+00 0. -1.
          1    1    1    2  503    0 -0.95279729546E+01  0.40711179301E+02 -0.18753401291E+04  0.18758061686E+04  0.00000000000E+00 0. -1.
<mgrwt>
<rscale>  0 0.62182713E+02</rscale>
<asrwt>0</asrwt>
<pdfrwt beam="2">  1        2 0.44297457E+00 0.41811271E+02</pdfrwt>
<pdfrwt beam="1">  1        1 0.81564740E-01 0.92479605E+02</pdfrwt>
<totfact> 0.19326598E+01</totfact>
</mgrwt>
</event>
<event>
 7    1  0.4252091E-004  0.1505574E+03  0.7546771E-02  0.1280160E+00
          2   -1    0    0  503    0  0.00000000000E+00  0.00000000000E+00  0.54056417272E+03  0.54056417272E+03  0.00000000000E+00 0. -1.
          1   -1    0    0  502    0 -0.00000000000E+00 -0.00000000000E+00 -0.45422599060E+03  0.45422599060E+03  0.00000000000E+00 0. -1.
         25    2    1    2    0    0 -0.89172561950E+02 -0.63169210973E+02  0.55111248815E+02  0.17494107469E+03  0.12500013939E+03 0.  0.
          4    1    3    3  501    0  0.22548801095E+01 -0.64678937508E+02  0.52683299198E+02  0.83460124346E+02  0.12700000000E+01 0.  1.
         -4    1    3    3    0  501 -0.91427442060E+02  0.15097265348E+01  0.24279496166E+01  0.91480950340E+02  0.12700000000E+01 0.  1.
          2    1    1    2  502    0 -0.94921994031E+01 -0.65824803181E+02 -0.37578962400E+03  0.38162920233E+03  0.00000000000E+00 0. -1.
          1    1    1    2  503    0  0.98664761353E+02  0.12899401415E+03  0.40701655731E+03  0.43821988630E+03  0.00000000000E+00 0. -1.
<mgrwt>
<rscale>  0 0.10006460E+03</rscale>
<asrwt>0</asrwt>
<pdfrwt beam="1">  1        2 0.83163718E-01 0.15055740E+03</pdfrwt>
<pdfrwt beam="2">  1        1 0.69880922E-01 0.66505688E+02</pdfrwt>
<totfact> 0.41425961E+02</totfact>
</mgrwt>
</event>
<event>
 7    1  0.4252091E-004  0.1272743E+03  0.7546771E-02  0.1300096E+00
          1   -1    0    0  502    0 -0.00000000000E+00  0.00000000000E+00  0.99215420976E+03  0.99215420976E+03  0.00000000000E+00 0. -1.
          2   -1    0    0  503    0  0.00000000000E+00 -0.00000000000E+00 -0.14662282122E+04  0.14662282122E+04  0.00000000000E+00 0. -1.
         25    2    1    2    0    0 -0.12071215509E+03 -0.95528413233E+01  0.11859921502E+03  0.21060160889E+03  0.12499833078E+03 0.  0.
          4    1    3    3  501    0 -0.12961440175E+03 -0.21030689547E+02  0.50068666503E+02  0.14053706739E+03  0.12700000000E+01 0. -1.
         -4    1    3    3    0  501  0.89022466578E+01  0.11477848224E+02  0.68530548521E+02  0.70064541503E+02  0.12700000000E+01 0. -1.
          2    1    1    2  502    0  0.15883409401E+02 -0.63313827507E+02  0.82339048332E+03  0.82597385641E+03  0.00000000000E+00 0. -1.
          1    1    1    2  503    0  0.10482874569E+03  0.72866668831E+02 -0.14160637008E+04  0.14218069566E+04  0.00000000000E+00 0. -1.
<mgrwt>
<rscale>  0 0.91147835E+02</rscale>
<asrwt>0</asrwt>
<pdfrwt beam="2">  1        2 0.22557357E+00 0.12727434E+03</pdfrwt>
<pdfrwt beam="1">  1        1 0.15263911E+00 0.65275749E+02</pdfrwt>
<totfact> 0.36794430E+01</totfact>
</mgrwt>
</event>
<event>
 7    1  0.4252091E-004  0.3371439E+03  0.7546771E-02  0.1221463E+00
          1   -1    0    0  502    0 -0.00000000000E+00  0.00000000000E+00  0.26100151497E+03  0.26100151497E+03  0.00000000000E+00 0. -1.
          2   -1    0    0  503    0  0.00000000000E+00 -0.00000000000E+00 -0.28293545319E+04  0.28293545319E+04  0.00000000000E+00 0. -1.
         25    2    1    2    0    0  0.20526743878E+03 -0.22924777348E+03 -0.12447930764E+04  0.12883417577E+04  0.12500167417E+03 0.  0.
          4    1    3    3  501    0  0.29329764447E+02 -0.22703192110E+01 -0.39265139447E+02  0.49079053654E+02  0.12700000000E+01 0. -1.
         -4    1    3    3    0  501  0.17593767433E+03 -0.22697745427E+03 -0.12055279370E+04  0.12392627041E+04  0.12700000000E+01 0. -1.
          2    1    1    2  502    0 -0.25807947023E+03  0.22164251678E+03  0.11754137853E+03  0.35992553934E+03  0.00000000000E+00 0. -1.
          1    1    1    2  503    0  0.52812031457E+02  0.76052567016E+01 -0.14411013191E+04  0.14420887498E+04  0.00000000000E+00 0. -1.
<mgrwt>
<rscale>  0 0.13412280E+03</rscale>
<asrwt>0</asrwt>
<pdfrwt beam="2">  1        2 0.43528533E+00 0.53356823E+02</pdfrwt>
<pdfrwt beam="1">  1        1 0.40154078E-01 0.33714388E+03</pdfrwt>
<totfact> 0.47785585E+01</totfact>
</mgrwt>
</event>
<event>
 7    1  0.4252091E-004  0.7741417E+02  0.7546771E-02  0.1440822E+00
          2   -1    0    0  503    0  0.00000000000E+00  0.00000000000E+00  0.10582378249E+04  0.10582378249E+04  0.00000000000E+00 0. -1.
          1   -1    0    0  502    0 -0.00000000000E+00 -0.00000000000E+00 -0.18461127717E+04  0.18461127717E+04  0.00000000000E+00 0. -1.
         25    2    1    2    0    0 -0.61768141373E+02  0.28174312144E+02 -0.28666779621E+03  0.32001597810E+03  0.12499082247E+03 0.  0.
          4    1    3    3  501    0 -0.21497170420E+02  0.73715364743E+02 -0.19918488337E+03  0.21347672941E+03  0.12700000000E+01 0. -1.
         -4    1    3    3    0  501 -0.40270970953E+02 -0.45541052600E+02 -0.87482912842E+02  0.10653924870E+03  0.12700000000E+01 0. -1.
          2    1    1    2  502    0  0.11955692848E+02  0.31184976992E+02 -0.15411484165E+04  0.15415102605E+04  0.00000000000E+00 0. -1.
          1    1    1    2  503    0  0.49812448525E+02 -0.59359289135E+02  0.10399412659E+04  0.10428243581E+04  0.00000000000E+00 0. -1.
<mgrwt>
<rscale>  0 0.50847770E+02</rscale>
<asrwt>0</asrwt>
<pdfrwt beam="1">  1        2 0.16280582E+00 0.77414166E+02</pdfrwt>
<pdfrwt beam="2">  1        1 0.28401735E+00 0.33398224E+02</pdfrwt>
<totfact> 0.19323629E+01</totfact>
</mgrwt>
</event>
<event>
 7    1  0.4252091E-004  0.6064207E+02  0.7546771E-02  0.1512470E+00
          2   -1    0    0  503    0  0.00000000000E+00  0.00000000000E+00  0.43288513911E+03  0.43288513911E+03  0.00000000000E+00 0. -1.
          1   -1    0    0  502    0 -0.00000000000E+00 -0.00000000000E+00 -0.19663376615E+03  0.19663376615E+03  0.00000000000E+00 0. -1.
         25    2    1    2    0    0  0.29538692338E+02 -0.59219412215E+02 -0.27920021406E+02  0.14416532778E+03  0.12499856404E+03 0.  0.
          4    1    3    3  501    0 -0.28334080773E+02 -0.16469515427E+02  0.35438740403E+02  0.48286460763E+02  0.12700000000E+01 0.  1.
         -4    1    3    3    0  501  0.57872773111E+02 -0.42749896788E+02 -0.63358761810E+02  0.95878867020E+02  0.12700000000E+01 0.  1.
          2    1    1    2  502    0 -0.39302254082E+01  0.60364354619E+02 -0.10183699677E+03  0.11844862131E+03  0.00000000000E+00 0. -1.
          1    1    1    2  503    0 -0.25608466929E+02 -0.11449424039E+01  0.36600839114E+03  0.36690495616E+03  0.00000000000E+00 0. -1.
<mgrwt>
<rscale>  0 0.39427170E+02</rscale>
<asrwt>0</asrwt>
<pdfrwt beam="1">  1        2 0.66597714E-01 0.25634049E+02</pdfrwt>
<pdfrwt beam="2">  1        1 0.30251349E-01 0.60642067E+02</pdfrwt>
<totfact> 0.14735708E+03</totfact>
</mgrwt>
</event>
<event>
 7    1  0.4252091E-004  0.8922771E+02  0.7546771E-02  0.1315828E+00
         -2   -1    0    0    0  501 -0.00000000000E+00  0.00000000000E+00  0.46456579739E+03  0.46456579739E+03  0.00000000000E+00 0.  1.
          2   -1    0    0  503    0  0.00000000000E+00 -0.00000000000E+00 -0.11608509343E+04  0.11608509343E+04  0.00000000000E+00 0. -1.
         25    2    1    2    0    0 -0.87676157807E+02  0.13894207415E+03 -0.76542659278E+02  0.22016824591E+03  0.12499307661E+03 0.  0.
          4    1    3    3  502    0 -0.21546152700E+02 -0.93632798376E+01  0.20319872791E+02  0.31087261631E+02  0.12700000000E+01 0.  1.
         -4    1    3    3    0  502 -0.66130005108E+02  0.14830535399E+03 -0.96862532068E+02  0.18908098428E+03  0.12700000000E+01 0.  1.
          1    1    1    2  503    0  0.56074211281E+02 -0.58015586003E+02 -0.10060560955E+04  0.10092863780E+04  0.00000000000E+00 0. -1.
         -1    1    1    2    0  501  0.31601946526E+02 -0.80926488150E+02  0.38631361786E+03  0.39596210785E+03  0.00000000000E+00 0.  1.
<mgrwt>
<rscale>  0 0.84849093E+02</rscale>
<asrwt>0</asrwt>
<pdfrwt beam="2">  1        2 0.17859245E+00 0.80685348E+02</pdfrwt>
<pdfrwt beam="1">  1       -2 0.71471661E-01 0.89227707E+02</pdfrwt>
<totfact> 0.42623781E+01</totfact>
</mgrwt>
</event>
<event>
 7    1  0.4252091E-004  0.5559266E+02  0.7546771E-02  0.1513911E+00
          1   -1    0    0  502    0 -0.00000000000E+00  0.00000000000E+00  0.76165936536E+01  0.76165936536E+01  0.00000000000E+00 0. -1.
          2   -1    0    0  503    0  0.00000000000E+00 -0.00000000000E+00 -0.21777748785E+04  0.21777748785E+04  0.00000000000E+00 0. -1.
         25    2    1    2    0    0  0.45069670949E+02 -0.20770189374E+01 -0.10854111459E+04  0.10935163123E+04  0.12499992093E+03 0.  0.
          4    1    3    3  501    0 -0.17477067409E+02  0.15325910082E+02 -0.41468541635E+02  0.47556116856E+02  0.12700000000E+01 0. -1.
         -4    1    3    3    0  501  0.62546738358E+02 -0.17402929020E+02 -0.10439426043E+04  0.10459601954E+04  0.12700000000E+01 0. -1.
          2    1    1    2  502    0  0.58604474721E+01 -0.27064422466E+02 -0.67806880009E+02  0.73243435095E+02  0.00000000000E+00 0. -1.
          1    1    1    2  503    0 -0.50930118421E+02  0.29141441403E+02 -0.10169402589E+04  0.10186317248E+04  0.00000000000E+00 0. -1.
<mgrwt>
<rscale>  0 0.39235860E+02</rscale>
<asrwt>0</asrwt>
<pdfrwt beam="2">  1        2 0.33504217E+00 0.55592657E+02</pdfrwt>
<pdfrwt beam="1">  1        1 0.11717841E-02 0.27691656E+02</pdfrwt>
<totfact> 0.87766566E+03</totfact>
</mgrwt>
</event>
<event>
 7    1  0.4252091E-004  0.1095620E+03  0.7546771E-02  0.1337695E+00
          2   -1    0    0  503    0  0.00000000000E+00  0.00000000000E+00  0.72462749857E+03  0.72462749857E+03  0.00000000000E+00 0. -1.
          1   -1    0    0  502    0 -0.00000000000E+00 -0.00000000000E+00 -0.51194001935E+03  0.51194001935E+03  0.00000000000E+00 0. -1.
         25    2    1    2    0    0  0.45838843458E+02 -0.38138167401E+02 -0.36677906116E+02  0.14325757846E+03  0.12498698175E+03 0.  0.
          4    1    3    3  501    0  0.10799803922E+02 -0.61421631222E+02  0.26148609621E+02  0.67635901945E+02  0.12700000000E+01 0.  1.
         -4    1    3    3    0  501  0.35039039535E+02  0.23283463821E+02 -0.62826515737E+02  0.75621676513E+02  0.12700000000E+01 0.  1.
          2    1    1    2  502    0  0.50688490744E+02 -0.19075351768E+02 -0.41551386492E+03  0.41902859578E+03  0.00000000000E+00 0. -1.
          1    1    1    2  503    0 -0.96527334201E+02  0.57213519169E+02  0.66487925026E+03  0.67428134369E+03  0.00000000000E+00 0. -1.
<mgrwt>
<rscale>  0 0.77030907E+02</rscale>
<asrwt>0</asrwt>
<pdfrwt beam="1">  1        2 0.11148115E+00 0.10956195E+03</pdfrwt>
<pdfrwt beam="2">  1        1 0.78760003E-01 0.54158953E+02</pdfrwt>
<totfact> 0.25767730E+02</totfact>
</mgrwt>
</event>
<event>
 7    1  0.4252091E-004  0.6717696E+02  0.7546771E-02  0.1530546E+00
          1   -1    0    0  502    0 -0.00000000000E+00  0.00000000000E+00  0.64571174340E+02  0.64571174340E+02  0.00000000000E+00 0. -1.
          2   -1    0    0  503    0  0.00000000000E+00 -0.00000000000E+00 -0.20302329628E+04  0.20302329628E+04  0.00000000000E+00 0. -1.
         25    2    1    2    0    0 -0.16132882533E+02 -0.63436381494E+02 -0.12617744780E+04  0.12696389081E+04  0.12499471629E+03 0.  0.
          4    1    3    3  501    0 -0.31473011829E+02 -0.95873038461E+02 -0.10504428734E+04  0.10552791257E+04  0.12700000000E+01 0.  1.
         -4    1    3    3    0  501  0.15340129295E+02  0.32436656967E+02 -0.21133160458E+03  0.21435978232E+03  0.12700000000E+01 0.  1.
          2    1    1    2  502    0  0.19847149274E+02 -0.51755820486E+01  0.57311609283E+02  0.60871311325E+02  0.00000000000E+00 0. -1.
          1    1    1    2  503    0 -0.37142667411E+01  0.68611963542E+02 -0.76119891977E+03  0.76429391779E+03  0.00000000000E+00 0. -1.
<mgrwt>
<rscale>  0 0.37119514E+02</rscale>
<asrwt>0</asrwt>
<pdfrwt beam="2">  1        2 0.31234355E+00 0.67176964E+02</pdfrwt>
<pdfrwt beam="1">  1        1 0.99340262E-02 0.20510875E+02</pdfrwt>
<totfact> 0.60946819E+02</totfact>
</mgrwt>
</event>
<event>
 7    1  0.4252091E-004  0.5970821E+02  0.7546771E-02  0.1487880E+00
          1   -1    0    0  502    0 -0.00000000000E+00  0.00000000000E+00  0.18877922773E+02  0.18877922773E+02  0.00000000000E+00 0. -1.
          2   -1    0    0  503    0  0.00000000000E+00 -0.00000000000E+00 -0.32853927171E+04  0.32853927171E+04  0.00000000000E+00 0. -1.
         25    2    1    2    0    0  0.93054281864E+01  0.55742273915E+02 -0.13377005896E+04  0.13447161642E+04  0.12499961156E+03 0.  0.
          4    1    3    3  501    0  0.40657213778E+02  0.83503105876E+02 -0.10294011102E+04  0.10335831056E+04  0.12700000000E+01 0.  1.
         -4    1    3    3    0  501 -0.31351785592E+02 -0.27760831961E+02 -0.30829947938E+03  0.31113305858E+03  0.12700000000E+01 0.  1.
          2    1    1    2  502    0 -0.38606878616E+02 -0.46166230523E+02 -0.44152894714E+02  0.74641074676E+02  0.00000000000E+00 0. -1.
          1    1    1    2  503    0  0.29301450430E+02 -0.95760433921E+01 -0.18846613100E+04  0.18849134009E+04  0.00000000000E+00 0. -1.
<mgrwt>
<rscale>  0 0.42902185E+02</rscale>
<asrwt>0</asrwt>
<pdfrwt beam="2">  1        2 0.50544424E+00 0.30826541E+02</pdfrwt>
<pdfrwt beam="1">  1        1 0.29043004E-02 0.59708208E+02</pdfrwt>
<totfact> 0.84734093E+02</totfact>
</mgrwt>
</event>
<event>
 7    1  0.4252091E-004  0.7120601E+02  0.7546771E-02  0.1494041E+00
          1   -1    0    0  502    0 -0.00000000000E+00  0.00000000000E+00  0.27810733657E+04  0.27810733657E+04  0.00000000000E+00 0. -1.
          2   -1    0    0  503    0  0.00000000000E+00 -0.00000000000E+00 -0.81379568707E+03  0.81379568707E+03  0.00000000000E+00 0. -1.
         25    2    1    2    0    0 -0.35191424992E+02 -0.69414380902E+02  0.17282497743E+03  0.22704318859E+03  0.12499337579E+03 0.  0.
          4    1    3    3  501    0  0.39280843877E+02  0.75920356140E+01  0.43726789424E+02  0.59281267815E+02  0.12700000000E+01 0. -1.
         -4    1    3    3    0  501 -0.74472268869E+02 -0.77006416516E+02  0.12909818801E+03  0.16776192078E+03  0.12700000000E+01 0. -1.
          2    1    1    2  502    0  0.50601252852E+02  0.50028588580E+02  0.25804538155E+04  0.25814347252E+04  0.00000000000E+00 0. -1.
          3    1    1    2  503    0 -0.15409827860E+02  0.19385792322E+02 -0.78600111432E+03  0.78639113897E+03  0.00000000000E+00 0. -1.
<mgrwt>
<rscale>  0 0.41992484E+02</rscale>
<asrwt>0</asrwt>
<pdfrwt beam="2">  1        2 0.12519934E+00 0.24764324E+02</pdfrwt>
<pdfrwt beam="1">  1        1 0.42785743E+00 0.71206011E+02</pdfrwt>
<totfact> 0.66099563E+00</totfact>
</mgrwt>
</event>
<event>
 7    1  0.4252091E-004  0.2780634E+02  0.7546771E-02  0.1633795E+00
          1   -1    0    0  502    0 -0.00000000000E+00  0.00000000000E+00  0.51884324266E+03  0.51884324266E+03  0.00000000000E+00 0. -1.
          2   -1    0    0  503    0  0.00000000000E+00 -0.00000000000E+00 -0.23725801634E+04  0.23725801634E+04  0.00000000000E+00 0. -1.
         25    2    1    2    0    0 -0.46479312618E+02  0.16058856254E+02 -0.94007273211E+03  0.94962123835E+03  0.12500216517E+03 0.  0.
          4    1    3    3  501    0 -0.34884480340E+02  0.60551477457E+02 -0.30591947194E+03  0.31380207871E+03  0.12700000000E+01 0.  1.
         -4    1    3    3    0  501 -0.11594832278E+02 -0.44492621202E+02 -0.63415326018E+03  0.63581915964E+03  0.12700000000E+01 0.  1.
          2    1    1    2  502    0  0.27708150470E+02  0.22516332346E+01  0.51357263315E+03  0.51432447051E+03  0.00000000000E+00 0. -1.
          1    1    1    2  503    0  0.18771162148E+02 -0.18310489489E+02 -0.14272368218E+04  0.14274776972E+04  0.00000000000E+00 0. -1.
<mgrwt>
<rscale>  0 0.27002918E+02</rscale>
<asrwt>0</asrwt>
<pdfrwt beam="2">  1        2 0.36501232E+00 0.26222711E+02</pdfrwt>
<pdfrwt beam="1">  1        1 0.79822040E-01 0.27806339E+02</pdfrwt>
<totfact> 0.40040038E+01</totfact>
</mgrwt>
</event>
<event>
 7    1  0.4252091E-004  0.1138262E+03  0.7546771E-02  0.1277438E+00
          1   -1    0    0  502    0 -0.00000000000E+00  0.00000000000E+00  0.77217418172E+03  0.77217418172E+03  0.00000000000E+00 0. -1.
          2   -1    0    0  503    0  0.00000000000E+00 -0.00000000000E+00 -0.15993070944E+04  0.15993070944E+04  0.00000000000E+00 0. -1.
         25    2    1    2    0    0  0.86102606271E+02  0.15336944522E+02 -0.89348335266E+03  0.90641475909E+03  0.12500533330E+03 0.  0.
          4    1    3    3  501    0  0.10722814021E+03  0.13954867277E+02 -0.46508181102E+03  0.47748855088E+03  0.12700000000E+01 0. -1.
         -4    1    3    3    0  501 -0.21125533939E+02  0.13820772449E+01 -0.42840154163E+03  0.42892620822E+03  0.12700000000E+01 0. -1.
          2    1    1    2  502    0 -0.86044293718E+02  0.74942723305E+02  0.75850974225E+03  0.76704436726E+03  0.00000000000E+00 0. -1.
          1    1    1    2  503    0 -0.58312553300E-01 -0.90279667827E+02 -0.69215930225E+03  0.69802214973E+03  0.00000000000E+00 0. -1.
<mgrwt>
<rscale>  0 0.10137156E+03</rscale>
<asrwt>0</asrwt>
<pdfrwt beam="2">  1        2 0.24604724E+00 0.90279687E+02</pdfrwt>
<pdfrwt beam="1">  1        1 0.11879603E+00 0.11382619E+03</pdfrwt>
<totfact> 0.46172258E+01</totfact>
</mgrwt>
</event>
<event>
 7    1  0.4252091E-004  0.6107432E+02  0.7546771E-02  0.1446533E+00
          2   -1    0    0  503    0  0.00000000000E+00  0.00000000000E+00  0.75599955734E+03  0.75599955734E+03  0.00000000000E+00 0. -1.
          1   -1    0    0  502    0 -0.00000000000E+00 -0.00000000000E+00 -0.83045022627E+02  0.83045022627E+02  0.00000000000E+00 0. -1.
         25    2    1    2    0    0  0.59145215400E+02  0.39805911585E+02  0.15567231429E+02  0.14472228666E+03  0.12497813593E+03 0.  0.
          4    1    3    3  501    0  0.54856992287E+02 -0.13074575512E+02  0.54863155675E+02  0.78688073291E+02  0.12700000000E+01 0.  1.
         -4    1    3    3    0  501  0.42882231125E+01  0.52880487097E+02 -0.39295924245E+02  0.66034213370E+02  0.12700000000E+01 0.  1.
          2    1    1    2  502    0 -0.59354874134E+02  0.76752990901E+00  0.31649092247E+02  0.67270017286E+02  0.00000000000E+00 0. -1.
          1    1    1    2  503    0  0.20965873414E+00 -0.40573441494E+02  0.62573821103E+03  0.62705227602E+03  0.00000000000E+00 0. -1.
<mgrwt>
<rscale>  0 0.49779801E+02</rscale>
<asrwt>0</asrwt>
<pdfrwt beam="1">  1        2 0.11630762E+00 0.40573983E+02</pdfrwt>
<pdfrwt beam="2">  1        1 0.12776158E-01 0.61074323E+02</pdfrwt>
<totfact> 0.23595863E+03</totfact>
</mgrwt>
</event>
<event>
 7    1  0.4252091E-004  0.3671708E+02  0.7546771E-02  0.1552924E+00
          1   -1    0    0  502    0 -0.00000000000E+00  0.00000000000E+00  0.76744451579E+03  0.76744451579E+03  0.00000000000E+00 0. -1.
          2   -1    0    0  503    0  0.00000000000E+00 -0.00000000000E+00 -0.45522273289E+03  0.45522273289E+03  0.00000000000E+00 0. -1.
         25    2    1    2    0    0 -0.38527797269E+02  0.36117902618E+02  0.18756052789E+02  0.13701291685E+03  0.12502742026E+03 0.  0.
          4    1    3    3  501    0 -0.50695187905E+02  0.16362548563E+02  0.65724334103E+02  0.84611087131E+02  0.12700000000E+01 0.  1.
         -4    1    3    3    0  501  0.12167390636E+02  0.19755354056E+02 -0.46968281314E+02  0.52401829723E+02  0.12700000000E+01 0.  1.
          2    1    1    2  502    0  0.32450488344E+02  0.32620141154E-01  0.68832881030E+03  0.68909330743E+03  0.00000000000E+00 0. -1.
          1    1    1    2  503    0  0.60773089251E+01 -0.36150522760E+02 -0.39486308018E+03  0.39656102440E+03  0.00000000000E+00 0. -1.
<mgrwt>
<rscale>  0 0.34517934E+02</rscale>
<asrwt>0</asrwt>
<pdfrwt beam="2">  1        2 0.70034267E-01 0.36717080E+02</pdfrwt>
<pdfrwt beam="1">  1        1 0.11806839E+00 0.32450505E+02</pdfrwt>
<totfact> 0.26191527E+02</totfact>
</mgrwt>
</event>
<event>
 7    1  0.4252091E-004  0.1062515E+03  0.7546771E-02  0.1343663E+00
          2   -1    0    0  503    0  0.00000000000E+00  0.00000000000E+00  0.22170049503E+04  0.22170049503E+04  0.00000000000E+00 0. -1.
          1   -1    0    0  502    0 -0.00000000000E+00 -0.00000000000E+00 -0.33545439466E+02  0.33545439466E+02  0.00000000000E+00 0. -1.
         25    2    1    2    0    0 -0.38334655792E+02 -0.75694402263E+02  0.74141692010E+03  0.75665250981E+03  0.12499913128E+03 0.  0.
          4    1    3    3  501    0 -0.83287054546E+02 -0.54632994825E+02  0.43682803131E+03  0.44804222951E+03  0.12700000000E+01 0. -1.
         -4    1    3    3    0  501  0.44952398754E+02 -0.21061407438E+02  0.30458888879E+03  0.30861028031E+03  0.12700000000E+01 0. -1.
          2    1    1    2  502    0 -0.52711969411E+02  0.58460283319E+01  0.61084555460E+01  0.53385775218E+02  0.00000000000E+00 0. -1.
          1    1    1    2  503    0  0.91046625204E+02  0.69848373931E+02  0.14359341352E+04  0.14405121047E+04  0.00000000000E+00 0. -1.
<mgrwt>
<rscale>  0 0.75067068E+02</rscale>
<asrwt>0</asrwt>
<pdfrwt beam="1">  1        2 0.34107757E+00 0.10625150E+03</pdfrwt>
<pdfrwt beam="2">  1        1 0.51608386E-02 0.53035156E+02</pdfrwt>
<totfact> 0.11883091E+03</totfact>
</mgrwt>
</event>
<event>
 7    1  0.4252091E-004  0.5739246E+02  0.7546771E-02  0.1413601E+00
          1   -1    0    0  502    0 -0.00000000000E+00  0.00000000000E+00  0.34572306538E+02  0.34572306538E+02  0.00000000000E+00 0. -1.
          2   -1    0    0  503    0  0.00000000000E+00 -0.00000000000E+00 -0.84343346222E+03  0.84343346222E+03  0.00000000000E+00 0. -1.
         25    2    1    2    0    0  0.14813257123E+02 -0.75959775719E+01 -0.25466347814E+03  0.28417573496E+03  0.12500091912E+03 0.  0.
          4    1    3    3  501    0  0.10455672640E+02 -0.55995655151E+02 -0.56893963668E+02  0.80519379580E+02  0.12700000000E+01 0. -1.
         -4    1    3    3    0  501  0.43575844833E+01  0.48399677579E+02 -0.19776951447E+03  0.20365635538E+03  0.12700000000E+01 0. -1.
          2    1    1    2  502    0 -0.90175477332E+01  0.64695049642E+02 -0.40330808999E+02  0.76768090831E+02  0.00000000000E+00 0. -1.
          1    1    1    2  503    0 -0.57957093900E+01 -0.57099072070E+02 -0.51386686855E+03  0.51706194297E+03  0.00000000000E+00 0. -1.
<mgrwt>
<rscale>  0 0.56398068E+02</rscale>
<asrwt>0</asrwt>
<pdfrwt beam="2">  1        2 0.12975898E+00 0.57392458E+02</pdfrwt>
<pdfrwt beam="1">  1        1 0.53188168E-02 0.55420906E+02</pdfrwt>
<totfact> 0.63544652E+03</totfact>
</mgrwt>
</event>
<event>
 7    1  0.4252091E-004  0.8328241E+02  0.7546771E-02  0.1488396E+00
          1   -1    0    0  502    0 -0.00000000000E+00  0.00000000000E+00  0.25209756712E+04  0.25209756712E+04  0.00000000000E+00 0. -1.
          2   -1    0    0  503    0  0.00000000000E+00 -0.00000000000E+00 -0.30220149103E+03  0.30220149103E+03  0.00000000000E+00 0. -1.
         25    2    1    2    0    0  0.26090544610E+01  0.87199809818E+02 -0.14101368236E+03  0.20765546902E+03  0.12500128480E+03 0.  0.
          4    1    3    3  501    0 -0.39815950068E+02  0.78287097773E+02 -0.37662376987E+02  0.95573255139E+02  0.12700000000E+01 0. -1.
         -4    1    3    3    0  501  0.42425004529E+02  0.89127120450E+01 -0.10335130537E+03  0.11208221388E+03  0.12700000000E+01 0. -1.
          2    1    1    2  502    0  0.18573320539E+02 -0.81180202301E+02  0.24860042394E+04  0.24873986958E+04  0.00000000000E+00 0. -1.
          1    1    1    2  503    0 -0.21182375000E+02 -0.60196075171E+01 -0.12621637686E+03  0.12812299744E+03  0.00000000000E+00 0. -1.
<mgrwt>
<rscale>  0 0.42824876E+02</rscale>
<asrwt>0</asrwt>
<pdfrwt beam="2">  1        2 0.46492539E-01 0.22021096E+02</pdfrwt>
<pdfrwt beam="1">  1        1 0.38784240E+00 0.83282411E+02</pdfrwt>
<totfact> 0.26344255E+01</totfact>
</mgrwt>
</event>
<event>
 7    1  0.4252091E-004  0.2229061E+03  0.7546771E-02  0.1330911E+00
          2   -1    0    0  503    0  0.00000000000E+00  0.00000000000E+00  0.11482306119E+04  0.11482306119E+04  0.00000000000E+00 0. -1.
          1   -1    0    0  502    0 -0.00000000000E+00 -0.00000000000E+00 -0.92030601243E+03  0.92030601243E+03  0.00000000000E+00 0. -1.
         25    2    1    2    0    0 -0.17779264885E+03 -0.87554364588E+02 -0.87701027905E+01  0.23447353918E+03  0.12499973252E+03 0.  0.
          4    1    3    3  501    0 -0.14953342736E+03 -0.10436668971E+03 -0.42612569168E+02  0.18727011446E+03  0.12700000000E+01 0. -1.
         -4    1    3    3    0  501 -0.28259221485E+02  0.16812325119E+02  0.33842466378E+02  0.47203424721E+02  0.12700000000E+01 0. -1.
          2    1    1    2  502    0 -0.27836873916E+02 -0.47885769122E+01 -0.78615892898E+03  0.78666618310E+03  0.00000000000E+00 0. -1.
          1    1    1    2  503    0  0.20562952276E+03  0.92342941500E+02  0.10228536313E+04  0.10473969021E+04  0.00000000000E+00 0. -1.
<mgrwt>
<rscale>  0 0.79348268E+02</rscale>
<asrwt>0</asrwt>
<pdfrwt beam="1">  1        2 0.17665086E+00 0.22290607E+03</pdfrwt>
<pdfrwt beam="2">  1        1 0.14158554E+00 0.28245743E+02</pdfrwt>
<totfact> 0.62746500E+01</totfact>
</mgrwt>
</event>
<event>
 7    1  0.4252091E-004  0.2033138E+03  0.7546771E-02  0.1152111E+00
         -3   -1    0    0    0  502 -0.00000000000E+00  0.00000000000E+00  0.19410887601E+03  0.19410887601E+03  0.00000000000E+00 0.  1.
         -2   -1    0    0    0  501  0.00000000000E+00 -0.00000000000E+00 -0.93413616266E+03  0.93413616266E+03  0.00000000000E+00 0.  1.
         25    2    1    2    0    0 -0.15309696330E+03 -0.15337177486E+03 -0.29405972533E+03  0.38607766915E+03  0.12499305204E+03 0.  0.
          4    1    3    3  503    0 -0.10322999701E+03 -0.31451790412E+02 -0.18875761118E+03  0.21743204935E+03  0.12700000000E+01 0.  1.
         -4    1    3    3    0  503 -0.49866966289E+02 -0.12191998445E+03 -0.10530211415E+03  0.16864561981E+03  0.12700000000E+01 0.  1.
         -2    1    1    2    0  502  0.21644854923E+03 -0.27131220714E+02  0.38305663202E+02  0.22148002491E+03  0.00000000000E+00 0.  1.
         -1    1    1    2    0  501 -0.63351585930E+02  0.18050299558E+03 -0.48427322452E+03  0.52068734461E+03  0.00000000000E+00 0.  1.
<mgrwt>
<rscale>  0 0.19721416E+03</rscale>
<asrwt>0</asrwt>
<pdfrwt beam="2">  1       -2 0.14371326E+00 0.19129756E+03</pdfrwt>
<pdfrwt beam="1">  1       -3 0.29862904E-01 0.20331376E+03</pdfrwt>
<totfact> 0.15674155E+01</totfact>
</mgrwt>
</event>
<event>
 7    1  0.4252091E-004  0.1462299E+03  0.7546771E-02  0.1281794E+00
         -2   -1    0    0    0  501 -0.00000000000E+00  0.00000000000E+00  0.13794241825E+03  0.13794241825E+03  0.00000000000E+00 0.  1.
          2   -1    0    0  503    0  0.00000000000E+00 -0.00000000000E+00 -0.12108951653E+04  0.12108951653E+04  0.00000000000E+00 0. -1.
         25    2    1    2    0    0  0.53551446146E+02 -0.96939826025E+02 -0.42148938510E+03  0.45336964829E+03  0.12500259591E+03 0.  0.
          4    1    3    3  502    0  0.69122109265E+02 -0.98579059695E+02 -0.21609062731E+03  0.24737111616E+03  0.12700000000E+01 0. -1.
         -4    1    3    3    0  502 -0.15570663119E+02  0.16392336700E+01 -0.20539875779E+03  0.20599853213E+03  0.12700000000E+01 0. -1.
          1    1    1    2  503    0 -0.11614127782E+03  0.12199641872E+03 -0.75409232798E+03  0.77267532748E+03  0.00000000000E+00 0. -1.
         -1    1    1    2    0  501  0.62589831671E+02 -0.25056592691E+02  0.10262896600E+03  0.12279260779E+03  0.00000000000E+00 0.  1.
<mgrwt>
<rscale>  0 0.99290842E+02</rscale>
<asrwt>0</asrwt>
<pdfrwt beam="2">  1        2 0.18629156E+00 0.14622989E+03</pdfrwt>
<pdfrwt beam="1">  1       -2 0.21221910E-01 0.67418987E+02</pdfrwt>
<totfact> 0.37327424E+02</totfact>
</mgrwt>
</event>
<event>
 7    1  0.4252091E-004  0.4043251E+02  0.7546771E-02  0.1570867E+00
          2   -1    0    0  503    0  0.00000000000E+00  0.00000000000E+00  0.80946879778E+03  0.80946879778E+03  0.00000000000E+00 0. -1.
          1   -1    0    0  502    0 -0.00000000000E+00 -0.00000000000E+00 -0.13596971057E+03  0.13596971057E+03  0.00000000000E+00 0. -1.
         25    2    1    2    0    0  0.33943453615E+02 -0.41935782211E+02  0.75956635720E+03  0.77167184416E+03  0.12500246484E+03 0.  0.
          4    1    3    3  501    0  0.31049036887E+02  0.90151606938E+01  0.45767691553E+02  0.56050069617E+02  0.12700000000E+01 0.  1.
         -4    1    3    3    0  501  0.28944167279E+01 -0.50950942905E+02  0.71379866564E+03  0.71562177455E+03  0.12700000000E+01 0.  1.
          2    1    1    2  502    0 -0.10368567255E+02  0.24178588700E+02 -0.12340187066E+03  0.12617500950E+03  0.00000000000E+00 0. -1.
          1    1    1    2  503    0 -0.23574886360E+02  0.17757193512E+02  0.37334600677E+02  0.47591654689E+02  0.00000000000E+00 0. -1.
<mgrwt>
<rscale>  0 0.32614395E+02</rscale>
<asrwt>0</asrwt>
<pdfrwt beam="1">  1        2 0.12453366E+00 0.40432507E+02</pdfrwt>
<pdfrwt beam="2">  1        1 0.20918417E-01 0.26308009E+02</pdfrwt>
<totfact> 0.11300784E+03</totfact>
</mgrwt>
</event>
<event>
 7    1  0.4252091E-004  0.6787108E+02  0.7546771E-02  0.1434282E+00
          2   -1    0    0  503    0  0.00000000000E+00  0.00000000000E+00  0.26290867084E+04  0.26290867084E+04  0.00000000000E+00 0. -1.
          1   -1    0    0  502    0 -0.00000000000E+00 -0.00000000000E+00 -0.16779596312E+04  0.16779596312E+04  0.00000000000E+00 0. -1.
         25    2    1    2    0    0 -0.89072218082E+02 -0.18210901846E+02 -0.58725368048E+03  0.60725468802E+03  0.12500349558E+03 0.  0.
          4    1    3    3  501    0 -0.15196188380E+02  0.33479836101E+01 -0.44697756297E+03  0.44725014011E+03  0.12700000000E+01 0.  1.
         -4    1    3    3    0  501 -0.73876029702E+02 -0.21558885456E+02 -0.14027611751E+03  0.16000454791E+03  0.12700000000E+01 0.  1.
          2    1    1    2  502    0  0.64793264554E+02 -0.13589267387E+02 -0.10795385678E+04  0.10815666206E+04  0.00000000000E+00 0. -1.
          1    1    1    2  503    0  0.24278953528E+02  0.31800169233E+02  0.26179193254E+04  0.26182250310E+04  0.00000000000E+00 0. -1.
<mgrwt>
<rscale>  0 0.52110006E+02</rscale>
<asrwt>0</asrwt>
<pdfrwt beam="1">  1        2 0.40447488E+00 0.40008978E+02</pdfrwt>
<pdfrwt beam="2">  1        1 0.25814763E+00 0.67871083E+02</pdfrwt>
<totfact> 0.38855534E+00</totfact>
</mgrwt>
</event>
<event>
 7    1  0.4252091E-004  0.4233829E+02  0.7546771E-02  0.1513795E+00
          1   -1    0    0  502    0 -0.00000000000E+00  0.00000000000E+00  0.36047672693E+03  0.36047672693E+03  0.00000000000E+00 0. -1.
          2   -1    0    0  503    0  0.00000000000E+00 -0.00000000000E+00 -0.25059345493E+04  0.25059345493E+04  0.00000000000E+00 0. -1.
         25    2    1    2    0    0  0.31938050394E+02 -0.64625445570E+02 -0.19047850703E+04  0.19102429924E+04  0.12500255353E+03 0.  0.
          4    1    3    3  501    0  0.65363377503E+02 -0.15358724999E+02 -0.54005693121E+03  0.54421628366E+03  0.12700000000E+01 0.  1.
         -4    1    3    3    0  501 -0.33425327109E+02 -0.49266720571E+02 -0.13647281391E+04  0.13660267087E+04  0.12700000000E+01 0.  1.
          2    1    1    2  502    0 -0.32844984961E+01  0.42194491781E+02  0.35593977257E+03  0.35844704597E+03  0.00000000000E+00 0. -1.
          3    1    1    2  503    0 -0.28653551898E+02  0.22430953789E+02 -0.59661252456E+03  0.59772123786E+03  0.00000000000E+00 0. -1.
<mgrwt>
<rscale>  0 0.39251195E+02</rscale>
<asrwt>0</asrwt>
<pdfrwt beam="2">  1        2 0.38552839E+00 0.36389198E+02</pdfrwt>
<pdfrwt beam="1">  1        1 0.55457959E-01 0.42338286E+02</pdfrwt>
<totfact> 0.50467835E+01</totfact>
</mgrwt>
</event>
<event>
 7    1  0.4252091E-004  0.1643898E+03  0.7546771E-02  0.1370232E+00
          2   -1    0    0  503    0  0.00000000000E+00  0.00000000000E+00  0.41933867152E+02  0.41933867152E+02  0.00000000000E+00 0. -1.
          1   -1    0    0  502    0 -0.00000000000E+00 -0.00000000000E+00 -0.13141544611E+04  0.13141544611E+04  0.00000000000E+00 0. -1.
         25    2    1    2    0    0  0.40772078260E+02  0.14821463429E+03 -0.40791420601E+03  0.45348665843E+03  0.12500483882E+03 0.  0.
          4    1    3    3  501    0  0.69350137743E+02  0.12823379059E+03 -0.38516148267E+03  0.41183045940E+03  0.12700000000E+01 0.  1.
         -4    1    3    3    0  501 -0.28578059483E+02  0.19980843696E+02 -0.22752723337E+02  0.41656199033E+02  0.12700000000E+01 0.  1.
          2    1    1    2  502    0 -0.12420450586E+02  0.24412849808E+02 -0.47507411337E+03  0.47586307697E+03  0.00000000000E+00 0. -1.
          1    1    1    2  503    0 -0.28351627674E+02 -0.17262748410E+03 -0.38923227452E+03  0.42673859280E+03  0.00000000000E+00 0. -1.
<mgrwt>
<rscale>  0 0.67102652E+02</rscale>
<asrwt>0</asrwt>
<pdfrwt beam="1">  1        2 0.64513651E-02 0.16438984E+03</pdfrwt>
<pdfrwt beam="2">  1        1 0.20217758E+00 0.27390780E+02</pdfrwt>
<totfact> 0.17130481E+03</totfact>
</mgrwt>
</event>
<event>
 7    1  0.4252091E-004  0.4534323E+02  0.7546771E-02  0.1521575E+00
          1   -1    0    0  502    0 -0.00000000000E+00  0.00000000000E+00  0.87194136179E+03  0.87194136179E+03  0.00000000000E+00 0. -1.
          2   -1    0    0  503    0  0.00000000000E+00 -0.00000000000E+00 -0.79413169242E+03  0.79413169242E+03  0.00000000000E+00 0. -1.
         25    2    1    2    0    0  0.40282972324E+02 -0.13462613538E+02 -0.90389666219E+02  0.15998874938E+03  0.12498859287E+03 0.  0.
          4    1    3    3  501    0  0.12822877586E+02 -0.91627534860E+01 -0.11902000688E+03  0.12006563696E+03  0.12700000000E+01 0.  1.
         -4    1    3    3    0  501  0.27460094738E+02 -0.42998600522E+01  0.28630340659E+02  0.39923112426E+02  0.12700000000E+01 0.  1.
          2    1    1    2  502    0  0.13404894944E+01  0.32222235850E+02  0.83605156305E+03  0.83667334455E+03  0.00000000000E+00 0. -1.
          1    1    1    2  503    0 -0.41623461818E+02 -0.18759622312E+02 -0.66785222747E+03  0.66941096028E+03  0.00000000000E+00 0. -1.
<mgrwt>
<rscale>  0 0.38240344E+02</rscale>
<asrwt>0</asrwt>
<pdfrwt beam="2">  1        2 0.12217411E+00 0.45343226E+02</pdfrwt>
<pdfrwt beam="1">  1        1 0.13414483E+00 0.32250107E+02</pdfrwt>
<totfact> 0.11887496E+02</totfact>
</mgrwt>
</event>
<event>
 7    1  0.4252091E-004  0.1265144E+03  0.7546771E-02  0.1362634E+00
          2   -1    0    0  503    0  0.00000000000E+00  0.00000000000E+00  0.18562749308E+04  0.18562749308E+04  0.00000000000E+00 0. -1.
          1   -1    0    0  502    0 -0.00000000000E+00 -0.00000000000E+00 -0.43579336939E+03  0.43579336939E+03  0.00000000000E+00 0. -1.
         25    2    1    2    0    0  0.16630990332E+02 -0.10166068006E+03  0.28459387235E+03  0.32746252006E+03  0.12500618446E+03 0.  0.
          4    1    3    3  501    0  0.39860001414E+02  0.13958811959E+02  0.55071127548E+02  0.69412607885E+02  0.12700000000E+01 0. -1.
         -4    1    3    3    0  501 -0.23229011082E+02 -0.11561949202E+03  0.22952274480E+03  0.25804991217E+03  0.12700000000E+01 0. -1.
          2    1    1    2  502    0  0.33271075645E+02 -0.18180186304E+02 -0.41076685175E+03  0.41251289694E+03  0.00000000000E+00 0. -1.
          1    1    1    2  503    0 -0.49902065977E+02  0.11984086636E+03  0.15466545408E+04  0.15520928832E+04  0.00000000000E+00 0. -1.
<mgrwt>
<rscale>  0 0.69258110E+02</rscale>
<asrwt>0</asrwt>
<pdfrwt beam="1">  1        2 0.28558075E+00 0.12651436E+03</pdfrwt>
<pdfrwt beam="2">  1        1 0.67045135E-01 0.37914162E+02</pdfrwt>
<totfact> 0.72994432E+01</totfact>
</mgrwt>
</event>
<event>
 7    1  0.4252091E-004  0.1898451E+03  0.7546771E-02  0.1203438E+00
          2   -1    0    0  503    0  0.00000000000E+00  0.00000000000E+00  0.21670357016E+04  0.21670357016E+04  0.00000000000E+00 0. -1.
          1   -1    0    0  502    0 -0.00000000000E+00 -0.00000000000E+00 -0.15215677632E+03  0.15215677632E+03  0.00000000000E+00 0. -1.
         25    2    1    2    0    0  0.12827129211E+01 -0.92018267992E+02  0.23447039227E+02  0.15698648971E+03  0.12500394916E+03 0.  0.
          4    1    3    3  501    0  0.56385625399E+02 -0.80009200057E+02  0.65918673545E+01  0.98111551107E+02  0.12700000000E+01 0.  1.
         -4    1    3    3    0  501 -0.55102912478E+02 -0.12009067934E+02  0.16855171873E+02  0.58874938599E+02  0.12700000000E+01 0.  1.
          2    1    1    2  502    0 -0.64937201144E+02 -0.94638375372E+02 -0.39757115867E+02  0.12146559368E+03  0.00000000000E+00 0. -1.
          1    1    1    2  503    0  0.63654488223E+02  0.18665664336E+03  0.20311890019E+04  0.20407403946E+04  0.00000000000E+00 0. -1.
<mgrwt>
<rscale>  0 0.14761248E+03</rscale>
<asrwt>0</asrwt>
<pdfrwt beam="1">  1        2 0.33339009E+00 0.18984514E+03</pdfrwt>
<pdfrwt beam="2">  1        1 0.23408736E-01 0.11477483E+03</pdfrwt>
<totfact> 0.17529158E+02</totfact>
</mgrwt>
</event>
<event>
 7    1  0.4252091E-004  0.1006100E+03  0.7546771E-02  0.1431660E+00
          1   -1    0    0  502    0 -0.00000000000E+00  0.00000000000E+00  0.16707173770E+03  0.16707173770E+03  0.00000000000E+00 0. -1.
          2   -1    0    0  503    0  0.00000000000E+00 -0.00000000000E+00 -0.14419569156E+04  0.14419569156E+04  0.00000000000E+00 0. -1.
         25    2    1    2    0    0 -0.75480970853E+02 -0.43372236277E+02 -0.63535009440E+02  0.16504513800E+03  0.12499868924E+03 0.  0.
          4    1    3    3  501    0 -0.64540056083E+02 -0.20396498913E+02 -0.99878613607E+02  0.12065979597E+03  0.12700000000E+01 0.  1.
         -4    1    3    3    0  501 -0.10940914770E+02 -0.22975737365E+02  0.36343604167E+02  0.44385342032E+02  0.12700000000E+01 0.  1.
          2    1    1    2  502    0  0.99402396688E+02  0.29747656259E+02  0.93003604159E+02  0.13933926190E+03  0.00000000000E+00 0. -1.
          1    1    1    2  503    0 -0.23921425834E+02  0.13624580018E+02 -0.13043537726E+04  0.13046442534E+04  0.00000000000E+00 0. -1.
<mgrwt>
<rscale>  0 0.52628169E+02</rscale>
<asrwt>0</asrwt>
<pdfrwt beam="2">  1        2 0.22183953E+00 0.27529326E+02</pdfrwt>
<pdfrwt beam="1">  1        1 0.25703344E-01 0.10060995E+03</pdfrwt>
<totfact> 0.43373957E+02</totfact>
</mgrwt>
</event>
<event>
 7    1  0.4252091E-004  0.1809131E+03  0.7546771E-02  0.1240202E+00
          2   -1    0    0  503    0  0.00000000000E+00  0.00000000000E+00  0.65466837506E+03  0.65466837506E+03  0.00000000000E+00 0. -1.
         -2   -1    0    0    0  501 -0.00000000000E+00 -0.00000000000E+00 -0.34145049264E+03  0.34145049264E+03  0.00000000000E+00 0.  1.
         25    2    1    2    0    0 -0.12643026163E+03 -0.83494451347E+02  0.25679990205E+03  0.32331289276E+03  0.12501640880E+03 0.  0.
          4    1    3    3  502    0 -0.64468788529E+02  0.19145497440E+02  0.48342025619E+02  0.82833200515E+02  0.12700000000E+01 0.  1.
         -4    1    3    3    0  502 -0.61961473101E+02 -0.10263994879E+03  0.20845787643E+03  0.24047969224E+03  0.12700000000E+01 0.  1.
          1    1    1    2  503    0  0.13426704420E+03  0.16508307980E+03  0.32696789958E+03  0.39011289360E+03  0.00000000000E+00 0. -1.
         -1    1    1    2    0  501 -0.78367825671E+01 -0.81588628457E+02 -0.27054991921E+03  0.28269308135E+03  0.00000000000E+00 0.  1.
<mgrwt>
<rscale>  0 0.12177186E+03</rscale>
<asrwt>0</asrwt>
<pdfrwt beam="1">  1        2 0.10071821E+00 0.18091309E+03</pdfrwt>
<pdfrwt beam="2">  1       -2 0.52530845E-01 0.81964135E+02</pdfrwt>
<totfact> 0.16229914E+02</totfact>
</mgrwt>
</event>
<event>
 7    1  0.4252091E-004  0.1000379E+03  0.7546771E-02  0.1386817E+00
          2   -1    0    0  503    0  0.00000000000E+00  0.00000000000E+00  0.36928434840E+03  0.36928434840E+03  0.00000000000E+00 0. -1.
         -2   -1    0    0    0  501 -0.00000000000E+00 -0.00000000000E+00 -0.10868212825E+04  0.10868212825E+04  0.00000000000E+00 0.  1.
         25    2    1    2    0    0 -0.13495354724E+03 -0.23034706234E+02 -0.89722462781E+02  0.20596106549E+03  0.12500713007E+03 0.  0.
          4    1    3    3  502    0 -0.14764887901E+03  0.11351122878E+02 -0.78480606448E+02  0.16760029222E+03  0.12700000000E+01 0.  1.
         -4    1    3    3    0  502  0.12695331768E+02 -0.34385829112E+02 -0.11241856333E+02  0.38360773275E+02  0.12700000000E+01 0.  1.
          1    1    1    2  503    0  0.97476660980E+02  0.11188147761E+02  0.30300545050E+03  0.31849517598E+03  0.00000000000E+00 0. -1.
         -1    1    1    2    0  501  0.37476886260E+02  0.11846558474E+02 -0.93081992183E+03  0.93164938943E+03  0.00000000000E+00 0.  1.
<mgrwt>
<rscale>  0 0.62705340E+02</rscale>
<asrwt>0</asrwt>
<pdfrwt beam="1">  1        2 0.56812978E-01 0.10003795E+03</pdfrwt>
<pdfrwt beam="2">  1       -2 0.16720327E+00 0.39304681E+02</pdfrwt>
<totfact> 0.23349569E+01</totfact>
</mgrwt>
</event>
<event>
 7    1  0.4252091E-004  0.7471325E+02  0.7546771E-02  0.1358287E+00
          2   -1    0    0  503    0  0.00000000000E+00  0.00000000000E+00  0.19815021707E+04  0.19815021707E+04  0.00000000000E+00 0. -1.
         -2   -1    0    0    0  501 -0.00000000000E+00 -0.00000000000E+00 -0.33733242327E+02  0.33733242327E+02  0.00000000000E+00 0.  1.
         25    2    1    2    0    0 -0.48719704531E+02  0.16963788689E+02  0.18165586883E+03  0.22646165086E+03  0.12499857957E+03 0.  0.
          4    1    3    3  502    0 -0.41276955309E+02 -0.27689673804E+02  0.17345163977E+03  0.18043721710E+03  0.12700000000E+01 0. -1.
         -4    1    3    3    0  502 -0.74427492220E+01  0.44653462493E+02  0.82042290560E+01  0.46024433760E+02  0.12700000000E+01 0. -1.
          1    1    1    2  503    0 -0.33786508204E+02 -0.66637390212E+02  0.15543013398E+04  0.15560959883E+04  0.00000000000E+00 0. -1.
         -1    1    1    2    0  501  0.82506212735E+02  0.49673601523E+02  0.21181171974E+03  0.23267777386E+03  0.00000000000E+00 0.  1.
<mgrwt>
<rscale>  0 0.70533957E+02</rscale>
<asrwt>0</asrwt>
<pdfrwt beam="1">  1        2 0.30484640E+00 0.74713251E+02</pdfrwt>
<pdfrwt beam="2">  1       -2 0.51897311E-02 0.66588444E+02</pdfrwt>
<totfact> 0.14216894E+03</totfact>
</mgrwt>
</event>
<event>
 7    1  0.4252091E-004  0.4827767E+02  0.7546771E-02  0.1470133E+00
          1   -1    0    0  502    0 -0.00000000000E+00  0.00000000000E+00  0.14996613268E+04  0.14996613268E+04  0.00000000000E+00 0. -1.
          2   -1    0    0  503    0  0.00000000000E+00 -0.00000000000E+00 -0.91490774092E+03  0.91490774092E+03  0.00000000000E+00 0. -1.
         25    2    1    2    0    0  0.61924007971E+02  0.31187643741E+02  0.25600395917E+01  0.14296680994E+03  0.12500281220E+03 0.  0.
          4    1    3    3  501    0 -0.26567533172E+02  0.45062232456E+02 -0.73443997631E+01  0.52839300910E+02  0.12700000000E+01 0. -1.
         -4    1    3    3    0  501  0.88491541143E+02 -0.13874588715E+02  0.99044393549E+01  0.90127509035E+02  0.12700000000E+01 0. -1.
          2    1    1    2  502    0 -0.47298342723E+02  0.94870610034E+01  0.14259367928E+04  0.14267525625E+04  0.00000000000E+00 0. -1.
          1    1    1    2  503    0 -0.14625665248E+02 -0.40674704744E+02 -0.84374324648E+03  0.84484969531E+03  0.00000000000E+00 0. -1.
<mgrwt>
<rscale>  0 0.45681173E+02</rscale>
<asrwt>0</asrwt>
<pdfrwt beam="2">  1        2 0.14075504E+00 0.43224318E+02</pdfrwt>
<pdfrwt beam="1">  1        1 0.23071713E+00 0.48277674E+02</pdfrwt>
<totfact> 0.37482854E+01</totfact>
</mgrwt>
</event>
<event>
 7    1  0.4252091E-004  0.2787078E+02  0.7546771E-02  0.1666495E+00
          1   -1    0    0  503    0  0.00000000000E+00  0.00000000000E+00  0.81941109522E+02  0.81941109522E+02  0.00000000000E+00 0. -1.
         -1   -1    0    0    0  501 -0.00000000000E+00 -0.00000000000E+00 -0.12736785052E+04  0.12736785052E+04  0.00000000000E+00 0.  1.
         25    2    1    2    0    0  0.54449732883E+01  0.13374664911E+02 -0.75773665832E+02  0.14688842293E+03  0.12500412377E+03 0.  0.
          4    1    3    3  502    0  0.35006968513E+02  0.29188612530E+02 -0.97003518752E+02  0.10718562635E+03  0.12700000000E+01 0. -1.
         -4    1    3    3    0  502 -0.29561995225E+02 -0.15813947619E+02  0.21229852920E+02  0.39702796576E+02  0.12700000000E+01 0. -1.
          2    1    1    2  503    0 -0.18582604687E+02  0.11305436753E+02  0.43655866850E+02  0.48774591824E+02  0.00000000000E+00 0. -1.
         -2    1    1    2    0  501  0.13137631399E+02 -0.24680101663E+02 -0.11596195967E+04  0.11599566000E+04  0.00000000000E+00 0.  1.
<mgrwt>
<rscale>  0 0.24621743E+02</rscale>
<asrwt>0</asrwt>
<pdfrwt beam="1">  1        1 0.12606325E-01 0.21751462E+02</pdfrwt>
<pdfrwt beam="2">  1       -1 0.19595053E+00 0.27870780E+02</pdfrwt>
<totfact> 0.87805622E+01</totfact>
</mgrwt>
</event>
<event>
 7    1  0.4252091E-004  0.1124592E+03  0.7546771E-02  0.1381783E+00
          2   -1    0    0  503    0  0.00000000000E+00  0.00000000000E+00  0.11860406198E+04  0.11860406198E+04  0.00000000000E+00 0. -1.
          1   -1    0    0  502    0 -0.00000000000E+00 -0.00000000000E+00 -0.15832769359E+04  0.15832769359E+04  0.00000000000E+00 0. -1.
         25    2    1    2    0    0  0.12492095234E+03  0.79167613774E+02  0.53727418735E+02  0.20095440421E+03  0.12499312639E+03 0.  0.
          4    1    3    3  501    0  0.13971835856E+03  0.43424007840E+02  0.65768872362E+02  0.16041827093E+03  0.12700000000E+01 0.  1.
         -4    1    3    3    0  501 -0.14797406225E+02  0.35743605934E+02 -0.12041453627E+02  0.40536133283E+02  0.12700000000E+01 0.  1.
          2    1    1    2  502    0 -0.96954132739E+02 -0.55839039387E+02 -0.15072761958E+04  0.15114230489E+04  0.00000000000E+00 0. -1.
          1    1    1    2  503    0 -0.27966819596E+02 -0.23328574387E+02  0.10563124610E+04  0.10569401027E+04  0.00000000000E+00 0. -1.
<mgrwt>
<rscale>  0 0.63997538E+02</rscale>
<asrwt>0</asrwt>
<pdfrwt beam="1">  1        2 0.18246779E+00 0.36419300E+02</pdfrwt>
<pdfrwt beam="2">  1        1 0.24358107E+00 0.11245919E+03</pdfrwt>
<totfact> 0.21826143E+01</totfact>
</mgrwt>
</event>
<event>
 7    1  0.4252091E-004  0.6811809E+02  0.7546771E-02  0.1394775E+00
          1   -1    0    0  502    0 -0.00000000000E+00  0.00000000000E+00  0.32577554598E+03  0.32577554598E+03  0.00000000000E+00 0. -1.
          2   -1    0    0  503    0  0.00000000000E+00 -0.00000000000E+00 -0.38777431199E+03  0.38777431199E+03  0.00000000000E+00 0. -1.
         25    2    1    2    0    0 -0.80529268862E+02 -0.32598892344E+02 -0.35137203011E+02  0.15622692127E+03  0.12499830786E+03 0.  0.
          4    1    3    3  501    0 -0.45975589322E+02 -0.40247772222E+02 -0.78982030451E+02  0.99866971600E+02  0.12700000000E+01 0.  1.
         -4    1    3    3    0  501 -0.34553679540E+02  0.76488798779E+01  0.43844827440E+02  0.56359949666E+02  0.12700000000E+01 0.  1.
          2    1    1    2  502    0  0.15295966744E+02  0.51946179703E+02  0.25842339782E+03  0.26403602922E+03  0.00000000000E+00 0. -1.
          1    1    1    2  503    0  0.65233302117E+02 -0.19347287359E+02 -0.28528496082E+03  0.29328690749E+03  0.00000000000E+00 0. -1.
<mgrwt>
<rscale>  0 0.60734577E+02</rscale>
<asrwt>0</asrwt>
<pdfrwt beam="2">  1        2 0.59657586E-01 0.68118091E+02</pdfrwt>
<pdfrwt beam="1">  1        1 0.50119315E-01 0.54151382E+02</pdfrwt>
<totfact> 0.89677140E+02</totfact>
</mgrwt>
</event>
<event>
 7    1  0.4252091E-004  0.1452881E+03  0.7546771E-02  0.1254833E+00
         -2   -1    0    0    0  501 -0.00000000000E+00  0.00000000000E+00  0.33973038608E+03  0.33973038608E+03  0.00000000000E+00 0.  1.
          2   -1    0    0  503    0  0.00000000000E+00 -0.00000000000E+00 -0.47985705466E+03  0.47985705466E+03  0.00000000000E+00 0. -1.
         25    2    1    2    0    0 -0.26874944128E+02  0.10076758528E+03 -0.60765915640E+02  0.17376477044E+03  0.12500132031E+03 0.  0.
          4    1    3    3  502    0 -0.22238681782E+02  0.28796435906E+02  0.37238131281E+02  0.52077682452E+02  0.12700000000E+01 0.  1.
         -4    1    3    3    0  502 -0.46362623455E+01  0.71971149371E+02 -0.98004046921E+02  0.12168708799E+03  0.12700000000E+01 0.  1.
          1    1    1    2  503    0  0.74219879080E+02  0.47525032071E+02 -0.33506502772E+03  0.34646181886E+03  0.00000000000E+00 0. -1.
         -1    1    1    2    0  501 -0.47344934952E+02 -0.14829261735E+03  0.25570427478E+03  0.29936085143E+03  0.00000000000E+00 0.  1.
<mgrwt>
<rscale>  0 0.11315700E+03</rscale>
<asrwt>0</asrwt>
<pdfrwt beam="2">  1        2 0.73824162E-01 0.88131828E+02</pdfrwt>
<pdfrwt beam="1">  1       -2 0.52266213E-01 0.14528811E+03</pdfrwt>
<totfact> 0.23524484E+02</totfact>
</mgrwt>
</event>
<event>
 7    1  0.4252091E-004  0.1287596E+03  0.7546771E-02  0.1409262E+00
          1   -1    0    0  502    0 -0.00000000000E+00  0.00000000000E+00  0.35975964970E+03  0.35975964970E+03  0.00000000000E+00 0. -1.
          2   -1    0    0  503    0  0.00000000000E+00 -0.00000000000E+00 -0.13151408197E+04  0.13151408197E+04  0.00000000000E+00 0. -1.
         25    2    1    2    0    0 -0.82794574586E+02 -0.76738995491E+02 -0.29158493611E+03  0.33673412431E+03  0.12499712194E+03 0.  0.
          4    1    3    3  501    0 -0.87281467823E+02 -0.77091156362E+02 -0.30288600929E+03  0.32450369573E+03  0.12700000000E+01 0.  1.
         -4    1    3    3    0  501  0.44868932372E+01  0.35216087116E+00  0.11301073180E+02  0.12230428579E+02  0.12700000000E+01 0.  1.
          2    1    1    2  502    0 -0.64749806622E+00 -0.25543553791E+02  0.33234070986E+03  0.33332152619E+03  0.00000000000E+00 0. -1.
          1    1    1    2  503    0  0.83442072652E+02  0.10228254928E+03 -0.99613694371E+03  0.10048448189E+04  0.00000000000E+00 0. -1.
<mgrwt>
<rscale>  0 0.57358826E+02</rscale>
<asrwt>0</asrwt>
<pdfrwt beam="2">  1        2 0.20232935E+00 0.12875962E+03</pdfrwt>
<pdfrwt beam="1">  1        1 0.55347639E-01 0.25551759E+02</pdfrwt>
<totfact> 0.17477822E+02</totfact>
</mgrwt>
</event>
<event>
 7    1  0.4252091E-004  0.3650841E+02  0.7546771E-02  0.1626370E+00
          2   -1    0    0  503    0  0.00000000000E+00  0.00000000000E+00  0.33319204238E+04  0.33319204238E+04  0.00000000000E+00 0. -1.
          1   -1    0    0  502    0 -0.00000000000E+00 -0.00000000000E+00 -0.30429435088E+02  0.30429435088E+02  0.00000000000E+00 0. -1.
         25    2    1    2    0    0  0.15355444509E+02  0.26013984235E+02  0.20747801034E+04  0.20787578412E+04  0.12493665437E+03 0.  0.
          4    1    3    3  501    0  0.50726604973E+02 -0.32394537925E+02  0.94629568935E+03  0.94820870019E+03  0.12700000000E+01 0. -1.
         -4    1    3    3    0  501 -0.35371160464E+02  0.58408522160E+02  0.11284844141E+04  0.11305491410E+04  0.12700000000E+01 0. -1.
          2    1    1    2  502    0 -0.33229845610E+02 -0.15280178196E+02 -0.16558121097E+02  0.40148198705E+02  0.00000000000E+00 0. -1.
          1    1    1    2  503    0  0.17874401102E+02 -0.10733806039E+02  0.12432690064E+04  0.12434438190E+04  0.00000000000E+00 0. -1.
<mgrwt>
<rscale>  0 0.27589643E+02</rscale>
<asrwt>0</asrwt>
<pdfrwt beam="1">  1        2 0.51260285E+00 0.20849672E+02</pdfrwt>
<pdfrwt beam="2">  1        1 0.46814542E-02 0.36508412E+02</pdfrwt>
<totfact> 0.43197359E+02</totfact>
</mgrwt>
</event>
<event>
 7    1  0.4252091E-004  0.4239467E+02  0.7546771E-02  0.1571703E+00
          1   -1    0    0  502    0 -0.00000000000E+00  0.00000000000E+00  0.83911884085E+02  0.83911884085E+02  0.00000000000E+00 0. -1.
          2   -1    0    0  503    0  0.00000000000E+00 -0.00000000000E+00 -0.17977143921E+04  0.17977143921E+04  0.00000000000E+00 0. -1.
         25    2    1    2    0    0 -0.32216032642E+02 -0.46731910456E+02 -0.85510287271E+03  0.86605524828E+03  0.12501610272E+03 0.  0.
          4    1    3    3  501    0 -0.56683595111E+02  0.24627516512E+02 -0.39474278911E+03  0.39955353456E+03  0.12700000000E+01 0.  1.
         -4    1    3    3    0  501  0.24467562469E+02 -0.71359426968E+02 -0.46036008360E+03  0.46650171372E+03  0.12700000000E+01 0.  1.
          2    1    1    2  502    0  0.24236733643E+02  0.59637725519E+01  0.75976938025E+02  0.79971750965E+02  0.00000000000E+00 0. -1.
          1    1    1    2  503    0  0.79792989993E+01  0.40768137904E+02 -0.93467657334E+03  0.93559927695E+03  0.00000000000E+00 0. -1.
<mgrwt>
<rscale>  0 0.32529334E+02</rscale>
<asrwt>0</asrwt>
<pdfrwt beam="2">  1        2 0.27657146E+00 0.42394670E+02</pdfrwt>
<pdfrwt beam="1">  1        1 0.12909520E-01 0.24959684E+02</pdfrwt>
<totfact> 0.61403237E+02</totfact>
</mgrwt>
</event>
<event>
 7    1  0.4252091E-004  0.3082860E+03  0.7546771E-02  0.1242148E+00
          2   -1    0    0  503    0  0.00000000000E+00  0.00000000000E+00  0.27969943319E+04  0.27969943319E+04  0.00000000000E+00 0. -1.
          1   -1    0    0  502    0 -0.00000000000E+00 -0.00000000000E+00 -0.11687985242E+04  0.11687985242E+04  0.00000000000E+00 0. -1.
         25    2    1    2    0    0  0.32965872076E+03  0.12612470684E+02  0.10463880494E+04  0.11042582640E+04  0.12499766883E+03 0.  0.
          4    1    3    3  501    0  0.20932793230E+03  0.66627552945E+02  0.69704694283E+03  0.73084435241E+03  0.12700000000E+01 0.  1.
         -4    1    3    3    0  501  0.12033078846E+03 -0.54015082261E+02  0.34934110653E+03  0.37341391159E+03  0.12700000000E+01 0.  1.
          2    1    1    2  502    0 -0.30352164926E+03 -0.51867488999E+02 -0.11187351521E+04  0.11603378682E+04  0.00000000000E+00 0. -1.
          3    1    1    2  503    0 -0.26137071505E+02  0.39255018315E+02  0.17005429104E+04  0.17011967238E+04  0.00000000000E+00 0. -1.
<mgrwt>
<rscale>  0 0.12057732E+03</rscale>
<asrwt>0</asrwt>
<pdfrwt beam="1">  1        2 0.43030682E+00 0.47160396E+02</pdfrwt>
<pdfrwt beam="2">  1        1 0.17981516E+00 0.30828599E+03</pdfrwt>
<totfact> 0.58582763E+00</totfact>
</mgrwt>
</event>
<event>
 7    1  0.4252091E-004  0.4165408E+02  0.7546771E-02  0.1605351E+00
          1   -1    0    0  502    0 -0.00000000000E+00  0.00000000000E+00  0.27258696697E+03  0.27258696697E+03  0.00000000000E+00 0. -1.
          2   -1    0    0  503    0  0.00000000000E+00 -0.00000000000E+00 -0.56207556914E+03  0.56207556914E+03  0.00000000000E+00 0. -1.
         25    2    1    2    0    0 -0.54211591705E+01 -0.22958497718E+02 -0.23348824706E+03  0.26588930553E+03  0.12499551870E+03 0.  0.
          4    1    3    3  501    0 -0.35485318633E+02  0.39134159081E+02 -0.14041617609E+03  0.15003001584E+03  0.12700000000E+01 0. -1.
         -4    1    3    3    0  501  0.30064159463E+02 -0.62092656799E+02 -0.93072070966E+02  0.11585928969E+03  0.12700000000E+01 0. -1.
          2    1    1    2  502    0  0.21717064529E+02  0.35698455566E+02  0.25433733647E+03  0.25774695215E+03  0.00000000000E+00 0. -1.
          1    1    1    2  503    0 -0.16295905358E+02 -0.12739957847E+02 -0.31033769159E+03  0.31102627843E+03  0.00000000000E+00 0. -1.
<mgrwt>
<rscale>  0 0.29353166E+02</rscale>
<asrwt>0</asrwt>
<pdfrwt beam="2">  1        2 0.86473163E-01 0.20684851E+02</pdfrwt>
<pdfrwt beam="1">  1        1 0.41936457E-01 0.41654076E+02</pdfrwt>
<totfact> 0.76219007E+02</totfact>
</mgrwt>
</event>
<event>
 7    1  0.4252091E-004  0.3464317E+03  0.7546771E-02  0.1272673E+00
          1   -1    0    0  503    0  0.00000000000E+00  0.00000000000E+00  0.32918885824E+04  0.32918885824E+04  0.00000000000E+00 0. -1.
         -1   -1    0    0    0  501 -0.00000000000E+00 -0.00000000000E+00 -0.16949438484E+03  0.16949438484E+03  0.00000000000E+00 0.  1.
         25    2    1    2    0    0  0.19074598235E+03 -0.29091308473E+03  0.16225067195E+04  0.16640811442E+04  0.12499418812E+03 0.  0.
          4    1    3    3  502    0  0.17459631618E+03 -0.16298750848E+03  0.11305554510E+04  0.11555111606E+04  0.12700000000E+01 0. -1.
         -4    1    3    3    0  502  0.16149666178E+02 -0.12792557625E+03  0.49195126851E+03  0.50856998365E+03  0.12700000000E+01 0. -1.
          2    1    1    2  503    0 -0.27417910088E+02 -0.14572675357E+02  0.14464670253E+04  0.14468002488E+04  0.00000000000E+00 0. -1.
         -2    1    1    2    0  501 -0.16332807227E+03  0.30548576008E+03  0.53420452828E+02  0.35050157430E+03  0.00000000000E+00 0.  1.
<mgrwt>
<rscale>  0 0.10371459E+03</rscale>
<asrwt>0</asrwt>
<pdfrwt beam="1">  1        1 0.50644435E+00 0.31050035E+02</pdfrwt>
<pdfrwt beam="2">  1       -1 0.26076062E-01 0.34643171E+03</pdfrwt>
<totfact> 0.88792543E+00</totfact>
</mgrwt>
</event>
<event>
 7    1  0.4252091E-004  0.4130271E+02  0.7546771E-02  0.1552550E+00
         -2   -1    0    0    0  501  0.00000000000E+00  0.00000000000E+00  0.53739443106E+02  0.53739443106E+02  0.00000000000E+00 0.  1.
         -1   -1    0    0    0  502 -0.00000000000E+00 -0.00000000000E+00 -0.27981688158E+03  0.27981688158E+03  0.00000000000E+00 0.  1.
         25    2    1    2    0    0 -0.44372559444E+02 -0.38515049742E+02 -0.65390737271E+02  0.15281182393E+03  0.12499268748E+03 0.  0.
          4    1    3    3  503    0  0.38572149826E+01  0.26180557011E+02 -0.67045371547E+02  0.72090182540E+02  0.12700000000E+01 0.  1.
         -4    1    3    3    0  503 -0.48229774427E+02 -0.64695606753E+02  0.16546342756E+01  0.80721641392E+02  0.12700000000E+01 0.  1.
         -2    1    1    2    0  502  0.10085112054E+02  0.27101060367E+02 -0.13047784390E+03  0.13364372304E+03  0.00000000000E+00 0.  1.
         -1    1    1    2    0  501  0.34287447390E+02  0.11413989375E+02 -0.30208857300E+02  0.47100777715E+02  0.00000000000E+00 0.  1.
<mgrwt>
<rscale>  0 0.34559212E+02</rscale>
<asrwt>0</asrwt>
<pdfrwt beam="1">  1       -2 0.82676066E-02 0.41302712E+02</pdfrwt>
<pdfrwt beam="2">  1       -1 0.43048751E-01 0.28916725E+02</pdfrwt>
<totfact> 0.30844113E+03</totfact>
</mgrwt>
</event>
<event>
 7    1  0.4252091E-004  0.6059964E+02  0.7546771E-02  0.1413516E+00
          1   -1    0    0  503    0  0.00000000000E+00  0.00000000000E+00  0.14284992814E+04  0.14284992814E+04  0.00000000000E+00 0. -1.
         -1   -1    0    0    0  501 -0.00000000000E+00 -0.00000000000E+00 -0.10572515599E+03  0.10572515599E+03  0.00000000000E+00 0.  1.
         25    2    1    2    0    0  0.45953036545E+02 -0.14955246018E+02  0.44759007975E+03  0.46721062701E+03  0.12495418981E+03 0.  0.
          4    1    3    3  502    0  0.65703059873E+02 -0.33902648904E+02  0.13933865797E+03  0.15774395768E+03  0.12700000000E+01 0.  1.
         -4    1    3    3    0  502 -0.19750023328E+02  0.18947402887E+02  0.30825142178E+03  0.30946666934E+03  0.12700000000E+01 0.  1.
          2    1    1    2  503    0  0.25528946346E+01  0.52460368074E+02  0.96050865822E+03  0.96194360022E+03  0.00000000000E+00 0. -1.
         -2    1    1    2    0  501 -0.48505931180E+02 -0.37505122057E+02 -0.85324612596E+02  0.10507021012E+03  0.00000000000E+00 0.  1.
<mgrwt>
<rscale>  0 0.56416676E+02</rscale>
<asrwt>0</asrwt>
<pdfrwt beam="1">  1        1 0.21976911E+00 0.52522447E+02</pdfrwt>
<pdfrwt beam="2">  1       -1 0.16265410E-01 0.60599638E+02</pdfrwt>
<totfact> 0.24692744E+02</totfact>
</mgrwt>
</event>
<event>
 7    1  0.4252091E-004  0.7111390E+02  0.7546771E-02  0.1407630E+00
          2   -1    0    0  503    0  0.00000000000E+00  0.00000000000E+00  0.23454098071E+03  0.23454098071E+03  0.00000000000E+00 0. -1.
          1   -1    0    0  502    0 -0.00000000000E+00 -0.00000000000E+00 -0.76731873046E+03  0.76731873046E+03  0.00000000000E+00 0. -1.
         25    2    1    2    0    0 -0.16077614876E+02 -0.21174848773E+02 -0.10248224243E+03  0.16381430876E+03  0.12500261525E+03 0.  0.
          4    1    3    3  501    0  0.50406044746E+02 -0.18232868003E+02 -0.18643286201E+02  0.56766115271E+02  0.12700000000E+01 0.  1.
         -4    1    3    3    0  501 -0.66483659622E+02 -0.29419807696E+01 -0.83838956227E+02  0.10704819349E+03  0.12700000000E+01 0.  1.
          2    1    1    2  502    0 -0.32454877352E+02 -0.33799722823E+02 -0.62667306375E+03  0.62842252438E+03  0.00000000000E+00 0. -1.
          1    1    1    2  503    0  0.48532492228E+02  0.54974571596E+02  0.19637755643E+03  0.20962287803E+03  0.00000000000E+00 0. -1.
<mgrwt>
<rscale>  0 0.57726136E+02</rscale>
<asrwt>0</asrwt>
<pdfrwt beam="1">  1        2 0.36083227E-01 0.71113899E+02</pdfrwt>
<pdfrwt beam="2">  1        1 0.11804904E+00 0.46858727E+02</pdfrwt>
<totfact> 0.51043813E+02</totfact>
</mgrwt>
</event>
<event>
 7    1  0.4252091E-004  0.6509992E+02  0.7546771E-02  0.1480350E+00
          1   -1    0    0  502    0 -0.00000000000E+00  0.00000000000E+00  0.20857804837E+03  0.20857804837E+03  0.00000000000E+00 0. -1.
          2   -1    0    0  503    0  0.00000000000E+00 -0.00000000000E+00 -0.11027022434E+04  0.11027022434E+04  0.00000000000E+00 0. -1.
         25    2    1    2    0    0  0.53478650886E+02  0.71044171184E+02  0.17510442713E+02  0.15439728080E+03  0.12499865741E+03 0.  0.
          4    1    3    3  501    0 -0.96857904462E+01  0.24042238405E+02  0.59676386627E+02  0.65074786092E+02  0.12700000000E+01 0.  1.
         -4    1    3    3    0  501  0.63164441332E+02  0.47001932780E+02 -0.42165943915E+02  0.89322494703E+02  0.12700000000E+01 0.  1.
          2    1    1    2  502    0 -0.46105605509E+02 -0.42161548158E+02  0.11443576483E+03  0.13037970423E+03  0.00000000000E+00 0. -1.
          1    1    1    2  503    0 -0.73730453771E+01 -0.28882623026E+02 -0.10260704026E+04  0.10265033067E+04  0.00000000000E+00 0. -1.
<mgrwt>
<rscale>  0 0.44051720E+02</rscale>
<asrwt>0</asrwt>
<pdfrwt beam="2">  1        2 0.16964650E+00 0.29808853E+02</pdfrwt>
<pdfrwt beam="1">  1        1 0.32088930E-01 0.65099923E+02</pdfrwt>
<totfact> 0.48107780E+02</totfact>
</mgrwt>
</event>
<event>
 7    1  0.4252091E-004  0.7507240E+02  0.7546771E-02  0.1438074E+00
          1   -1    0    0  502    0 -0.00000000000E+00  0.00000000000E+00  0.70746889924E+03  0.70746889924E+03  0.00000000000E+00 0. -1.
          2   -1    0    0  503    0  0.00000000000E+00 -0.00000000000E+00 -0.65623187491E+02  0.65623187491E+02  0.00000000000E+00 0. -1.
         25    2    1    2    0    0 -0.14126486623E+02 -0.52271912726E+02  0.81967552630E+02  0.15895759467E+03  0.12496770277E+03 0.  0.
          4    1    3    3  501    0 -0.37878393688E+02 -0.82988337693E+02  0.34308553031E+02  0.97470644876E+02  0.12700000000E+01 0.  1.
         -4    1    3    3    0  501  0.23751907065E+02  0.30716424968E+02  0.47658999599E+02  0.61486949793E+02  0.12700000000E+01 0.  1.
          2    1    1    2  502    0  0.31540872600E+01 -0.35013228501E+02  0.51346972965E+03  0.51467177668E+03  0.00000000000E+00 0. -1.
          1    1    1    2  503    0  0.10972399363E+02  0.87285141227E+02  0.46408429469E+02  0.99462715389E+02  0.00000000000E+00 0. -1.
<mgrwt>
<rscale>  0 0.51372859E+02</rscale>
<asrwt>0</asrwt>
<pdfrwt beam="2">  1        2 0.10095875E-01 0.75072400E+02</pdfrwt>
<pdfrwt beam="1">  1        1 0.10884136E+00 0.35155006E+02</pdfrwt>
<totfact> 0.24092251E+03</totfact>
</mgrwt>
</event>
<event>
 7    1  0.4252091E-004  0.8233198E+02  0.7546771E-02  0.1480122E+00
         -2   -1    0    0    0  501 -0.00000000000E+00  0.00000000000E+00  0.29234420437E+03  0.29234420437E+03  0.00000000000E+00 0.  1.
          2   -1    0    0  503    0  0.00000000000E+00 -0.00000000000E+00 -0.22053646807E+03  0.22053646807E+03  0.00000000000E+00 0. -1.
         25    2    1    2    0    0 -0.61405317050E+02  0.47286477939E+02  0.51607774532E+02  0.15587674277E+03  0.12501028993E+03 0.  0.
          4    1    3    3  502    0 -0.11936623955E-01  0.65065600015E+02  0.63416266861E+02  0.90866760977E+02  0.12700000000E+01 0.  1.
         -4    1    3    3    0  502 -0.61393380426E+02 -0.17779122076E+02 -0.11808492329E+02  0.65009981795E+02  0.12700000000E+01 0.  1.
          1    1    1    2  503    0 -0.16535396278E+02 -0.16849639243E+02 -0.15820247815E+03  0.15995422397E+03  0.00000000000E+00 0. -1.
         -1    1    1    2    0  501  0.77940713328E+02 -0.30436838696E+02  0.17840243992E+03  0.19704970569E+03  0.00000000000E+00 0.  1.
<mgrwt>
<rscale>  0 0.44087179E+02</rscale>
<asrwt>0</asrwt>
<pdfrwt beam="2">  1        2 0.33928688E-01 0.23607831E+02</pdfrwt>
<pdfrwt beam="1">  1       -2 0.44976031E-01 0.82331977E+02</pdfrwt>
<totfact> 0.68983248E+02</totfact>
</mgrwt>
</event>
<event>
 7    1  0.4252091E-004  0.8613582E+02  0.7546771E-02  0.1430755E+00
         -2   -1    0    0    0  501 -0.00000000000E+00  0.00000000000E+00  0.24327911979E+02  0.24327911979E+02  0.00000000000E+00 0.  1.
          2   -1    0    0  503    0  0.00000000000E+00 -0.00000000000E+00 -0.41176029100E+04  0.41176029100E+04  0.00000000000E+00 0. -1.
         25    2    1    2    0    0  0.44875730831E+02 -0.96911573088E+02 -0.14321322139E+04  0.14415377796E+04  0.12499123111E+03 0.  0.
          4    1    3    3  502    0 -0.33613336205E+02 -0.90637163851E+01 -0.61157541059E+03  0.61256681518E+03  0.12700000000E+01 0. -1.
         -4    1    3    3    0  502  0.78489067036E+02 -0.87847856703E+02 -0.82055680330E+03  0.82897096446E+03  0.12700000000E+01 0. -1.
          1    1    1    2  503    0 -0.16111114351E+02  0.82051557508E+02 -0.26662980380E+04  0.26676089019E+04  0.00000000000E+00 0. -1.
         -1    1    1    2    0  501 -0.28764616479E+02  0.14860015581E+02  0.51552538303E+01  0.32784140469E+02  0.00000000000E+00 0.  1.
<mgrwt>
<rscale>  0 0.52808684E+02</rscale>
<asrwt>0</asrwt>
<pdfrwt beam="2">  1        2 0.63347742E+00 0.86135823E+02</pdfrwt>
<pdfrwt beam="1">  1       -2 0.37427554E-02 0.32376276E+02</pdfrwt>
<totfact> 0.11110619E+02</totfact>
</mgrwt>
</event>
<event>
 7    1  0.4252091E-004  0.1044447E+03  0.7546771E-02  0.1317303E+00
          1   -1    0    0  502    0 -0.00000000000E+00  0.00000000000E+00  0.25605847783E+03  0.25605847783E+03  0.00000000000E+00 0. -1.
          2   -1    0    0  503    0  0.00000000000E+00 -0.00000000000E+00 -0.11149389997E+04  0.11149389997E+04  0.00000000000E+00 0. -1.
         25    2    1    2    0    0 -0.16597838527E+02  0.51931497047E+02 -0.41535605655E+03  0.43717052447E+03  0.12500018048E+03 0.  0.
          4    1    3    3  501    0  0.48984739569E+02  0.20505972502E+01 -0.10227827578E+03  0.11342913319E+03  0.12700000000E+01 0.  1.
         -4    1    3    3    0  501 -0.65582578096E+02  0.49880899796E+02 -0.31307778077E+03  0.32374139128E+03  0.12700000000E+01 0.  1.
          2    1    1    2  502    0 -0.29644274211E+02 -0.10181842072E+03  0.23189423260E+03  0.25499158595E+03  0.00000000000E+00 0. -1.
          1    1    1    2  503    0  0.46242112738E+02  0.49886923678E+02 -0.67541869787E+03  0.67883536707E+03  0.00000000000E+00 0. -1.
<mgrwt>
<rscale>  0 0.84288641E+02</rscale>
<asrwt>0</asrwt>
<pdfrwt beam="2">  1        2 0.17152908E+00 0.68022336E+02</pdfrwt>
<pdfrwt beam="1">  1        1 0.39393612E-01 0.10444474E+03</pdfrwt>
<totfact> 0.35292562E+02</totfact>
</mgrwt>
</event>
<event>
 7    1  0.4252091E-004  0.4460499E+02  0.7546771E-02  0.1501382E+00
         -2   -1    0    0    0  501 -0.00000000000E+00  0.00000000000E+00  0.15677210119E+02  0.15677210119E+02  0.00000000000E+00 0.  1.
          2   -1    0    0  503    0  0.00000000000E+00 -0.00000000000E+00 -0.10061286509E+04  0.10061286509E+04  0.00000000000E+00 0. -1.
         25    2    1    2    0    0  0.36722179979E+02  0.59638326767E+01 -0.34500587512E+03  0.36883151978E+03  0.12499420112E+03 0.  0.
          4    1    3    3  502    0  0.42291399506E+00  0.52466323694E+02 -0.69571338537E+02  0.87147449900E+02  0.12700000000E+01 0. -1.
         -4    1    3    3    0  502  0.36299265984E+02 -0.46502491018E+02 -0.27543453658E+03  0.28168406988E+03  0.12700000000E+01 0. -1.
          1    1    1    2  503    0 -0.25842305436E+01  0.37493327116E+02 -0.37896572235E+03  0.38082469267E+03  0.00000000000E+00 0. -1.
         -1    1    1    2    0  501 -0.34137949436E+02 -0.43457159793E+02 -0.26647984332E+03  0.27214964858E+03  0.00000000000E+00 0.  1.
<mgrwt>
<rscale>  0 0.40943342E+02</rscale>
<asrwt>0</asrwt>
<pdfrwt beam="2">  1        2 0.15478910E+00 0.37582281E+02</pdfrwt>
<pdfrwt beam="1">  1       -2 0.24118773E-02 0.44604991E+02</pdfrwt>
<totfact> 0.13496737E+04</totfact>
</mgrwt>
</event>
<event>
 7    1  0.4252091E-004  0.5479933E+02  0.7546771E-02  0.1455975E+00
          2   -1    0    0  503    0  0.00000000000E+00  0.00000000000E+00  0.73435962213E+03  0.73435962213E+03  0.00000000000E+00 0. -1.
         -2   -1    0    0    0  501 -0.00000000000E+00 -0.00000000000E+00 -0.25423242750E+02  0.25423242750E+02  0.00000000000E+00 0.  1.
         25    2    1    2    0    0  0.70978893128E+02 -0.32444138680E+02  0.47167862818E+03  0.49416274932E+03  0.12500187651E+03 0.  0.
          4    1    3    3  502    0  0.50798480448E+02 -0.80391306902E+02  0.31765182326E+03  0.33158338554E+03  0.12700000000E+01 0.  1.
         -4    1    3    3    0  502  0.20180412680E+02  0.47947168221E+02  0.15402680492E+03  0.16257936379E+03  0.12700000000E+01 0.  1.
          1    1    1    2  503    0 -0.29647411943E+02  0.40894774297E+02  0.20858069285E+03  0.21460954553E+03  0.00000000000E+00 0. -1.
         -1    1    1    2    0  501 -0.41331481185E+02 -0.84506356167E+01  0.28677058342E+02  0.51010570027E+02  0.00000000000E+00 0.  1.
<mgrwt>
<rscale>  0 0.48081121E+02</rscale>
<asrwt>0</asrwt>
<pdfrwt beam="1">  1        2 0.11297839E+00 0.54799325E+02</pdfrwt>
<pdfrwt beam="2">  1       -2 0.39112687E-02 0.42186545E+02</pdfrwt>
<totfact> 0.97128237E+03</totfact>
</mgrwt>
</event>
<event>
 7    1  0.4252091E-004  0.1186959E+03  0.7546771E-02  0.1384524E+00
         -3   -1    0    0    0  501 -0.00000000000E+00  0.00000000000E+00  0.65337772444E+02  0.65337772444E+02  0.00000000000E+00 0.  1.
          1   -1    0    0  503    0  0.00000000000E+00 -0.00000000000E+00 -0.15749537999E+04  0.15749537999E+04  0.00000000000E+00 0. -1.
         25    2    1    2    0    0 -0.28466562509E+02 -0.10967718822E+03 -0.24362351214E+03  0.29633771615E+03  0.12499678217E+03 0.  0.
          4    1    3    3  502    0 -0.56720215891E+02 -0.34134102425E+02 -0.18536565920E+03  0.19683587160E+03  0.12700000000E+01 0. -1.
         -4    1    3    3    0  502  0.28253653382E+02 -0.75543085793E+02 -0.58257852939E+02  0.99501844554E+02  0.12700000000E+01 0. -1.
          2    1    1    2  503    0  0.31517371998E+02 -0.12060897563E+02 -0.12090520097E+04  0.12095228697E+04  0.00000000000E+00 0. -1.
         -2    1    1    2    0  501 -0.30508094885E+01  0.12173808578E+03 -0.56940505616E+02  0.13443098656E+03  0.00000000000E+00 0.  1.
<mgrwt>
<rscale>  0 0.63289344E+02</rscale>
<asrwt>0</asrwt>
<pdfrwt beam="2">  1        1 0.24230055E+00 0.33746259E+02</pdfrwt>
<pdfrwt beam="1">  1       -3 0.10051966E-01 0.11869586E+03</pdfrwt>
<totfact> 0.29751027E+02</totfact>
</mgrwt>
</event>
<event>
 7    1  0.4252091E-004  0.1117121E+03  0.7546771E-02  0.1342093E+00
          1   -1    0    0  502    0 -0.00000000000E+00  0.00000000000E+00  0.24203862805E+03  0.24203862805E+03  0.00000000000E+00 0. -1.
          2   -1    0    0  503    0  0.00000000000E+00 -0.00000000000E+00 -0.61576064936E+03  0.61576064936E+03  0.00000000000E+00 0. -1.
         25    2    1    2    0    0 -0.99303347661E+02 -0.11636257182E+02  0.11918893878E+03  0.19956980718E+03  0.12500218986E+03 0.  0.
          4    1    3    3  501    0 -0.10418174048E+03  0.37420120641E+02  0.84719790614E+02  0.13940285614E+03  0.12700000000E+01 0.  1.
         -4    1    3    3    0  501  0.48783928170E+01 -0.49056377823E+02  0.34469148168E+02  0.60166951037E+02  0.12700000000E+01 0.  1.
          2    1    1    2  502    0  0.57319603472E+01 -0.50808304779E+02  0.68601112504E+02  0.85559639087E+02  0.00000000000E+00 0. -1.
          1    1    1    2  503    0  0.93571387314E+02  0.62444561961E+02 -0.56151207259E+03  0.57266983115E+03  0.00000000000E+00 0. -1.
<mgrwt>
<rscale>  0 0.75577167E+02</rscale>
<asrwt>0</asrwt>
<pdfrwt beam="2">  1        2 0.94732405E-01 0.11171211E+03</pdfrwt>
<pdfrwt beam="1">  1        1 0.37236713E-01 0.51130609E+02</pdfrwt>
<totfact> 0.77166640E+02</totfact>
</mgrwt>
</event>
<event>
 7    1  0.4252091E-004  0.1210693E+03  0.7546771E-02  0.1270744E+00
          2   -1    0    0  503    0  0.00000000000E+00  0.00000000000E+00  0.49766585707E+03  0.49766585707E+03  0.00000000000E+00 0. -1.
         -2   -1    0    0    0  501 -0.00000000000E+00 -0.00000000000E+00 -0.45584720222E+03  0.45584720222E+03  0.00000000000E+00 0.  1.
         25    2    1    2    0    0  0.15469950982E+03  0.91707242814E+02 -0.77785122148E+02  0.23243064622E+03  0.12502529084E+03 0.  0.
          4    1    3    3  502    0  0.14269682656E+03  0.11035272500E+03 -0.34333696220E+02  0.18363148919E+03  0.12700000000E+01 0. -1.
         -4    1    3    3    0  502  0.12002683263E+02 -0.18645482190E+02 -0.43451425928E+02  0.48799157029E+02  0.12700000000E+01 0. -1.
          1    1    1    2  503    0 -0.90457465910E+02  0.32595960365E+01  0.40422505320E+03  0.41423552690E+03  0.00000000000E+00 0. -1.
         -1    1    1    2    0  501 -0.64242043912E+02 -0.94966838851E+02 -0.28462127621E+03  0.30684688618E+03  0.00000000000E+00 0.  1.
<mgrwt>
<rscale>  0 0.10468396E+03</rscale>
<asrwt>0</asrwt>
<pdfrwt beam="1">  1        2 0.76563979E-01 0.90516176E+02</pdfrwt>
<pdfrwt beam="2">  1       -2 0.70130338E-01 0.12106932E+03</pdfrwt>
<totfact> 0.12367152E+02</totfact>
</mgrwt>
</event>
<event>
 7    1  0.4252091E-004  0.5457371E+02  0.7546771E-02  0.1488581E+00
          2   -1    0    0  503    0  0.00000000000E+00  0.00000000000E+00  0.35459223476E+04  0.35459223476E+04  0.00000000000E+00 0. -1.
          1   -1    0    0  502    0 -0.00000000000E+00 -0.00000000000E+00 -0.73178344622E+01  0.73178344622E+01  0.00000000000E+00 0. -1.
         25    2    1    2    0    0  0.62954539018E+02  0.28412659712E+02  0.19040990164E+04  0.19094475326E+04  0.12500505026E+03 0.  0.
          4    1    3    3  501    0  0.73934543999E+02 -0.20114841127E+02  0.15469959851E+04  0.15488928674E+04  0.12700000000E+01 0. -1.
         -4    1    3    3    0  501 -0.10980004981E+02  0.48527500839E+02  0.35710303122E+03  0.36055466527E+03  0.12700000000E+01 0. -1.
          2    1    1    2  502    0 -0.53836990106E+02  0.38871964279E+01  0.15912837216E+03  0.16803383774E+03  0.00000000000E+00 0. -1.
          1    1    1    2  503    0 -0.91175489119E+01 -0.32299856139E+02  0.14753771246E+04  0.14757588117E+04  0.00000000000E+00 0. -1.
<mgrwt>
<rscale>  0 0.42797255E+02</rscale>
<asrwt>0</asrwt>
<pdfrwt beam="1">  1        2 0.54552514E+00 0.33562038E+02</pdfrwt>
<pdfrwt beam="2">  1        1 0.11258235E-02 0.54573713E+02</pdfrwt>
<totfact> 0.20784601E+03</totfact>
</mgrwt>
</event>
<event>
 7    1  0.4252091E-004  0.1034770E+03  0.7546771E-02  0.1295303E+00
         -1   -1    0    0    0  501 -0.00000000000E+00  0.00000000000E+00  0.61253098199E+03  0.61253098199E+03  0.00000000000E+00 0.  1.
          1   -1    0    0  503    0  0.00000000000E+00 -0.00000000000E+00 -0.19008279939E+04  0.19008279939E+04  0.00000000000E+00 0. -1.
         25    2    1    2    0    0  0.96512195758E+01  0.56977560331E+02 -0.11453582589E+03  0.17911593954E+03  0.12499790384E+03 0.  0.
          4    1    3    3  502    0 -0.44280312045E+02  0.32939527382E+02 -0.10590513955E+03  0.11942893277E+03  0.12700000000E+01 0. -1.
         -4    1    3    3    0  502  0.53931531621E+02  0.24038032949E+02 -0.86306863376E+01  0.59687006774E+02  0.12700000000E+01 0. -1.
          2    1    1    2  503    0  0.83615652672E+02 -0.72303671216E+01 -0.17481728460E+04  0.17501863201E+04  0.00000000000E+00 0. -1.
         -2    1    1    2    0  501 -0.93266872248E+02 -0.49747193209E+02  0.57441165997E+03  0.58405671625E+03  0.00000000000E+00 0.  1.
<mgrwt>
<rscale>  0 0.93191125E+02</rscale>
<asrwt>0</asrwt>
<pdfrwt beam="2">  1        1 0.29243508E+00 0.83927681E+02</pdfrwt>
<pdfrwt beam="1">  1       -1 0.94235536E-01 0.10347701E+03</pdfrwt>
<totfact> 0.54300695E+00</totfact>
</mgrwt>
</event>
<event>
 7    1  0.4252091E-004  0.2125684E+03  0.7546771E-02  0.1233856E+00
          2   -1    0    0  503    0  0.00000000000E+00  0.00000000000E+00  0.26697230749E+04  0.26697230749E+04  0.00000000000E+00 0. -1.
          1   -1    0    0  502    0 -0.00000000000E+00 -0.00000000000E+00 -0.21014180341E+03  0.21014180341E+03  0.00000000000E+00 0. -1.
         25    2    1    2    0    0  0.17051532230E+02  0.24660594424E+03  0.83265760624E+03  0.87752543117E+03  0.12500778627E+03 0.  0.
          4    1    3    3  501    0 -0.41561203331E+02  0.45150392570E+02  0.12242746186E+03  0.13695250231E+03  0.12700000000E+01 0.  1.
         -4    1    3    3    0  501  0.58612735561E+02  0.20145555167E+03  0.71023014438E+03  0.74057292886E+03  0.12700000000E+01 0.  1.
          2    1    1    2  502    0  0.52059713819E+02 -0.53187536847E+02 -0.17425725862E+03  0.18948540857E+03  0.00000000000E+00 0. -1.
          1    1    1    2  503    0 -0.69111246049E+02 -0.19341840739E+03  0.18011809239E+04  0.18128540386E+04  0.00000000000E+00 0. -1.
<mgrwt>
<rscale>  0 0.12577944E+03</rscale>
<asrwt>0</asrwt>
<pdfrwt beam="1">  1        2 0.41072660E+00 0.21256836E+03</pdfrwt>
<pdfrwt beam="2">  1        1 0.32329510E-01 0.74425317E+02</pdfrwt>
<totfact> 0.61707002E+01</totfact>
</mgrwt>
</event>
<event>
 7    1  0.4252091E-004  0.7053681E+02  0.7546771E-02  0.1493599E+00
          1   -1    0    0  502    0 -0.00000000000E+00  0.00000000000E+00  0.12701198261E+03  0.12701198261E+03  0.00000000000E+00 0. -1.
          2   -1    0    0  503    0  0.00000000000E+00 -0.00000000000E+00 -0.39647669074E+04  0.39647669074E+04  0.00000000000E+00 0. -1.
         25    2    1    2    0    0 -0.75026261362E+02 -0.32385952851E+02 -0.10520629799E+04  0.10626081860E+04  0.12498741258E+03 0.  0.
          4    1    3    3  501    0 -0.77608566804E+02 -0.68744870614E+02 -0.58452567391E+03  0.59365042174E+03  0.12700000000E+01 0.  1.
         -4    1    3    3    0  501  0.25823054428E+01  0.36358917764E+02 -0.46753730603E+03  0.46895776423E+03  0.12700000000E+01 0.  1.
          2    1    1    2  502    0  0.55774118793E+01  0.24447750555E+02  0.12002329139E+03  0.12261480541E+03  0.00000000000E+00 0. -1.
          1    1    1    2  503    0  0.69448849482E+02  0.79382022957E+01 -0.29057152362E+04  0.29065558986E+04  0.00000000000E+00 0. -1.
<mgrwt>
<rscale>  0 0.42056784E+02</rscale>
<asrwt>0</asrwt>
<pdfrwt beam="2">  1        2 0.60996409E+00 0.70536813E+02</pdfrwt>
<pdfrwt beam="1">  1        1 0.19540307E-01 0.25075885E+02</pdfrwt>
<totfact> 0.20545936E+01</totfact>
</mgrwt>
</event>
<event>
 7    1  0.4252091E-004  0.1572650E+03  0.7546771E-02  0.1288360E+00
          2   -1    0    0  503    0  0.00000000000E+00  0.00000000000E+00  0.20172799995E+04  0.20172799995E+04  0.00000000000E+00 0. -1.
         -2   -1    0    0    0  501 -0.00000000000E+00 -0.00000000000E+00 -0.95669469512E+03  0.95669469512E+03  0.00000000000E+00 0.  1.
         25    2    1    2    0    0  0.10516077007E+03 -0.96397278538E+02 -0.24670494257E+02  0.19127069277E+03  0.12499848701E+03 0.  0.
          4    1    3    3  502    0  0.12744621053E+03 -0.91732917856E+02 -0.42089817053E+02  0.16257499930E+03  0.12700000000E+01 0. -1.
         -4    1    3    3    0  502 -0.22285440461E+02 -0.46643606819E+01  0.17419322796E+02  0.28695693472E+02  0.12700000000E+01 0. -1.
          1    1    1    2  503    0 -0.68386387824E+02  0.14243386858E+03  0.19297246135E+04  0.19361821166E+04  0.00000000000E+00 0. -1.
         -1    1    1    2    0  501 -0.36774382248E+02 -0.46036590038E+02 -0.84446881486E+03  0.84652188518E+03  0.00000000000E+00 0.  1.
<mgrwt>
<rscale>  0 0.96261437E+02</rscale>
<asrwt>0</asrwt>
<pdfrwt beam="1">  1        2 0.31035077E+00 0.15726503E+03</pdfrwt>
<pdfrwt beam="2">  1       -2 0.14718380E+00 0.58921327E+02</pdfrwt>
<totfact> 0.28025207E+00</totfact>
</mgrwt>
</event>
<event>
 7    1  0.4252091E-004  0.1560350E+03  0.7546771E-02  0.1378104E+00
          1   -1    0    0  503    0  0.00000000000E+00  0.00000000000E+00  0.31818823979E+03  0.31818823979E+03  0.00000000000E+00 0. -1.
         -1   -1    0    0    0  501 -0.00000000000E+00 -0.00000000000E+00 -0.74649519171E+03  0.74649519171E+03  0.00000000000E+00 0.  1.
         25    2    1    2    0    0  0.72541010624E+02  0.16348268836E+03 -0.38726455719E+03  0.44450846168E+03  0.12500059052E+03 0.  0.
          4    1    3    3  502    0  0.57738236709E+02  0.48798660180E+02 -0.26768545505E+03  0.27815846016E+03  0.12700000000E+01 0.  1.
         -4    1    3    3    0  502  0.14802773915E+02  0.11468402818E+03 -0.11957910214E+03  0.16635000151E+03  0.12700000000E+01 0.  1.
          2    1    1    2  503    0 -0.51943081340E+02 -0.14595237917E+03  0.26821287847E+03  0.30973913034E+03  0.00000000000E+00 0. -1.
         -2    1    1    2    0  501 -0.20597929284E+02 -0.17530309185E+02 -0.30925527320E+03  0.31043583948E+03  0.00000000000E+00 0.  1.
<mgrwt>
<rscale>  0 0.64964693E+02</rscale>
<asrwt>0</asrwt>
<pdfrwt beam="1">  1        1 0.48952037E-01 0.15603498E+03</pdfrwt>
<pdfrwt beam="2">  1       -1 0.11484541E+00 0.27047854E+02</pdfrwt>
<totfact> 0.67821030E+01</totfact>
</mgrwt>
</event>
<event>
 7    1  0.4252091E-004  0.7626884E+02  0.7546771E-02  0.1432078E+00
          1   -1    0    0  503    0  0.00000000000E+00  0.00000000000E+00  0.79815838146E+03  0.79815838146E+03  0.00000000000E+00 0. -1.
         -1   -1    0    0    0  501 -0.00000000000E+00 -0.00000000000E+00 -0.78839929107E+02  0.78839929107E+02  0.00000000000E+00 0.  1.
         25    2    1    2    0    0  0.10169710465E+03  0.17230265652E+02  0.19916344627E+03  0.25676935913E+03  0.12500096923E+03 0.  0.
          4    1    3    3  502    0  0.54323074725E+02 -0.52269244686E+02  0.11694375364E+03  0.13914210292E+03  0.12700000000E+01 0.  1.
         -4    1    3    3    0  502  0.47374029927E+02  0.69499510337E+02  0.82219692624E+02  0.11762725621E+03  0.12700000000E+01 0.  1.
          2    1    1    2  503    0 -0.34270965638E+02  0.11661843280E+02  0.54237512386E+03  0.54358189139E+03  0.00000000000E+00 0. -1.
         -2    1    1    2    0  501 -0.67426139013E+02 -0.28892108932E+02 -0.22220117765E+02  0.76647060050E+02  0.00000000000E+00 0.  1.
<mgrwt>
<rscale>  0 0.52545151E+02</rscale>
<asrwt>0</asrwt>
<pdfrwt beam="1">  1        1 0.12279359E+00 0.36200797E+02</pdfrwt>
<pdfrwt beam="2">  1       -1 0.12129220E-01 0.76268843E+02</pdfrwt>
<totfact> 0.10790041E+03</totfact>
</mgrwt>
</event>
<event>
 7    1  0.4252091E-004  0.3166409E+02  0.7546771E-02  0.1607291E+00
         -1   -1    0    0    0  501 -0.00000000000E+00  0.00000000000E+00  0.21284139510E+03  0.21284139510E+03  0.00000000000E+00 0.  1.
          1   -1    0    0  503    0  0.00000000000E+00 -0.00000000000E+00 -0.53884176486E+03  0.53884176486E+03  0.00000000000E+00 0. -1.
         25    2    1    2    0    0  0.50426898859E+02  0.27860825127E+02  0.13306775727E+02  0.13828637623E+03  0.12500781522E+03 0.  0.
          4    1    3    3  502    0  0.78797485205E+02 -0.16580356888E+02 -0.89769827009E+01  0.81031790228E+02  0.12700000000E+01 0. -1.
         -4    1    3    3    0  502 -0.28370586345E+02  0.44441182015E+02  0.22283758428E+02  0.57254586001E+02  0.12700000000E+01 0. -1.
          2    1    1    2  503    0 -0.24674047183E+02 -0.10708419520E+02 -0.47421946025E+03  0.47498165789E+03  0.00000000000E+00 0. -1.
         -2    1    1    2    0  501 -0.25752851676E+02 -0.17152405608E+02  0.13491231476E+03  0.13841512584E+03  0.00000000000E+00 0.  1.
<mgrwt>
<rscale>  0 0.29183673E+02</rscale>
<asrwt>0</asrwt>
<pdfrwt beam="2">  1        1 0.82898734E-01 0.26897562E+02</pdfrwt>
<pdfrwt beam="1">  1       -1 0.32744830E-01 0.31664087E+02</pdfrwt>
<totfact> 0.37144755E+02</totfact>
</mgrwt>
</event>
<event>
 7    1  0.4252091E-004  0.1061480E+03  0.7546771E-02  0.1331397E+00
          2   -1    0    0  503    0  0.00000000000E+00  0.00000000000E+00  0.64735372866E+03  0.64735372866E+03  0.00000000000E+00 0. -1.
          1   -1    0    0  502    0 -0.00000000000E+00 -0.00000000000E+00 -0.86894082425E+03  0.86894082425E+03  0.00000000000E+00 0. -1.
         25    2    1    2    0    0 -0.13162215384E+03 -0.74362076701E+02 -0.10760946677E+02  0.19645610531E+03  0.12500037402E+03 0.  0.
          4    1    3    3  501    0 -0.13253185865E+03 -0.13767971837E+02 -0.21268647485E+02  0.13493783336E+03  0.12700000000E+01 0.  1.
         -4    1    3    3    0  501  0.90970481029E+00 -0.60594104865E+02  0.10507700808E+02  0.61518271948E+02  0.12700000000E+01 0.  1.
          2    1    1    2  502    0  0.30015931264E+02  0.50866673094E+02 -0.75927187753E+03  0.76156559702E+03  0.00000000000E+00 0. -1.
          1    1    1    2  503    0  0.10160622258E+03  0.23495403607E+02  0.54844572862E+03  0.55827285058E+03  0.00000000000E+00 0. -1.
<mgrwt>
<rscale>  0 0.79179320E+02</rscale>
<asrwt>0</asrwt>
<pdfrwt beam="1">  1        2 0.99592882E-01 0.10614804E+03</pdfrwt>
<pdfrwt beam="2">  1        1 0.13368320E+00 0.59062463E+02</pdfrwt>
<totfact> 0.14238366E+02</totfact>
</mgrwt>
</event>
<event>
 7    1  0.4252091E-004  0.3847312E+02  0.7546771E-02  0.1520771E+00
          1   -1    0    0  502    0 -0.00000000000E+00  0.00000000000E+00  0.35027238092E+03  0.35027238092E+03  0.00000000000E+00 0. -1.
          2   -1    0    0  503    0  0.00000000000E+00 -0.00000000000E+00 -0.43664656879E+03  0.43664656879E+03  0.00000000000E+00 0. -1.
         25    2    1    2    0    0 -0.32962062652E+01 -0.19035206316E+02 -0.54069408112E+01  0.12660433532E+03  0.12500487453E+03 0.  0.
          4    1    3    3  501    0 -0.53026267159E+02 -0.45699634232E+02 -0.15403293423E+01  0.70030187008E+02  0.12700000000E+01 0. -1.
         -4    1    3    3    0  501  0.49730060894E+02  0.26664427917E+02 -0.38666114689E+01  0.56574148309E+02  0.12700000000E+01 0. -1.
          2    1    1    2  502    0 -0.35444571077E+02  0.14281271159E+02  0.28737781307E+03  0.28990736412E+03  0.00000000000E+00 0. -1.
          1    1    1    2  503    0  0.38740777342E+02  0.47539351571E+01 -0.36834506013E+03  0.37040725027E+03  0.00000000000E+00 0. -1.
<mgrwt>
<rscale>  0 0.38343097E+02</rscale>
<asrwt>0</asrwt>
<pdfrwt beam="2">  1        2 0.67176395E-01 0.38473125E+02</pdfrwt>
<pdfrwt beam="1">  1        1 0.53888059E-01 0.38213510E+02</pdfrwt>
<totfact> 0.72890981E+02</totfact>
</mgrwt>
</event>
<event>
 7    1  0.4252091E-004  0.6209334E+02  0.7546771E-02  0.1418594E+00
          2   -1    0    0  503    0  0.00000000000E+00  0.00000000000E+00  0.48444778212E+03  0.48444778212E+03  0.00000000000E+00 0. -1.
         -2   -1    0    0    0  501 -0.00000000000E+00 -0.00000000000E+00 -0.20196478695E+03  0.20196478695E+03  0.00000000000E+00 0.  1.
         25    2    1    2    0    0  0.29421482825E+02 -0.98166105640E+01  0.69569521408E+02  0.14645143281E+03  0.12508442896E+03 0.  0.
          4    1    3    3  502    0  0.76526919111E+02 -0.22967401747E+02  0.44917064967E+02  0.91668023416E+02  0.12700000000E+01 0. -1.
         -4    1    3    3    0  502 -0.47105436286E+02  0.13150791183E+02  0.24652456441E+02  0.54783409396E+02  0.12700000000E+01 0. -1.
          1    1    1    2  503    0 -0.32642165146E+01 -0.49176338441E+02  0.36836498221E+03  0.37164731600E+03  0.00000000000E+00 0. -1.
         -1    1    1    2    0  501 -0.26157266310E+02  0.58992949005E+02 -0.15545150844E+03  0.16831382026E+03  0.00000000000E+00 0.  1.
<mgrwt>
<rscale>  0 0.55319458E+02</rscale>
<asrwt>0</asrwt>
<pdfrwt beam="1">  1        2 0.74530428E-01 0.49284555E+02</pdfrwt>
<pdfrwt beam="2">  1       -2 0.31071506E-01 0.62093335E+02</pdfrwt>
<totfact> 0.61854137E+02</totfact>
</mgrwt>
</event>
<event>
 7    1  0.4252091E-004  0.9040409E+02  0.7546771E-02  0.1355082E+00
          1   -1    0    0  502    0 -0.00000000000E+00  0.00000000000E+00  0.10033001835E+04  0.10033001835E+04  0.00000000000E+00 0. -1.
          2   -1    0    0  503    0  0.00000000000E+00 -0.00000000000E+00 -0.27067780441E+04  0.27067780441E+04  0.00000000000E+00 0. -1.
         25    2    1    2    0    0  0.23112342519E+02  0.27935074315E+02 -0.19650911622E+03  0.23570231393E+03  0.12500079713E+03 0.  0.
          4    1    3    3  501    0  0.12498100881E+02 -0.13126905286E+02  0.12742327639E+02  0.22192295548E+02  0.12700000000E+01 0. -1.
         -4    1    3    3    0  501  0.10614241637E+02  0.41061979601E+02 -0.20925144386E+03  0.21351001838E+03  0.12700000000E+01 0. -1.
          2    1    1    2  502    0  0.35170848803E+02  0.44270368160E+02  0.98202585376E+03  0.98365219034E+03  0.00000000000E+00 0. -1.
          1    1    1    2  503    0 -0.58283191321E+02 -0.72205442475E+02 -0.24889945982E+04  0.24907237234E+04  0.00000000000E+00 0. -1.
<mgrwt>
<rscale>  0 0.71494849E+02</rscale>
<asrwt>0</asrwt>
<pdfrwt beam="2">  1        2 0.41642738E+00 0.90404094E+02</pdfrwt>
<pdfrwt beam="1">  1        1 0.15435388E+00 0.56540730E+02</pdfrwt>
<totfact> 0.86847243E+00</totfact>
</mgrwt>
</event>
<event>
 7    1  0.4252091E-004  0.4349760E+02  0.7546771E-02  0.1498514E+00
          3   -1    0    0  503    0  0.00000000000E+00  0.00000000000E+00  0.19538845010E+03  0.19538845010E+03  0.00000000000E+00 0. -1.
         -3   -1    0    0    0  501 -0.00000000000E+00 -0.00000000000E+00 -0.63614533570E+02  0.63614533570E+02  0.00000000000E+00 0.  1.
         25    2    1    2    0    0 -0.14300319177E+02  0.65499074011E+01  0.79077648037E+02  0.14874421391E+03  0.12499666530E+03 0.  0.
          4    1    3    3  502    0 -0.16955891058E+02 -0.53037719023E+02  0.85202549362E+01  0.56344560740E+02  0.12700000000E+01 0. -1.
         -4    1    3    3    0  502  0.26555718810E+01  0.59587626424E+02  0.70557393101E+02  0.92399653171E+02  0.12700000000E+01 0. -1.
          2    1    1    2  503    0  0.39723952760E+02  0.28744283677E+02  0.44042316062E+02  0.65908663096E+02  0.00000000000E+00 0. -1.
         -2    1    1    2    0  501 -0.25423633583E+02 -0.35294191078E+02  0.86539524310E+01  0.44350106664E+02  0.00000000000E+00 0.  1.
<mgrwt>
<rscale>  0 0.41348752E+02</rscale>
<asrwt>0</asrwt>
<pdfrwt beam="1">  1        3 0.30059761E-01 0.39306063E+02</pdfrwt>
<pdfrwt beam="2">  1       -3 0.97868514E-02 0.43497598E+02</pdfrwt>
<totfact> 0.14546725E+03</totfact>
</mgrwt>
</event>
<event>
 7    1  0.4252091E-004  0.1453695E+03  0.7546771E-02  0.1256641E+00
          1   -1    0    0  502    0 -0.00000000000E+00  0.00000000000E+00  0.84835651242E+03  0.84835651242E+03  0.00000000000E+00 0. -1.
          2   -1    0    0  503    0  0.00000000000E+00 -0.00000000000E+00 -0.12502570139E+03  0.12502570139E+03  0.00000000000E+00 0. -1.
         25    2    1    2    0    0  0.16430144466E+03  0.12804319853E+03  0.21354523036E+03  0.32344478271E+03  0.12499974659E+03 0.  0.
          4    1    3    3  501    0  0.17012951463E+03  0.82228274508E+02  0.20033232761E+03  0.27539098617E+03  0.12700000000E+01 0. -1.
         -4    1    3    3    0  501 -0.58280699746E+01  0.45814924023E+02  0.13212902748E+02  0.48053796539E+02  0.12700000000E+01 0. -1.
          2    1    1    2  502    0 -0.44697681342E+02 -0.74080175279E+02  0.51144649624E+03  0.51871309372E+03  0.00000000000E+00 0. -1.
          1    1    1    2  503    0 -0.11960376332E+03 -0.53963023252E+02 -0.16609155713E+01  0.13122433737E+03  0.00000000000E+00 0. -1.
<mgrwt>
<rscale>  0 0.11214903E+03</rscale>
<asrwt>0</asrwt>
<pdfrwt beam="2">  1        2 0.19234724E-01 0.14536948E+03</pdfrwt>
<pdfrwt beam="1">  1        1 0.13051638E+00 0.86520258E+02</pdfrwt>
<totfact> 0.86290412E+02</totfact>
</mgrwt>
</event>
<event>
 7    1  0.4252091E-004  0.5411443E+02  0.7546771E-02  0.1516334E+00
          1   -1    0    0  502    0 -0.00000000000E+00  0.00000000000E+00  0.11737038814E+04  0.11737038814E+04  0.00000000000E+00 0. -1.
          2   -1    0    0  503    0  0.00000000000E+00 -0.00000000000E+00 -0.19696306545E+02  0.19696306545E+02  0.00000000000E+00 0. -1.
         25    2    1    2    0    0 -0.44681284548E+02  0.38412359892E+02  0.28946700204E+03  0.32076203018E+03  0.12500083261E+03 0.  0.
          4    1    3    3  501    0 -0.47870161788E+02  0.51062838207E+02  0.29734129611E+03  0.30547082530E+03  0.12700000000E+01 0. -1.
         -4    1    3    3    0  501  0.31888772403E+01 -0.12650478316E+02 -0.78742940677E+01  0.15291204882E+02  0.12700000000E+01 0. -1.
          2    1    1    2  502    0 -0.78132666684E+01 -0.26875273233E+02  0.67619114098E+03  0.67677011355E+03  0.00000000000E+00 0. -1.
          1    1    1    2  503    0  0.52494551216E+02 -0.11537086659E+02  0.18834943186E+03  0.19586804425E+03  0.00000000000E+00 0. -1.
<mgrwt>
<rscale>  0 0.38917270E+02</rscale>
<asrwt>0</asrwt>
<pdfrwt beam="2">  1        2 0.30302019E-02 0.54114427E+02</pdfrwt>
<pdfrwt beam="1">  1        1 0.18056977E+00 0.27987988E+02</pdfrwt>
<totfact> 0.50272507E+03</totfact>
</mgrwt>
</event>
<event>
 7    1  0.4252091E-004  0.2285200E+02  0.7546771E-02  0.1698726E+00
          1   -1    0    0  503    0  0.00000000000E+00  0.00000000000E+00  0.63904548468E+03  0.63904548468E+03  0.00000000000E+00 0. -1.
         -1   -1    0    0    0  501 -0.00000000000E+00 -0.00000000000E+00 -0.34226697138E+03  0.34226697138E+03  0.00000000000E+00 0.  1.
         25    2    1    2    0    0  0.59784398468E+01  0.85396752593E+00  0.16727424748E+02  0.12625854537E+03  0.12499977015E+03 0.  0.
          4    1    3    3  502    0 -0.29251605763E+01  0.58808432834E+02  0.30047227471E+02  0.66116844415E+02  0.12700000000E+01 0.  1.
         -4    1    3    3    0  502  0.89036004231E+01 -0.57954465308E+02 -0.13319802723E+02  0.60141700958E+02  0.12700000000E+01 0.  1.
          2    1    1    2  503    0  0.28148045138E+01 -0.22095176802E+02  0.56687386591E+03  0.56731129005E+03  0.00000000000E+00 0. -1.
         -2    1    1    2    0  501 -0.87932443606E+01  0.21241209276E+02 -0.28682277736E+03  0.28774262064E+03  0.00000000000E+00 0.  1.
<mgrwt>
<rscale>  0 0.22561025E+02</rscale>
<asrwt>0</asrwt>
<pdfrwt beam="1">  1        1 0.98314690E-01 0.22273751E+02</pdfrwt>
<pdfrwt beam="2">  1       -1 0.52656457E-01 0.22852004E+02</pdfrwt>
<totfact> 0.13497054E+02</totfact>
</mgrwt>
</event>
<event>
 7    1  0.4252091E-004  0.2957237E+02  0.7546771E-02  0.1623377E+00
          2   -1    0    0  503    0  0.00000000000E+00  0.00000000000E+00  0.35161453320E+02  0.35161453320E+02  0.00000000000E+00 0. -1.
          1   -1    0    0  502    0 -0.00000000000E+00 -0.00000000000E+00 -0.68282371930E+03  0.68282371930E+03  0.00000000000E+00 0. -1.
         25    2    1    2    0    0 -0.12374900888E+02 -0.20134926297E+01 -0.15165113771E+03  0.19690559577E+03  0.12496621044E+03 0.  0.
          4    1    3    3  501    0 -0.11982434485E+02  0.23856998103E+02 -0.16542261044E+03  0.16756786100E+03  0.12700000000E+01 0.  1.
         -4    1    3    3    0  501 -0.39246640329E+00 -0.25870490733E+02  0.13771472728E+02  0.29337734775E+02  0.12700000000E+01 0.  1.
          2    1    1    2  502    0  0.18898549901E+02 -0.23353925349E+02 -0.49388795824E+03  0.49480084510E+03  0.00000000000E+00 0. -1.
          1    1    1    2  503    0 -0.65236490129E+01  0.25367417978E+02 -0.21231700300E+01  0.26278731748E+02  0.00000000000E+00 0. -1.
<mgrwt>
<rscale>  0 0.27831345E+02</rscale>
<asrwt>0</asrwt>
<pdfrwt beam="1">  1        2 0.54094544E-02 0.26192821E+02</pdfrwt>
<pdfrwt beam="2">  1        1 0.10504980E+00 0.29572368E+02</pdfrwt>
<totfact> 0.49294450E+03</totfact>
</mgrwt>
</event>
<event>
 7    1  0.4252091E-004  0.7078909E+02  0.7546771E-02  0.1427518E+00
         -1   -1    0    0    0  501 -0.00000000000E+00  0.00000000000E+00  0.37040954500E+03  0.37040954500E+03  0.00000000000E+00 0.  1.
          1   -1    0    0  503    0  0.00000000000E+00 -0.00000000000E+00 -0.28395748863E+04  0.28395748863E+04  0.00000000000E+00 0. -1.
         25    2    1    2    0    0 -0.63171741625E+01  0.81758792319E+02 -0.22260241707E+03  0.26814418541E+03  0.12500024508E+03 0.  0.
          4    1    3    3  502    0  0.39850205166E+02  0.92232190761E+02 -0.16903069265E+03  0.19664130752E+03  0.12700000000E+01 0.  1.
         -4    1    3    3    0  502 -0.46167379328E+02 -0.10473398442E+02 -0.53571724423E+02  0.71502877891E+02  0.12700000000E+01 0.  1.
          2    1    1    2  503    0  0.39483590776E+02 -0.58733810258E+02 -0.25925447520E+04  0.25935105370E+04  0.00000000000E+00 0. -1.
         -2    1    1    2    0  501 -0.33166416614E+02 -0.23024982061E+02  0.34598182774E+03  0.34832970892E+03  0.00000000000E+00 0.  1.
<mgrwt>
<rscale>  0 0.53461458E+02</rscale>
<asrwt>0</asrwt>
<pdfrwt beam="2">  1        1 0.43685768E+00 0.70789093E+02</pdfrwt>
<pdfrwt beam="1">  1       -1 0.56986083E-01 0.40375252E+02</pdfrwt>
<totfact> 0.38601278E+00</totfact>
</mgrwt>
</event>
<event>
 7    1  0.4252091E-004  0.6196391E+02  0.7546771E-02  0.1408219E+00
         -2   -1    0    0    0  501 -0.00000000000E+00  0.00000000000E+00  0.57925069989E+02  0.57925069989E+02  0.00000000000E+00 0.  1.
          2   -1    0    0  503    0  0.00000000000E+00 -0.00000000000E+00 -0.28354042395E+04  0.28354042395E+04  0.00000000000E+00 0. -1.
         25    2    1    2    0    0 -0.38165083742E+02 -0.31516840154E+02 -0.32080112921E+03  0.34783338408E+03  0.12499925498E+03 0.  0.
          4    1    3    3  502    0 -0.33496361130E+02 -0.78670662380E+02 -0.23041757241E+03  0.24577418478E+03  0.12700000000E+01 0. -1.
         -4    1    3    3    0  502 -0.46687226120E+01  0.47153822226E+02 -0.90383556804E+02  0.10205919930E+03  0.12700000000E+01 0. -1.
          1    1    1    2  503    0  0.60584278628E+02 -0.17092800425E+02 -0.24844107443E+04  0.24852081130E+04  0.00000000000E+00 0. -1.
         -3    1    1    2    0  501 -0.22419194886E+02  0.48609640579E+02  0.27732703972E+02  0.60287812418E+02  0.00000000000E+00 0.  1.
<mgrwt>
<rscale>  0 0.57593063E+02</rscale>
<asrwt>0</asrwt>
<pdfrwt beam="2">  1        2 0.43621604E+00 0.61963911E+02</pdfrwt>
<pdfrwt beam="1">  1       -2 0.89115492E-02 0.53530528E+02</pdfrwt>
<totfact> 0.23135470E+02</totfact>
</mgrwt>
</event>
<event>
 7    1  0.6003484E-004  0.1195631E+03  0.7546771E-02  0.1371682E+00
          2   -1    0    0  503    0  0.00000000000E+00  0.00000000000E+00  0.28522340533E+04  0.28522340533E+04  0.00000000000E+00 0. -1.
         -2   -1    0    0    0  501 -0.00000000000E+00 -0.00000000000E+00 -0.10265212836E+02  0.10265212836E+02  0.00000000000E+00 0.  1.
         25    2    1    2    0    0  0.84130594769E+02 -0.96705284113E+02  0.17693213628E+04  0.17783572229E+04  0.12500583454E+03 0.  0.
          4    1    3    3  502    0  0.10162886789E+03 -0.11468058406E+03  0.15696533169E+04  0.15771154718E+04  0.12700000000E+01 0.  1.
         -4    1    3    3    0  502 -0.17498273118E+02  0.17975299950E+02  0.19966804583E+03  0.20124175112E+03  0.12700000000E+01 0.  1.
          1    1    1    2  503    0 -0.35715952649E+02 -0.10443222118E+02  0.35256114472E+03  0.35451946481E+03  0.00000000000E+00 0. -1.
         -1    1    1    2    0  501 -0.48414642120E+02  0.10714850623E+03  0.72008633296E+03  0.72962257837E+03  0.00000000000E+00 0.  1.
<mgrwt>
<rscale>  0 0.66701677E+02</rscale>
<asrwt>0</asrwt>
<pdfrwt beam="1">  1        2 0.43880461E+00 0.37211425E+02</pdfrwt>
<pdfrwt beam="2">  1       -2 0.15792658E-02 0.11956311E+03</pdfrwt>
<totfact> 0.34191159E+03</totfact>
</mgrwt>
</event>
<event>
 7    1  0.4252091E-004  0.4205607E+02  0.7546771E-02  0.1598671E+00
         -2   -1    0    0    0  501  0.00000000000E+00  0.00000000000E+00  0.16400918630E+03  0.16400918630E+03  0.00000000000E+00 0.  1.
         -1   -1    0    0    0  502 -0.00000000000E+00 -0.00000000000E+00 -0.96587964753E+03  0.96587964753E+03  0.00000000000E+00 0.  1.
         25    2    1    2    0    0  0.37756512631E+02 -0.33470038013E+02 -0.23255088470E+03  0.26881724067E+03  0.12504797965E+03 0.  0.
          4    1    3    3  503    0  0.82831280076E+02 -0.11609231544E+02 -0.12851389869E+03  0.15334024349E+03  0.12700000000E+01 0. -1.
         -4    1    3    3    0  503 -0.45074767445E+02 -0.21860806469E+02 -0.10403698601E+03  0.11547699718E+03  0.12700000000E+01 0. -1.
         -2    1    1    2    0  502 -0.20744828194E+02 -0.49403379126E+01 -0.71200822577E+03  0.71232750081E+03  0.00000000000E+00 0.  1.
         -1    1    1    2    0  501 -0.17011684437E+02  0.38410375926E+02  0.14268864925E+03  0.14874409236E+03  0.00000000000E+00 0.  1.
<mgrwt>
<rscale>  0 0.29947369E+02</rscale>
<asrwt>0</asrwt>
<pdfrwt beam="1">  1       -2 0.25232183E-01 0.42056069E+02</pdfrwt>
<pdfrwt beam="2">  1       -1 0.14859687E+00 0.21324981E+02</pdfrwt>
<totfact> 0.45306390E+01</totfact>
</mgrwt>
</event>
<event>
 7    1  0.4252091E-004  0.8044285E+02  0.7546771E-02  0.1361827E+00
          2   -1    0    0  503    0  0.00000000000E+00  0.00000000000E+00  0.40771624571E+03  0.40771624571E+03  0.00000000000E+00 0. -1.
          1   -1    0    0  502    0 -0.00000000000E+00 -0.00000000000E+00 -0.74373985043E+03  0.74373985043E+03  0.00000000000E+00 0. -1.
         25    2    1    2    0    0  0.83450585472E+02 -0.63487791082E+02 -0.12837003514E+03  0.20760227354E+03  0.12500055289E+03 0.  0.
          4    1    3    3  501    0  0.10776927945E+03 -0.68510140723E+02 -0.13056885352E+03  0.18264089187E+03  0.12700000000E+01 0. -1.
         -4    1    3    3    0  501 -0.24318693974E+02  0.50223496407E+01  0.21988183728E+01  0.24961381667E+02  0.12700000000E+01 0. -1.
          2    1    1    2  502    0 -0.32506588270E+01  0.59944839796E+02 -0.56978102057E+03  0.57293486716E+03  0.00000000000E+00 0. -1.
          1    1    1    2  503    0 -0.80199926645E+02  0.35429512858E+01  0.36212745100E+03  0.37091895544E+03  0.00000000000E+00 0. -1.
<mgrwt>
<rscale>  0 0.69492578E+02</rscale>
<asrwt>0</asrwt>
<pdfrwt beam="1">  1        2 0.62725576E-01 0.80442847E+02</pdfrwt>
<pdfrwt beam="2">  1        1 0.11442152E+00 0.60032913E+02</pdfrwt>
<totfact> 0.29675793E+02</totfact>
</mgrwt>
</event>
<event>
 7    1  0.4252091E-004  0.5173883E+02  0.7546771E-02  0.1444284E+00
         -1   -1    0    0    0  501 -0.00000000000E+00  0.00000000000E+00  0.12666416881E+03  0.12666416881E+03  0.00000000000E+00 0.  1.
          1   -1    0    0  503    0  0.00000000000E+00 -0.00000000000E+00 -0.11776648931E+03  0.11776648931E+03  0.00000000000E+00 0. -1.
         25    2    1    2    0    0 -0.40284021729E+02 -0.37824749049E+02  0.78891172799E+01  0.13688449512E+03  0.12498645041E+03 0.  0.
          4    1    3    3  502    0 -0.77624763148E+02 -0.26633081189E+01 -0.17519350177E+02  0.79631888051E+02  0.12700000000E+01 0. -1.
         -4    1    3    3    0  502  0.37340741420E+02 -0.35161440930E+02  0.25408467457E+02  0.57252607072E+02  0.12700000000E+01 0. -1.
          2    1    1    2  503    0  0.49377658355E+02 -0.15451657543E+02  0.10168272601E+02  0.52728556145E+02  0.00000000000E+00 0. -1.
         -2    1    1    2    0  501 -0.90936366259E+01  0.53276406592E+02 -0.91597103820E+01  0.54817606849E+02  0.00000000000E+00 0.  1.
<mgrwt>
<rscale>  0 0.50196608E+02</rscale>
<asrwt>0</asrwt>
<pdfrwt beam="2">  1        1 0.18117921E-01 0.51738833E+02</pdfrwt>
<pdfrwt beam="1">  1       -1 0.19486795E-01 0.48700352E+02</pdfrwt>
<totfact> 0.53699578E+03</totfact>
</mgrwt>
</event>
<event>
 7    1  0.4252091E-004  0.1885624E+03  0.7546771E-02  0.1337044E+00
          2   -1    0    0  503    0  0.00000000000E+00  0.00000000000E+00  0.20933635384E+04  0.20933635384E+04  0.00000000000E+00 0. -1.
         -2   -1    0    0    0  501 -0.00000000000E+00 -0.00000000000E+00 -0.64419315118E+02  0.64419315118E+02  0.00000000000E+00 0.  1.
         25    2    1    2    0    0  0.19024939177E+03  0.86609502793E+02  0.10386530055E+04  0.10668277606E+04  0.12500147168E+03 0.  0.
          4    1    3    3  502    0  0.14195829277E+03 -0.24894578259E+01  0.62833137176E+03  0.64417410684E+03  0.12700000000E+01 0. -1.
         -4    1    3    3    0  502  0.48291098995E+02  0.89098960619E+02  0.41032163379E+03  0.42265365381E+03  0.12700000000E+01 0. -1.
          1    1    1    2  503    0 -0.30680049982E+02  0.77633934803E+01  0.86864226516E+03  0.86921856893E+03  0.00000000000E+00 0. -1.
         -1    1    1    2    0  501 -0.15956934179E+03 -0.94372896273E+02  0.12164895259E+03  0.22173652395E+03  0.00000000000E+00 0.  1.
<mgrwt>
<rscale>  0 0.77249234E+02</rscale>
<asrwt>0</asrwt>
<pdfrwt beam="1">  1        2 0.32205588E+00 0.31647050E+02</pdfrwt>
<pdfrwt beam="2">  1       -2 0.99106655E-02 0.18856242E+03</pdfrwt>
<totfact> 0.56229023E+02</totfact>
</mgrwt>
</event>
<event>
 7    1  0.4252091E-004  0.7988417E+02  0.7546771E-02  0.1484243E+00
          1   -1    0    0  502    0 -0.00000000000E+00  0.00000000000E+00  0.28078565619E+03  0.28078565619E+03  0.00000000000E+00 0. -1.
          2   -1    0    0  503    0  0.00000000000E+00 -0.00000000000E+00 -0.17777346543E+04  0.17777346543E+04  0.00000000000E+00 0. -1.
         25    2    1    2    0    0  0.90576252432E+02 -0.36572322530E+02 -0.21173160555E+03  0.26457007109E+03  0.12500182979E+03 0.  0.
          4    1    3    3  501    0  0.33914707789E+02 -0.74770565615E+02 -0.72801179995E+02  0.10973818659E+03  0.12700000000E+01 0.  1.
         -4    1    3    3    0  501  0.56661544643E+02  0.38198243085E+02 -0.13893042555E+03  0.15483188451E+03  0.12700000000E+01 0.  1.
          2    1    1    2  502    0 -0.13160046413E+02  0.19632552762E+02  0.25279502006E+03  0.25389751104E+03  0.00000000000E+00 0. -1.
          1    1    1    2  503    0 -0.77416206019E+02  0.16939769768E+02 -0.15380124127E+04  0.15400527284E+04  0.00000000000E+00 0. -1.
<mgrwt>
<rscale>  0 0.43452049E+02</rscale>
<asrwt>0</asrwt>
<pdfrwt beam="2">  1        2 0.27349763E+00 0.79884173E+02</pdfrwt>
<pdfrwt beam="1">  1        1 0.43197794E-01 0.23635227E+02</pdfrwt>
<totfact> 0.14026389E+02</totfact>
</mgrwt>
</event>
<event>
 7    1  0.4252091E-004  0.1230992E+03  0.7546771E-02  0.1336433E+00
          1   -1    0    0  503    0  0.00000000000E+00  0.00000000000E+00  0.62481007384E+03  0.62481007384E+03  0.00000000000E+00 0. -1.
         -1   -1    0    0    0  501 -0.00000000000E+00 -0.00000000000E+00 -0.15519932332E+04  0.15519932332E+04  0.00000000000E+00 0.  1.
         25    2    1    2    0    0 -0.71921793814E+02 -0.15308248881E+03  0.17701415702E+03  0.27489600593E+03  0.12500723774E+03 0.  0.
          4    1    3    3  502    0  0.29171377034E+02 -0.69772751318E+02  0.90306388984E+02  0.11779670138E+03  0.12700000000E+01 0.  1.
         -4    1    3    3    0  502 -0.10109317085E+03 -0.83309737492E+02  0.86707768032E+02  0.15709930455E+03  0.12700000000E+01 0.  1.
          2    1    1    2  503    0  0.31188740818E+02  0.37448405793E+02  0.39485440355E+03  0.39785062606E+03  0.00000000000E+00 0. -1.
         -2    1    1    2    0  501  0.40733052995E+02  0.11563408302E+03 -0.14990517199E+04  0.15040566751E+04  0.00000000000E+00 0.  1.
<mgrwt>
<rscale>  0 0.77454916E+02</rscale>
<asrwt>0</asrwt>
<pdfrwt beam="1">  1        1 0.96124628E-01 0.48735210E+02</pdfrwt>
<pdfrwt beam="2">  1       -1 0.23876819E+00 0.12309917E+03</pdfrwt>
<totfact> 0.36212258E+00</totfact>
</mgrwt>
</event>
<event>
 7    1  0.4252091E-004  0.7593070E+02  0.7546771E-02  0.1431973E+00
          1   -1    0    0  502    0 -0.00000000000E+00  0.00000000000E+00  0.69205697130E+03  0.69205697130E+03  0.00000000000E+00 0. -1.
          2   -1    0    0  503    0  0.00000000000E+00 -0.00000000000E+00 -0.45731320401E+03  0.45731320401E+03  0.00000000000E+00 0. -1.
         25    2    1    2    0    0  0.22617525116E+01 -0.10366817299E+03 -0.89216107001E+02  0.18530083882E+03  0.12499872601E+03 0.  0.
          4    1    3    3  501    0  0.53726051791E+02 -0.28096235619E+02 -0.68607905062E+02  0.91567159145E+02  0.12700000000E+01 0.  1.
         -4    1    3    3    0  501 -0.51464299279E+02 -0.75571937375E+02 -0.20608201939E+02  0.93733679678E+02  0.12700000000E+01 0.  1.
          2    1    1    2  502    0 -0.21097980264E+02  0.72531429352E+02  0.64075437785E+03  0.64519152641E+03  0.00000000000E+00 0. -1.
          1    1    1    2  503    0  0.18836227753E+02  0.31136743642E+02 -0.31679450355E+03  0.31887781008E+03  0.00000000000E+00 0. -1.
<mgrwt>
<rscale>  0 0.52566047E+02</rscale>
<asrwt>0</asrwt>
<pdfrwt beam="2">  1        2 0.70355878E-01 0.36390937E+02</pdfrwt>
<pdfrwt beam="1">  1        1 0.10647030E+00 0.75930700E+02</pdfrwt>
<totfact> 0.28960738E+02</totfact>
</mgrwt>
</event>
<event>
 7    1  0.4252091E-004  0.4296807E+02  0.7546771E-02  0.1491364E+00
          1   -1    0    0  502    0 -0.00000000000E+00  0.00000000000E+00  0.10977951817E+04  0.10977951817E+04  0.00000000000E+00 0. -1.
          2   -1    0    0  503    0  0.00000000000E+00 -0.00000000000E+00 -0.55568707175E+02  0.55568707175E+02  0.00000000000E+00 0. -1.
         25    2    1    2    0    0 -0.52651506115E+02  0.16211764401E+02  0.61518667049E+03  0.63017026605E+03  0.12499968905E+03 0.  0.
          4    1    3    3  501    0  0.13765171059E+02 -0.11659671224E+02  0.99097302435E+01  0.20621433530E+02  0.12700000000E+01 0.  1.
         -4    1    3    3    0  501 -0.66416677174E+02  0.27871435625E+02  0.60527694025E+03  0.60954883252E+03  0.12700000000E+01 0.  1.
          2    1    1    2  502    0  0.18008308664E+02 -0.39616812204E+02  0.46481473455E+03  0.46684743594E+03  0.00000000000E+00 0. -1.
          1    1    1    2  503    0  0.34643197451E+02  0.23405047803E+02 -0.37774930561E+02  0.56346186838E+02  0.00000000000E+00 0. -1.
<mgrwt>
<rscale>  0 0.42384302E+02</rscale>
<asrwt>0</asrwt>
<pdfrwt beam="2">  1        2 0.85490327E-02 0.41808461E+02</pdfrwt>
<pdfrwt beam="1">  1        1 0.16889155E+00 0.42968075E+02</pdfrwt>
<totfact> 0.14380108E+03</totfact>
</mgrwt>
</event>
<event>
 7    1  0.4252091E-004  0.5754840E+02  0.7546771E-02  0.1454414E+00
          1   -1    0    0  503    0  0.00000000000E+00  0.00000000000E+00  0.14693850549E+04  0.14693850549E+04  0.00000000000E+00 0. -1.
         -1   -1    0    0    0  501 -0.00000000000E+00 -0.00000000000E+00 -0.22791834349E+03  0.22791834349E+03  0.00000000000E+00 0.  1.
         25    2    1    2    0    0  0.52327038219E+01  0.26160191276E+02 -0.79872195523E+02  0.15072083883E+03  0.12500186735E+03 0.  0.
          4    1    3    3  502    0  0.49627385627E+02 -0.27310196152E+02 -0.23972857642E+02  0.61522638285E+02  0.12700000000E+01 0.  1.
         -4    1    3    3    0  502 -0.44394681806E+02  0.53470387428E+02 -0.55899337882E+02  0.89198200542E+02  0.12700000000E+01 0.  1.
          2    1    1    2  503    0 -0.44428668754E+02 -0.36869393269E+02  0.14296941062E+04  0.14308593558E+04  0.00000000000E+00 0. -1.
         -2    1    1    2    0  501  0.39195964932E+02  0.10709201993E+02 -0.10835519928E+03  0.11572320375E+03  0.00000000000E+00 0.  1.
<mgrwt>
<rscale>  0 0.48356417E+02</rscale>
<asrwt>0</asrwt>
<pdfrwt beam="1">  1        1 0.22605923E+00 0.57548404E+02</pdfrwt>
<pdfrwt beam="2">  1       -1 0.35064361E-01 0.40632631E+02</pdfrwt>
<totfact> 0.66878972E+01</totfact>
</mgrwt>
</event>
<event>
 7    1  0.4252091E-004  0.5173437E+02  0.7546771E-02  0.1468130E+00
          2   -1    0    0  503    0  0.00000000000E+00  0.00000000000E+00  0.17161440620E+03  0.17161440620E+03  0.00000000000E+00 0. -1.
         -2   -1    0    0    0  501 -0.00000000000E+00 -0.00000000000E+00 -0.53432334553E+03  0.53432334553E+03  0.00000000000E+00 0.  1.
         25    2    1    2    0    0 -0.25807014857E+02  0.48530438809E+02  0.47871425397E+02  0.14469300719E+03  0.12499274960E+03 0.  0.
          4    1    3    3  502    0 -0.61543610065E+02  0.53001606523E+02  0.65711293776E+02  0.10448144938E+03  0.12700000000E+01 0. -1.
         -4    1    3    3    0  502  0.35736595209E+02 -0.44711677137E+01 -0.17839868379E+02  0.40211557811E+02  0.12700000000E+01 0. -1.
          1    1    1    2  503    0 -0.23818518918E+02 -0.33273356106E+02  0.68266713793E+02  0.79591345523E+02  0.00000000000E+00 0. -1.
         -1    1    1    2    0  501  0.49625533775E+02 -0.15257082703E+02 -0.47884707853E+03  0.48165339902E+03  0.00000000000E+00 0.  1.
<mgrwt>
<rscale>  0 0.46010488E+02</rscale>
<asrwt>0</asrwt>
<pdfrwt beam="1">  1        2 0.26402216E-01 0.40919898E+02</pdfrwt>
<pdfrwt beam="2">  1       -2 0.82203592E-01 0.51734367E+02</pdfrwt>
<totfact> 0.26754053E+02</totfact>
</mgrwt>
</event>
<event>
 7    1  0.4252091E-004  0.1513382E+03  0.7546771E-02  0.1221967E+00
          1   -1    0    0  503    0  0.00000000000E+00  0.00000000000E+00  0.12310091041E+04  0.12310091041E+04  0.00000000000E+00 0. -1.
         -1   -1    0    0    0  501 -0.00000000000E+00 -0.00000000000E+00 -0.12740029088E+04  0.12740029088E+04  0.00000000000E+00 0.  1.
         25    2    1    2    0    0 -0.54662008112E+02  0.15551549868E+03  0.49485407085E+03  0.53635836773E+03  0.12500696676E+03 0.  0.
          4    1    3    3  502    0 -0.15077089028E+02  0.90385249710E+02  0.10608683968E+03  0.14018859594E+03  0.12700000000E+01 0.  1.
         -4    1    3    3    0  502 -0.39584919084E+02  0.65130248970E+02  0.38876723117E+03  0.39616977179E+03  0.12700000000E+01 0.  1.
          2    1    1    2  503    0  0.11696991684E+03 -0.17288917683E+02  0.70588166672E+03  0.71571628145E+03  0.00000000000E+00 0. -1.
         -2    1    1    2    0  501 -0.62307908732E+02 -0.13822658100E+03 -0.12437295422E+04  0.12529373637E+04  0.00000000000E+00 0.  1.
<mgrwt>
<rscale>  0 0.13376973E+03</rscale>
<asrwt>0</asrwt>
<pdfrwt beam="1">  1        1 0.18938602E+00 0.11824072E+03</pdfrwt>
<pdfrwt beam="2">  1       -1 0.19600045E+00 0.15133822E+03</pdfrwt>
<totfact> 0.22048013E+00</totfact>
</mgrwt>
</event>
<event>
 7    1  0.4252091E-004  0.9813066E+02  0.7546771E-02  0.1475541E+00
          2   -1    0    0  503    0  0.00000000000E+00  0.00000000000E+00  0.78253657345E+03  0.78253657345E+03  0.00000000000E+00 0. -1.
          1   -1    0    0  502    0 -0.00000000000E+00 -0.00000000000E+00 -0.79780066873E+02  0.79780066873E+02  0.00000000000E+00 0. -1.
         25    2    1    2    0    0  0.28706668202E+02 -0.10303308457E+03  0.50187430208E+03  0.52815008261E+03  0.12499922142E+03 0.  0.
          4    1    3    3  501    0  0.12801762672E+02 -0.82949842432E+02  0.49434050483E+03  0.50141670206E+03  0.12700000000E+01 0. -1.
         -4    1    3    3    0  501  0.15904905530E+02 -0.20083242135E+02  0.75337972476E+01  0.26733380548E+02  0.12700000000E+01 0. -1.
          2    1    1    2  502    0 -0.42475885384E+02  0.87899070537E+02 -0.30193673947E+02  0.10218662039E+03  0.00000000000E+00 0. -1.
          1    1    1    2  503    0  0.13769217182E+02  0.15134014029E+02  0.23107587844E+03  0.23197993733E+03  0.00000000000E+00 0. -1.
<mgrwt>
<rscale>  0 0.44808445E+02</rscale>
<asrwt>0</asrwt>
<pdfrwt beam="1">  1        2 0.12039024E+00 0.20460443E+02</pdfrwt>
<pdfrwt beam="2">  1        1 0.12273857E-01 0.98130659E+02</pdfrwt>
<totfact> 0.25145672E+03</totfact>
</mgrwt>
</event>
<event>
 7    1  0.4252091E-004  0.1116733E+03  0.7546771E-02  0.1351301E+00
         -2   -1    0    0    0  501 -0.00000000000E+00  0.00000000000E+00  0.30780995521E+03  0.30780995521E+03  0.00000000000E+00 0.  1.
          2   -1    0    0  503    0  0.00000000000E+00 -0.00000000000E+00 -0.18847498447E+04  0.18847498447E+04  0.00000000000E+00 0. -1.
         25    2    1    2    0    0 -0.55100997769E+02  0.14150039088E+03 -0.23710447643E+03  0.30806181275E+03  0.12500026863E+03 0.  0.
          4    1    3    3  502    0  0.16430834965E+02  0.11510479946E+03 -0.11136675563E+03  0.16100700095E+03  0.12700000000E+01 0.  1.
         -4    1    3    3    0  502 -0.71531832734E+02  0.26395591423E+02 -0.12573772081E+03  0.14705481180E+03  0.12700000000E+01 0.  1.
          1    1    1    2  503    0  0.33274138649E+02 -0.33568163441E+02 -0.16006721265E+04  0.16013698031E+04  0.00000000000E+00 0. -1.
         -1    1    1    2    0  501  0.21826859120E+02 -0.10793222744E+03  0.26083671344E+03  0.28312818400E+03  0.00000000000E+00 0.  1.
<mgrwt>
<rscale>  0 0.72651581E+02</rscale>
<asrwt>0</asrwt>
<pdfrwt beam="2">  1        2 0.28996151E+00 0.47265102E+02</pdfrwt>
<pdfrwt beam="1">  1       -2 0.47355378E-01 0.11167335E+03</pdfrwt>
<totfact> 0.44338830E+01</totfact>
</mgrwt>
</event>
<event>
 7    1  0.4252091E-004  0.1053049E+03  0.7546771E-02  0.1401547E+00
          1   -1    0    0  502    0 -0.00000000000E+00  0.00000000000E+00  0.43073278301E+03  0.43073278301E+03  0.00000000000E+00 0. -1.
          2   -1    0    0  503    0  0.00000000000E+00 -0.00000000000E+00 -0.19323247283E+04  0.19323247283E+04  0.00000000000E+00 0. -1.
         25    2    1    2    0    0  0.10948513579E+03  0.80296301822E+02 -0.15376558303E+03  0.24021542627E+03  0.12500042179E+03 0.  0.
          4    1    3    3  501    0  0.77576810958E+02  0.23636157543E+02 -0.15524904153E+03  0.17515909151E+03  0.12700000000E+01 0. -1.
         -4    1    3    3    0  501  0.31908324828E+02  0.56660144279E+02  0.14834585012E+01  0.65056334758E+02  0.12700000000E+01 0. -1.
          2    1    1    2  502    0 -0.89101152139E+02 -0.54097179823E+02  0.38033571726E+03  0.39436122781E+03  0.00000000000E+00 0. -1.
          1    1    1    2  503    0 -0.20383983647E+02 -0.26199121998E+02 -0.17281620796E+04  0.17284808573E+04  0.00000000000E+00 0. -1.
<mgrwt>
<rscale>  0 0.59123484E+02</rscale>
<asrwt>0</asrwt>
<pdfrwt beam="2">  1        2 0.29728072E+00 0.33194891E+02</pdfrwt>
<pdfrwt beam="1">  1        1 0.66266584E-01 0.10530495E+03</pdfrwt>
<totfact> 0.77373090E+01</totfact>
</mgrwt>
</event>
<event>
 7    1  0.4252091E-004  0.7189447E+02  0.7546771E-02  0.1393629E+00
          2   -1    0    0  503    0  0.00000000000E+00  0.00000000000E+00  0.17850708302E+04  0.17850708302E+04  0.00000000000E+00 0. -1.
          1   -1    0    0  502    0 -0.00000000000E+00 -0.00000000000E+00 -0.26133407906E+03  0.26133407906E+03  0.00000000000E+00 0. -1.
         25    2    1    2    0    0  0.34696062511E+02  0.35514751443E+02  0.78410996292E+03  0.79556201372E+03  0.12500147757E+03 0.  0.
          4    1    3    3  501    0 -0.37294509509E+02 -0.11466858175E+02  0.40242627977E+03  0.40431533835E+03  0.12700000000E+01 0. -1.
         -4    1    3    3    0  501  0.71990572020E+02  0.46981609618E+02  0.38168368316E+03  0.39124667537E+03  0.12700000000E+01 0. -1.
          2    1    1    2  502    0  0.45493741009E+02 -0.24724965516E+02 -0.25131993005E+03  0.25659834690E+03  0.00000000000E+00 0. -1.
          1    1    1    2  503    0 -0.80189803520E+02 -0.10789785927E+02  0.99094671826E+03  0.99424454864E+03  0.00000000000E+00 0. -1.
<mgrwt>
<rscale>  0 0.61012965E+02</rscale>
<asrwt>0</asrwt>
<pdfrwt beam="1">  1        2 0.27462627E+00 0.71894471E+02</pdfrwt>
<pdfrwt beam="2">  1        1 0.40205244E-01 0.51778416E+02</pdfrwt>
<totfact> 0.15450490E+02</totfact>
</mgrwt>
</event>
<event>
 7    1  0.4252091E-004  0.2113117E+03  0.7546771E-02  0.1269053E+00
         -1   -1    0    0    0  501 -0.00000000000E+00  0.00000000000E+00  0.42161962226E+03  0.42161962226E+03  0.00000000000E+00 0.  1.
          1   -1    0    0  503    0  0.00000000000E+00 -0.00000000000E+00 -0.14397061035E+04  0.14397061035E+04  0.00000000000E+00 0. -1.
         25    2    1    2    0    0 -0.59862077223E+02  0.19297581168E+03  0.90751280093E+02  0.25433089445E+03  0.12500110740E+03 0.  0.
          4    1    3    3  502    0 -0.32167520022E+02  0.83243060116E+02  0.10771417356E+03  0.13988606967E+03  0.12700000000E+01 0. -1.
         -4    1    3    3    0  502 -0.27694557201E+02  0.10973275156E+03 -0.16962893471E+02  0.11444482478E+03  0.12700000000E+01 0. -1.
          2    1    1    2  503    0  0.46111824949E+02  0.25546605870E+02 -0.13091646736E+04  0.13102255806E+04  0.00000000000E+00 0. -1.
         -2    1    1    2    0  501  0.13750252273E+02 -0.21852241755E+03  0.20032691224E+03  0.29676925073E+03  0.00000000000E+00 0.  1.
<mgrwt>
<rscale>  0 0.10554342E+03</rscale>
<asrwt>0</asrwt>
<pdfrwt beam="2">  1        1 0.22149325E+00 0.52715552E+02</pdfrwt>
<pdfrwt beam="1">  1       -1 0.64864556E-01 0.21131170E+03</pdfrwt>
<totfact> 0.23244565E+01</totfact>
</mgrwt>
</event>
<event>
 7    1  0.4252091E-004  0.1202952E+03  0.7546771E-02  0.1335694E+00
          1   -1    0    0  502    0 -0.00000000000E+00  0.00000000000E+00  0.92880563133E+02  0.92880563133E+02  0.00000000000E+00 0. -1.
          2   -1    0    0  503    0  0.00000000000E+00 -0.00000000000E+00 -0.21516443826E+04  0.21516443826E+04  0.00000000000E+00 0. -1.
         25    2    1    2    0    0 -0.36237297261E+02  0.11885615531E+03 -0.15538810867E+03  0.23496806320E+03  0.12499839615E+03 0.  0.
          4    1    3    3  501    0  0.34555996480E+02  0.77793349043E+01 -0.68622337385E+02  0.77235180019E+02  0.12700000000E+01 0. -1.
         -4    1    3    3    0  501 -0.70793293741E+02  0.11107682040E+03 -0.86765771288E+02  0.15773288318E+03  0.12700000000E+01 0. -1.
          2    1    1    2  502    0 -0.42156553439E+02 -0.27243523342E+02  0.38924472492E+02  0.63517707144E+02  0.00000000000E+00 0. -1.
          1    1    1    2  503    0  0.78393850700E+02 -0.91612631963E+02 -0.19423001833E+04  0.19460391754E+04  0.00000000000E+00 0. -1.
<mgrwt>
<rscale>  0 0.77704789E+02</rscale>
<asrwt>0</asrwt>
<pdfrwt beam="2">  1        2 0.33102220E+00 0.12029521E+03</pdfrwt>
<pdfrwt beam="1">  1        1 0.14289318E-01 0.50193471E+02</pdfrwt>
<totfact> 0.33732247E+02</totfact>
</mgrwt>
</event>
<event>
 7    1  0.4252091E-004  0.5781040E+02  0.7546771E-02  0.1420335E+00
          2   -1    0    0  503    0  0.00000000000E+00  0.00000000000E+00  0.42679746524E+02  0.42679746524E+02  0.00000000000E+00 0. -1.
          1   -1    0    0  502    0 -0.00000000000E+00 -0.00000000000E+00 -0.84561437195E+03  0.84561437195E+03  0.00000000000E+00 0. -1.
         25    2    1    2    0    0 -0.81147288174E+02  0.52581707541E+02 -0.28186772833E+03  0.32314746022E+03  0.12500058570E+03 0.  0.
          4    1    3    3  501    0 -0.97710831902E+02  0.52043619359E+02 -0.28542920987E+03  0.30614929648E+03  0.12700000000E+01 0. -1.
         -4    1    3    3    0  501  0.16563543728E+02  0.53808818237E+00  0.35614815404E+01  0.16998163738E+02  0.12700000000E+01 0. -1.
          2    1    1    2  502    0  0.55084001734E+02 -0.73180363150E+01 -0.50836531325E+03  0.51139328566E+03  0.00000000000E+00 0. -1.
          1    1    1    2  503    0  0.26063286440E+02 -0.45263671226E+02 -0.12701583839E+02  0.53753372591E+02  0.00000000000E+00 0. -1.
<mgrwt>
<rscale>  0 0.54950019E+02</rscale>
<asrwt>0</asrwt>
<pdfrwt beam="1">  1        2 0.65661154E-02 0.52231167E+02</pdfrwt>
<pdfrwt beam="2">  1        1 0.13009451E+00 0.57810398E+02</pdfrwt>
<totfact> 0.30011903E+03</totfact>
</mgrwt>
</event>
<event>
 7    1  0.4252091E-004  0.4269869E+02  0.7546771E-02  0.1527591E+00
          2   -1    0    0  503    0  0.00000000000E+00  0.00000000000E+00  0.55244455433E+02  0.55244455433E+02  0.00000000000E+00 0. -1.
          1   -1    0    0  502    0 -0.00000000000E+00 -0.00000000000E+00 -0.27554768394E+04  0.27554768394E+04  0.00000000000E+00 0. -1.
         25    2    1    2    0    0 -0.34413944359E+02 -0.17755094538E+01 -0.84632549601E+03  0.85620116978E+03  0.12500450364E+03 0.  0.
          4    1    3    3  501    0 -0.21581850620E+02  0.36405837991E+02 -0.97559505696E+02  0.10635145212E+03  0.12700000000E+01 0.  1.
         -4    1    3    3    0  501 -0.12832093738E+02 -0.38181347445E+02 -0.74876599032E+03  0.74984971766E+03  0.12700000000E+01 0.  1.
          2    1    1    2  502    0  0.27490539206E+02  0.33944147199E+02 -0.18985545242E+04  0.18990569281E+04  0.00000000000E+00 0. -1.
          1    1    1    2  503    0  0.69234051527E+01 -0.32168637745E+02  0.44647636238E+02  0.55463196941E+02  0.00000000000E+00 0. -1.
<mgrwt>
<rscale>  0 0.37483473E+02</rscale>
<asrwt>0</asrwt>
<pdfrwt beam="1">  1        2 0.84991451E-02 0.32905240E+02</pdfrwt>
<pdfrwt beam="2">  1        1 0.42391961E+00 0.42698693E+02</pdfrwt>
<totfact> 0.13188067E+02</totfact>
</mgrwt>
</event>
<event>
 7    1  0.1530443E-003  0.6269272E+02  0.7546771E-02  0.1411599E+00
         -2   -1    0    0    0  501 -0.00000000000E+00  0.00000000000E+00  0.18345059976E+03  0.18345059976E+03  0.00000000000E+00 0.  1.
          2   -1    0    0  503    0  0.00000000000E+00 -0.00000000000E+00 -0.13471069230E+03  0.13471069230E+03  0.00000000000E+00 0. -1.
         25    2    1    2    0    0  0.89738204910E+02  0.58730307424E+02 -0.11298617342E+02  0.16508245553E+03  0.12498945531E+03 0.  0.
          4    1    3    3  502    0  0.78033636097E+02  0.18750100366E+02  0.47306809789E+02  0.93168459141E+02  0.12700000000E+01 0.  1.
         -4    1    3    3    0  502  0.11704568812E+02  0.39980207058E+02 -0.58605427132E+02  0.71913996390E+02  0.12700000000E+01 0.  1.
          3    1    1    2  503    0 -0.48246808503E+02 -0.18102370453E+02 -0.19068392655E+02  0.54945918368E+02  0.00000000000E+00 0. -1.
         -3    1    1    2    0  501 -0.41491396406E+02 -0.40627936971E+02  0.79106917457E+02  0.98132918166E+02  0.00000000000E+00 0.  1.
<mgrwt>
<rscale>  0 0.56838564E+02</rscale>
<asrwt>0</asrwt>
<pdfrwt beam="2">  1        2 0.20724722E-01 0.51531062E+02</pdfrwt>
<pdfrwt beam="1">  1       -2 0.28223169E-01 0.62692719E+02</pdfrwt>
<totfact> 0.27785578E+03</totfact>
</mgrwt>
</event>
<event>
 7    1  0.4252091E-004  0.6691038E+02  0.7546771E-02  0.1459921E+00
          1   -1    0    0  502    0 -0.00000000000E+00  0.00000000000E+00  0.11560879931E+03  0.11560879931E+03  0.00000000000E+00 0. -1.
          2   -1    0    0  503    0  0.00000000000E+00 -0.00000000000E+00 -0.18237770531E+04  0.18237770531E+04  0.00000000000E+00 0. -1.
         25    2    1    2    0    0 -0.35814602354E+02  0.88327635944E+02 -0.39129241952E+03  0.42168718731E+03  0.12500347738E+03 0.  0.
          4    1    3    3  501    0  0.11837653753E+02 -0.24289299076E+02 -0.13539266912E+03  0.13806841727E+03  0.12700000000E+01 0.  1.
         -4    1    3    3    0  501 -0.47652256107E+02  0.11261693502E+03 -0.25589975040E+03  0.28361877004E+03  0.12700000000E+01 0.  1.
          2    1    1    2  502    0  0.37167062544E+02 -0.54783229452E+02  0.89277659270E+02  0.11114447000E+03  0.00000000000E+00 0. -1.
          1    1    1    2  503    0 -0.13524601895E+01 -0.33544406492E+02 -0.14061534936E+04  0.14065541951E+04  0.00000000000E+00 0. -1.
<mgrwt>
<rscale>  0 0.47395070E+02</rscale>
<asrwt>0</asrwt>
<pdfrwt beam="2">  1        2 0.28058107E+00 0.33571660E+02</pdfrwt>
<pdfrwt beam="1">  1        1 0.17785970E-01 0.66910385E+02</pdfrwt>
<totfact> 0.43670128E+02</totfact>
</mgrwt>
</event>
<event>
 7    1  0.4252091E-004  0.1289786E+03  0.7546771E-02  0.1337154E+00
          1   -1    0    0  502    0 -0.00000000000E+00  0.00000000000E+00  0.10072090743E+03  0.10072090743E+03  0.00000000000E+00 0. -1.
          2   -1    0    0  503    0  0.00000000000E+00 -0.00000000000E+00 -0.49495527219E+03  0.49495527219E+03  0.00000000000E+00 0. -1.
         25    2    1    2    0    0 -0.15806165010E+03 -0.29207597468E+02 -0.23479301101E+03  0.31076546361E+03  0.12494337268E+03 0.  0.
          4    1    3    3  501    0 -0.10657884679E+03 -0.64451057090E+02 -0.91746506633E+02  0.15469978579E+03  0.12700000000E+01 0.  1.
         -4    1    3    3    0  501 -0.51482803316E+02  0.35243459622E+02 -0.14304650437E+03  0.15606567783E+03  0.12700000000E+01 0.  1.
          2    1    1    2  502    0  0.42862475850E+02  0.17301141427E+02  0.35418747043E+02  0.58232370489E+02  0.00000000000E+00 0. -1.
          1    1    1    2  503    0  0.11519917425E+03  0.11906456041E+02 -0.19486010080E+03  0.22667834552E+03  0.00000000000E+00 0. -1.
<mgrwt>
<rscale>  0 0.77212148E+02</rscale>
<asrwt>0</asrwt>
<pdfrwt beam="2">  1        2 0.76146967E-01 0.12897860E+03</pdfrwt>
<pdfrwt beam="1">  1        1 0.15495524E-01 0.46222520E+02</pdfrwt>
<totfact> 0.28417998E+03</totfact>
</mgrwt>
</event>
<event>
 7    1  0.4252091E-004  0.5131620E+02  0.7546771E-02  0.1498952E+00
         -1   -1    0    0    0  501 -0.00000000000E+00  0.00000000000E+00  0.74990007241E+02  0.74990007241E+02  0.00000000000E+00 0.  1.
          1   -1    0    0  503    0  0.00000000000E+00 -0.00000000000E+00 -0.15095156745E+04  0.15095156745E+04  0.00000000000E+00 0. -1.
         25    2    1    2    0    0 -0.27783252218E+02 -0.24101392609E+02 -0.18751576707E+02  0.13164424942E+03  0.12500320215E+03 0.  0.
          4    1    3    3  502    0 -0.23111561736E+02 -0.19522456344E+02  0.52218136708E+02  0.60362383061E+02  0.12700000000E+01 0. -1.
         -4    1    3    3    0  502 -0.46716904816E+01 -0.45789362647E+01 -0.70969713415E+02  0.71281866358E+02  0.12700000000E+01 0. -1.
          2    1    1    2  503    0  0.81089761231E+01  0.50865131084E+02 -0.14185903889E+04  0.14195251701E+04  0.00000000000E+00 0. -1.
         -2    1    1    2    0  501  0.19674276095E+02 -0.26763738475E+02  0.28162984290E+01  0.33336262146E+02  0.00000000000E+00 0.  1.
<mgrwt>
<rscale>  0 0.41286495E+02</rscale>
<asrwt>0</asrwt>
<pdfrwt beam="2">  1        1 0.23223317E+00 0.51316200E+02</pdfrwt>
<pdfrwt beam="1">  1       -1 0.11536925E-01 0.33217087E+02</pdfrwt>
<totfact> 0.35485699E+02</totfact>
</mgrwt>
</event>
<event>
 7    1  0.4252091E-004  0.1448624E+03  0.7546771E-02  0.1300025E+00
          2   -1    0    0  503    0  0.00000000000E+00  0.00000000000E+00  0.23693176979E+04  0.23693176979E+04  0.00000000000E+00 0. -1.
          1   -1    0    0  502    0 -0.00000000000E+00 -0.00000000000E+00 -0.18979416117E+03  0.18979416117E+03  0.00000000000E+00 0. -1.
         25    2    1    2    0    0  0.88882957732E+02  0.15171288055E+03  0.23218752654E+03  0.31694287732E+03  0.12499904682E+03 0.  0.
          4    1    3    3  501    0  0.43961330929E+02  0.36219454503E+02  0.16795901645E+03  0.17735921631E+03  0.12700000000E+01 0. -1.
         -4    1    3    3    0  501  0.44921626803E+02  0.11549342604E+03  0.64228510085E+02  0.13958366101E+03  0.12700000000E+01 0. -1.
          2    1    1    2  502    0 -0.56115422256E+02 -0.12017071236E+02 -0.13927259143E+03  0.15063268350E+03  0.00000000000E+00 0. -1.
          1    1    1    2  503    0 -0.32767535476E+02 -0.13969580931E+03  0.20866086016E+04  0.20915362983E+04  0.00000000000E+00 0. -1.
<mgrwt>
<rscale>  0 0.91177428E+02</rscale>
<asrwt>0</asrwt>
<pdfrwt beam="1">  1        2 0.36451039E+00 0.14486240E+03</pdfrwt>
<pdfrwt beam="2">  1        1 0.29199103E-01 0.57387722E+02</pdfrwt>
<totfact> 0.10600324E+02</totfact>
</mgrwt>
</event>
<event>
 7    1  0.4252091E-004  0.5438274E+02  0.7546771E-02  0.1547807E+00
          1   -1    0    0  502    0 -0.00000000000E+00  0.00000000000E+00  0.79167861425E+03  0.79167861425E+03  0.00000000000E+00 0. -1.
          2   -1    0    0  503    0  0.00000000000E+00 -0.00000000000E+00 -0.21392676350E+04  0.21392676350E+04  0.00000000000E+00 0. -1.
         25    2    1    2    0    0  0.38987909514E+02 -0.33043756621E+02 -0.15223570027E+04  0.15283372256E+04  0.12502753565E+03 0.  0.
          4    1    3    3  501    0  0.56248086083E+02 -0.51495706858E+02 -0.14436723844E+04  0.14456857270E+04  0.12700000000E+01 0.  1.
         -4    1    3    3    0  501 -0.17260176569E+02  0.18451950237E+02 -0.78684618325E+02  0.82651498617E+02  0.12700000000E+01 0.  1.
          2    1    1    2  502    0  0.15690427606E+02  0.16322430502E+02  0.78719405637E+03  0.78751958302E+03  0.00000000000E+00 0. -1.
          1    1    1    2  503    0 -0.54678337119E+02  0.16721326119E+02 -0.61242607438E+03  0.61508944055E+03  0.00000000000E+00 0. -1.
<mgrwt>
<rscale>  0 0.35089533E+02</rscale>
<asrwt>0</asrwt>
<pdfrwt beam="2">  1        2 0.32911809E+00 0.54382743E+02</pdfrwt>
<pdfrwt beam="1">  1        1 0.12179671E+00 0.22640920E+02</pdfrwt>
<totfact> 0.27487819E+01</totfact>
</mgrwt>
</event>
<event>
 7    1  0.4252091E-004  0.9131769E+02  0.7546771E-02  0.1449705E+00
          2   -1    0    0  503    0  0.00000000000E+00  0.00000000000E+00  0.52593407445E+02  0.52593407445E+02  0.00000000000E+00 0. -1.
          1   -1    0    0  502    0 -0.00000000000E+00 -0.00000000000E+00 -0.51918296110E+03  0.51918296110E+03  0.00000000000E+00 0. -1.
         25    2    1    2    0    0 -0.95188314115E+01  0.81179618129E+02 -0.10966113704E+03  0.18528757090E+03  0.12500072160E+03 0.  0.
          4    1    3    3  501    0 -0.46334583286E+02 -0.87193998303E+01 -0.14624610828E+02  0.49380296511E+02  0.12700000000E+01 0.  1.
         -4    1    3    3    0  501  0.36815751874E+02  0.89899017960E+02 -0.95036526213E+02  0.13590727439E+03  0.12700000000E+01 0.  1.
          2    1    1    2  502    0  0.12045961139E+02  0.23612801575E+02 -0.17104308395E+03  0.17308496799E+03  0.00000000000E+00 0. -1.
          1    1    1    2  503    0 -0.25271297274E+01 -0.10479241970E+03 -0.18588533267E+03  0.21340382966E+03  0.00000000000E+00 0. -1.
<mgrwt>
<rscale>  0 0.49200017E+02</rscale>
<asrwt>0</asrwt>
<pdfrwt beam="1">  1        2 0.80912935E-02 0.91317693E+02</pdfrwt>
<pdfrwt beam="2">  1        1 0.79874301E-01 0.26507915E+02</pdfrwt>
<totfact> 0.47999495E+03</totfact>
</mgrwt>
</event>
<event>
 7    1  0.4252091E-004  0.5010082E+02  0.7546771E-02  0.1542655E+00
          2   -1    0    0  503    0  0.00000000000E+00  0.00000000000E+00  0.16307733344E+04  0.16307733344E+04  0.00000000000E+00 0. -1.
         -2   -1    0    0    0  501 -0.00000000000E+00 -0.00000000000E+00 -0.17295249249E+03  0.17295249249E+03  0.00000000000E+00 0.  1.
         25    2    1    2    0    0  0.43156374258E+02 -0.38524121943E+02  0.44077658258E+02  0.14461739268E+03  0.12499907879E+03 0.  0.
          4    1    3    3  502    0  0.51461288309E+01  0.36469314544E+02  0.47910493445E+02  0.60444369691E+02  0.12700000000E+01 0.  1.
         -4    1    3    3    0  502  0.38010245427E+02 -0.74993436487E+02 -0.38328351872E+01  0.84173022989E+02  0.12700000000E+01 0.  1.
          1    1    1    2  503    0 -0.48197169357E+02  0.13620992734E+02  0.15346973519E+04  0.15355143961E+04  0.00000000000E+00 0. -1.
         -1    1    1    2    0  501  0.50407950983E+01  0.24903129209E+02 -0.12095416823E+03  0.12359403817E+03  0.00000000000E+00 0.  1.
<mgrwt>
<rscale>  0 0.35678713E+02</rscale>
<asrwt>0</asrwt>
<pdfrwt beam="1">  1        2 0.25088819E+00 0.50100822E+02</pdfrwt>
<pdfrwt beam="2">  1       -2 0.26608077E-01 0.25408177E+02</pdfrwt>
<totfact> 0.16093234E+02</totfact>
</mgrwt>
</event>
<event>
 7    1  0.4252091E-004  0.8901517E+02  0.7546771E-02  0.1351603E+00
          2   -1    0    0  503    0  0.00000000000E+00  0.00000000000E+00  0.12743766956E+04  0.12743766956E+04  0.00000000000E+00 0. -1.
          1   -1    0    0  502    0 -0.00000000000E+00 -0.00000000000E+00 -0.24427052729E+03  0.24427052729E+03  0.00000000000E+00 0. -1.
         25    2    1    2    0    0  0.77623637801E+01 -0.14714709362E+03 -0.13808255934E+03  0.23749525332E+03  0.12499872282E+03 0.  0.
          4    1    3    3  501    0  0.27543770093E+02  0.12828662548E+02 -0.11413438167E+02  0.32482507977E+02  0.12700000000E+01 0.  1.
         -4    1    3    3    0  501 -0.19781406313E+02 -0.15997575617E+03 -0.12666912117E+03  0.20501274535E+03  0.12700000000E+01 0.  1.
          2    1    1    2  502    0 -0.77530611740E+01  0.58633573360E+02 -0.38920935961E+02  0.70801448704E+02  0.00000000000E+00 0. -1.
          1    1    1    2  503    0 -0.93026060941E-02  0.88513520258E+02  0.12071096636E+04  0.12103505208E+04  0.00000000000E+00 0. -1.
<mgrwt>
<rscale>  0 0.72558309E+02</rscale>
<asrwt>0</asrwt>
<pdfrwt beam="1">  1        2 0.19605795E+00 0.89015172E+02</pdfrwt>
<pdfrwt beam="2">  1        1 0.37580082E-01 0.59143942E+02</pdfrwt>
<totfact> 0.29963859E+02</totfact>
</mgrwt>
</event>
<event>
 7    1  0.4252091E-004  0.1289606E+03  0.7546771E-02  0.1291073E+00
         -1   -1    0    0    0  501 -0.00000000000E+00  0.00000000000E+00  0.15401276930E+03  0.15401276930E+03  0.00000000000E+00 0.  1.
          1   -1    0    0  503    0  0.00000000000E+00 -0.00000000000E+00 -0.86330113442E+03  0.86330113442E+03  0.00000000000E+00 0. -1.
         25    2    1    2    0    0  0.40149167091E+02 -0.14765195811E+03 -0.19178819352E+03  0.27535768223E+03  0.12500434249E+03 0.  0.
          4    1    3    3  502    0 -0.11366620703E+02 -0.52727220048E+02 -0.15023637207E+03  0.15963063676E+03  0.12700000000E+01 0. -1.
         -4    1    3    3    0  502  0.51515787794E+02 -0.94924738060E+02 -0.41551821445E+02  0.11572704547E+03  0.12700000000E+01 0. -1.
          2    1    1    2  503    0 -0.85607564601E+02  0.94355111348E+02 -0.61155323598E+03  0.62468304170E+03  0.00000000000E+00 0. -1.
         -2    1    1    2    0  501  0.45458397510E+02  0.53296846759E+02  0.94053064377E+02  0.11727317979E+03  0.00000000000E+00 0.  1.
<mgrwt>
<rscale>  0 0.95045813E+02</rscale>
<asrwt>0</asrwt>
<pdfrwt beam="2">  1        1 0.13281556E+00 0.12896061E+03</pdfrwt>
<pdfrwt beam="1">  1       -1 0.23694272E-01 0.70050123E+02</pdfrwt>
<totfact> 0.31505621E+02</totfact>
</mgrwt>
</event>
<event>
 7    1  0.4252091E-004  0.1348714E+03  0.7546771E-02  0.1393814E+00
         -2   -1    0    0    0  501  0.00000000000E+00  0.00000000000E+00  0.19883734052E+03  0.19883734052E+03  0.00000000000E+00 0.  1.
         -1   -1    0    0    0  502 -0.00000000000E+00 -0.00000000000E+00 -0.45771141684E+03  0.45771141684E+03  0.00000000000E+00 0.  1.
         25    2    1    2    0    0 -0.50320496604E+02 -0.12808294010E+03  0.21081369665E+01  0.18592502068E+03  0.12500510850E+03 0.  0.
          4    1    3    3  503    0 -0.42110419353E+02 -0.13282103180E+03 -0.38211327526E+02  0.14448678956E+03  0.12700000000E+01 0. -1.
         -4    1    3    3    0  503 -0.82100772506E+01  0.47380917016E+01  0.40319464492E+02  0.41438231120E+02  0.12700000000E+01 0. -1.
         -2    1    1    2    0  502  0.73438602264E+02  0.11307908920E+03 -0.35125117881E+03  0.37624127809E+03  0.00000000000E+00 0.  1.
         -1    1    1    2    0  501 -0.23118105660E+02  0.15003850899E+02  0.90268965533E+02  0.94382458590E+02  0.00000000000E+00 0.  1.
<mgrwt>
<rscale>  0 0.60967837E+02</rscale>
<asrwt>0</asrwt>
<pdfrwt beam="1">  1       -2 0.30590360E-01 0.27560159E+02</pdfrwt>
<pdfrwt beam="2">  1       -1 0.70417140E-01 0.13487140E+03</pdfrwt>
<totfact> 0.15004400E+02</totfact>
</mgrwt>
</event>
<event>
 7    1  0.4252091E-004  0.3458556E+03  0.7546771E-02  0.1251148E+00
          2   -1    0    0  503    0  0.00000000000E+00  0.00000000000E+00  0.15079212702E+04  0.15079212702E+04  0.00000000000E+00 0. -1.
          1   -1    0    0  502    0 -0.00000000000E+00 -0.00000000000E+00 -0.33089527770E+03  0.33089527770E+03  0.00000000000E+00 0. -1.
         25    2    1    2    0    0  0.32166778154E+03 -0.24741402988E+02 -0.10328235559E+02  0.34614104478E+03  0.12499860693E+03 0.  0.
          4    1    3    3  501    0  0.17161656784E+03 -0.65999474647E+02 -0.38824133939E+02  0.18792845257E+03  0.12700000000E+01 0. -1.
         -4    1    3    3    0  501  0.15005121370E+03  0.41258071659E+02  0.28495898380E+02  0.15821259221E+03  0.12700000000E+01 0. -1.
          2    1    1    2  502    0  0.27276362788E+02  0.27034493308E+02 -0.12705631791E+03  0.13273346117E+03  0.00000000000E+00 0. -1.
          1    1    1    2  503    0 -0.34894414432E+03 -0.22930903194E+01  0.13144105459E+04  0.13599420419E+04  0.00000000000E+00 0. -1.
<mgrwt>
<rscale>  0 0.11524853E+03</rscale>
<asrwt>0</asrwt>
<pdfrwt beam="1">  1        2 0.23198788E+00 0.34585562E+03</pdfrwt>
<pdfrwt beam="2">  1        1 0.50906967E-01 0.38403955E+02</pdfrwt>
<totfact> 0.14167809E+02</totfact>
</mgrwt>
</event>
<event>
 7    1  0.4252091E-004  0.1005599E+03  0.7546771E-02  0.1337248E+00
         -2   -1    0    0    0  501 -0.00000000000E+00  0.00000000000E+00  0.78149793313E+02  0.78149793313E+02  0.00000000000E+00 0.  1.
          2   -1    0    0  503    0  0.00000000000E+00 -0.00000000000E+00 -0.19468113590E+04  0.19468113590E+04  0.00000000000E+00 0. -1.
         25    2    1    2    0    0  0.76486986572E+02 -0.13331732665E+03 -0.35837557160E+03  0.40949139984E+03  0.12500554996E+03 0.  0.
          4    1    3    3  502    0  0.72052384872E+02 -0.13133165970E+03 -0.36872157581E+03  0.39799090991E+03  0.12700000000E+01 0.  1.
         -4    1    3    3    0  502  0.44346017003E+01 -0.19856669462E+01  0.10346004207E+02  0.11500489925E+02  0.12700000000E+01 0.  1.
          1    1    1    2  503    0 -0.26563536872E+02  0.52946987902E+02 -0.15192756063E+04  0.15204299960E+04  0.00000000000E+00 0. -1.
         -1    1    1    2    0  501 -0.49923449700E+02  0.80370338746E+02  0.89896121761E+01  0.95039756455E+02  0.00000000000E+00 0.  1.
<mgrwt>
<rscale>  0 0.77180631E+02</rscale>
<asrwt>0</asrwt>
<pdfrwt beam="2">  1        2 0.29950943E+00 0.59236855E+02</pdfrwt>
<pdfrwt beam="1">  1       -2 0.12023046E-01 0.10055986E+03</pdfrwt>
<totfact> 0.43576915E+02</totfact>
</mgrwt>
</event>
<event>
 7    1  0.4252091E-004  0.6399395E+02  0.7546771E-02  0.1415976E+00
          2   -1    0    0  503    0  0.00000000000E+00  0.00000000000E+00  0.22383803364E+03  0.22383803364E+03  0.00000000000E+00 0. -1.
          1   -1    0    0  502    0 -0.00000000000E+00 -0.00000000000E+00 -0.26325741071E+03  0.26325741071E+03  0.00000000000E+00 0. -1.
         25    2    1    2    0    0 -0.53596433634E+02 -0.52691824108E+02  0.13828050147E+03  0.20098717905E+03  0.12500137212E+03 0.  0.
          4    1    3    3  501    0 -0.67953412537E+02 -0.84162080940E+02  0.12097550407E+03  0.16228865526E+03  0.12700000000E+01 0.  1.
         -4    1    3    3    0  501  0.14356978904E+02  0.31470256832E+02  0.17304997401E+02  0.38698523788E+02  0.12700000000E+01 0.  1.
          2    1    1    2  502    0  0.60961761793E+01  0.63868036297E+02 -0.21520368172E+03  0.22456383068E+03  0.00000000000E+00 0. -1.
          1    1    1    2  503    0  0.47500257454E+02 -0.11176212190E+02  0.37503803187E+02  0.61544434603E+02  0.00000000000E+00 0. -1.
<mgrwt>
<rscale>  0 0.55881444E+02</rscale>
<asrwt>0</asrwt>
<pdfrwt beam="1">  1        2 0.34436621E-01 0.48797358E+02</pdfrwt>
<pdfrwt beam="2">  1        1 0.40501140E-01 0.63993951E+02</pdfrwt>
<totfact> 0.20344723E+03</totfact>
</mgrwt>
</event>
<event>
 7    1  0.4252091E-004  0.6934297E+02  0.7546771E-02  0.1363997E+00
          2   -1    0    0  503    0  0.00000000000E+00  0.00000000000E+00  0.13278251615E+04  0.13278251615E+04  0.00000000000E+00 0. -1.
         -2   -1    0    0    0  501 -0.00000000000E+00 -0.00000000000E+00 -0.19369946172E+03  0.19369946172E+03  0.00000000000E+00 0.  1.
         25    2    1    2    0    0 -0.47183887753E+02  0.64750716100E+02  0.42924352152E+01  0.14853933128E+03  0.12500613360E+03 0.  0.
          4    1    3    3  502    0 -0.88699281765E+01 -0.30868086593E+02  0.28228239204E+02  0.42778040913E+02  0.12700000000E+01 0. -1.
         -4    1    3    3    0  502 -0.38313959577E+02  0.95618802693E+02 -0.23935803989E+02  0.10576129036E+03  0.12700000000E+01 0. -1.
          1    1    1    2  503    0  0.68278477930E+02  0.38939822719E+01  0.12397793808E+04  0.12416642166E+04  0.00000000000E+00 0. -1.
         -1    1    1    2    0  501 -0.21094590176E+02 -0.68644698372E+02 -0.10994611626E+03  0.13132107535E+03  0.00000000000E+00 0.  1.
<mgrwt>
<rscale>  0 0.68864547E+02</rscale>
<asrwt>0</asrwt>
<pdfrwt beam="1">  1        2 0.20428079E+00 0.68389426E+02</pdfrwt>
<pdfrwt beam="2">  1       -2 0.29799918E-01 0.69342969E+02</pdfrwt>
<totfact> 0.18985926E+02</totfact>
</mgrwt>
</event>
<event>
 7    1  0.4252091E-004  0.7117107E+02  0.7546771E-02  0.1374487E+00
          1   -1    0    0  502    0 -0.00000000000E+00  0.00000000000E+00  0.86151918497E+03  0.86151918497E+03  0.00000000000E+00 0. -1.
          2   -1    0    0  503    0  0.00000000000E+00 -0.00000000000E+00 -0.36440344695E+04  0.36440344695E+04  0.00000000000E+00 0. -1.
         25    2    1    2    0    0  0.12154220648E+03  0.14799328119E+02 -0.45380025437E+03  0.48636679068E+03  0.12500582443E+03 0.  0.
          4    1    3    3  501    0  0.13389502206E+03 -0.19946906044E+02 -0.31743514732E+03  0.34509772768E+03  0.12700000000E+01 0.  1.
         -4    1    3    3    0  501 -0.12352815583E+02  0.34746234163E+02 -0.13636510704E+03  0.14126906300E+03  0.12700000000E+01 0.  1.
          2    1    1    2  502    0 -0.58810209570E+02  0.16515119920E+02  0.84374441615E+03  0.84595273493E+03  0.00000000000E+00 0. -1.
          1    1    1    2  503    0 -0.62731996908E+02 -0.31314448039E+02 -0.31724594464E+04  0.31732341289E+04  0.00000000000E+00 0. -1.
<mgrwt>
<rscale>  0 0.65935514E+02</rscale>
<asrwt>0</asrwt>
<pdfrwt beam="2">  1        2 0.56062067E+00 0.71171067E+02</pdfrwt>
<pdfrwt beam="1">  1        1 0.13254142E+00 0.61085104E+02</pdfrwt>
<totfact> 0.31949891E+00</totfact>
</mgrwt>
</event>
<event>
 7    1  0.4252091E-004  0.1019303E+03  0.7546771E-02  0.1318210E+00
         -2   -1    0    0    0  501 -0.00000000000E+00  0.00000000000E+00  0.16859813146E+02  0.16859813146E+02  0.00000000000E+00 0.  1.
          2   -1    0    0  503    0  0.00000000000E+00 -0.00000000000E+00 -0.23715757637E+04  0.23715757637E+04  0.00000000000E+00 0. -1.
         25    2    1    2    0    0 -0.35906780310E+01  0.52368971630E+01 -0.58385684968E+03  0.59712113638E+03  0.12499805014E+03 0.  0.
          4    1    3    3  502    0 -0.59379767974E+02 -0.12783076423E+02 -0.38618406760E+03  0.39093363996E+03  0.12700000000E+01 0.  1.
         -4    1    3    3    0  502  0.55789089943E+02  0.18019973586E+02 -0.19767278208E+03  0.20618749642E+03  0.12700000000E+01 0.  1.
          1    1    1    2  503    0  0.36273888440E+02  0.95257505576E+02 -0.14483741679E+04  0.14519564448E+04  0.00000000000E+00 0. -1.
         -1    1    1    2    0  501 -0.32683210409E+02 -0.10049440274E+03 -0.32248493296E+03  0.33935799565E+03  0.00000000000E+00 0.  1.
<mgrwt>
<rscale>  0 0.83946685E+02</rscale>
<asrwt>0</asrwt>
<pdfrwt beam="2">  1        2 0.36485796E+00 0.10193031E+03</pdfrwt>
<pdfrwt beam="1">  1       -2 0.25938163E-02 0.69135924E+02</pdfrwt>
<totfact> 0.23906190E+03</totfact>
</mgrwt>
</event>
<event>
 7    1  0.4252091E-004  0.1155825E+03  0.7546771E-02  0.1257817E+00
         -2   -1    0    0    0  501 -0.00000000000E+00  0.00000000000E+00  0.47494777696E+03  0.47494777696E+03  0.00000000000E+00 0.  1.
          2   -1    0    0  503    0  0.00000000000E+00 -0.00000000000E+00 -0.20156505641E+04  0.20156505641E+04  0.00000000000E+00 0. -1.
         25    2    1    2    0    0 -0.59292946567E+02  0.14310120778E+03  0.26385950722E+03  0.33051542279E+03  0.12499998388E+03 0.  0.
          4    1    3    3  502    0 -0.79097732667E+02  0.39794437589E+02  0.83459426829E+02  0.12168458161E+03  0.12700000000E+01 0.  1.
         -4    1    3    3    0  502  0.19804786100E+02  0.10330677019E+03  0.18040008039E+03  0.20883084117E+03  0.12700000000E+01 0.  1.
          3    1    1    2  503    0  0.99148821744E+02 -0.41700691929E+02 -0.19640170666E+04  0.19669602117E+04  0.00000000000E+00 0. -1.
         -1    1    1    2    0  501 -0.39855875177E+02 -0.10140051585E+03  0.15945477223E+03  0.19312270656E+03  0.00000000000E+00 0.  1.
<mgrwt>
<rscale>  0 0.11149982E+03</rscale>
<asrwt>0</asrwt>
<pdfrwt beam="2">  1        2 0.31010010E+00 0.10756132E+03</pdfrwt>
<pdfrwt beam="1">  1       -2 0.73068887E-01 0.11558253E+03</pdfrwt>
<totfact> 0.14391141E+01</totfact>
</mgrwt>
</event>
<event>
 7    1  0.4252091E-004  0.9411072E+02  0.7546771E-02  0.1366862E+00
          1   -1    0    0  502    0 -0.00000000000E+00  0.00000000000E+00  0.10135790769E+03  0.10135790769E+03  0.00000000000E+00 0. -1.
          2   -1    0    0  503    0  0.00000000000E+00 -0.00000000000E+00 -0.63227762310E+03  0.63227762310E+03  0.00000000000E+00 0. -1.
         25    2    1    2    0    0 -0.51453376449E+02  0.82500415772E+02 -0.46427677167E+03  0.49054294381E+03  0.12500276182E+03 0.  0.
          4    1    3    3  501    0 -0.64923125489E+02  0.74887990698E+01 -0.32752072376E+03  0.33397983731E+03  0.12700000000E+01 0.  1.
         -4    1    3    3    0  501  0.13469749040E+02  0.75011616703E+02 -0.13675604791E+03  0.15656310650E+03  0.12700000000E+01 0.  1.
          2    1    1    2  502    0  0.37474948178E+01 -0.94540761273E+02  0.56696362457E+02  0.11030175327E+03  0.00000000000E+00 0. -1.
          1    1    1    2  503    0  0.47705881632E+02  0.12040345501E+02 -0.12333930620E+03  0.13279083370E+03  0.00000000000E+00 0. -1.
<mgrwt>
<rscale>  0 0.68047194E+02</rscale>
<asrwt>0</asrwt>
<pdfrwt beam="2">  1        2 0.97273481E-01 0.49201840E+02</pdfrwt>
<pdfrwt beam="1">  1        1 0.15593524E-01 0.94110721E+02</pdfrwt>
<totfact> 0.22748803E+03</totfact>
</mgrwt>
</event>
<event>
 7    1  0.4252091E-004  0.1270269E+03  0.7546771E-02  0.1281719E+00
         -1   -1    0    0    0  501 -0.00000000000E+00  0.00000000000E+00  0.34335793126E+03  0.34335793126E+03  0.00000000000E+00 0.  1.
          1   -1    0    0  503    0  0.00000000000E+00 -0.00000000000E+00 -0.93220933844E+03  0.93220933844E+03  0.00000000000E+00 0. -1.
         25    2    1    2    0    0 -0.24465169209E+02  0.47038421209E+02  0.13049250344E+03  0.18832073747E+03  0.12500099653E+03 0.  0.
          4    1    3    3  502    0 -0.54181202802E+02 -0.11544092207E+02  0.18389597290E+02  0.58383721964E+02  0.12700000000E+01 0.  1.
         -4    1    3    3    0  502  0.29716033592E+02  0.58582513416E+02  0.11210290615E+03  0.12993701551E+03  0.12700000000E+01 0.  1.
          2    1    1    2  503    0  0.37907964675E+02 -0.12353227001E+03 -0.89021945008E+03  0.89954872287E+03  0.00000000000E+00 0. -1.
         -2    1    1    2    0  501 -0.13442795466E+02  0.76493848802E+02  0.17087553945E+03  0.18769780936E+03  0.00000000000E+00 0.  1.
<mgrwt>
<rscale>  0 0.99326120E+02</rscale>
<asrwt>0</asrwt>
<pdfrwt beam="2">  1        1 0.14341682E+00 0.12702688E+03</pdfrwt>
<pdfrwt beam="1">  1       -1 0.52824297E-01 0.77666065E+02</pdfrwt>
<totfact> 0.71671949E+01</totfact>
</mgrwt>
</event>
<event>
 7    1  0.4252091E-004  0.6582997E+02  0.7546771E-02  0.1378501E+00
          1   -1    0    0  502    0 -0.00000000000E+00  0.00000000000E+00  0.11438396827E+04  0.11438396827E+04  0.00000000000E+00 0. -1.
          2   -1    0    0  503    0  0.00000000000E+00 -0.00000000000E+00 -0.61457481916E+03  0.61457481916E+03  0.00000000000E+00 0. -1.
         25    2    1    2    0    0  0.11608244259E+03 -0.51060138610E+02 -0.11284040225E+02  0.17842241992E+03  0.12499983653E+03 0.  0.
          4    1    3    3  501    0 -0.33981888888E+01 -0.11217445360E+02  0.40542297910E+02  0.42221672018E+02  0.12700000000E+01 0. -1.
         -4    1    3    3    0  501  0.11948063148E+03 -0.39842693250E+02 -0.51826338136E+02  0.13620074790E+03  0.12700000000E+01 0. -1.
          2    1    1    2  502    0 -0.53881385633E+02  0.34357360860E+02  0.10573068115E+04  0.10592361991E+04  0.00000000000E+00 0. -1.
          1    1    1    2  503    0 -0.62201056961E+02  0.16702777750E+02 -0.51675790772E+03  0.52075588279E+03  0.00000000000E+00 0. -1.
<mgrwt>
<rscale>  0 0.64859484E+02</rscale>
<asrwt>0</asrwt>
<pdfrwt beam="2">  1        2 0.94549972E-01 0.65829974E+02</pdfrwt>
<pdfrwt beam="1">  1        1 0.17597534E+00 0.63903302E+02</pdfrwt>
<totfact> 0.97051625E+01</totfact>
</mgrwt>
</event>
<event>
 7    1  0.4252091E-004  0.7730759E+02  0.7546771E-02  0.1353799E+00
         -1   -1    0    0    0  501 -0.00000000000E+00  0.00000000000E+00  0.16467348568E+03  0.16467348568E+03  0.00000000000E+00 0.  1.
          1   -1    0    0  503    0  0.00000000000E+00 -0.00000000000E+00 -0.72809837052E+03  0.72809837052E+03  0.00000000000E+00 0. -1.
         25    2    1    2    0    0 -0.15722076737E+02  0.11226812736E+02 -0.20743609763E+03  0.24295177695E+03  0.12499042484E+03 0.  0.
          4    1    3    3  502    0  0.33045797545E+02 -0.21966136676E+02 -0.16302804559E+02  0.42917714668E+02  0.12700000000E+01 0.  1.
         -4    1    3    3    0  502 -0.48767874282E+02  0.33192949413E+02 -0.19113329307E+03  0.20003406228E+03  0.12700000000E+01 0.  1.
          2    1    1    2  503    0 -0.64414657976E+02 -0.17849820774E+02 -0.48945763705E+03  0.49400065053E+03  0.00000000000E+00 0. -1.
         -2    1    1    2    0  501  0.80136734713E+02  0.66230080374E+01  0.13346884984E+03  0.15581942871E+03  0.00000000000E+00 0.  1.
<mgrwt>
<rscale>  0 0.71884631E+02</rscale>
<asrwt>0</asrwt>
<pdfrwt beam="2">  1        1 0.11201513E+00 0.66842085E+02</pdfrwt>
<pdfrwt beam="1">  1       -1 0.25334382E-01 0.77307586E+02</pdfrwt>
<totfact> 0.37692169E+02</totfact>
</mgrwt>
</event>
<event>
 7    1  0.4252091E-004  0.7915430E+02  0.7546771E-02  0.1379319E+00
          2   -1    0    0  503    0  0.00000000000E+00  0.00000000000E+00  0.90788142553E+03  0.90788142553E+03  0.00000000000E+00 0. -1.
          1   -1    0    0  502    0 -0.00000000000E+00 -0.00000000000E+00 -0.41765300670E+03  0.41765300670E+03  0.00000000000E+00 0. -1.
         25    2    1    2    0    0  0.12509246608E+03  0.31691804794E+02  0.10926241684E+03  0.21027907775E+03  0.12500607684E+03 0.  0.
          4    1    3    3  501    0  0.82544151786E+02  0.76758531263E+02  0.93137280282E+02  0.14622439945E+03  0.12700000000E+01 0. -1.
         -4    1    3    3    0  501  0.42548314294E+02 -0.45066726469E+02  0.16125136560E+02  0.64054678307E+02  0.12700000000E+01 0. -1.
          2    1    1    2  502    0 -0.77346881642E+02 -0.91669188512E+01 -0.36206666329E+03  0.37034962018E+03  0.00000000000E+00 0. -1.
          1    1    1    2  503    0 -0.47745584438E+02 -0.22524885943E+02  0.74303266527E+03  0.74490573429E+03  0.00000000000E+00 0. -1.
<mgrwt>
<rscale>  0 0.64643063E+02</rscale>
<asrwt>0</asrwt>
<pdfrwt beam="1">  1        2 0.13967406E+00 0.52792152E+02</pdfrwt>
<pdfrwt beam="2">  1        1 0.64254309E-01 0.79154295E+02</pdfrwt>
<totfact> 0.25795016E+02</totfact>
</mgrwt>
</event>
<event>
 7    1  0.4252091E-004  0.1035160E+03  0.7546771E-02  0.1369362E+00
          2   -1    0    0  503    0  0.00000000000E+00  0.00000000000E+00  0.25413318734E+03  0.25413318734E+03  0.00000000000E+00 0. -1.
          1   -1    0    0  502    0 -0.00000000000E+00 -0.00000000000E+00 -0.32802787073E+04  0.32802787073E+04  0.00000000000E+00 0. -1.
         25    2    1    2    0    0 -0.12804585267E+03 -0.55557653167E+02 -0.85152881961E+03  0.87189998541E+03  0.12500344287E+03 0.  0.
          4    1    3    3  501    0 -0.84749946962E+01 -0.55270528347E+02 -0.43387500239E+03  0.43746518426E+03  0.12700000000E+01 0. -1.
         -4    1    3    3    0  501 -0.11957085798E+03 -0.28712481947E+00 -0.41765381722E+03  0.43443480115E+03  0.12700000000E+01 0. -1.
          2    1    1    2  502    0  0.84265755926E+02  0.53863386040E+02 -0.24155540118E+04  0.24176234541E+04  0.00000000000E+00 0. -1.
          1    1    1    2  503    0  0.43780096747E+02  0.16942671270E+01  0.24093731143E+03  0.24488845512E+03  0.00000000000E+00 0. -1.
<mgrwt>
<rscale>  0 0.67344872E+02</rscale>
<asrwt>0</asrwt>
<pdfrwt beam="1">  1        2 0.39097418E-01 0.43812868E+02</pdfrwt>
<pdfrwt beam="2">  1        1 0.50465820E+00 0.10351598E+03</pdfrwt>
<totfact> 0.94418304E+00</totfact>
</mgrwt>
</event>
<event>
 7    1  0.4252091E-004  0.2230558E+03  0.7546771E-02  0.1271085E+00
          1   -1    0    0  503    0  0.00000000000E+00  0.00000000000E+00  0.16543595085E+04  0.16543595085E+04  0.00000000000E+00 0. -1.
         -1   -1    0    0    0  501 -0.00000000000E+00 -0.00000000000E+00 -0.13943664255E+03  0.13943664255E+03  0.00000000000E+00 0.  1.
         25    2    1    2    0    0  0.25470338089E+03 -0.46404534753E+02  0.57455263905E+03  0.64246772630E+03  0.12500740462E+03 0.  0.
          4    1    3    3  502    0  0.84175382265E+02  0.12069453595E+02  0.82736434002E+02  0.11865115718E+03  0.12700000000E+01 0.  1.
         -4    1    3    3    0  502  0.17052799863E+03 -0.58473988347E+02  0.49181620505E+03  0.52381656912E+03  0.12700000000E+01 0.  1.
          2    1    1    2  503    0 -0.46767610091E+02 -0.14515417544E+02  0.93325161360E+03  0.93453543592E+03  0.00000000000E+00 0. -1.
         -2    1    1    2    0  501 -0.20793577080E+03  0.60919952297E+02  0.71186133272E+01  0.21679298887E+03  0.00000000000E+00 0.  1.
<mgrwt>
<rscale>  0 0.10451169E+03</rscale>
<asrwt>0</asrwt>
<pdfrwt beam="1">  1        1 0.25451683E+00 0.48968426E+02</pdfrwt>
<pdfrwt beam="2">  1       -1 0.21451792E-01 0.22305583E+03</pdfrwt>
<totfact> 0.12183935E+02</totfact>
</mgrwt>
</event>
<event>
 7    1  0.4252091E-004  0.6729249E+02  0.7546771E-02  0.1416394E+00
          2   -1    0    0  503    0  0.00000000000E+00  0.00000000000E+00  0.15242886468E+03  0.15242886468E+03  0.00000000000E+00 0. -1.
          1   -1    0    0  502    0 -0.00000000000E+00 -0.00000000000E+00 -0.20295652905E+03  0.20295652905E+03  0.00000000000E+00 0. -1.
         25    2    1    2    0    0  0.55163358816E+02 -0.89602586795E+02 -0.87904725178E+02  0.18553431174E+03  0.12499648158E+03 0.  0.
          4    1    3    3  501    0 -0.43502984185E+01  0.16089756901E+01  0.26875149760E+02  0.27302023253E+02  0.12700000000E+01 0.  1.
         -4    1    3    3    0  501  0.59513657235E+02 -0.91211562485E+02 -0.11477987494E+03  0.15823228848E+03  0.12700000000E+01 0.  1.
          2    1    1    2  502    0 -0.80700143386E+01  0.45546373097E+02 -0.45470880552E+02  0.64862918620E+02  0.00000000000E+00 0. -1.
          1    1    1    2  503    0 -0.47093344478E+02  0.44056213698E+02  0.82847941360E+02  0.10498816337E+03  0.00000000000E+00 0. -1.
<mgrwt>
<rscale>  0 0.55791276E+02</rscale>
<asrwt>0</asrwt>
<pdfrwt beam="1">  1        2 0.23450594E-01 0.67292486E+02</pdfrwt>
<pdfrwt beam="2">  1        1 0.31224081E-01 0.46255781E+02</pdfrwt>
<totfact> 0.41925940E+03</totfact>
</mgrwt>
</event>
<event>
 7    1  0.4252091E-004  0.8120195E+02  0.7546771E-02  0.1429129E+00
          2   -1    0    0  503    0  0.00000000000E+00  0.00000000000E+00  0.66385936944E+03  0.66385936944E+03  0.00000000000E+00 0. -1.
          1   -1    0    0  502    0 -0.00000000000E+00 -0.00000000000E+00 -0.15036447221E+04  0.15036447221E+04  0.00000000000E+00 0. -1.
         25    2    1    2    0    0 -0.16788381517E+02  0.10440087191E+03 -0.57133569425E+02  0.17340664365E+03  0.12499690996E+03 0.  0.
          4    1    3    3  501    0  0.13095034848E+02  0.70684821392E+02 -0.91757704516E+02  0.11657149373E+03  0.12700000000E+01 0. -1.
         -4    1    3    3    0  501 -0.29883416364E+02  0.33716050515E+02  0.34624135091E+02  0.56835149923E+02  0.12700000000E+01 0. -1.
          2    1    1    2  502    0 -0.16226386442E+02 -0.30751000344E+02 -0.13854669001E+04  0.13859031174E+04  0.00000000000E+00 0. -1.
          1    1    1    2  503    0  0.33014767959E+02 -0.73649871563E+02  0.60281511686E+03  0.60819433045E+03  0.00000000000E+00 0. -1.
<mgrwt>
<rscale>  0 0.53135234E+02</rscale>
<asrwt>0</asrwt>
<pdfrwt beam="1">  1        2 0.10213221E+00 0.81201955E+02</pdfrwt>
<pdfrwt beam="2">  1        1 0.23132996E+00 0.34769522E+02</pdfrwt>
<totfact> 0.55201486E+01</totfact>
</mgrwt>
</event>
<event>
 7    1  0.4252091E-004  0.9823646E+02  0.7546771E-02  0.1382019E+00
          1   -1    0    0  503    0  0.00000000000E+00  0.00000000000E+00  0.26293529001E+02  0.26293529001E+02  0.00000000000E+00 0. -1.
         -1   -1    0    0    0  501 -0.00000000000E+00 -0.00000000000E+00 -0.10029952545E+04  0.10029952545E+04  0.00000000000E+00 0.  1.
         25    2    1    2    0    0 -0.11529882813E+03  0.27666545590E+02 -0.58210567521E+03  0.60706799783E+03  0.12500111745E+03 0.  0.
          4    1    3    3  502    0 -0.24215507719E+02 -0.10084280275E+01 -0.40608732198E+03  0.40681191442E+03  0.12700000000E+01 0. -1.
         -4    1    3    3    0  502 -0.91083320412E+02  0.28674973617E+02 -0.17601835323E+03  0.20025608341E+03  0.12700000000E+01 0. -1.
          2    1    1    2  503    0  0.92983097959E+02  0.74557901956E+01 -0.17102477483E+03  0.19480995590E+03  0.00000000000E+00 0. -1.
         -2    1    1    2    0  501  0.22315730172E+02 -0.35122335785E+02 -0.22357127542E+03  0.22741082973E+03  0.00000000000E+00 0.  1.
<mgrwt>
<rscale>  0 0.63936136E+02</rscale>
<asrwt>0</asrwt>
<pdfrwt beam="1">  1        1 0.40451578E-02 0.98236462E+02</pdfrwt>
<pdfrwt beam="2">  1       -1 0.15430698E+00 0.41612141E+02</pdfrwt>
<totfact> 0.81457446E+02</totfact>
</mgrwt>
</event>
<event>
 7    1  0.4252091E-004  0.6792898E+02  0.7546771E-02  0.1497902E+00
          2   -1    0    0  503    0  0.00000000000E+00  0.00000000000E+00  0.19101723445E+04  0.19101723445E+04  0.00000000000E+00 0. -1.
         -2   -1    0    0    0  501 -0.00000000000E+00 -0.00000000000E+00 -0.33501590616E+02  0.33501590616E+02  0.00000000000E+00 0.  1.
         25    2    1    2    0    0 -0.77892885937E+02 -0.15670674113E+02  0.56627181939E+03  0.58531797654E+03  0.12498195278E+03 0.  0.
          4    1    3    3  502    0 -0.14716554513E+02 -0.65221330330E+02  0.22508848373E+03  0.23481234490E+03  0.12700000000E+01 0. -1.
         -4    1    3    3    0  502 -0.63176331424E+02  0.49550656218E+02  0.34118333565E+03  0.35050563164E+03  0.12700000000E+01 0. -1.
          1    1    1    2  503    0  0.11012517027E+02  0.22750430219E+02  0.12868500937E+04  0.12870982951E+04  0.00000000000E+00 0. -1.
         -1    1    1    2    0  501  0.66880368911E+02 -0.70797561066E+01  0.23548840707E+02  0.71257663383E+02  0.00000000000E+00 0.  1.
<mgrwt>
<rscale>  0 0.41436070E+02</rscale>
<asrwt>0</asrwt>
<pdfrwt beam="1">  1        2 0.29387258E+00 0.25275633E+02</pdfrwt>
<pdfrwt beam="2">  1       -2 0.51540924E-02 0.67928979E+02</pdfrwt>
<totfact> 0.17689322E+03</totfact>
</mgrwt>
</event>
<event>
 7    1  0.4252091E-004  0.6587961E+03  0.7546771E-02  0.1172835E+00
          1   -1    0    0  502    0 -0.00000000000E+00  0.00000000000E+00  0.71330389712E+03  0.71330389712E+03  0.00000000000E+00 0. -1.
          2   -1    0    0  503    0  0.00000000000E+00 -0.00000000000E+00 -0.11290764029E+04  0.11290764029E+04  0.00000000000E+00 0. -1.
         25    2    1    2    0    0 -0.19706919819E+03  0.62066931105E+03 -0.53934837846E+00  0.66309291769E+03  0.12500105619E+03 0.  0.
          4    1    3    3  501    0 -0.60868803174E+02  0.39376774881E+03  0.48786312493E+00  0.39844686234E+03  0.12700000000E+01 0.  1.
         -4    1    3    3    0  501 -0.13620039501E+03  0.22690156224E+03 -0.10272115034E+01  0.26464605535E+03  0.12700000000E+01 0.  1.
          2    1    1    2  502    0 -0.46208422962E+02 -0.45487779920E+01  0.24184384643E+03  0.24626074756E+03  0.00000000000E+00 0. -1.
          1    1    1    2  503    0  0.24327762115E+03 -0.61612053306E+03 -0.65707700382E+03  0.93302663475E+03  0.00000000000E+00 0. -1.
<mgrwt>
<rscale>  0 0.17489732E+03</rscale>
<asrwt>0</asrwt>
<pdfrwt beam="2">  1        2 0.17370406E+00 0.65879610E+03</pdfrwt>
<pdfrwt beam="1">  1        1 0.10973906E+00 0.46431775E+02</pdfrwt>
<totfact> 0.85115910E+01</totfact>
</mgrwt>
</event>
<event>
 7    1  0.4252091E-004  0.8199577E+02  0.7546771E-02  0.1420938E+00
          1   -1    0    0  502    0 -0.00000000000E+00  0.00000000000E+00  0.18786424181E+04  0.18786424181E+04  0.00000000000E+00 0. -1.
          2   -1    0    0  503    0  0.00000000000E+00 -0.00000000000E+00 -0.23441950071E+03  0.23441950071E+03  0.00000000000E+00 0. -1.
         25    2    1    2    0    0 -0.48738493228E+02 -0.10209438844E+03  0.56967657699E+03  0.59410081444E+03  0.12500268187E+03 0.  0.
          4    1    3    3  501    0 -0.11565454687E+02 -0.82814653179E+02  0.14519346833E+03  0.16755531227E+03  0.12700000000E+01 0.  1.
         -4    1    3    3    0  501 -0.37173038541E+02 -0.19279735260E+02  0.42448310867E+03  0.42654550218E+03  0.12700000000E+01 0.  1.
          2    1    1    2  502    0  0.23603953095E+02  0.75413841110E+02  0.12940285673E+04  0.12964390950E+04  0.00000000000E+00 0. -1.
          1    1    1    2  503    0  0.25134540134E+02  0.26680547330E+02 -0.21948222692E+03  0.22252200936E+03  0.00000000000E+00 0. -1.
<mgrwt>
<rscale>  0 0.54823021E+02</rscale>
<asrwt>0</asrwt>
<pdfrwt beam="2">  1        2 0.36064540E-01 0.36655105E+02</pdfrwt>
<pdfrwt beam="1">  1        1 0.28902190E+00 0.81995772E+02</pdfrwt>
<totfact> 0.87479734E+01</totfact>
</mgrwt>
</event>
<event>
 7    1  0.4252091E-004  0.1115369E+03  0.7546771E-02  0.1284186E+00
          2   -1    0    0  503    0  0.00000000000E+00  0.00000000000E+00  0.37537981678E+04  0.37537981678E+04  0.00000000000E+00 0. -1.
          1   -1    0    0  502    0 -0.00000000000E+00 -0.00000000000E+00 -0.37378019397E+03  0.37378019397E+03  0.00000000000E+00 0. -1.
         25    2    1    2    0    0 -0.10400899830E+03  0.56091092740E+01  0.68140801784E+02  0.17639447374E+03  0.12499003026E+03 0.  0.
          4    1    3    3  501    0 -0.65308240344E+02 -0.32838766594E+02  0.91428557133E+02  0.11706555773E+03  0.12700000000E+01 0.  1.
         -4    1    3    3    0  501 -0.38700757952E+02  0.38447875868E+02 -0.23287755349E+02  0.59328916003E+02  0.12700000000E+01 0.  1.
          2    1    1    2  502    0  0.83728521976E+02  0.78386983278E+02 -0.30883278560E+03  0.32944297534E+03  0.00000000000E+00 0. -1.
          1    1    1    2  503    0  0.20280476320E+02 -0.83996092552E+02  0.36207099576E+04  0.36217409127E+04  0.00000000000E+00 0. -1.
<mgrwt>
<rscale>  0 0.98172677E+02</rscale>
<asrwt>0</asrwt>
<pdfrwt beam="1">  1        2 0.57750739E+00 0.86409729E+02</pdfrwt>
<pdfrwt beam="2">  1        1 0.57504648E-01 0.11153691E+03</pdfrwt>
<totfact> 0.77567434E+00</totfact>
</mgrwt>
</event>
<event>
 7    1  0.4252091E-004  0.1544314E+03  0.7546771E-02  0.1354397E+00
          2   -1    0    0  503    0  0.00000000000E+00  0.00000000000E+00  0.36444545009E+03  0.36444545009E+03  0.00000000000E+00 0. -1.
          1   -1    0    0  502    0 -0.00000000000E+00 -0.00000000000E+00 -0.87973694852E+03  0.87973694852E+03  0.00000000000E+00 0. -1.
         25    2    1    2    0    0  0.16089108016E+03 -0.60412216786E+02 -0.12850528060E+03  0.24833830112E+03  0.12499091586E+03 0.  0.
          4    1    3    3  501    0  0.27604839640E+02 -0.22250850083E+01  0.24673199927E+02  0.37112772323E+02  0.12700000000E+01 0. -1.
         -4    1    3    3    0  501  0.13328624052E+03 -0.58187131778E+02 -0.15317848053E+03  0.21122552879E+03  0.12700000000E+01 0. -1.
          2    1    1    2  502    0 -0.13170672730E+03  0.76430929565E+02 -0.68198253151E+03  0.69877644658E+03  0.00000000000E+00 0. -1.
          1    1    1    2  503    0 -0.29184352862E+02 -0.16018712779E+02  0.29519631368E+03  0.29706765091E+03  0.00000000000E+00 0. -1.
<mgrwt>
<rscale>  0 0.71702552E+02</rscale>
<asrwt>0</asrwt>
<pdfrwt beam="1">  1        2 0.56068531E-01 0.33291525E+02</pdfrwt>
<pdfrwt beam="2">  1        1 0.13534415E+00 0.15443138E+03</pdfrwt>
<totfact> 0.24699286E+02</totfact>
</mgrwt>
</event>
<event>
 7    1  0.4252091E-004  0.5520272E+02  0.7546771E-02  0.1483730E+00
          2   -1    0    0  503    0  0.00000000000E+00  0.00000000000E+00  0.82675191211E+01  0.82675191211E+01  0.00000000000E+00 0. -1.
          1   -1    0    0  502    0 -0.00000000000E+00 -0.00000000000E+00 -0.20259865961E+04  0.20259865961E+04  0.00000000000E+00 0. -1.
         25    2    1    2    0    0  0.16669663721E+01  0.41217123744E+02 -0.82179199997E+03  0.83225294734E+03  0.12490495215E+03 0.  0.
          4    1    3    3  501    0 -0.53871260579E+02  0.51223701997E+02 -0.42265822064E+03  0.42914748599E+03  0.12700000000E+01 0.  1.
         -4    1    3    3    0  501  0.55538226951E+02 -0.10006578252E+02 -0.39913377934E+03  0.40310546135E+03  0.12700000000E+01 0.  1.
          2    1    1    2  502    0 -0.35620806598E+02 -0.46259637829E+02 -0.10665803335E+04  0.10681771406E+04  0.00000000000E+00 0. -1.
          1    1    1    2  503    0  0.33953840226E+02  0.50425140849E+01 -0.12934674356E+03  0.13382402730E+03  0.00000000000E+00 0. -1.
<mgrwt>
<rscale>  0 0.43530463E+02</rscale>
<asrwt>0</asrwt>
<pdfrwt beam="1">  1        2 0.12719254E-02 0.34326232E+02</pdfrwt>
<pdfrwt beam="2">  1        1 0.31169040E+00 0.55202715E+02</pdfrwt>
<totfact> 0.40511551E+03</totfact>
</mgrwt>
</event>
<event>
 7    1  0.4252091E-004  0.5383559E+02  0.7546771E-02  0.1468069E+00
         -1   -1    0    0    0  501 -0.00000000000E+00  0.00000000000E+00  0.28757263396E+02  0.28757263396E+02  0.00000000000E+00 0.  1.
          1   -1    0    0  503    0  0.00000000000E+00 -0.00000000000E+00 -0.69248603145E+03  0.69248603145E+03  0.00000000000E+00 0. -1.
         25    2    1    2    0    0 -0.70462709336E+02 -0.16789299182E+02 -0.43203252070E+03  0.45554607344E+03  0.12499300824E+03 0.  0.
          4    1    3    3  502    0  0.21531331140E+02  0.59006242440E+01 -0.12858536601E+02  0.25794775646E+02  0.12700000000E+01 0. -1.
         -4    1    3    3    0  502 -0.91994040475E+02 -0.22689923426E+02 -0.41917398410E+03  0.42975129779E+03  0.12700000000E+01 0. -1.
          2    1    1    2  503    0  0.48624938910E+02 -0.15933121036E+02 -0.21818007226E+03  0.22409996199E+03  0.00000000000E+00 0. -1.
         -2    1    1    2    0  501  0.21837770425E+02  0.32722420217E+02 -0.13516175088E+02  0.41597259417E+02  0.00000000000E+00 0.  1.
<mgrwt>
<rscale>  0 0.46020631E+02</rscale>
<asrwt>0</asrwt>
<pdfrwt beam="2">  1        1 0.10653632E+00 0.53835587E+02</pdfrwt>
<pdfrwt beam="1">  1       -1 0.44241942E-02 0.39340119E+02</pdfrwt>
<totfact> 0.53205718E+03</totfact>
</mgrwt>
</event>
<event>
 7    1  0.4252091E-004  0.1275653E+03  0.7546771E-02  0.1391621E+00
          2   -1    0    0  503    0  0.00000000000E+00  0.00000000000E+00  0.12223371893E+04  0.12223371893E+04  0.00000000000E+00 0. -1.
         -2   -1    0    0    0  501 -0.00000000000E+00 -0.00000000000E+00 -0.53363955285E+03  0.53363955285E+03  0.00000000000E+00 0.  1.
         25    2    1    2    0    0 -0.13117211353E+03 -0.47302487055E+02 -0.13379500265E+03  0.23015584427E+03  0.12500784483E+03 0.  0.
          4    1    3    3  502    0 -0.13198794608E+03 -0.80088751096E+02 -0.10810852471E+03  0.18847835945E+03  0.12700000000E+01 0.  1.
         -4    1    3    3    0  502  0.81583255594E+00  0.32786264042E+02 -0.25686477939E+02  0.41677484827E+02  0.12700000000E+01 0.  1.
          1    1    1    2  503    0  0.10862184216E+03  0.66560843808E+02  0.11700680631E+04  0.11769827199E+04  0.00000000000E+00 0. -1.
         -1    1    1    2    0  501  0.22550271370E+02 -0.19258356753E+02 -0.34757542403E+03  0.34883817801E+03  0.00000000000E+00 0.  1.
<mgrwt>
<rscale>  0 0.61505323E+02</rscale>
<asrwt>0</asrwt>
<pdfrwt beam="1">  1        2 0.18805187E+00 0.12756526E+03</pdfrwt>
<pdfrwt beam="2">  1       -2 0.82098393E-01 0.29654663E+02</pdfrwt>
<totfact> 0.28891016E+01</totfact>
</mgrwt>
</event>
<event>
 7    1  0.4252091E-004  0.7765597E+02  0.7546771E-02  0.1444538E+00
         -1   -1    0    0    0  501 -0.00000000000E+00  0.00000000000E+00  0.42461710012E+02  0.42461710012E+02  0.00000000000E+00 0.  1.
          1   -1    0    0  503    0  0.00000000000E+00 -0.00000000000E+00 -0.70695013893E+03  0.70695013893E+03  0.00000000000E+00 0. -1.
         25    2    1    2    0    0 -0.10021828484E+03  0.25774946722E+02 -0.16692749118E+03  0.23280471593E+03  0.12500078381E+03 0.  0.
          4    1    3    3  502    0 -0.12769943691E+03  0.19346310834E+02 -0.15595553419E+03  0.20249732709E+03  0.12700000000E+01 0. -1.
         -4    1    3    3    0  502  0.27481152071E+02  0.64286358881E+01 -0.10971956989E+02  0.30307388846E+02  0.12700000000E+01 0. -1.
          2    1    1    2  503    0  0.75231851847E+02 -0.51712387519E+01 -0.46354953250E+03  0.46964320747E+03  0.00000000000E+00 0. -1.
         -2    1    1    2    0  501  0.24986432996E+02 -0.20603707971E+02 -0.34011405231E+02  0.46963925536E+02  0.00000000000E+00 0.  1.
<mgrwt>
<rscale>  0 0.50149221E+02</rscale>
<asrwt>0</asrwt>
<pdfrwt beam="2">  1        1 0.10876156E+00 0.77655974E+02</pdfrwt>
<pdfrwt beam="1">  1       -1 0.65325710E-02 0.32385716E+02</pdfrwt>
<totfact> 0.28541901E+03</totfact>
</mgrwt>
</event>
<event>
 7    1  0.4252091E-004  0.8198414E+02  0.7546771E-02  0.1365617E+00
          1   -1    0    0  502    0 -0.00000000000E+00  0.00000000000E+00  0.11374971275E+04  0.11374971275E+04  0.00000000000E+00 0. -1.
          2   -1    0    0  503    0  0.00000000000E+00 -0.00000000000E+00 -0.58482723872E+03  0.58482723872E+03  0.00000000000E+00 0. -1.
         25    2    1    2    0    0 -0.11661604375E+03  0.58901768489E+02  0.10801678582E+03  0.21061297065E+03  0.12498590879E+03 0.  0.
          4    1    3    3  501    0 -0.74762296650E+02 -0.27449401072E+02  0.74208018406E+02  0.10886373829E+03  0.12700000000E+01 0. -1.
         -4    1    3    3    0  501 -0.41853747099E+02  0.86351169561E+02  0.33808767413E+02  0.10174923235E+03  0.12700000000E+01 0. -1.
          2    1    1    2  502    0  0.78938173795E+02 -0.16039990921E+02  0.97499053173E+03  0.97831234968E+03  0.00000000000E+00 0. -1.
          1    1    1    2  503    0  0.37677869953E+02 -0.42861777568E+02 -0.53033742874E+03  0.53339904591E+03  0.00000000000E+00 0. -1.
<mgrwt>
<rscale>  0 0.68400796E+02</rscale>
<asrwt>0</asrwt>
<pdfrwt beam="2">  1        2 0.89973422E-01 0.57067976E+02</pdfrwt>
<pdfrwt beam="1">  1        1 0.17499956E+00 0.81984139E+02</pdfrwt>
<totfact> 0.10189051E+02</totfact>
</mgrwt>
</event>
<event>
 7    1  0.4252091E-004  0.1346856E+03  0.7546771E-02  0.1359330E+00
          1   -1    0    0  502    0 -0.00000000000E+00  0.00000000000E+00  0.10956525660E+04  0.10956525660E+04  0.00000000000E+00 0. -1.
          2   -1    0    0  503    0  0.00000000000E+00 -0.00000000000E+00 -0.70934711494E+03  0.70934711494E+03  0.00000000000E+00 0. -1.
         25    2    1    2    0    0  0.28227389008E+02  0.10271366924E+03 -0.13913825703E+03  0.21524153129E+03  0.12499031515E+03 0.  0.
          4    1    3    3  501    0  0.39966153337E+02  0.11219471912E+03 -0.57590515009E+02  0.13229976844E+03  0.12700000000E+01 0. -1.
         -4    1    3    3    0  501 -0.11738764328E+02 -0.94810498807E+01 -0.81547742026E+02  0.82941762848E+02  0.12700000000E+01 0. -1.
          2    1    1    2  502    0  0.20305526430E+02  0.30468904068E+02  0.10478360557E+04  0.10484755925E+04  0.00000000000E+00 0. -1.
          1    1    1    2  503    0 -0.48532915439E+02 -0.13318257331E+03 -0.52239234764E+03  0.54128255707E+03  0.00000000000E+00 0. -1.
<mgrwt>
<rscale>  0 0.70224870E+02</rscale>
<asrwt>0</asrwt>
<pdfrwt beam="2">  1        2 0.10913033E+00 0.13468560E+03</pdfrwt>
<pdfrwt beam="1">  1        1 0.16856193E+00 0.36615141E+02</pdfrwt>
<totfact> 0.90780459E+01</totfact>
</mgrwt>
</event>
<event>
 7    1  0.4252091E-004  0.1046033E+03  0.7546771E-02  0.1383028E+00
          1   -1    0    0  502    0 -0.00000000000E+00  0.00000000000E+00  0.11101358907E+04  0.11101358907E+04  0.00000000000E+00 0. -1.
          2   -1    0    0  503    0  0.00000000000E+00 -0.00000000000E+00 -0.15777660127E+04  0.15777660127E+04  0.00000000000E+00 0. -1.
         25    2    1    2    0    0 -0.22896027649E+02  0.87943791968E+02  0.36216788608E+03  0.39376267087E+03  0.12500049854E+03 0.  0.
          4    1    3    3  501    0 -0.29711356597E+02  0.55795696699E+02  0.52018851604E+02  0.81874894218E+02  0.12700000000E+01 0.  1.
         -4    1    3    3    0  501  0.68153289485E+01  0.32148095269E+02  0.31014903448E+03  0.31188777665E+03  0.12700000000E+01 0.  1.
          2    1    1    2  502    0  0.35296915013E+02  0.16015149518E+02  0.72990142573E+03  0.73092985197E+03  0.00000000000E+00 0. -1.
          1    1    1    2  503    0 -0.12400887364E+02 -0.10395894149E+03 -0.15596994338E+04  0.15632093805E+04  0.00000000000E+00 0. -1.
<mgrwt>
<rscale>  0 0.63674551E+02</rscale>
<asrwt>0</asrwt>
<pdfrwt beam="2">  1        2 0.24273323E+00 0.10460325E+03</pdfrwt>
<pdfrwt beam="1">  1        1 0.17079014E+00 0.38760253E+02</pdfrwt>
<totfact> 0.28210455E+01</totfact>
</mgrwt>
</event>
<event>
 7    1  0.4252091E-004  0.8330546E+02  0.7546771E-02  0.1345456E+00
          1   -1    0    0  502    0 -0.00000000000E+00  0.00000000000E+00  0.15358179140E+03  0.15358179140E+03  0.00000000000E+00 0. -1.
          2   -1    0    0  503    0  0.00000000000E+00 -0.00000000000E+00 -0.10625377511E+04  0.10625377511E+04  0.00000000000E+00 0. -1.
         25    2    1    2    0    0  0.59550424464E+02 -0.42141719881E+02 -0.16150487514E+03  0.21686535591E+03  0.12499832115E+03 0.  0.
          4    1    3    3  501    0 -0.28223309117E+02 -0.26299556583E+02 -0.81419513691E+01  0.39447764526E+02  0.12700000000E+01 0.  1.
         -4    1    3    3    0  501  0.87773733580E+02 -0.15842163298E+02 -0.15336292377E+03  0.17741759138E+03  0.12700000000E+01 0.  1.
          2    1    1    2  502    0 -0.50604040871E+02 -0.43311484919E+02  0.11480469198E+03  0.13272818457E+03  0.00000000000E+00 0. -1.
          1    1    1    2  503    0 -0.89463835931E+01  0.85453204800E+02 -0.86225577654E+03  0.86652600202E+03  0.00000000000E+00 0. -1.
<mgrwt>
<rscale>  0 0.74490451E+02</rscale>
<asrwt>0</asrwt>
<pdfrwt beam="2">  1        2 0.16346735E+00 0.83305455E+02</pdfrwt>
<pdfrwt beam="1">  1        1 0.23627967E-01 0.66608210E+02</pdfrwt>
<totfact> 0.69225297E+02</totfact>
</mgrwt>
</event>
<event>
 7    1  0.4252091E-004  0.1251063E+03  0.7546771E-02  0.1404330E+00
         -1   -1    0    0    0  501 -0.00000000000E+00  0.00000000000E+00  0.14640787386E+03  0.14640787386E+03  0.00000000000E+00 0.  1.
          1   -1    0    0  503    0  0.00000000000E+00 -0.00000000000E+00 -0.10278272205E+04  0.10278272205E+04  0.00000000000E+00 0. -1.
         25    2    1    2    0    0  0.75131819777E+02  0.96422289616E+02  0.22732253998E+02  0.17630550911E+03  0.12499931558E+03 0.  0.
          4    1    3    3  502    0 -0.30019789995E+02  0.41933663832E+02 -0.11833397846E+02  0.52926951152E+02  0.12700000000E+01 0. -1.
         -4    1    3    3    0  502  0.10515160977E+03  0.54488625784E+02  0.34565651844E+02  0.12337855796E+03  0.12700000000E+01 0. -1.
          2    1    1    2  503    0 -0.53624921124E+02 -0.11329355220E+03 -0.94252102355E+03  0.95081908951E+03  0.00000000000E+00 0. -1.
         -2    1    1    2    0  501 -0.21506898653E+02  0.16871262586E+02  0.38369422931E+02  0.47110495720E+02  0.00000000000E+00 0.  1.
<mgrwt>
<rscale>  0 0.58478568E+02</rscale>
<asrwt>0</asrwt>
<pdfrwt beam="2">  1        1 0.15812727E+00 0.12510626E+03</pdfrwt>
<pdfrwt beam="1">  1       -1 0.22524287E-01 0.27334707E+02</pdfrwt>
<totfact> 0.24729154E+02</totfact>
</mgrwt>
</event>
<event>
 7    1  0.4252091E-004  0.9277519E+02  0.7546771E-02  0.1413042E+00
          1   -1    0    0  502    0 -0.00000000000E+00  0.00000000000E+00  0.46438588828E+02  0.46438588828E+02  0.00000000000E+00 0. -1.
          2   -1    0    0  503    0  0.00000000000E+00 -0.00000000000E+00 -0.89325014508E+03  0.89325014508E+03  0.00000000000E+00 0. -1.
         25    2    1    2    0    0  0.11973527350E+03  0.90241152030E+01 -0.30034958656E+03  0.34677792149E+03  0.12500832896E+03 0.  0.
          4    1    3    3  501    0  0.10814516995E+02 -0.33668044392E+02 -0.16092391977E+03  0.16476835815E+03  0.12700000000E+01 0.  1.
         -4    1    3    3    0  501  0.10892075651E+03  0.42692159595E+02 -0.13942566679E+03  0.18200956334E+03  0.12700000000E+01 0.  1.
          2    1    1    2  502    0 -0.31166914368E+02 -0.14638683639E+02  0.46081005308E+01  0.34740497987E+02  0.00000000000E+00 0. -1.
          1    1    1    2  503    0 -0.88568359134E+02  0.56145684359E+01 -0.55107007022E+03  0.55817031443E+03  0.00000000000E+00 0. -1.
<mgrwt>
<rscale>  0 0.56520588E+02</rscale>
<asrwt>0</asrwt>
<pdfrwt beam="2">  1        2 0.13742309E+00 0.92775193E+02</pdfrwt>
<pdfrwt beam="1">  1        1 0.71443989E-02 0.34433525E+02</pdfrwt>
<totfact> 0.37536988E+03</totfact>
</mgrwt>
</event>
<event>
 7    1  0.4252091E-004  0.4814751E+02  0.7546771E-02  0.1530719E+00
          2   -1    0    0  503    0  0.00000000000E+00  0.00000000000E+00  0.15560191142E+03  0.15560191142E+03  0.00000000000E+00 0. -1.
          1   -1    0    0  502    0 -0.00000000000E+00 -0.00000000000E+00 -0.13427318122E+04  0.13427318122E+04  0.00000000000E+00 0. -1.
         25    2    1    2    0    0  0.23237240850E+02  0.43529836515E+01 -0.27910578236E+02  0.13024974579E+03  0.12500831202E+03 0.  0.
          4    1    3    3  501    0  0.69107188979E+02 -0.22379483751E+02 -0.25816069310E+02  0.77102057016E+02  0.12700000000E+01 0.  1.
         -4    1    3    3    0  501 -0.45869948129E+02  0.26732467402E+02 -0.20945089255E+01  0.53147688778E+02  0.12700000000E+01 0.  1.
          2    1    1    2  502    0 -0.39623779557E+02 -0.27774670354E+02 -0.12612229268E+04  0.12621508417E+04  0.00000000000E+00 0. -1.
          1    1    1    2  503    0  0.16386538708E+02  0.23421686702E+02  0.10200360421E+03  0.10593313613E+03  0.00000000000E+00 0. -1.
<mgrwt>
<rscale>  0 0.37098379E+02</rscale>
<asrwt>0</asrwt>
<pdfrwt beam="1">  1        2 0.23938756E-01 0.28584857E+02</pdfrwt>
<pdfrwt beam="2">  1        1 0.20657412E+00 0.48147511E+02</pdfrwt>
<totfact> 0.30271952E+02</totfact>
</mgrwt>
</event>
<event>
 7    1  0.4252091E-004  0.3431655E+02  0.7546771E-02  0.1614748E+00
          1   -1    0    0  502    0 -0.00000000000E+00  0.00000000000E+00  0.35396209017E+03  0.35396209017E+03  0.00000000000E+00 0. -1.
          2   -1    0    0  503    0  0.00000000000E+00 -0.00000000000E+00 -0.13286324774E+03  0.13286324774E+03  0.00000000000E+00 0. -1.
         25    2    1    2    0    0  0.44007253027E+02 -0.16372040243E+02  0.20839945698E+03  0.24750307117E+03  0.12499101785E+03 0.  0.
          4    1    3    3  501    0  0.39170578321E+02 -0.41806174374E+02  0.25406354368E+02  0.62683220753E+02  0.12700000000E+01 0. -1.
         -4    1    3    3    0  501  0.48366747062E+01  0.25434134130E+02  0.18299310262E+03  0.18481985041E+03  0.12700000000E+01 0. -1.
          2    1    1    2  502    0 -0.21712170200E+02 -0.96120317255E+01  0.12225590283E+03  0.12454041619E+03  0.00000000000E+00 0. -1.
          1    1    1    2  503    0 -0.22295082827E+02  0.25984071969E+02 -0.10955651738E+03  0.11478185055E+03  0.00000000000E+00 0. -1.
<mgrwt>
<rscale>  0 0.28545318E+02</rscale>
<asrwt>0</asrwt>
<pdfrwt beam="2">  1        2 0.20440500E-01 0.34316548E+02</pdfrwt>
<pdfrwt beam="1">  1        1 0.54455706E-01 0.23744673E+02</pdfrwt>
<totfact> 0.24358543E+03</totfact>
</mgrwt>
</event>
<event>
 7    1  0.4252091E-004  0.6903873E+02  0.7546771E-02  0.1411078E+00
          2   -1    0    0  503    0  0.00000000000E+00  0.00000000000E+00  0.23032134738E+04  0.23032134738E+04  0.00000000000E+00 0. -1.
         -2   -1    0    0    0  501 -0.00000000000E+00 -0.00000000000E+00 -0.38734419061E+03  0.38734419061E+03  0.00000000000E+00 0.  1.
         25    2    1    2    0    0  0.22224432337E+02 -0.60340541147E+02  0.19735567982E+03  0.24229891310E+03  0.12499837052E+03 0.  0.
          4    1    3    3  502    0  0.45110405722E+02 -0.41310598858E+02  0.20296369622E+03  0.21198440783E+03  0.12700000000E+01 0. -1.
         -4    1    3    3    0  502 -0.22885973385E+02 -0.19029942290E+02 -0.56080164006E+01  0.30314505262E+02  0.12700000000E+01 0. -1.
          1    1    1    2  503    0  0.38522196325E+02  0.26899793677E+02  0.20798238599E+04  0.20803545002E+04  0.00000000000E+00 0. -1.
         -1    1    1    2    0  501 -0.60746628663E+02  0.33440747470E+02 -0.36131025653E+03  0.36790425107E+03  0.00000000000E+00 0.  1.
<mgrwt>
<rscale>  0 0.56954029E+02</rscale>
<asrwt>0</asrwt>
<pdfrwt beam="1">  1        2 0.35434053E+00 0.46984662E+02</pdfrwt>
<pdfrwt beam="2">  1       -2 0.59591415E-01 0.69038729E+02</pdfrwt>
<totfact> 0.17547241E+01</totfact>
</mgrwt>
</event>
<event>
 7    1  0.4252091E-004  0.7534393E+02  0.7546771E-02  0.1368549E+00
          1   -1    0    0  502    0 -0.00000000000E+00  0.00000000000E+00  0.78232325995E+03  0.78232325995E+03  0.00000000000E+00 0. -1.
          2   -1    0    0  503    0  0.00000000000E+00 -0.00000000000E+00 -0.80258238867E+02  0.80258238867E+02  0.00000000000E+00 0. -1.
         25    2    1    2    0    0  0.19799598471E+02  0.12430782431E+02  0.12595639656E+03  0.17898657483E+03  0.12499852672E+03 0.  0.
          4    1    3    3  501    0  0.29642591200E+02 -0.53021111035E+02  0.55176878295E+02  0.82073273523E+02  0.12700000000E+01 0.  1.
         -4    1    3    3    0  501 -0.98429927285E+01  0.65451893466E+02  0.70779518269E+02  0.96913301309E+02  0.12700000000E+01 0.  1.
          2    1    1    2  502    0 -0.80301661809E+02 -0.89518573105E+01  0.60920810617E+03  0.61454292711E+03  0.00000000000E+00 0. -1.
          1    1    1    2  503    0  0.60502063337E+02 -0.34789251201E+01 -0.33099481645E+02  0.69051996881E+02  0.00000000000E+00 0. -1.
<mgrwt>
<rscale>  0 0.67572132E+02</rscale>
<asrwt>0</asrwt>
<pdfrwt beam="2">  1        2 0.12347422E-01 0.60602002E+02</pdfrwt>
<pdfrwt beam="1">  1        1 0.12035742E+00 0.75343930E+02</pdfrwt>
<totfact> 0.15689981E+03</totfact>
</mgrwt>
</event>
<event>
 7    1  0.4252091E-004  0.9772369E+02  0.7546771E-02  0.1323756E+00
          1   -1    0    0  502    0 -0.00000000000E+00  0.00000000000E+00  0.15002103191E+04  0.15002103191E+04  0.00000000000E+00 0. -1.
          2   -1    0    0  503    0  0.00000000000E+00 -0.00000000000E+00 -0.54127687839E+03  0.54127687839E+03  0.00000000000E+00 0. -1.
         25    2    1    2    0    0 -0.11734215235E+03 -0.48951385979E+02  0.16370892894E+03  0.24205605948E+03  0.12500041443E+03 0.  0.
          4    1    3    3  501    0 -0.12478980742E+03  0.39342389419E+01  0.11306436739E+03  0.16844327931E+03  0.12700000000E+01 0. -1.
         -4    1    3    3    0  501  0.74476550685E+01 -0.52885624921E+02  0.50644561544E+02  0.73612780163E+02  0.12700000000E+01 0. -1.
          2    1    1    2  502    0  0.61319532576E+02 -0.30825551812E+02  0.12916766600E+04  0.12934987026E+04  0.00000000000E+00 0. -1.
          1    1    1    2  503    0  0.56022619775E+02  0.79776937791E+02 -0.49645214821E+03  0.50593243540E+03  0.00000000000E+00 0. -1.
<mgrwt>
<rscale>  0 0.81895881E+02</rscale>
<asrwt>0</asrwt>
<pdfrwt beam="2">  1        2 0.83273366E-01 0.97723689E+02</pdfrwt>
<pdfrwt beam="1">  1        1 0.23080159E+00 0.68631623E+02</pdfrwt>
<totfact> 0.64669062E+01</totfact>
</mgrwt>
</event>
<event>
 7    1  0.4252091E-004  0.4634569E+02  0.7546771E-02  0.1569167E+00
          1   -1    0    0  502    0 -0.00000000000E+00  0.00000000000E+00  0.53259981754E+03  0.53259981754E+03  0.00000000000E+00 0. -1.
          2   -1    0    0  503    0  0.00000000000E+00 -0.00000000000E+00 -0.14158117709E+03  0.14158117709E+03  0.00000000000E+00 0. -1.
         25    2    1    2    0    0  0.56087190187E+02 -0.26638090681E+02 -0.40135352464E+02  0.14522334821E+03  0.12499445415E+03 0.  0.
          4    1    3    3  501    0  0.17760455813E+00 -0.19289017279E+01  0.42425711887E+02  0.42488894248E+02  0.12700000000E+01 0.  1.
         -4    1    3    3    0  501  0.55909585629E+02 -0.24709188953E+02 -0.82561064352E+02  0.10273445396E+03  0.12700000000E+01 0.  1.
          2    1    1    2  502    0 -0.12981088095E+02  0.19224528588E+02  0.46993188632E+03  0.47050405835E+03  0.00000000000E+00 0. -1.
          1    1    1    2  503    0 -0.43106102092E+02  0.74135620930E+01 -0.38777893402E+02  0.58453588061E+02  0.00000000000E+00 0. -1.
<mgrwt>
<rscale>  0 0.32788279E+02</rscale>
<asrwt>0</asrwt>
<pdfrwt beam="2">  1        2 0.21781720E-01 0.46345687E+02</pdfrwt>
<pdfrwt beam="1">  1        1 0.81938433E-01 0.23196792E+02</pdfrwt>
<totfact> 0.14225141E+03</totfact>
</mgrwt>
</event>
<event>
 7    1  0.4252091E-004  0.8061466E+02  0.7546771E-02  0.1406303E+00
          1   -1    0    0  502    0 -0.00000000000E+00  0.00000000000E+00  0.67329799137E+03  0.67329799137E+03  0.00000000000E+00 0. -1.
          2   -1    0    0  503    0  0.00000000000E+00 -0.00000000000E+00 -0.11726724614E+04  0.11726724614E+04  0.00000000000E+00 0. -1.
         25    2    1    2    0    0 -0.95941298197E+02 -0.51655980200E+02 -0.84800215814E+02  0.18624910622E+03  0.12499831989E+03 0.  0.
          4    1    3    3  501    0  0.61673399016E+01 -0.34667890286E+02  0.18677770175E+02  0.39879452065E+02  0.12700000000E+01 0. -1.
         -4    1    3    3    0  501 -0.10210863810E+03 -0.16988089914E+02 -0.10347798599E+03  0.14636965416E+03  0.12700000000E+01 0. -1.
          2    1    1    2  502    0  0.17186637602E+02  0.38068386225E+02  0.62033067303E+03  0.62173525430E+03  0.00000000000E+00 0. -1.
          1    1    1    2  503    0  0.78754660594E+02  0.13587593975E+02 -0.10349049272E+04  0.10379860922E+04  0.00000000000E+00 0. -1.
<mgrwt>
<rscale>  0 0.58026969E+02</rscale>
<asrwt>0</asrwt>
<pdfrwt beam="2">  1        2 0.18041114E+00 0.80614657E+02</pdfrwt>
<pdfrwt beam="1">  1        1 0.10358431E+00 0.41768200E+02</pdfrwt>
<totfact> 0.98348743E+01</totfact>
</mgrwt>
</event>
<event>
 7    1  0.4252091E-004  0.7947422E+02  0.7546771E-02  0.1415509E+00
          2   -1    0    0  503    0  0.00000000000E+00  0.00000000000E+00  0.24401978967E+03  0.24401978967E+03  0.00000000000E+00 0. -1.
          1   -1    0    0  502    0 -0.00000000000E+00 -0.00000000000E+00 -0.21004700191E+04  0.21004700191E+04  0.00000000000E+00 0. -1.
         25    2    1    2    0    0  0.43391677112E+01  0.55791631442E+02 -0.69777504211E+03  0.71108468685E+03  0.12497955020E+03 0.  0.
          4    1    3    3  501    0  0.25437883608E+02  0.63274238010E+02 -0.67728337287E+03  0.68070925893E+03  0.12700000000E+01 0.  1.
         -4    1    3    3    0  501 -0.21098715896E+02 -0.74826065679E+01 -0.20491669239E+02  0.30375427926E+02  0.12700000000E+01 0.  1.
          2    1    1    2  502    0 -0.35216118209E+02  0.17745823486E+02 -0.13890526708E+04  0.13896123241E+04  0.00000000000E+00 0. -1.
          1    1    1    2  503    0  0.30876950498E+02 -0.73537454928E+02  0.23037748346E+03  0.24379279775E+03  0.00000000000E+00 0. -1.
<mgrwt>
<rscale>  0 0.55982457E+02</rscale>
<asrwt>0</asrwt>
<pdfrwt beam="1">  1        2 0.37541505E-01 0.79474216E+02</pdfrwt>
<pdfrwt beam="2">  1        1 0.32314924E+00 0.39434620E+02</pdfrwt>
<totfact> 0.68585518E+01</totfact>
</mgrwt>
</event>
<event>
 7    1  0.4252091E-004  0.9120873E+02  0.7546771E-02  0.1416993E+00
          2   -1    0    0  503    0  0.00000000000E+00  0.00000000000E+00  0.58008552720E+03  0.58008552720E+03  0.00000000000E+00 0. -1.
          1   -1    0    0  502    0 -0.00000000000E+00 -0.00000000000E+00 -0.39028601343E+03  0.39028601343E+03  0.00000000000E+00 0. -1.
         25    2    1    2    0    0 -0.98955852997E+02  0.48527570463E+02  0.22053004594E+03  0.27641466951E+03  0.12499752965E+03 0.  0.
          4    1    3    3  501    0 -0.39735428607E+02 -0.39585496947E+02  0.10800447199E+03  0.12170659277E+03  0.12700000000E+01 0. -1.
         -4    1    3    3    0  501 -0.59220424390E+02  0.88113067410E+02  0.11252557395E+03  0.15470807673E+03  0.12700000000E+01 0. -1.
          2    1    1    2  502    0  0.89463931426E+02 -0.15911503344E+02 -0.35574767033E+03  0.36716941036E+03  0.00000000000E+00 0. -1.
          1    1    1    2  503    0  0.94919215711E+01 -0.32616067120E+02  0.32501713816E+03  0.32678746076E+03  0.00000000000E+00 0. -1.
<mgrwt>
<rscale>  0 0.55662236E+02</rscale>
<asrwt>0</asrwt>
<pdfrwt beam="1">  1        2 0.89243927E-01 0.33969169E+02</pdfrwt>
<pdfrwt beam="2">  1        1 0.60044002E-01 0.91208725E+02</pdfrwt>
<totfact> 0.47391702E+02</totfact>
</mgrwt>
</event>
<event>
 7    1  0.4252091E-004  0.1071771E+03  0.7546771E-02  0.1317441E+00
          2   -1    0    0  503    0  0.00000000000E+00  0.00000000000E+00  0.59145740772E+03  0.59145740772E+03  0.00000000000E+00 0. -1.
          1   -1    0    0  502    0 -0.00000000000E+00 -0.00000000000E+00 -0.31620366940E+03  0.31620366940E+03  0.00000000000E+00 0. -1.
         25    2    1    2    0    0 -0.59143120437E+02 -0.19262640513E+02  0.61131439048E+02  0.15241877267E+03  0.12500188562E+03 0.  0.
          4    1    3    3  501    0 -0.65932071489E+02 -0.65313402515E+02  0.44907607504E+02  0.10310763653E+03  0.12700000000E+01 0.  1.
         -4    1    3    3    0  501  0.67889510520E+01  0.46050762003E+02  0.16223831544E+02  0.49311136140E+02  0.12700000000E+01 0.  1.
          2    1    1    2  502    0  0.11085437013E+03 -0.22080662095E+02 -0.25633475045E+03  0.28014951598E+03  0.00000000000E+00 0. -1.
          1    1    1    2  503    0 -0.51711249692E+02  0.41343302608E+02  0.47045704973E+03  0.47509278847E+03  0.00000000000E+00 0. -1.
<mgrwt>
<rscale>  0 0.84236789E+02</rscale>
<asrwt>0</asrwt>
<pdfrwt beam="1">  1        2 0.90993447E-01 0.66206661E+02</pdfrwt>
<pdfrwt beam="2">  1        1 0.48646718E-01 0.10717708E+03</pdfrwt>
<totfact> 0.59327561E+02</totfact>
</mgrwt>
</event>
<event>
 7    1  0.4252091E-004  0.4980358E+02  0.7546771E-02  0.1541469E+00
          2   -1    0    0  503    0  0.00000000000E+00  0.00000000000E+00  0.23601368027E+04  0.23601368027E+04  0.00000000000E+00 0.  1.
         -2   -1    0    0    0  501 -0.00000000000E+00 -0.00000000000E+00 -0.62952433062E+01  0.62952433062E+01  0.00000000000E+00 0. -1.
         25    2    1    2    0    0  0.96854942177E+01 -0.56244200204E+02  0.12079917359E+04  0.12157775506E+04  0.12495519107E+03 0.  0.
          4    1    3    3  502    0 -0.54359975150E+02 -0.17299843470E+02  0.36185622149E+03  0.36632748929E+03  0.12700000000E+01 0. -1.
         -4    1    3    3    0  502  0.64045469368E+02 -0.38944356734E+02  0.84613551439E+03  0.84945006132E+03  0.12700000000E+01 0. -1.
          1    1    1    2  503    0  0.13812576058E+02  0.45695119267E+02  0.25484608561E+03  0.25927853465E+03  0.00000000000E+00 0. -1.
         -1    1    1    2    0  501 -0.23498070276E+02  0.10549080937E+02  0.89100373787E+03  0.89137596070E+03  0.00000000000E+00 0.  1.
<mgrwt>
<rscale>  0 0.35816329E+02</rscale>
<asrwt>0</asrwt>
<pdfrwt beam="1">  1        2 0.36309726E+00 0.49803576E+02</pdfrwt>
<pdfrwt beam="2">  1       -2 0.96850086E-03 0.25757376E+02</pdfrwt>
<totfact> 0.88608704E+03</totfact>
</mgrwt>
</event>
<event>
 7    1  0.4252091E-004  0.5968421E+02  0.7546771E-02  0.1436657E+00
          2   -1    0    0  503    0  0.00000000000E+00  0.00000000000E+00  0.14605970744E+04  0.14605970744E+04  0.00000000000E+00 0. -1.
         -2   -1    0    0    0  501 -0.00000000000E+00 -0.00000000000E+00 -0.29226446890E+02  0.29226446890E+02  0.00000000000E+00 0.  1.
         25    2    1    2    0    0 -0.14025931073E+02 -0.26745786444E+02  0.34739687351E+03  0.37043616599E+03  0.12500520596E+03 0.  0.
          4    1    3    3  502    0  0.29981562624E+01 -0.58218091987E+02  0.71665481565E+02  0.92389876737E+02  0.12700000000E+01 0.  1.
         -4    1    3    3    0  502 -0.17024087336E+02  0.31472305543E+02  0.27573139194E+03  0.27804628925E+03  0.12700000000E+01 0.  1.
          3    1    1    2  503    0 -0.44588208029E+02 -0.30358722508E+01  0.10384674852E+04  0.10394287098E+04  0.00000000000E+00 0. -1.
         -1    1    1    2    0  501  0.58614139102E+02  0.29781658695E+02  0.45506268776E+02  0.79958645531E+02  0.00000000000E+00 0.  1.
<mgrwt>
<rscale>  0 0.51646621E+02</rscale>
<asrwt>0</asrwt>
<pdfrwt beam="1">  1        2 0.22470719E+00 0.44691440E+02</pdfrwt>
<pdfrwt beam="2">  1       -2 0.44963776E-02 0.59684214E+02</pdfrwt>
<totfact> 0.32942107E+03</totfact>
</mgrwt>
</event>
<event>
 7    1  0.4252091E-004  0.5573054E+02  0.7546771E-02  0.1445124E+00
          1   -1    0    0  502    0 -0.00000000000E+00  0.00000000000E+00  0.77295486698E+02  0.77295486698E+02  0.00000000000E+00 0. -1.
          2   -1    0    0  503    0  0.00000000000E+00 -0.00000000000E+00 -0.13079361692E+04  0.13079361692E+04  0.00000000000E+00 0. -1.
         25    2    1    2    0    0 -0.20984837531E+02  0.31598177672E+02 -0.73392014099E+03  0.74545401661E+03  0.12499643712E+03 0.  0.
          4    1    3    3  501    0  0.40928257163E+02  0.44929287576E+02 -0.47614772310E+03  0.48001253132E+03  0.12700000000E+01 0. -1.
         -4    1    3    3    0  501 -0.61913094693E+02 -0.13331109905E+02 -0.25777241789E+03  0.26544148529E+03  0.12700000000E+01 0. -1.
          2    1    1    2  502    0  0.31834873690E+02  0.31707261360E+02  0.62448116513E+02  0.76932287512E+02  0.00000000000E+00 0. -1.
          1    1    1    2  503    0 -0.10850036159E+02 -0.63305439032E+02 -0.55916865806E+03  0.56284535181E+03  0.00000000000E+00 0. -1.
<mgrwt>
<rscale>  0 0.50040366E+02</rscale>
<asrwt>0</asrwt>
<pdfrwt beam="2">  1        2 0.20122095E+00 0.55730543E+02</pdfrwt>
<pdfrwt beam="1">  1        1 0.11891613E-01 0.44931165E+02</pdfrwt>
<totfact> 0.12101593E+03</totfact>
</mgrwt>
</event>
<event>
 7    1  0.4252091E-004  0.1938353E+03  0.7546771E-02  0.1221342E+00
          1   -1    0    0  502    0 -0.00000000000E+00  0.00000000000E+00  0.46723293331E+04  0.46723293331E+04  0.00000000000E+00 0. -1.
          2   -1    0    0  503    0  0.00000000000E+00 -0.00000000000E+00 -0.98984643483E+03  0.98984643483E+03  0.00000000000E+00 0. -1.
         25    2    1    2    0    0 -0.21034388580E+03 -0.48272792269E+02  0.18237973332E+02  0.25006458255E+03  0.12499943603E+03 0.  0.
          4    1    3    3  501    0 -0.14336106663E+03 -0.65549218094E+02  0.60658388828E+02  0.16890869857E+03  0.12700000000E+01 0.  1.
         -4    1    3    3    0  501 -0.66982819176E+02  0.17276425825E+02 -0.42420415496E+02  0.81155883982E+02  0.12700000000E+01 0.  1.
          2    1    1    2  502    0  0.18916051904E+03 -0.42203779859E+02  0.45336317083E+04  0.45377725072E+04  0.00000000000E+00 0. -1.
          1    1    1    2  503    0  0.21183366764E+02  0.90476572128E+02 -0.86938678332E+03  0.87433867817E+03  0.00000000000E+00 0. -1.
<mgrwt>
<rscale>  0 0.13420814E+03</rscale>
<asrwt>0</asrwt>
<pdfrwt beam="2">  1        2 0.15228407E+00 0.92923329E+02</pdfrwt>
<pdfrwt beam="1">  1        1 0.71881988E+00 0.19383534E+03</pdfrwt>
<totfact> 0.12356324E-01</totfact>
</mgrwt>
</event>
<event>
 7    1  0.4252091E-004  0.1741644E+03  0.7546771E-02  0.1221196E+00
         -1   -1    0    0    0  502 -0.00000000000E+00  0.00000000000E+00  0.77276047612E+03  0.77276047612E+03  0.00000000000E+00 0.  1.
         -2   -1    0    0    0  501  0.00000000000E+00 -0.00000000000E+00 -0.22024918220E+03  0.22024918220E+03  0.00000000000E+00 0.  1.
         25    2    1    2    0    0 -0.75111955907E+02 -0.52410922623E+02  0.39101307846E+03  0.42060133781E+03  0.12500218844E+03 0.  0.
          4    1    3    3  503    0 -0.70586574628E+02 -0.58663008824E+02  0.39900012452E+03  0.40942218478E+03  0.12700000000E+01 0. -1.
         -4    1    3    3    0  503 -0.45253812787E+01  0.62520862015E+01 -0.79870460674E+01  0.11179153030E+02  0.12700000000E+01 0. -1.
         -2    1    1    2    0  502 -0.10317618641E+03  0.91052206335E+01  0.31600388251E+03  0.33254576264E+03  0.00000000000E+00 0.  1.
         -1    1    1    2    0  501  0.17828814232E+03  0.43305701989E+02 -0.15450566705E+03  0.23986255787E+03  0.00000000000E+00 0.  1.
<mgrwt>
<rscale>  0 0.13431105E+03</rscale>
<asrwt>0</asrwt>
<pdfrwt beam="2">  1       -2 0.33884490E-01 0.17416442E+03</pdfrwt>
<pdfrwt beam="1">  1       -1 0.11888623E+00 0.10357717E+03</pdfrwt>
<totfact> 0.43132085E+01</totfact>
</mgrwt>
</event>
<event>
 7    1  0.4252091E-004  0.7730763E+02  0.7546771E-02  0.1371415E+00
          1   -1    0    0  503    0  0.00000000000E+00  0.00000000000E+00  0.85863922060E+02  0.85863922060E+02  0.00000000000E+00 0. -1.
         -1   -1    0    0    0  501 -0.00000000000E+00 -0.00000000000E+00 -0.66368631905E+03  0.66368631905E+03  0.00000000000E+00 0.  1.
         25    2    1    2    0    0 -0.48725408521E+02 -0.11336335888E+03 -0.21248545620E+03  0.27568185774E+03  0.12500000408E+03 0.  0.
          4    1    3    3  502    0 -0.16797977049E+02 -0.92199234129E+02 -0.21768488769E+03  0.23700462872E+03  0.12700000000E+01 0. -1.
         -4    1    3    3    0  502 -0.31927431473E+02 -0.21164124753E+02  0.51994314909E+01  0.38677229022E+02  0.12700000000E+01 0. -1.
          2    1    1    2  503    0  0.15910916309E+01  0.57656270720E+02  0.34645729435E+02  0.67283755052E+02  0.00000000000E+00 0. -1.
         -2    1    1    2    0  501  0.47134316890E+02  0.55707088162E+02 -0.39998267022E+03  0.40658462831E+03  0.00000000000E+00 0.  1.
<mgrwt>
<rscale>  0 0.66775492E+02</rscale>
<asrwt>0</asrwt>
<pdfrwt beam="1">  1        1 0.13209835E-01 0.57678221E+02</pdfrwt>
<pdfrwt beam="2">  1       -1 0.10210558E+00 0.77307627E+02</pdfrwt>
<totfact> 0.41668694E+02</totfact>
</mgrwt>
</event>
<event>
 7    1  0.4252091E-004  0.1837339E+03  0.7546771E-02  0.1189472E+00
          2   -1    0    0  503    0  0.00000000000E+00  0.00000000000E+00  0.21258621261E+03  0.21258621261E+03  0.00000000000E+00 0. -1.
          1   -1    0    0  502    0 -0.00000000000E+00 -0.00000000000E+00 -0.13255214408E+04  0.13255214408E+04  0.00000000000E+00 0. -1.
         25    2    1    2    0    0  0.17374936311E+03  0.86733336255E+02 -0.50563945908E+03  0.55588441175E+03  0.12499881536E+03 0.  0.
          4    1    3    3  501    0  0.27508723157E+02 -0.10718352945E+02 -0.11997825375E+02  0.31893159977E+02  0.12700000000E+01 0.  1.
         -4    1    3    3    0  501  0.14624063995E+03  0.97451689200E+02 -0.49364163371E+03  0.52399125177E+03  0.12700000000E+01 0.  1.
          2    1    1    2  502    0 -0.18855887270E+03  0.50613082215E+02 -0.75508946294E+03  0.77992065597E+03  0.00000000000E+00 0. -1.
          1    1    1    2  503    0  0.14809509598E+02 -0.13734641847E+03  0.14779369383E+03  0.20230258569E+03  0.00000000000E+00 0. -1.
<mgrwt>
<rscale>  0 0.15931561E+03</rscale>
<asrwt>0</asrwt>
<pdfrwt beam="1">  1        2 0.32705571E-01 0.13814254E+03</pdfrwt>
<pdfrwt beam="2">  1        1 0.20392638E+00 0.18373388E+03</pdfrwt>
<totfact> 0.20836457E+02</totfact>
</mgrwt>
</event>
<event>
 7    1  0.4252091E-004  0.1940950E+03  0.7546771E-02  0.1230113E+00
         -2   -1    0    0    0  501 -0.00000000000E+00  0.00000000000E+00  0.58865026293E+03  0.58865026293E+03  0.00000000000E+00 0.  1.
          2   -1    0    0  503    0  0.00000000000E+00 -0.00000000000E+00 -0.35033779583E+04  0.35033779583E+04  0.00000000000E+00 0. -1.
         25    2    1    2    0    0 -0.12206257681E+03 -0.23475810213E+03 -0.10750840236E+04  0.11141996451E+04  0.12499820902E+03 0.  0.
          4    1    3    3  502    0 -0.30871385583E+02 -0.26746544874E+02 -0.39679686725E+03  0.39889570926E+03  0.12700000000E+01 0. -1.
         -4    1    3    3    0  502 -0.91191191231E+02 -0.20801155726E+03 -0.67828715630E+03  0.71530393583E+03  0.12700000000E+01 0. -1.
          1    1    1    2  503    0  0.70324526938E+02  0.16768466442E+03 -0.24021285650E+04  0.24090008984E+04  0.00000000000E+00 0. -1.
         -1    1    1    2    0  501  0.51738049876E+02  0.67073437706E+02  0.56248489319E+03  0.56882767770E+03  0.00000000000E+00 0.  1.
<mgrwt>
<rscale>  0 0.12822504E+03</rscale>
<asrwt>0</asrwt>
<pdfrwt beam="2">  1        2 0.53898123E+00 0.19409503E+03</pdfrwt>
<pdfrwt beam="1">  1       -2 0.90561578E-01 0.84709337E+02</pdfrwt>
<totfact> 0.12071037E+00</totfact>
</mgrwt>
</event>
<event>
 7    1  0.4252091E-004  0.4236240E+02  0.7546771E-02  0.1523085E+00
         -1   -1    0    0    0  501 -0.00000000000E+00  0.00000000000E+00  0.28898739231E+02  0.28898739231E+02  0.00000000000E+00 0.  1.
          1   -1    0    0  503    0  0.00000000000E+00 -0.00000000000E+00 -0.16895821966E+04  0.16895821966E+04  0.00000000000E+00 0. -1.
         25    2    1    2    0    0  0.31594652697E+01 -0.34352331320E+02 -0.29993517018E+03  0.32676535510E+03  0.12499770437E+03 0.  0.
          4    1    3    3  502    0  0.34070930066E+02 -0.10366752920E+02 -0.28105266160E+03  0.28330285797E+03  0.12700000000E+01 0.  1.
         -4    1    3    3    0  502 -0.30911464796E+02 -0.23985578400E+02 -0.18882508579E+02  0.43462497135E+02  0.12700000000E+01 0.  1.
          2    1    1    2  503    0 -0.35664429578E+02  0.23804350370E+02 -0.13566155564E+04  0.13572930290E+04  0.00000000000E+00 0. -1.
         -2    1    1    2    0  501  0.32504964308E+02  0.10547980950E+02 -0.41327308149E+01  0.34422551776E+02  0.00000000000E+00 0.  1.
<mgrwt>
<rscale>  0 0.38048313E+02</rscale>
<asrwt>0</asrwt>
<pdfrwt beam="2">  1        1 0.25993576E+00 0.42362396E+02</pdfrwt>
<pdfrwt beam="1">  1       -1 0.44459592E-02 0.34173566E+02</pdfrwt>
<totfact> 0.11128112E+03</totfact>
</mgrwt>
</event>
<event>
 7    1  0.4252091E-004  0.1658125E+03  0.7546771E-02  0.1262829E+00
          2   -1    0    0  503    0  0.00000000000E+00  0.00000000000E+00  0.11081077139E+03  0.11081077139E+03  0.00000000000E+00 0. -1.
         -2   -1    0    0    0  501 -0.00000000000E+00 -0.00000000000E+00 -0.12754386189E+04  0.12754386189E+04  0.00000000000E+00 0.  1.
         25    2    1    2    0    0  0.18357786004E+03  0.11887567676E+03 -0.61056215260E+03  0.66048790168E+03  0.12500347534E+03 0.  0.
          4    1    3    3  502    0  0.11899554641E+03  0.74722260958E+02 -0.21214922438E+03  0.25446465895E+03  0.12700000000E+01 0.  1.
         -4    1    3    3    0  502  0.64582313628E+02  0.44153415807E+02 -0.39841292823E+03  0.40602324273E+03  0.12700000000E+01 0.  1.
          1    1    1    2  503    0 -0.14986691728E+03 -0.55962116688E+02  0.70447412409E+01  0.16012957185E+03  0.00000000000E+00 0. -1.
         -1    1    1    2    0  501 -0.33710942757E+02 -0.62913560076E+02 -0.56111043618E+03  0.56563191679E+03  0.00000000000E+00 0.  1.
<mgrwt>
<rscale>  0 0.10878899E+03</rscale>
<asrwt>0</asrwt>
<pdfrwt beam="1">  1        2 0.17047811E-01 0.16581249E+03</pdfrwt>
<pdfrwt beam="2">  1       -2 0.19622133E+00 0.71376072E+02</pdfrwt>
<totfact> 0.54979298E+01</totfact>
</mgrwt>
</event>
<event>
 7    1  0.4252091E-004  0.9231249E+02  0.7546771E-02  0.1443527E+00
          1   -1    0    0  502    0 -0.00000000000E+00  0.00000000000E+00  0.16195195436E+04  0.16195195436E+04  0.00000000000E+00 0. -1.
          2   -1    0    0  503    0  0.00000000000E+00 -0.00000000000E+00 -0.41319506182E+02  0.41319506182E+02  0.00000000000E+00 0. -1.
         25    2    1    2    0    0  0.20806548333E+02  0.81636139406E+02  0.69608000863E+03  0.71221962546E+03  0.12502817589E+03 0.  0.
          4    1    3    3  501    0  0.53311641359E+00  0.23082912492E+02  0.13387556169E+02  0.26719742184E+02  0.12700000000E+01 0. -1.
         -4    1    3    3    0  501  0.20273431919E+02  0.58553226914E+02  0.68269245246E+03  0.68549988327E+03  0.12700000000E+01 0. -1.
          2    1    1    2  502    0 -0.24851947138E+02  0.11655335432E+02  0.84914574127E+03  0.84958928668E+03  0.00000000000E+00 0. -1.
          1    1    1    2  503    0  0.40453988051E+01 -0.93291474839E+02  0.32974287552E+02  0.99030137679E+02  0.00000000000E+00 0. -1.
<mgrwt>
<rscale>  0 0.50338023E+02</rscale>
<asrwt>0</asrwt>
<pdfrwt beam="2">  1        2 0.63568484E-02 0.92312487E+02</pdfrwt>
<pdfrwt beam="1">  1        1 0.24915680E+00 0.27449337E+02</pdfrwt>
<totfact> 0.10909781E+03</totfact>
</mgrwt>
</event>
<event>
 7    1  0.4252091E-004  0.9233589E+02  0.7546771E-02  0.1324259E+00
          2   -1    0    0  503    0  0.00000000000E+00  0.00000000000E+00  0.11583338342E+04  0.11583338342E+04  0.00000000000E+00 0. -1.
          1   -1    0    0  502    0 -0.00000000000E+00 -0.00000000000E+00 -0.18866220174E+04  0.18866220174E+04  0.00000000000E+00 0. -1.
         25    2    1    2    0    0  0.61673363093E+02 -0.82977933259E+02 -0.16435082418E+03  0.23095277770E+03  0.12505619136E+03 0.  0.
          4    1    3    3  501    0  0.86214099626E+02 -0.99555790115E+02 -0.12406422954E+03  0.18093582362E+03  0.12700000000E+01 0. -1.
         -4    1    3    3    0  501 -0.24540736533E+02  0.16577856857E+02 -0.40286594640E+02  0.50016954078E+02  0.12700000000E+01 0. -1.
          2    1    1    2  502    0 -0.71754970987E+02 -0.89639463147E+01 -0.16862929780E+04  0.16878427462E+04  0.00000000000E+00 0. -1.
          1    1    1    2  503    0  0.10081607893E+02  0.91941879573E+02  0.11223556191E+04  0.11261603277E+04  0.00000000000E+00 0. -1.
<mgrwt>
<rscale>  0 0.81713272E+02</rscale>
<asrwt>0</asrwt>
<pdfrwt beam="1">  1        2 0.17820521E+00 0.92335894E+02</pdfrwt>
<pdfrwt beam="2">  1        1 0.29024954E+00 0.72312711E+02</pdfrwt>
<totfact> 0.14397776E+01</totfact>
</mgrwt>
</event>
<event>
 7    1  0.4252091E-004  0.1603361E+03  0.7546771E-02  0.1211166E+00
          2   -1    0    0  503    0  0.00000000000E+00  0.00000000000E+00  0.54629292200E+03  0.54629292200E+03  0.00000000000E+00 0. -1.
          1   -1    0    0  502    0 -0.00000000000E+00 -0.00000000000E+00 -0.78190006786E+03  0.78190006786E+03  0.00000000000E+00 0. -1.
         25    2    1    2    0    0  0.19274229865E+03 -0.31581997526E+02  0.32654810032E+02  0.23417768457E+03  0.12500334027E+03 0.  0.
          4    1    3    3  501    0  0.94069653487E+02 -0.77719595623E+02  0.68032243217E+01  0.12221837837E+03  0.12700000000E+01 0. -1.
         -4    1    3    3    0  501  0.98672645160E+02  0.46137598098E+02  0.25851585710E+02  0.11195930620E+03  0.12700000000E+01 0. -1.
          2    1    1    2  502    0 -0.87126727063E+02 -0.89755233437E+02 -0.65936309549E+03  0.67112350591E+03  0.00000000000E+00 0. -1.
          1    1    1    2  503    0 -0.10561557158E+03  0.12133723096E+03  0.39110113959E+03  0.42289179937E+03  0.00000000000E+00 0. -1.
<mgrwt>
<rscale>  0 0.14161979E+03</rscale>
<asrwt>0</asrwt>
<pdfrwt beam="1">  1        2 0.84045065E-01 0.16033614E+03</pdfrwt>
<pdfrwt beam="2">  1        1 0.12029232E+00 0.12508824E+03</pdfrwt>
<totfact> 0.19270496E+02</totfact>
</mgrwt>
</event>
<event>
 7    1  0.4252091E-004  0.6510762E+02  0.7546771E-02  0.1442759E+00
          1   -1    0    0  502    0 -0.00000000000E+00  0.00000000000E+00  0.59361585720E+03  0.59361585720E+03  0.00000000000E+00 0. -1.
          2   -1    0    0  503    0  0.00000000000E+00 -0.00000000000E+00 -0.43653839349E+03  0.43653839349E+03  0.00000000000E+00 0. -1.
         25    2    1    2    0    0  0.61279239287E+02 -0.70258163329E+01 -0.42541911100E+02  0.14573503948E+03  0.12499752105E+03 0.  0.
          4    1    3    3  501    0 -0.18428028239E+01 -0.66641527798E+01 -0.74597200969E+02  0.74927712810E+02  0.12700000000E+01 0.  1.
         -4    1    3    3    0  501  0.63122042111E+02 -0.36166355309E+00  0.32055289869E+02  0.70807326665E+02  0.12700000000E+01 0.  1.
          2    1    1    2  502    0 -0.57117709970E+02 -0.31894023518E+02  0.53891611593E+03  0.54287221474E+03  0.00000000000E+00 0. -1.
          1    1    1    2  503    0 -0.41615293176E+01  0.38919839851E+02 -0.33929674112E+03  0.34154699647E+03  0.00000000000E+00 0. -1.
<mgrwt>
<rscale>  0 0.50481904E+02</rscale>
<asrwt>0</asrwt>
<pdfrwt beam="2">  1        2 0.67159753E-01 0.39141695E+02</pdfrwt>
<pdfrwt beam="1">  1        1 0.91325517E-01 0.65107621E+02</pdfrwt>
<totfact> 0.37573107E+02</totfact>
</mgrwt>
</event>
<event>
 7    1  0.4252091E-004  0.7731119E+02  0.7546771E-02  0.1379578E+00
         -2   -1    0    0    0  501 -0.00000000000E+00  0.00000000000E+00  0.87590424251E+03  0.87590424251E+03  0.00000000000E+00 0.  1.
          2   -1    0    0  503    0  0.00000000000E+00 -0.00000000000E+00 -0.18688060660E+04  0.18688060660E+04  0.00000000000E+00 0. -1.
         25    2    1    2    0    0  0.89959265370E+02 -0.64916511510E+02 -0.33965046359E+02  0.17054027982E+03  0.12499415896E+03 0.  0.
          4    1    3    3  502    0  0.11339807286E+03 -0.27066454847E+02 -0.44464701751E+02  0.12478156317E+03  0.12700000000E+01 0. -1.
         -4    1    3    3    0  502 -0.23438807486E+02 -0.37850056664E+02  0.10499655392E+02  0.45758716647E+02  0.12700000000E+01 0. -1.
          3    1    1    2  503    0 -0.53853588471E+02 -0.29893139578E+01 -0.17643093934E+04  0.17651336438E+04  0.00000000000E+00 0. -1.
         -1    1    1    2    0  501 -0.36105676899E+02  0.67905825468E+02  0.80537261625E+03  0.80903638487E+03  0.00000000000E+00 0.  1.
<mgrwt>
<rscale>  0 0.64574719E+02</rscale>
<asrwt>0</asrwt>
<pdfrwt beam="2">  1        2 0.28750863E+00 0.53936490E+02</pdfrwt>
<pdfrwt beam="1">  1       -2 0.13475450E+00 0.77311191E+02</pdfrwt>
<totfact> 0.45839506E+00</totfact>
</mgrwt>
</event>
<event>
 7    1  0.2130280E-003  0.6947410E+02  0.7546771E-02  0.1423349E+00
          3   -1    0    0  503    0  0.00000000000E+00  0.00000000000E+00  0.87268949240E+02  0.87268949240E+02  0.00000000000E+00 0. -1.
         -3   -1    0    0    0  501 -0.00000000000E+00 -0.00000000000E+00 -0.24292153367E+03  0.24292153367E+03  0.00000000000E+00 0.  1.
         25    2    1    2    0    0 -0.50793864905E+02 -0.53464958662E+02 -0.12341148876E+02  0.14565996104E+03  0.12500400705E+03 0.  0.
          4    1    3    3  502    0 -0.15699775108E+02 -0.25493020915E+02  0.56219628074E+02  0.63707429195E+02  0.12700000000E+01 0.  1.
         -4    1    3    3    0  502 -0.35094089797E+02 -0.27971937746E+02 -0.68560776950E+02  0.81952531846E+02  0.12700000000E+01 0.  1.
          2    1    1    2  503    0 -0.18410786697E+02  0.38270967831E+02 -0.74544140244E+02  0.85793081832E+02  0.00000000000E+00 0. -1.
         -2    1    1    2    0  501  0.69204651602E+02  0.15193990830E+02 -0.68767295309E+02  0.98737440036E+02  0.00000000000E+00 0.  1.
<mgrwt>
<rscale>  0 0.54318527E+02</rscale>
<asrwt>0</asrwt>
<pdfrwt beam="1">  1        3 0.13425992E-01 0.42469095E+02</pdfrwt>
<pdfrwt beam="2">  1       -3 0.37372543E-01 0.69474104E+02</pdfrwt>
<totfact> 0.61324407E+02</totfact>
</mgrwt>
</event>
<event>
 7    1  0.4252091E-004  0.1529479E+03  0.7546771E-02  0.1280953E+00
          2   -1    0    0  503    0  0.00000000000E+00  0.00000000000E+00  0.33296744569E+03  0.33296744569E+03  0.00000000000E+00 0. -1.
          1   -1    0    0  502    0 -0.00000000000E+00 -0.00000000000E+00 -0.44009498133E+03  0.44009498133E+03  0.00000000000E+00 0. -1.
         25    2    1    2    0    0  0.35352255600E+01  0.13831767998E+03 -0.31150544502E+01  0.18648972843E+03  0.12499774730E+03 0.  0.
          4    1    3    3  501    0  0.36290272746E+02  0.19992892081E+02 -0.40691442563E+02  0.58087055594E+02  0.12700000000E+01 0. -1.
         -4    1    3    3    0  501 -0.32755047186E+02  0.11832478790E+03  0.37576388113E+02  0.12840267284E+03  0.12700000000E+01 0. -1.
          2    1    1    2  502    0 -0.68383486490E+02 -0.14236601219E+03 -0.32224774834E+03  0.35887044175E+03  0.00000000000E+00 0. -1.
          1    1    1    2  503    0  0.64848260930E+02  0.40483322113E+01  0.21823526715E+03  0.22770225683E+03  0.00000000000E+00 0. -1.
<mgrwt>
<rscale>  0 0.99688080E+02</rscale>
<asrwt>0</asrwt>
<pdfrwt beam="1">  1        2 0.51225761E-01 0.64974502E+02</pdfrwt>
<pdfrwt beam="2">  1        1 0.67706920E-01 0.15294789E+03</pdfrwt>
<totfact> 0.71629833E+02</totfact>
</mgrwt>
</event>
<event>
 7    1  0.4252091E-004  0.7373430E+02  0.7546771E-02  0.1394996E+00
          2   -1    0    0  503    0  0.00000000000E+00  0.00000000000E+00  0.49805029005E+03  0.49805029005E+03  0.00000000000E+00 0. -1.
          1   -1    0    0  502    0 -0.00000000000E+00 -0.00000000000E+00 -0.22867404718E+04  0.22867404718E+04  0.00000000000E+00 0. -1.
         25    2    1    2    0    0 -0.24009070443E+02  0.13594778900E+02 -0.14824385908E+04  0.14879547348E+04  0.12499545622E+03 0.  0.
          4    1    3    3  501    0 -0.12934295931E+02  0.22951768431E+01 -0.14620805789E+04  0.14621401424E+04  0.12700000000E+01 0.  1.
         -4    1    3    3    0  501 -0.11074774512E+02  0.11299602057E+02 -0.20358011857E+02  0.25814592460E+02  0.12700000000E+01 0.  1.
          2    1    1    2  502    0  0.53662753356E+02  0.53913781771E+02 -0.79697854054E+03  0.80060051277E+03  0.00000000000E+00 0. -1.
          1    1    1    2  503    0 -0.29653682912E+02 -0.67508560671E+02  0.49072694950E+03  0.49623551429E+03  0.00000000000E+00 0. -1.
<mgrwt>
<rscale>  0 0.60680909E+02</rscale>
<asrwt>0</asrwt>
<pdfrwt beam="1">  1        2 0.76623123E-01 0.73734298E+02</pdfrwt>
<pdfrwt beam="2">  1        1 0.35180622E+00 0.49938398E+02</pdfrwt>
<totfact> 0.24127729E+01</totfact>
</mgrwt>
</event>
<event>
 7    1  0.4252091E-004  0.1671884E+03  0.7546771E-02  0.1403703E+00
          1   -1    0    0  502    0 -0.00000000000E+00  0.00000000000E+00  0.10655748117E+04  0.10655748117E+04  0.00000000000E+00 0. -1.
          2   -1    0    0  503    0  0.00000000000E+00 -0.00000000000E+00 -0.33513797145E+03  0.33513797145E+03  0.00000000000E+00 0. -1.
         25    2    1    2    0    0  0.12311661264E+03  0.97526610458E+02 -0.48910625405E+01  0.20079423437E+03  0.12500104802E+03 0.  0.
          4    1    3    3  501    0  0.12720786354E+02 -0.20310270833E+02 -0.28876225436E+02  0.37546967950E+02  0.12700000000E+01 0. -1.
         -4    1    3    3    0  501  0.11039582628E+03  0.11783688129E+03  0.23985162896E+02  0.16324726642E+03  0.12700000000E+01 0. -1.
          2    1    1    2  502    0  0.14541090382E-01  0.20555534283E+02  0.93617226171E+03  0.93639790356E+03  0.00000000000E+00 0. -1.
          1    1    1    2  503    0 -0.12313115373E+03 -0.11808214474E+03 -0.20084435894E+03  0.26352064520E+03  0.00000000000E+00 0. -1.
<mgrwt>
<rscale>  0 0.58622932E+02</rscale>
<asrwt>0</asrwt>
<pdfrwt beam="2">  1        2 0.51559688E-01 0.16718842E+03</pdfrwt>
<pdfrwt beam="1">  1        1 0.16393459E+00 0.20555539E+02</pdfrwt>
<totfact> 0.22755441E+02</totfact>
</mgrwt>
</event>
<event>
 7    1  0.4252091E-004  0.2171860E+03  0.7546771E-02  0.1156585E+00
         -1   -1    0    0    0  501 -0.00000000000E+00  0.00000000000E+00  0.65903972399E+03  0.65903972399E+03  0.00000000000E+00 0.  1.
          1   -1    0    0  503    0  0.00000000000E+00 -0.00000000000E+00 -0.13553338792E+04  0.13553338792E+04  0.00000000000E+00 0. -1.
         25    2    1    2    0    0  0.73292466184E+02 -0.29605478845E+03 -0.18935637958E+03  0.38013005845E+03  0.12499119763E+03 0.  0.
          4    1    3    3  502    0  0.72302253701E+02 -0.61510796912E+02 -0.49847498775E+02  0.10722676933E+03  0.12700000000E+01 0.  1.
         -4    1    3    3    0  502  0.99021248369E+00 -0.23454399154E+03 -0.13950888080E+03  0.27290328912E+03  0.12700000000E+01 0.  1.
          2    1    1    2  503    0 -0.15349173087E+03  0.14627194604E+03 -0.10469138721E+04  0.10681684555E+04  0.00000000000E+00 0. -1.
         -2    1    1    2    0  501  0.80199264688E+02  0.14978284241E+03  0.53997609647E+03  0.56607508928E+03  0.00000000000E+00 0.  1.
<mgrwt>
<rscale>  0 0.19209484E+03</rscale>
<asrwt>0</asrwt>
<pdfrwt beam="2">  1        1 0.20851290E+00 0.21718605E+03</pdfrwt>
<pdfrwt beam="1">  1       -1 0.10139073E+00 0.16990239E+03</pdfrwt>
<totfact> 0.92598789E+00</totfact>
</mgrwt>
</event>
<event>
 7    1  0.4252091E-004  0.8552381E+02  0.7546771E-02  0.1431561E+00
          1   -1    0    0  503    0  0.00000000000E+00  0.00000000000E+00  0.17483641315E+04  0.17483641315E+04  0.00000000000E+00 0. -1.
         -1   -1    0    0    0  501 -0.00000000000E+00 -0.00000000000E+00 -0.25602446550E+02  0.25602446550E+02  0.00000000000E+00 0.  1.
         25    2    1    2    0    0  0.47348591936E+02 -0.83031982629E+02  0.15403214117E+04  0.15483373889E+04  0.12498967643E+03 0.  0.
          4    1    3    3  502    0  0.65600713041E+02  0.61261731516E+01  0.59081980873E+03  0.59448350931E+03  0.12700000000E+01 0. -1.
         -4    1    3    3    0  502 -0.18252121104E+02 -0.89158155780E+02  0.94950160295E+03  0.95385387957E+03  0.12700000000E+01 0. -1.
          2    1    1    2  503    0 -0.18724556493E+02  0.67831234808E+02  0.17983808084E+03  0.19311504538E+03  0.00000000000E+00 0. -1.
         -2    1    1    2    0  501 -0.28624035443E+02  0.15200747821E+02  0.26021923979E+01  0.32514143763E+02  0.00000000000E+00 0.  1.
<mgrwt>
<rscale>  0 0.52648014E+02</rscale>
<asrwt>0</asrwt>
<pdfrwt beam="1">  1        1 0.26897900E+00 0.85523806E+02</pdfrwt>
<pdfrwt beam="2">  1       -1 0.39388393E-02 0.32409846E+02</pdfrwt>
<totfact> 0.11116559E+03</totfact>
</mgrwt>
</event>
<event>
 7    1  0.4252091E-004  0.4010085E+02  0.7546771E-02  0.1605711E+00
          1   -1    0    0  503    0  0.00000000000E+00  0.00000000000E+00  0.72641045735E+03  0.72641045735E+03  0.00000000000E+00 0. -1.
         -1   -1    0    0    0  501 -0.00000000000E+00 -0.00000000000E+00 -0.11857613683E+03  0.11857613683E+03  0.00000000000E+00 0.  1.
         25    2    1    2    0    0  0.50219252166E+02  0.33895875335E+02  0.24266825715E+03  0.27961076464E+03  0.12499357191E+03 0.  0.
          4    1    3    3  502    0 -0.30760334553E+02  0.45422968423E+02  0.12263539862E+03  0.13435214229E+03  0.12700000000E+01 0. -1.
         -4    1    3    3    0  502  0.80979586719E+02 -0.11527093087E+02  0.12003285853E+03  0.14525862235E+03  0.12700000000E+01 0. -1.
          2    1    1    2  503    0 -0.33027682250E+02 -0.21085197743E+02  0.46328636024E+03  0.46494049613E+03  0.00000000000E+00 0. -1.
         -2    1    1    2    0  501 -0.17191569916E+02 -0.12810677592E+02 -0.98120296873E+02  0.10043533340E+03  0.00000000000E+00 0.  1.
<mgrwt>
<rscale>  0 0.29321543E+02</rscale>
<asrwt>0</asrwt>
<pdfrwt beam="1">  1        1 0.11175545E+00 0.40100854E+02</pdfrwt>
<pdfrwt beam="2">  1       -1 0.18242483E-01 0.21439765E+02</pdfrwt>
<totfact> 0.60744384E+02</totfact>
</mgrwt>
</event>
<event>
 7    1  0.4252091E-004  0.1518240E+03  0.7546771E-02  0.1288563E+00
          2   -1    0    0  503    0  0.00000000000E+00  0.00000000000E+00  0.11198996853E+04  0.11198996853E+04  0.00000000000E+00 0. -1.
          1   -1    0    0  502    0 -0.00000000000E+00 -0.00000000000E+00 -0.23009069583E+03  0.23009069583E+03  0.00000000000E+00 0. -1.
         25    2    1    2    0    0  0.66803920429E+02 -0.66224447635E+02 -0.55946210657E+02  0.16614226322E+03  0.12499932757E+03 0.  0.
          4    1    3    3  501    0  0.13562154396E+02  0.35528260567E+02 -0.29865101998E+02  0.48370719947E+02  0.12700000000E+01 0. -1.
         -4    1    3    3    0  501  0.53241766033E+02 -0.10175270820E+03 -0.26081108659E+02  0.11777154328E+03  0.12700000000E+01 0. -1.
          2    1    1    2  502    0  0.38492496453E+02 -0.47214206700E+02 -0.10519601219E+03  0.12156090892E+03  0.00000000000E+00 0. -1.
          1    1    1    2  503    0 -0.10529641688E+03  0.11343865434E+03  0.10509512123E+04  0.10622872090E+04  0.00000000000E+00 0. -1.
<mgrwt>
<rscale>  0 0.96169801E+02</rscale>
<asrwt>0</asrwt>
<pdfrwt beam="1">  1        2 0.17229226E+00 0.15182403E+03</pdfrwt>
<pdfrwt beam="2">  1        1 0.35398569E-01 0.60916776E+02</pdfrwt>
<totfact> 0.37897601E+02</totfact>
</mgrwt>
</event>
<event>
 7    1  0.4252091E-004  0.3936059E+02  0.7546771E-02  0.1584276E+00
         -1   -1    0    0    0  501 -0.00000000000E+00  0.00000000000E+00  0.11446714585E+03  0.11446714585E+03  0.00000000000E+00 0.  1.
          1   -1    0    0  503    0  0.00000000000E+00 -0.00000000000E+00 -0.10269937885E+04  0.10269937885E+04  0.00000000000E+00 0. -1.
         25    2    1    2    0    0  0.34838230777E+02 -0.40803219223E+01  0.33222357157E+02  0.13401536958E+03  0.12500417160E+03 0.  0.
          4    1    3    3  502    0  0.73180055111E+02 -0.20288336299E+02  0.47974261169E+02  0.89833622273E+02  0.12700000000E+01 0.  1.
         -4    1    3    3    0  502 -0.38341824334E+02  0.16208014377E+02 -0.14751904013E+02  0.44181747309E+02  0.12700000000E+01 0.  1.
          2    1    1    2  503    0 -0.33510608777E+02 -0.20754844482E+02 -0.97111881624E+03  0.97191845323E+03  0.00000000000E+00 0. -1.
         -2    1    1    2    0  501 -0.13276219996E+01  0.24835166404E+02  0.25369816416E+02  0.35527111555E+02  0.00000000000E+00 0.  1.
<mgrwt>
<rscale>  0 0.31287738E+02</rscale>
<asrwt>0</asrwt>
<pdfrwt beam="2">  1        1 0.15799904E+00 0.39360592E+02</pdfrwt>
<pdfrwt beam="1">  1       -1 0.17610330E-01 0.24870627E+02</pdfrwt>
<totfact> 0.38771536E+02</totfact>
</mgrwt>
</event>
<event>
 7    1  0.4252091E-004  0.8630201E+02  0.7546771E-02  0.1372348E+00
          2   -1    0    0  503    0  0.00000000000E+00  0.00000000000E+00  0.16780228424E+04  0.16780228424E+04  0.00000000000E+00 0. -1.
          1   -1    0    0  502    0 -0.00000000000E+00 -0.00000000000E+00 -0.20457348780E+04  0.20457348780E+04  0.00000000000E+00 0. -1.
         25    2    1    2    0    0 -0.68388784706E+02  0.77797852801E+02  0.40761115843E+02  0.16737715440E+03  0.12499644586E+03 0.  0.
          4    1    3    3  501    0 -0.68847642604E+01  0.88033720144E+02 -0.73440820644E+01  0.88616501300E+02  0.12700000000E+01 0. -1.
         -4    1    3    3    0  501 -0.61504020446E+02 -0.10235867342E+02  0.48105197907E+02  0.78760653101E+02  0.12700000000E+01 0. -1.
          2    1    1    2  502    0  0.50840885766E+02  0.66238800583E+01 -0.19809139790E+04  0.19815773676E+04  0.00000000000E+00 0. -1.
          1    1    1    2  503    0  0.17547898940E+02 -0.84421732860E+02  0.15724408276E+04  0.15748031985E+04  0.00000000000E+00 0. -1.
<mgrwt>
<rscale>  0 0.66518818E+02</rscale>
<asrwt>0</asrwt>
<pdfrwt beam="1">  1        2 0.25815736E+00 0.86302006E+02</pdfrwt>
<pdfrwt beam="2">  1        1 0.31472844E+00 0.51270571E+02</pdfrwt>
<totfact> 0.64806237E+00</totfact>
</mgrwt>
</event>
<event>
 7    1  0.4252091E-004  0.4445523E+02  0.7546771E-02  0.1573420E+00
          1   -1    0    0  502    0 -0.00000000000E+00  0.00000000000E+00  0.14432163858E+04  0.14432163858E+04  0.00000000000E+00 0. -1.
          2   -1    0    0  503    0  0.00000000000E+00 -0.00000000000E+00 -0.98839068386E+02  0.98839068386E+02  0.00000000000E+00 0. -1.
         25    2    1    2    0    0  0.66946918198E+02  0.13142215227E+01  0.58814381004E+03  0.60499772023E+03  0.12500193264E+03 0.  0.
          4    1    3    3  501    0  0.28435862178E+02  0.59571691413E+02  0.19989499651E+03  0.21051604976E+03  0.12700000000E+01 0.  1.
         -4    1    3    3    0  501  0.38511056020E+02 -0.58257469890E+02  0.38824881353E+03  0.39448167048E+03  0.12700000000E+01 0.  1.
          2    1    1    2  502    0 -0.23091899465E+02  0.46187521581E+01  0.84105554295E+03  0.84138516448E+03  0.00000000000E+00 0. -1.
          1    1    1    2  503    0 -0.43855018733E+02 -0.59329736807E+01 -0.84822035532E+02  0.95672569510E+02  0.00000000000E+00 0. -1.
<mgrwt>
<rscale>  0 0.32355659E+02</rscale>
<asrwt>0</asrwt>
<pdfrwt beam="2">  1        2 0.15206012E-01 0.44455225E+02</pdfrwt>
<pdfrwt beam="1">  1        1 0.22203328E+00 0.23549282E+02</pdfrwt>
<totfact> 0.47294270E+02</totfact>
</mgrwt>
</event>
<event>
 7    1  0.4252091E-004  0.2043652E+03  0.7546771E-02  0.1147245E+00
          2   -1    0    0  503    0  0.00000000000E+00  0.00000000000E+00  0.35365526229E+03  0.35365526229E+03  0.00000000000E+00 0. -1.
          1   -1    0    0  502    0 -0.00000000000E+00 -0.00000000000E+00 -0.54261310340E+03  0.54261310340E+03  0.00000000000E+00 0. -1.
         25    2    1    2    0    0  0.21402242333E+02 -0.96998285570E+02 -0.43172829407E+02  0.16539783219E+03  0.12500330521E+03 0.  0.
          4    1    3    3  501    0  0.69603029654E+02 -0.70425231758E+02 -0.48164689577E+02  0.11011696158E+03  0.12700000000E+01 0.  1.
         -4    1    3    3    0  501 -0.48200787321E+02 -0.26573053812E+02  0.49918601702E+01  0.55280870609E+02  0.12700000000E+01 0.  1.
          2    1    1    2  502    0 -0.13719837752E+03  0.26539187126E+03 -0.33744502002E+03  0.45069433285E+03  0.00000000000E+00 0. -1.
          1    1    1    2  503    0  0.11579613519E+03 -0.16839358569E+03  0.19166000832E+03  0.28017620066E+03  0.00000000000E+00 0. -1.
<mgrwt>
<rscale>  0 0.20298523E+03</rscale>
<asrwt>0</asrwt>
<pdfrwt beam="1">  1        2 0.54408502E-01 0.20436522E+03</pdfrwt>
<pdfrwt beam="2">  1        1 0.83478939E-01 0.20161456E+03</pdfrwt>
<totfact> 0.50802309E+02</totfact>
</mgrwt>
</event>
<event>
 7    1  0.4252091E-004  0.2927096E+02  0.7546771E-02  0.1669730E+00
          2   -1    0    0  503    0  0.00000000000E+00  0.00000000000E+00  0.58654849179E+03  0.58654849179E+03  0.00000000000E+00 0. -1.
          1   -1    0    0  502    0 -0.00000000000E+00 -0.00000000000E+00 -0.32393284173E+02  0.32393284173E+02  0.00000000000E+00 0. -1.
         25    2    1    2    0    0  0.48846165132E+02  0.42728314526E+00  0.23566260817E+03  0.27119760323E+03  0.12500057876E+03 0.  0.
          4    1    3    3  501    0  0.29693968189E+02 -0.56733725065E+02  0.17187939749E+03  0.18342460982E+03  0.12700000000E+01 0. -1.
         -4    1    3    3    0  501  0.19152196943E+02  0.57161008210E+02  0.63783210680E+02  0.87772993409E+02  0.12700000000E+01 0. -1.
          2    1    1    2  502    0 -0.20309790771E+02  0.11861851616E+01 -0.66071642655E+01  0.21390401025E+02  0.00000000000E+00 0. -1.
          1    1    1    2  503    0 -0.28536374361E+02 -0.16134683069E+01  0.32509976371E+03  0.32635377171E+03  0.00000000000E+00 0. -1.
<mgrwt>
<rscale>  0 0.24402872E+02</rscale>
<asrwt>0</asrwt>
<pdfrwt beam="1">  1        2 0.90238222E-01 0.29270962E+02</pdfrwt>
<pdfrwt beam="2">  1        1 0.49835826E-02 0.20344401E+02</pdfrwt>
<totfact> 0.94175613E+03</totfact>
</mgrwt>
</event>
<event>
 7    1  0.4252091E-004  0.8926040E+02  0.7546771E-02  0.1339112E+00
          1   -1    0    0  502    0 -0.00000000000E+00  0.00000000000E+00  0.36551366483E+03  0.36551366483E+03  0.00000000000E+00 0. -1.
          2   -1    0    0  503    0  0.00000000000E+00 -0.00000000000E+00 -0.82238248464E+03  0.82238248464E+03  0.00000000000E+00 0. -1.
         25    2    1    2    0    0  0.16021234366E+02 -0.26072342377E+02 -0.87990354456E+02  0.15592044704E+03  0.12502974182E+03 0.  0.
          4    1    3    3  501    0  0.19939601855E+02 -0.75317351315E+02 -0.42527988482E+02  0.88772370902E+02  0.12700000000E+01 0.  1.
         -4    1    3    3    0  501 -0.39183674887E+01  0.49245008938E+02 -0.45462365974E+02  0.67148076138E+02  0.12700000000E+01 0.  1.
          2    1    1    2  502    0  0.51840964405E+02 -0.40302597299E+02  0.32503400565E+03  0.33160049723E+03  0.00000000000E+00 0. -1.
          3    1    1    2  503    0 -0.67862198772E+02  0.66374939676E+02 -0.69391247100E+03  0.70037520519E+03  0.00000000000E+00 0. -1.
<mgrwt>
<rscale>  0 0.76558550E+02</rscale>
<asrwt>0</asrwt>
<pdfrwt beam="2">  1        2 0.12652038E+00 0.89260404E+02</pdfrwt>
<pdfrwt beam="1">  1        1 0.56232872E-01 0.65664183E+02</pdfrwt>
<totfact> 0.33671720E+02</totfact>
</mgrwt>
</event>
<event>
 7    1  0.4252091E-004  0.1253579E+03  0.7546771E-02  0.1368829E+00
          2   -1    0    0  503    0  0.00000000000E+00  0.00000000000E+00  0.18139825334E+03  0.18139825334E+03  0.00000000000E+00 0. -1.
         -2   -1    0    0    0  501 -0.00000000000E+00 -0.00000000000E+00 -0.62359158271E+03  0.62359158271E+03  0.00000000000E+00 0.  1.
         25    2    1    2    0    0  0.97966659952E+02 -0.23570271770E+01  0.78361324295E+02  0.17709528497E+03  0.12497688095E+03 0.  0.
          4    1    3    3  502    0  0.38524741938E+02  0.49508426325E+01  0.10468348920E+03  0.11166428433E+03  0.12700000000E+01 0.  1.
         -4    1    3    3    0  502  0.59441918014E+02 -0.73078698096E+01 -0.26322164908E+02  0.65431000633E+02  0.12700000000E+01 0.  1.
          1    1    1    2  503    0  0.27125156405E+02  0.24182166905E+02  0.39471892270E+02  0.53652414536E+02  0.00000000000E+00 0. -1.
         -1    1    1    2    0  501 -0.12509181636E+03 -0.21825139728E+02 -0.56002654593E+03  0.57424213655E+03  0.00000000000E+00 0.  1.
<mgrwt>
<rscale>  0 0.67493911E+02</rscale>
<asrwt>0</asrwt>
<pdfrwt beam="1">  1        2 0.27907423E-01 0.36339391E+02</pdfrwt>
<pdfrwt beam="2">  1       -2 0.95937167E-01 0.12535786E+03</pdfrwt>
<totfact> 0.17524024E+02</totfact>
</mgrwt>
</event>
<event>
 7    1  0.4252091E-004  0.1420507E+03  0.7546771E-02  0.1266059E+00
          2   -1    0    0  503    0  0.00000000000E+00  0.00000000000E+00  0.36383004371E+03  0.36383004371E+03  0.00000000000E+00 0. -1.
          1   -1    0    0  502    0 -0.00000000000E+00 -0.00000000000E+00 -0.52954418174E+03  0.52954418174E+03  0.00000000000E+00 0. -1.
         25    2    1    2    0    0 -0.10041454847E+03  0.10030954158E+03 -0.25499033982E+03  0.31747156340E+03  0.12499213772E+03 0.  0.
          4    1    3    3  501    0  0.79612828301E+01  0.52533433960E+02 -0.15019426099E+03  0.15932065981E+03  0.12700000000E+01 0.  1.
         -4    1    3    3    0  501 -0.10837583130E+03  0.47776107617E+02 -0.10479607883E+03  0.15815090359E+03  0.12700000000E+01 0.  1.
          2    1    1    2  502    0 -0.39660178401E+02 -0.70317342462E+02 -0.22038856766E+03  0.23470956342E+03  0.00000000000E+00 0. -1.
          1    1    1    2  503    0  0.14007472687E+03 -0.29992199115E+02  0.30966476945E+03  0.34119309864E+03  0.00000000000E+00 0. -1.
<mgrwt>
<rscale>  0 0.10708813E+03</rscale>
<asrwt>0</asrwt>
<pdfrwt beam="1">  1        2 0.55973853E-01 0.14205074E+03</pdfrwt>
<pdfrwt beam="2">  1        1 0.81468336E-01 0.80730777E+02</pdfrwt>
<totfact> 0.52211449E+02</totfact>
</mgrwt>
</event>
<event>
 7    1  0.4252091E-004  0.7386185E+02  0.7546771E-02  0.1489369E+00
          1   -1    0    0  502    0 -0.00000000000E+00  0.00000000000E+00  0.27067596358E+04  0.27067596358E+04  0.00000000000E+00 0. -1.
          2   -1    0    0  503    0  0.00000000000E+00 -0.00000000000E+00 -0.36800505015E+02  0.36800505015E+02  0.00000000000E+00 0. -1.
         25    2    1    2    0    0 -0.51175325070E+02  0.34801669153E+02  0.23674803467E+03  0.27478039829E+03  0.12499826115E+03 0.  0.
          4    1    3    3  501    0 -0.52316578193E+02  0.74036702569E+02  0.20543775325E+03  0.22455453913E+03  0.12700000000E+01 0. -1.
         -4    1    3    3    0  501  0.11412531226E+01 -0.39235033416E+02  0.31310281417E+02  0.50225859159E+02  0.12700000000E+01 0. -1.
          2    1    1    2  502    0  0.71377408086E+02 -0.20656938045E+02  0.24415999255E+04  0.24427303657E+04  0.00000000000E+00 0. -1.
          1    1    1    2  503    0 -0.20202083016E+02 -0.14144731108E+02 -0.83888293366E+01  0.26049376843E+02  0.00000000000E+00 0. -1.
<mgrwt>
<rscale>  0 0.42679690E+02</rscale>
<asrwt>0</asrwt>
<pdfrwt beam="2">  1        2 0.56616183E-02 0.24661662E+02</pdfrwt>
<pdfrwt beam="1">  1        1 0.41642440E+00 0.73861849E+02</pdfrwt>
<totfact> 0.20385245E+02</totfact>
</mgrwt>
</event>
<event>
 7    1  0.4252091E-004  0.6629796E+02  0.7546771E-02  0.1423166E+00
          2   -1    0    0  503    0  0.00000000000E+00  0.00000000000E+00  0.27003568205E+04  0.27003568205E+04  0.00000000000E+00 0. -1.
          1   -1    0    0  502    0 -0.00000000000E+00 -0.00000000000E+00 -0.97675021354E+02  0.97675021354E+02  0.00000000000E+00 0. -1.
         25    2    1    2    0    0 -0.12315688758E+02 -0.39713269884E+02  0.93416480997E+02  0.16150163504E+03  0.12500927647E+03 0.  0.
          4    1    3    3  501    0 -0.12831854974E+02  0.65603806979E+01  0.11103115968E+03  0.11196975671E+03  0.12700000000E+01 0.  1.
         -4    1    3    3    0  501  0.51616621548E+00 -0.46273650582E+02 -0.17614678685E+02  0.49531878330E+02  0.12700000000E+01 0.  1.
          2    1    1    2  502    0 -0.44344140581E+02  0.44414589693E+01 -0.55341559381E+02  0.71055031886E+02  0.00000000000E+00 0. -1.
          1    1    1    2  503    0  0.56659829340E+02  0.35271810915E+02  0.25646068776E+04  0.25654751750E+04  0.00000000000E+00 0. -1.
<mgrwt>
<rscale>  0 0.54356559E+02</rscale>
<asrwt>0</asrwt>
<pdfrwt beam="1">  1        2 0.41543945E+00 0.66297957E+02</pdfrwt>
<pdfrwt beam="2">  1        1 0.15026928E-01 0.44566011E+02</pdfrwt>
<totfact> 0.17633659E+02</totfact>
</mgrwt>
</event>
<event>
 7    1  0.4252091E-004  0.8204723E+02  0.7546771E-02  0.1463631E+00
         -2   -1    0    0    0  501 -0.00000000000E+00  0.00000000000E+00  0.99512541113E+02  0.99512541113E+02  0.00000000000E+00 0.  1.
          2   -1    0    0  503    0  0.00000000000E+00 -0.00000000000E+00 -0.12272883850E+04  0.12272883850E+04  0.00000000000E+00 0. -1.
         25    2    1    2    0    0 -0.10643026118E+03  0.15852904826E+02 -0.44180976127E+03  0.47159495954E+03  0.12500890219E+03 0.  0.
          4    1    3    3  502    0 -0.12196457483E+03  0.20328268165E+02 -0.24809539448E+03  0.27720305493E+03  0.12700000000E+01 0. -1.
         -4    1    3    3    0  502  0.15534313654E+02 -0.44753633389E+01 -0.19371436680E+03  0.19439190462E+03  0.12700000000E+01 0. -1.
          1    1    1    2  503    0  0.26438347804E+02 -0.33661655382E+01 -0.75093047420E+03  0.75140328345E+03  0.00000000000E+00 0. -1.
         -1    1    1    2    0  501  0.79991913375E+02 -0.12486739288E+02  0.64964391537E+02  0.10380268316E+03  0.00000000000E+00 0.  1.
<mgrwt>
<rscale>  0 0.46762214E+02</rscale>
<asrwt>0</asrwt>
<pdfrwt beam="2">  1        2 0.18881359E+00 0.26651779E+02</pdfrwt>
<pdfrwt beam="1">  1       -2 0.15309622E-01 0.82047233E+02</pdfrwt>
<totfact> 0.70871047E+02</totfact>
</mgrwt>
</event>
<event>
 7    1  0.4252091E-004  0.6160859E+02  0.7546771E-02  0.1483537E+00
          1   -1    0    0  503    0  0.00000000000E+00  0.00000000000E+00  0.22377570023E+03  0.22377570023E+03  0.00000000000E+00 0. -1.
         -1   -1    0    0    0  501 -0.00000000000E+00 -0.00000000000E+00 -0.84226512671E+02  0.84226512671E+02  0.00000000000E+00 0.  1.
         25    2    1    2    0    0 -0.84892233660E+02  0.18551398469E+02  0.77522368693E+02  0.17083658016E+03  0.12499829500E+03 0.  0.
          4    1    3    3  502    0  0.32480912738E+02  0.28485536589E+01  0.25849329667E+02  0.41628412106E+02  0.12700000000E+01 0. -1.
         -4    1    3    3    0  502 -0.11737314640E+03  0.15702844810E+02  0.51673039026E+02  0.12920816806E+03  0.12700000000E+01 0. -1.
          2    1    1    2  503    0  0.30782983134E+02 -0.98661387709E+00  0.72997420469E+02  0.79228712300E+02  0.00000000000E+00 0. -1.
         -2    1    1    2    0  501  0.54109250526E+02 -0.17564784592E+02 -0.10970601603E+02  0.57936920437E+02  0.00000000000E+00 0.  1.
<mgrwt>
<rscale>  0 0.43559959E+02</rscale>
<asrwt>0</asrwt>
<pdfrwt beam="1">  1        1 0.34427031E-01 0.30798790E+02</pdfrwt>
<pdfrwt beam="2">  1       -1 0.12957925E-01 0.61608589E+02</pdfrwt>
<totfact> 0.46113383E+03</totfact>
</mgrwt>
</event>
<event>
 7    1  0.4252091E-004  0.2280010E+03  0.7546771E-02  0.1260799E+00
          2   -1    0    0  503    0  0.00000000000E+00  0.00000000000E+00  0.89692967616E+03  0.89692967616E+03  0.00000000000E+00 0. -1.
          1   -1    0    0  502    0 -0.00000000000E+00 -0.00000000000E+00 -0.24915566448E+03  0.24915566448E+03  0.00000000000E+00 0. -1.
         25    2    1    2    0    0  0.12386646663E+03  0.24014218172E+03  0.37721905859E+02  0.30009573164E+03  0.12499334770E+03 0.  0.
          4    1    3    3  501    0  0.19380950736E+02  0.50435073227E+02  0.61894014755E+02  0.82169336284E+02  0.12700000000E+01 0. -1.
         -4    1    3    3    0  501  0.10448551590E+03  0.18970710849E+03 -0.24172108897E+02  0.21792639535E+03  0.12700000000E+01 0. -1.
          2    1    1    2  502    0 -0.35780899059E+01 -0.52829514259E+02 -0.93832849115E+02  0.10774211747E+03  0.00000000000E+00 0. -1.
          1    1    1    2  503    0 -0.12028837673E+03 -0.18731266746E+03  0.70388495494E+03  0.73824749153E+03  0.00000000000E+00 0. -1.
<mgrwt>
<rscale>  0 0.10987620E+03</rscale>
<asrwt>0</asrwt>
<pdfrwt beam="1">  1        2 0.13798918E+00 0.22800103E+03</pdfrwt>
<pdfrwt beam="2">  1        1 0.38331641E-01 0.52950546E+02</pdfrwt>
<totfact> 0.45961694E+02</totfact>
</mgrwt>
</event>
<event>
 7    1  0.4252091E-004  0.5821509E+02  0.7546771E-02  0.1441665E+00
          2   -1    0    0  503    0  0.00000000000E+00  0.00000000000E+00  0.75142703513E+03  0.75142703513E+03  0.00000000000E+00 0. -1.
          1   -1    0    0  502    0 -0.00000000000E+00 -0.00000000000E+00 -0.12897369409E+03  0.12897369409E+03  0.00000000000E+00 0. -1.
         25    2    1    2    0    0  0.65307401409E+02  0.70736146969E+02  0.14057441423E+03  0.21131527344E+03  0.12499727870E+03 0.  0.
          4    1    3    3  501    0 -0.36533009398E+02  0.28580031903E+02  0.30436453997E+02  0.55492969205E+02  0.12700000000E+01 0.  1.
         -4    1    3    3    0  501  0.10184041081E+03  0.42156115066E+02  0.11013796023E+03  0.15582230423E+03  0.12700000000E+01 0.  1.
          2    1    1    2  502    0 -0.17075600349E+02 -0.40697289554E+02 -0.86905409010E+02  0.97469972912E+02  0.00000000000E+00 0. -1.
          1    1    1    2  503    0 -0.48231801061E+02 -0.30038857416E+02  0.56878433582E+03  0.57161548288E+03  0.00000000000E+00 0. -1.
<mgrwt>
<rscale>  0 0.50688145E+02</rscale>
<asrwt>0</asrwt>
<pdfrwt beam="1">  1        2 0.11560416E+00 0.58215086E+02</pdfrwt>
<pdfrwt beam="2">  1        1 0.19842107E-01 0.44134403E+02</pdfrwt>
<totfact> 0.13307810E+03</totfact>
</mgrwt>
</event>
<event>
 7    1  0.4252091E-004  0.3068551E+02  0.7546771E-02  0.1590886E+00
         -2   -1    0    0    0  501 -0.00000000000E+00  0.00000000000E+00  0.43082721206E+02  0.43082721206E+02  0.00000000000E+00 0.  1.
          2   -1    0    0  503    0  0.00000000000E+00 -0.00000000000E+00 -0.62387343381E+03  0.62387343381E+03  0.00000000000E+00 0. -1.
         25    2    1    2    0    0  0.38790973380E+02 -0.92020068203E+01 -0.74691038020E+02  0.15097291410E+03  0.12499861233E+03 0.  0.
          4    1    3    3  502    0 -0.45118327783E+02 -0.93489620166E+01 -0.16967138586E+02  0.49117850976E+02  0.12700000000E+01 0. -1.
         -4    1    3    3    0  502  0.83909301163E+02  0.14695519627E+00 -0.57723899434E+02  0.10185506312E+03  0.12700000000E+01 0. -1.
          1    1    1    2  503    0 -0.24792633234E+02 -0.18104535110E+02 -0.45735552816E+03  0.45838469433E+03  0.00000000000E+00 0. -1.
         -1    1    1    2    0  501 -0.13998340146E+02  0.27306541930E+02 -0.48744146426E+02  0.57598546595E+02  0.00000000000E+00 0.  1.
<mgrwt>
<rscale>  0 0.30661801E+02</rscale>
<asrwt>0</asrwt>
<pdfrwt beam="2">  1        2 0.95980518E-01 0.30638106E+02</pdfrwt>
<pdfrwt beam="1">  1       -2 0.66281116E-02 0.30685514E+02</pdfrwt>
<totfact> 0.53036926E+03</totfact>
</mgrwt>
</event>
<event>
 7    1  0.4252091E-004  0.8591647E+02  0.7546771E-02  0.1450401E+00
          1   -1    0    0  502    0 -0.00000000000E+00  0.00000000000E+00  0.37191329364E+03  0.37191329364E+03  0.00000000000E+00 0. -1.
          2   -1    0    0  503    0  0.00000000000E+00 -0.00000000000E+00 -0.28488650146E+03  0.28488650146E+03  0.00000000000E+00 0. -1.
         25    2    1    2    0    0 -0.36306607286E+01  0.11236748713E+03 -0.19874187398E+03  0.26031307800E+03  0.12499972897E+03 0.  0.
          4    1    3    3  501    0  0.89473081749E+01  0.61487232121E+02 -0.19837750920E+03  0.20788454271E+03  0.12700000000E+01 0.  1.
         -4    1    3    3    0  501 -0.12577968904E+02  0.50880255011E+02 -0.36436477834E+00  0.52428535297E+02  0.12700000000E+01 0.  1.
          2    1    1    2  502    0 -0.33962576108E+01 -0.85232437989E+02  0.33180189777E+03  0.34259101333E+03  0.00000000000E+00 0. -1.
          1    1    1    2  503    0  0.70269183394E+01 -0.27135049143E+02 -0.46033231597E+02  0.53895703768E+02  0.00000000000E+00 0. -1.
<mgrwt>
<rscale>  0 0.49073925E+02</rscale>
<asrwt>0</asrwt>
<pdfrwt beam="2">  1        2 0.43828692E-01 0.28030135E+02</pdfrwt>
<pdfrwt beam="1">  1        1 0.57217430E-01 0.85916466E+02</pdfrwt>
<totfact> 0.10338872E+03</totfact>
</mgrwt>
</event>
<event>
 7    1  0.4252091E-004  0.7610227E+02  0.7546771E-02  0.1374285E+00
          2   -1    0    0  503    0  0.00000000000E+00  0.00000000000E+00  0.10309387737E+04  0.10309387737E+04  0.00000000000E+00 0. -1.
          1   -1    0    0  502    0 -0.00000000000E+00 -0.00000000000E+00 -0.10664793710E+04  0.10664793710E+04  0.00000000000E+00 0. -1.
         25    2    1    2    0    0  0.95631579515E+02  0.13200499222E+02 -0.15586364721E+03  0.22189477779E+03  0.12499665478E+03 0.  0.
          4    1    3    3  501    0  0.41693052783E+02 -0.50742755855E+02 -0.33696676250E+02  0.73825583726E+02  0.12700000000E+01 0.  1.
         -4    1    3    3    0  501  0.53938526732E+02  0.63943255077E+02 -0.12216697096E+03  0.14806919406E+03  0.12700000000E+01 0.  1.
          2    1    1    2  502    0 -0.54472125552E+02 -0.52952300039E+02 -0.87513296586E+03  0.87842408122E+03  0.00000000000E+00 0. -1.
          1    1    1    2  503    0 -0.41159453963E+02  0.39751800817E+02  0.99545601570E+03  0.99709928568E+03  0.00000000000E+00 0. -1.
<mgrwt>
<rscale>  0 0.65990077E+02</rscale>
<asrwt>0</asrwt>
<pdfrwt beam="1">  1        2 0.15860597E+00 0.57221555E+02</pdfrwt>
<pdfrwt beam="2">  1        1 0.16407375E+00 0.76102272E+02</pdfrwt>
<totfact> 0.58322980E+01</totfact>
</mgrwt>
</event>
<event>
 7    1  0.4252091E-004  0.7423799E+02  0.7546771E-02  0.1403095E+00
          2   -1    0    0  503    0  0.00000000000E+00  0.00000000000E+00  0.38335847534E+03  0.38335847534E+03  0.00000000000E+00 0. -1.
          1   -1    0    0  502    0 -0.00000000000E+00 -0.00000000000E+00 -0.40768640367E+03  0.40768640367E+03  0.00000000000E+00 0. -1.
         25    2    1    2    0    0 -0.88500436656E+02  0.29047587736E+02  0.11384325688E+03  0.19303026066E+03  0.12499721898E+03 0.  0.
          4    1    3    3  501    0 -0.66618457306E+02 -0.41957619813E+02  0.40197122518E+02  0.88407478603E+02  0.12700000000E+01 0. -1.
         -4    1    3    3    0  501 -0.21881979350E+02  0.71005207549E+02  0.73646134361E+02  0.10462278206E+03  0.12700000000E+01 0. -1.
          2    1    1    2  502    0  0.39322167989E+02  0.24846983416E+02 -0.36077399068E+03  0.36376019275E+03  0.00000000000E+00 0. -1.
          1    1    1    2  503    0  0.49178268667E+02 -0.53894571152E+02  0.22260280547E+03  0.23425442560E+03  0.00000000000E+00 0. -1.
<mgrwt>
<rscale>  0 0.58763495E+02</rscale>
<asrwt>0</asrwt>
<pdfrwt beam="1">  1        2 0.58978227E-01 0.74237990E+02</pdfrwt>
<pdfrwt beam="2">  1        1 0.62720986E-01 0.46514573E+02</pdfrwt>
<totfact> 0.69301768E+02</totfact>
</mgrwt>
</event>
<event>
 7    1  0.4252091E-004  0.6167522E+02  0.7546771E-02  0.1450908E+00
          1   -1    0    0  502    0 -0.00000000000E+00  0.00000000000E+00  0.29694766020E+03  0.29694766020E+03  0.00000000000E+00 0. -1.
          2   -1    0    0  503    0  0.00000000000E+00 -0.00000000000E+00 -0.41591623947E+03  0.41591623947E+03  0.00000000000E+00 0. -1.
         25    2    1    2    0    0  0.92854325720E+02 -0.87869718316E+01  0.90527369577E+02  0.18033106743E+03  0.12499981024E+03 0.  0.
          4    1    3    3  501    0 -0.14977677610E+02  0.31090320854E+02  0.89452660786E+00  0.34544926621E+02  0.12700000000E+01 0. -1.
         -4    1    3    3    0  501  0.10783200333E+03 -0.39877292686E+02  0.89632842970E+02  0.14578614081E+03  0.12700000000E+01 0. -1.
          2    1    1    2  502    0 -0.55184817288E+02  0.18501018281E+02  0.15520674402E+03  0.16576122926E+03  0.00000000000E+00 0. -1.
          1    1    1    2  503    0 -0.37669508432E+02 -0.97140464494E+01 -0.36470269287E+03  0.36677160298E+03  0.00000000000E+00 0. -1.
<mgrwt>
<rscale>  0 0.48982451E+02</rscale>
<asrwt>0</asrwt>
<pdfrwt beam="2">  1        2 0.63987114E-01 0.38901858E+02</pdfrwt>
<pdfrwt beam="1">  1        1 0.45684255E-01 0.61675216E+02</pdfrwt>
<totfact> 0.93369928E+02</totfact>
</mgrwt>
</event>
<event>
 7    1  0.4252091E-004  0.1783497E+03  0.7546771E-02  0.1233243E+00
         -2   -1    0    0    0  501 -0.00000000000E+00  0.00000000000E+00  0.16399802588E+03  0.16399802588E+03  0.00000000000E+00 0.  1.
          2   -1    0    0  503    0  0.00000000000E+00 -0.00000000000E+00 -0.17466941986E+04  0.17466941986E+04  0.00000000000E+00 0. -1.
         25    2    1    2    0    0  0.92115829522E+02  0.18179769465E+03 -0.19593640540E+03  0.30911284482E+03  0.12499579210E+03 0.  0.
          4    1    3    3  502    0  0.46296326451E+02  0.85504813607E+02 -0.17533484318E+03  0.20049524465E+03  0.12700000000E+01 0. -1.
         -4    1    3    3    0  502  0.45819503071E+02  0.96292881043E+02 -0.20601562222E+02  0.10861760017E+03  0.12700000000E+01 0. -1.
          1    1    1    2  503    0 -0.29467085782E+01 -0.17767488934E+03 -0.14692973449E+04  0.14800039653E+04  0.00000000000E+00 0. -1.
         -1    1    1    2    0  501 -0.89169120944E+02 -0.41228053070E+01  0.82537577643E+02  0.12157541436E+03  0.00000000000E+00 0.  1.
<mgrwt>
<rscale>  0 0.12617556E+03</rscale>
<asrwt>0</asrwt>
<pdfrwt beam="2">  1        2 0.26872217E+00 0.17834966E+03</pdfrwt>
<pdfrwt beam="1">  1       -2 0.25230467E-01 0.89264381E+02</pdfrwt>
<totfact> 0.14395033E+02</totfact>
</mgrwt>
</event>
<event>
 7    1  0.4252091E-004  0.6744393E+02  0.7546771E-02  0.1371284E+00
          1   -1    0    0  502    0 -0.00000000000E+00  0.00000000000E+00  0.39654575160E+03  0.39654575160E+03  0.00000000000E+00 0. -1.
          2   -1    0    0  503    0  0.00000000000E+00 -0.00000000000E+00 -0.11454796551E+04  0.11454796551E+04  0.00000000000E+00 0. -1.
         25    2    1    2    0    0 -0.54297301642E+02  0.11383078351E+02 -0.22619064353E+02  0.13861066687E+03  0.12499409370E+03 0.  0.
          4    1    3    3  501    0 -0.32111227589E+02  0.62591551054E+02  0.14148141487E+02  0.71767792276E+02  0.12700000000E+01 0. -1.
         -4    1    3    3    0  501 -0.22186074053E+02 -0.51208472703E+02 -0.36767205840E+02  0.66842874592E+02  0.12700000000E+01 0. -1.
          2    1    1    2  502    0  0.18177878838E+02 -0.66843686814E+02  0.33396382711E+03  0.34107235532E+03  0.00000000000E+00 0. -1.
          1    1    1    2  503    0  0.36119422804E+02  0.55460608463E+02 -0.10602786663E+04  0.10623423845E+04  0.00000000000E+00 0. -1.
<mgrwt>
<rscale>  0 0.66811645E+02</rscale>
<asrwt>0</asrwt>
<pdfrwt beam="2">  1        2 0.17622764E+00 0.66185284E+02</pdfrwt>
<pdfrwt beam="1">  1        1 0.61007039E-01 0.67443934E+02</pdfrwt>
<totfact> 0.19947921E+02</totfact>
</mgrwt>
</event>
<event>
 7    1  0.4252091E-004  0.1359858E+03  0.7546771E-02  0.1336008E+00
          1   -1    0    0  502    0 -0.00000000000E+00  0.00000000000E+00  0.20225758498E+03  0.20225758498E+03  0.00000000000E+00 0. -1.
          2   -1    0    0  503    0  0.00000000000E+00 -0.00000000000E+00 -0.67025679768E+03  0.67025679768E+03  0.00000000000E+00 0. -1.
         25    2    1    2    0    0  0.91702652088E+00 -0.96507504953E+02 -0.25486885016E+03  0.29982770407E+03  0.12499592752E+03 0.  0.
          4    1    3    3  501    0 -0.60573462966E+02 -0.63152898214E+02 -0.13047506651E+03  0.15710757095E+03  0.12700000000E+01 0.  1.
         -4    1    3    3    0  501  0.61490489487E+02 -0.33354606739E+02 -0.12439378364E+03  0.14272013312E+03  0.12700000000E+01 0.  1.
          2    1    1    2  502    0 -0.11880286544E+02  0.13940957138E+03  0.15100962974E+03  0.20586422243E+03  0.00000000000E+00 0. -1.
          1    1    1    2  503    0  0.10963260023E+02 -0.42902066430E+02 -0.36413999228E+03  0.36682245617E+03  0.00000000000E+00 0. -1.
<mgrwt>
<rscale>  0 0.77598618E+02</rscale>
<asrwt>0</asrwt>
<pdfrwt beam="2">  1        2 0.10311643E+00 0.44280700E+02</pdfrwt>
<pdfrwt beam="1">  1        1 0.31116551E-01 0.13598578E+03</pdfrwt>
<totfact> 0.90634275E+02</totfact>
</mgrwt>
</event>
<event>
 7    1  0.4252091E-004  0.4262136E+02  0.7546771E-02  0.1547537E+00
          2   -1    0    0  503    0  0.00000000000E+00  0.00000000000E+00  0.65121212927E+03  0.65121212927E+03  0.00000000000E+00 0. -1.
          1   -1    0    0  502    0 -0.00000000000E+00 -0.00000000000E+00 -0.75559673068E+02  0.75559673068E+02  0.00000000000E+00 0. -1.
         25    2    1    2    0    0  0.28076110167E+01  0.42691197533E+02  0.49220866964E+03  0.50963061236E+03  0.12499426209E+03 0.  0.
          4    1    3    3  501    0 -0.60111624967E+02  0.31475423884E+02  0.27126675078E+03  0.27962720315E+03  0.12700000000E+01 0.  1.
         -4    1    3    3    0  501  0.62919235983E+02  0.11215773649E+02  0.22094191886E+03  0.23000340920E+03  0.12700000000E+01 0.  1.
          2    1    1    2  502    0  0.27491070656E+02 -0.90392040910E+01 -0.60056900391E+02  0.66665564282E+02  0.00000000000E+00 0. -1.
          1    1    1    2  503    0 -0.30298681673E+02 -0.33651993442E+02  0.14350068695E+03  0.15047562570E+03  0.00000000000E+00 0. -1.
<mgrwt>
<rscale>  0 0.35120080E+02</rscale>
<asrwt>0</asrwt>
<pdfrwt beam="1">  1        2 0.10018648E+00 0.42621364E+02</pdfrwt>
<pdfrwt beam="2">  1        1 0.11624566E-01 0.28939008E+02</pdfrwt>
<totfact> 0.29777722E+03</totfact>
</mgrwt>
</event>
<event>
 7    1  0.4252091E-004  0.9408031E+02  0.7546771E-02  0.1407185E+00
          2   -1    0    0  503    0  0.00000000000E+00  0.00000000000E+00  0.26469238181E+04  0.26469238181E+04  0.00000000000E+00 0. -1.
         -2   -1    0    0    0  501 -0.00000000000E+00 -0.00000000000E+00 -0.23573214387E+03  0.23573214387E+03  0.00000000000E+00 0.  1.
         25    2    1    2    0    0  0.55515741211E+02 -0.25540426194E+02  0.33262729814E+03  0.36055886656E+03  0.12500986320E+03 0.  0.
          4    1    3    3  502    0  0.19379408176E+02 -0.50692778836E+02  0.30217016308E+03  0.30700771919E+03  0.12700000000E+01 0. -1.
         -4    1    3    3    0  502  0.36136333035E+02  0.25152352642E+02  0.30457135060E+02  0.53551147371E+02  0.12700000000E+01 0. -1.
          1    1    1    2  503    0 -0.89415178783E+02  0.36224749872E+02  0.22978878943E+04  0.22999121899E+04  0.00000000000E+00 0. -1.
         -1    1    1    2    0  501  0.33899437572E+02 -0.10684323678E+02 -0.21932351813E+03  0.22218490553E+03  0.00000000000E+00 0.  1.
<mgrwt>
<rscale>  0 0.57826683E+02</rscale>
<asrwt>0</asrwt>
<pdfrwt beam="1">  1        2 0.40721903E+00 0.94080310E+02</pdfrwt>
<pdfrwt beam="2">  1       -2 0.36266485E-01 0.35543307E+02</pdfrwt>
<totfact> 0.27080398E+01</totfact>
</mgrwt>
</event>
<event>
 7    1  0.4252091E-004  0.8782565E+02  0.7546771E-02  0.1312711E+00
          1   -1    0    0  502    0 -0.00000000000E+00  0.00000000000E+00  0.99978296483E+03  0.99978296483E+03  0.00000000000E+00 0. -1.
          2   -1    0    0  503    0  0.00000000000E+00 -0.00000000000E+00 -0.61350113895E+03  0.61350113895E+03  0.00000000000E+00 0. -1.
         25    2    1    2    0    0  0.45461162536E+02 -0.39113848405E+02  0.31539218141E+03  0.34452355307E+03  0.12501055990E+03 0.  0.
          4    1    3    3  501    0 -0.28175476242E+02 -0.23164930397E+02  0.24326958739E+02  0.43862116721E+02  0.12700000000E+01 0.  1.
         -4    1    3    3    0  501  0.73636638778E+02 -0.15948918008E+02  0.29106522267E+03  0.30066143634E+03  0.12700000000E+01 0.  1.
          2    1    1    2  502    0  0.34504912532E+02  0.76924880403E+02  0.66387859981E+03  0.66921059578E+03  0.00000000000E+00 0. -1.
          1    1    1    2  503    0 -0.79966075069E+02 -0.37811031998E+02 -0.59298895534E+03  0.59954995493E+03  0.00000000000E+00 0. -1.
<mgrwt>
<rscale>  0 0.86049418E+02</rscale>
<asrwt>0</asrwt>
<pdfrwt beam="2">  1        2 0.94384791E-01 0.87825648E+02</pdfrwt>
<pdfrwt beam="1">  1        1 0.15381276E+00 0.84309111E+02</pdfrwt>
<totfact> 0.11924271E+02</totfact>
</mgrwt>
</event>
<event>
 7    1  0.4252091E-004  0.6647752E+02  0.7546771E-02  0.1462938E+00
          1   -1    0    0  502    0 -0.00000000000E+00  0.00000000000E+00  0.19342123831E+03  0.19342123831E+03  0.00000000000E+00 0. -1.
          2   -1    0    0  503    0  0.00000000000E+00 -0.00000000000E+00 -0.30499416527E+03  0.30499416527E+03  0.00000000000E+00 0. -1.
         25    2    1    2    0    0  0.10310960576E+02 -0.38231543433E+02 -0.81660407581E+02  0.15447169421E+03  0.12500046130E+03 0.  0.
          4    1    3    3  501    0  0.99062451183E+01  0.37471880344E+02  0.53311181269E+01  0.39144721603E+02  0.12700000000E+01 0. -1.
         -4    1    3    3    0  501  0.40471545794E+00 -0.75703423777E+02 -0.86991525708E+02  0.11532697261E+03  0.12700000000E+01 0. -1.
          2    1    1    2  502    0  0.18488871942E+02 -0.27405565773E+02  0.14825627109E+03  0.15189741715E+03  0.00000000000E+00 0. -1.
          1    1    1    2  503    0 -0.28799832518E+02  0.65637109206E+02 -0.17816879047E+03  0.19204629222E+03  0.00000000000E+00 0. -1.
<mgrwt>
<rscale>  0 0.46879486E+02</rscale>
<asrwt>0</asrwt>
<pdfrwt beam="2">  1        2 0.46922179E-01 0.66477517E+02</pdfrwt>
<pdfrwt beam="1">  1        1 0.29757114E-01 0.33059090E+02</pdfrwt>
<totfact> 0.21193559E+03</totfact>
</mgrwt>
</event>
<event>
 7    1  0.4252091E-004  0.1221611E+03  0.7546771E-02  0.1386698E+00
          2   -1    0    0  503    0  0.00000000000E+00  0.00000000000E+00  0.10232532766E+04  0.10232532766E+04  0.00000000000E+00 0. -1.
          1   -1    0    0  502    0 -0.00000000000E+00 -0.00000000000E+00 -0.43310967263E+03  0.43310967263E+03  0.00000000000E+00 0. -1.
         25    2    1    2    0    0 -0.56293330593E+02  0.80012058989E+02 -0.17435551345E+03  0.23579241926E+03  0.12500940467E+03 0.  0.
          4    1    3    3  501    0 -0.12929843121E+02 -0.29893831353E+01 -0.13257003542E+03  0.13323867474E+03  0.12700000000E+01 0. -1.
         -4    1    3    3    0  501 -0.43363487472E+02  0.83001442124E+02 -0.41785478022E+02  0.10255374451E+03  0.12700000000E+01 0. -1.
          2    1    1    2  502    0  0.57013534153E+01  0.31709158402E+02 -0.22308550527E+03  0.22539990865E+03  0.00000000000E+00 0. -1.
          1    1    1    2  503    0  0.50591977178E+02 -0.11172121739E+03  0.98758462268E+03  0.99517062131E+03  0.00000000000E+00 0. -1.
<mgrwt>
<rscale>  0 0.62735489E+02</rscale>
<asrwt>0</asrwt>
<pdfrwt beam="1">  1        2 0.15742358E+00 0.12216109E+03</pdfrwt>
<pdfrwt beam="2">  1        1 0.66632258E-01 0.32217637E+02</pdfrwt>
<totfact> 0.20467362E+02</totfact>
</mgrwt>
</event>
<event>
 7    1  0.4252091E-004  0.3803168E+02  0.7546771E-02  0.1555536E+00
          2   -1    0    0  503    0  0.00000000000E+00  0.00000000000E+00  0.29809992874E+03  0.29809992874E+03  0.00000000000E+00 0. -1.
          1   -1    0    0  502    0 -0.00000000000E+00 -0.00000000000E+00 -0.10881697531E+04  0.10881697531E+04  0.00000000000E+00 0. -1.
         25    2    1    2    0    0 -0.12691189311E+02  0.56426073862E+01 -0.16599875768E+03  0.20826061422E+03  0.12499596225E+03 0.  0.
          4    1    3    3  501    0 -0.45489818714E+02 -0.29052275347E+02 -0.14745096164E+03  0.15702470282E+03  0.12700000000E+01 0.  1.
         -4    1    3    3    0  501  0.32798629403E+02  0.34694882733E+02 -0.18547796048E+02  0.51235911398E+02  0.12700000000E+01 0.  1.
          2    1    1    2  502    0  0.12662446222E+02 -0.36453080890E+02 -0.89976836024E+03  0.90059550673E+03  0.00000000000E+00 0. -1.
          1    1    1    2  503    0  0.28743089920E-01  0.30810473504E+02  0.27569729355E+03  0.27741356091E+03  0.00000000000E+00 0. -1.
<mgrwt>
<rscale>  0 0.34231192E+02</rscale>
<asrwt>0</asrwt>
<pdfrwt beam="1">  1        2 0.45861527E-01 0.30810487E+02</pdfrwt>
<pdfrwt beam="2">  1        1 0.16741073E+00 0.38031677E+02</pdfrwt>
<totfact> 0.23367145E+02</totfact>
</mgrwt>
</event>
<event>
 7    1  0.4252091E-004  0.5422278E+02  0.7546771E-02  0.1543203E+00
          2   -1    0    0  503    0  0.00000000000E+00  0.00000000000E+00  0.72851971847E+03  0.72851971847E+03  0.00000000000E+00 0. -1.
          1   -1    0    0  502    0 -0.00000000000E+00 -0.00000000000E+00 -0.86995692733E+03  0.86995692733E+03  0.00000000000E+00 0. -1.
         25    2    1    2    0    0 -0.48122279415E+02  0.51271565112E+02  0.18963883384E+02  0.14466866977E+03  0.12499947189E+03 0.  0.
          4    1    3    3  501    0 -0.76655912188E+02  0.61999713031E+02  0.41256258354E+02  0.10688210815E+03  0.12700000000E+01 0. -1.
         -4    1    3    3    0  501  0.28533632773E+02 -0.10728147919E+02 -0.22292374970E+02  0.37786561616E+02  0.12700000000E+01 0. -1.
          2    1    1    2  502    0  0.46289339246E+02 -0.27950055970E+02 -0.80598676655E+03  0.80779859892E+03  0.00000000000E+00 0. -1.
          1    1    1    2  503    0  0.18329401682E+01 -0.23321509142E+02  0.64558567431E+03  0.64600937712E+03  0.00000000000E+00 0. -1.
<mgrwt>
<rscale>  0 0.35615398E+02</rscale>
<asrwt>0</asrwt>
<pdfrwt beam="1">  1        2 0.11207996E+00 0.23393428E+02</pdfrwt>
<pdfrwt beam="2">  1        1 0.13383953E+00 0.54222776E+02</pdfrwt>
<totfact> 0.13059994E+02</totfact>
</mgrwt>
</event>
<event>
 7    1  0.4252091E-004  0.3835520E+02  0.7546771E-02  0.1588984E+00
          1   -1    0    0  502    0 -0.00000000000E+00  0.00000000000E+00  0.40024621298E+03  0.40024621298E+03  0.00000000000E+00 0. -1.
          2   -1    0    0  503    0  0.00000000000E+00 -0.00000000000E+00 -0.65412606743E+02  0.65412606743E+02  0.00000000000E+00 0. -1.
         25    2    1    2    0    0  0.48320240839E+02 -0.91706326802E+01  0.59778860907E+02  0.14702774408E+03  0.12499879655E+03 0.  0.
          4    1    3    3  501    0  0.80826195692E+02 -0.34761792921E+02  0.58409003410E+02  0.10561477518E+03  0.12700000000E+01 0.  1.
         -4    1    3    3    0  501 -0.32505954854E+02  0.25591160241E+02  0.13698574972E+01  0.41412968899E+02  0.12700000000E+01 0.  1.
          2    1    1    2  502    0 -0.36144643999E+02 -0.12431929780E+02  0.28809110385E+03  0.29061567798E+03  0.00000000000E+00 0. -1.
          1    1    1    2  503    0 -0.12175596839E+02  0.21602562460E+02 -0.13036358517E+02  0.28015397670E+02  0.00000000000E+00 0. -1.
<mgrwt>
<rscale>  0 0.30840119E+02</rscale>
<asrwt>0</asrwt>
<pdfrwt beam="2">  1        2 0.10063478E-01 0.24797497E+02</pdfrwt>
<pdfrwt beam="1">  1        1 0.61576339E-01 0.38355200E+02</pdfrwt>
<totfact> 0.45278377E+03</totfact>
</mgrwt>
</event>
<event>
 7    1  0.4252091E-004  0.1276834E+03  0.7546771E-02  0.1326882E+00
          1   -1    0    0  502    0 -0.00000000000E+00  0.00000000000E+00  0.97506617147E+03  0.97506617147E+03  0.00000000000E+00 0. -1.
          2   -1    0    0  503    0  0.00000000000E+00 -0.00000000000E+00 -0.21569767153E+04  0.21569767153E+04  0.00000000000E+00 0. -1.
         25    2    1    2    0    0  0.81706937462E+02 -0.13751090687E+02 -0.29277483577E+03  0.32895084126E+03  0.12500574139E+03 0.  0.
          4    1    3    3  501    0  0.44758142684E+02 -0.32750286261E+02 -0.30310885372E+02  0.63215783304E+02  0.12700000000E+01 0.  1.
         -4    1    3    3    0  501  0.36948794778E+02  0.18999195574E+02 -0.26246395040E+03  0.26573505796E+03  0.12700000000E+01 0.  1.
          2    1    1    2  502    0 -0.11854656694E+03  0.49153596672E+02  0.95231979670E+03  0.96092786398E+03  0.00000000000E+00 0. -1.
          1    1    1    2  503    0  0.36839629477E+02 -0.35402505986E+02 -0.18414555048E+04  0.18421641816E+04  0.00000000000E+00 0. -1.
<mgrwt>
<rscale>  0 0.80769596E+02</rscale>
<asrwt>0</asrwt>
<pdfrwt beam="2">  1        2 0.33184257E+00 0.51093011E+02</pdfrwt>
<pdfrwt beam="1">  1        1 0.15001018E+00 0.12768337E+03</pdfrwt>
<totfact> 0.17931670E+01</totfact>
</mgrwt>
</event>
<event>
 7    1  0.4252091E-004  0.1202122E+03  0.7546771E-02  0.1268653E+00
          1   -1    0    0  502    0 -0.00000000000E+00  0.00000000000E+00  0.45590685900E+02  0.45590685900E+02  0.00000000000E+00 0. -1.
          2   -1    0    0  503    0  0.00000000000E+00 -0.00000000000E+00 -0.97874916359E+03  0.97874916359E+03  0.00000000000E+00 0. -1.
         25    2    1    2    0    0 -0.62010193580E+02 -0.37070510703E+02 -0.30256038582E+03  0.33524188909E+03  0.12499940104E+03 0.  0.
          4    1    3    3  501    0 -0.73463719664E+02 -0.61021083924E+02 -0.29097282160E+03  0.30624710056E+03  0.12700000000E+01 0.  1.
         -4    1    3    3    0  501  0.11453526084E+02  0.23950573221E+02 -0.11587564221E+02  0.28994788531E+02  0.12700000000E+01 0.  1.
          2    1    1    2  502    0  0.12577344803E+03  0.10480328804E+03 -0.26201475574E+03  0.30895698995E+03  0.00000000000E+00 0. -1.
          1    1    1    2  503    0 -0.63763254449E+02 -0.67732777338E+02 -0.36858333613E+03  0.38014097046E+03  0.00000000000E+00 0. -1.
<mgrwt>
<rscale>  0 0.10574796E+03</rscale>
<asrwt>0</asrwt>
<pdfrwt beam="2">  1        2 0.15057679E+00 0.93024092E+02</pdfrwt>
<pdfrwt beam="1">  1        1 0.70139521E-02 0.12021221E+03</pdfrwt>
<totfact> 0.38001145E+03</totfact>
</mgrwt>
</event>
<event>
 7    1  0.4252091E-004  0.7701270E+02  0.7546771E-02  0.1368849E+00
          1   -1    0    0  502    0 -0.00000000000E+00  0.00000000000E+00  0.43203443794E+02  0.43203443794E+02  0.00000000000E+00 0. -1.
          2   -1    0    0  503    0  0.00000000000E+00 -0.00000000000E+00 -0.14938800322E+04  0.14938800322E+04  0.00000000000E+00 0. -1.
         25    2    1    2    0    0 -0.85104981906E+02 -0.28820835105E+02 -0.11106771820E+04  0.11212947789E+04  0.12499872038E+03 0.  0.
          4    1    3    3  501    0 -0.41074523921E+02  0.20109850125E+02 -0.88573594340E+03  0.88691673618E+03  0.12700000000E+01 0. -1.
         -4    1    3    3    0  501 -0.44030457986E+02 -0.48930685229E+02 -0.22494123862E+03  0.23437804274E+03  0.12700000000E+01 0. -1.
          2    1    1    2  502    0  0.14507083220E+02  0.57334567740E+02  0.78895769624E+01  0.59665346275E+02  0.00000000000E+00 0. -1.
          1    1    1    2  503    0  0.70597898687E+02 -0.28513732636E+02 -0.34788898336E+03  0.35612335081E+03  0.00000000000E+00 0. -1.
<mgrwt>
<rscale>  0 0.67488079E+02</rscale>
<asrwt>0</asrwt>
<pdfrwt beam="2">  1        2 0.22982766E+00 0.77012699E+02</pdfrwt>
<pdfrwt beam="1">  1        1 0.66466846E-02 0.59141425E+02</pdfrwt>
<totfact> 0.20560586E+03</totfact>
</mgrwt>
</event>
<event>
 7    1  0.4252091E-004  0.3357204E+02  0.7546771E-02  0.1605339E+00
          1   -1    0    0  502    0 -0.00000000000E+00  0.00000000000E+00  0.14189895388E+04  0.14189895388E+04  0.00000000000E+00 0. -1.
          2   -1    0    0  503    0  0.00000000000E+00 -0.00000000000E+00 -0.24960618092E+03  0.24960618092E+03  0.00000000000E+00 0. -1.
         25    2    1    2    0    0  0.41721169895E+02  0.40484846296E+02  0.45015830901E+02  0.14502319294E+03  0.12500249062E+03 0.  0.
          4    1    3    3  501    0 -0.20444862423E+02 -0.70327582619E+01  0.61366638778E+02  0.65076334740E+02  0.12700000000E+01 0. -1.
         -4    1    3    3    0  501  0.62166032318E+02  0.47517604558E+02 -0.16350807877E+02  0.79946858196E+02  0.12700000000E+01 0. -1.
          2    1    1    2  502    0 -0.19968325335E+02 -0.26862413130E+02  0.13229323867E+04  0.13233557432E+04  0.00000000000E+00 0. -1.
          1    1    1    2  503    0 -0.21752844561E+02 -0.13622433166E+02 -0.19856485970E+03  0.20021678361E+03  0.00000000000E+00 0. -1.
<mgrwt>
<rscale>  0 0.29354196E+02</rscale>
<asrwt>0</asrwt>
<pdfrwt beam="2">  1        2 0.38400952E-01 0.25666261E+02</pdfrwt>
<pdfrwt beam="1">  1        1 0.21830608E+00 0.33572044E+02</pdfrwt>
<totfact> 0.17281135E+02</totfact>
</mgrwt>
</event>
<event>
 7    1  0.4252091E-004  0.2017684E+03  0.7546771E-02  0.1263597E+00
         -2   -1    0    0    0  501 -0.00000000000E+00  0.00000000000E+00  0.90776412419E+02  0.90776412419E+02  0.00000000000E+00 0.  1.
          2   -1    0    0  503    0  0.00000000000E+00 -0.00000000000E+00 -0.23760594702E+04  0.23760594702E+04  0.00000000000E+00 0. -1.
         25    2    1    2    0    0 -0.23091030672E+02 -0.17697778828E+03 -0.12277143642E+04  0.12469006470E+04  0.12499732101E+03 0.  0.
          4    1    3    3  502    0 -0.63149589167E+02 -0.90205365629E+02 -0.85770824434E+03  0.86474847436E+03  0.12700000000E+01 0. -1.
         -4    1    3    3    0  502  0.40058558496E+02 -0.86772422653E+02 -0.37000611984E+03  0.38215217265E+03  0.12700000000E+01 0. -1.
          1    1    1    2  503    0  0.57006060382E+02  0.22429673171E+03 -0.11146387298E+04  0.11384103886E+04  0.00000000000E+00 0. -1.
         -1    1    1    2    0  501 -0.33915029710E+02 -0.47318943432E+02  0.57070036232E+02  0.81524847030E+02  0.00000000000E+00 0.  1.
<mgrwt>
<rscale>  0 0.10838132E+03</rscale>
<asrwt>0</asrwt>
<pdfrwt beam="2">  1        2 0.36554756E+00 0.20176837E+03</pdfrwt>
<pdfrwt beam="1">  1       -2 0.13965604E-01 0.58217795E+02</pdfrwt>
<totfact> 0.17389246E+02</totfact>
</mgrwt>
</event>
<event>
 7    1  0.4252091E-004  0.5348777E+02  0.7546771E-02  0.1496077E+00
          1   -1    0    0  502    0 -0.00000000000E+00  0.00000000000E+00  0.46333038106E+03  0.46333038106E+03  0.00000000000E+00 0. -1.
          2   -1    0    0  503    0  0.00000000000E+00 -0.00000000000E+00 -0.84368697576E+03  0.84368697576E+03  0.00000000000E+00 0. -1.
         25    2    1    2    0    0 -0.27618062839E+02  0.74285780328E+02  0.26967783584E+03  0.30762719680E+03  0.12500888975E+03 0.  0.
          4    1    3    3  501    0 -0.70270350323E+02  0.40244587987E+02  0.96136849228E+02  0.12570384114E+03  0.12700000000E+01 0.  1.
         -4    1    3    3    0  501  0.42652287484E+02  0.34041192341E+02  0.17354098661E+03  0.18192335567E+03  0.12700000000E+01 0.  1.
          2    1    1    2  502    0  0.80164164661E+01 -0.48354226593E+02  0.17091154253E+03  0.17780087045E+03  0.00000000000E+00 0. -1.
          1    1    1    2  503    0  0.19601646373E+02 -0.25931553735E+02 -0.82094597307E+03  0.82158928956E+03  0.00000000000E+00 0. -1.
<mgrwt>
<rscale>  0 0.41697701E+02</rscale>
<asrwt>0</asrwt>
<pdfrwt beam="2">  1        2 0.12979799E+00 0.32506461E+02</pdfrwt>
<pdfrwt beam="1">  1        1 0.71281598E-01 0.53487773E+02</pdfrwt>
<totfact> 0.25488680E+02</totfact>
</mgrwt>
</event>
<event>
 7    1  0.4252091E-004  0.9901574E+02  0.7546771E-02  0.1399242E+00
          2   -1    0    0  503    0  0.00000000000E+00  0.00000000000E+00  0.10306931163E+04  0.10306931163E+04  0.00000000000E+00 0. -1.
          1   -1    0    0  502    0 -0.00000000000E+00 -0.00000000000E+00 -0.57244308960E+03  0.57244308960E+03  0.00000000000E+00 0. -1.
         25    2    1    2    0    0 -0.14537633778E+01 -0.88861515400E+02  0.44630480425E+03  0.47192194691E+03  0.12499545324E+03 0.  0.
          4    1    3    3  501    0 -0.58204074872E+02 -0.15258592755E+02  0.18834089295E+03  0.19772314949E+03  0.12700000000E+01 0.  1.
         -4    1    3    3    0  501  0.56750311494E+02 -0.73602922646E+02  0.25796391130E+03  0.27419879742E+03  0.12700000000E+01 0.  1.
          2    1    1    2  502    0 -0.34852422580E+02 -0.88292621672E+01 -0.55429656706E+03  0.55546136813E+03  0.00000000000E+00 0. -1.
          1    1    1    2  503    0  0.36306185958E+02  0.97690777568E+02  0.56624178949E+03  0.57575289085E+03  0.00000000000E+00 0. -1.
<mgrwt>
<rscale>  0 0.59665340E+02</rscale>
<asrwt>0</asrwt>
<pdfrwt beam="1">  1        2 0.15856817E+00 0.99015739E+02</pdfrwt>
<pdfrwt beam="2">  1        1 0.88068168E-01 0.35953404E+02</pdfrwt>
<totfact> 0.14500393E+02</totfact>
</mgrwt>
</event>
<event>
 7    1  0.4252091E-004  0.9787935E+02  0.7546771E-02  0.1316962E+00
         -1   -1    0    0    0  501 -0.00000000000E+00  0.00000000000E+00  0.12576847490E+03  0.12576847490E+03  0.00000000000E+00 0.  1.
          1   -1    0    0  503    0  0.00000000000E+00 -0.00000000000E+00 -0.19735684855E+04  0.19735684855E+04  0.00000000000E+00 0. -1.
         25    2    1    2    0    0 -0.15358051962E+03 -0.48252226828E+02 -0.27733935576E+03  0.34417070112E+03  0.12498439845E+03 0.  0.
          4    1    3    3  502    0 -0.10528253493E+03  0.59221853096E+01 -0.24085176708E+03  0.26292712117E+03  0.12700000000E+01 0. -1.
         -4    1    3    3    0  502 -0.48297984691E+02 -0.54174412138E+02 -0.36487588676E+02  0.81243579950E+02  0.12700000000E+01 0. -1.
          2    1    1    2  503    0  0.60603015082E+02  0.40351949962E+02 -0.16382261517E+04  0.16398432637E+04  0.00000000000E+00 0. -1.
         -2    1    1    2    0  501  0.92977504535E+02  0.79002768659E+01  0.67765496930E+02  0.11532299553E+03  0.00000000000E+00 0.  1.
<mgrwt>
<rscale>  0 0.84418008E+02</rscale>
<asrwt>0</asrwt>
<pdfrwt beam="2">  1        1 0.30362589E+00 0.72808003E+02</pdfrwt>
<pdfrwt beam="1">  1       -1 0.19348998E-01 0.97879352E+02</pdfrwt>
<totfact> 0.85023452E+01</totfact>
</mgrwt>
</event>
<event>
 7    1  0.4252091E-004  0.1251841E+03  0.7546771E-02  0.1236310E+00
          2   -1    0    0  503    0  0.00000000000E+00  0.00000000000E+00  0.67727866218E+03  0.67727866218E+03  0.00000000000E+00 0. -1.
          1   -1    0    0  502    0 -0.00000000000E+00 -0.00000000000E+00 -0.81468655474E+03  0.81468655474E+03  0.00000000000E+00 0. -1.
         25    2    1    2    0    0 -0.68017305279E+02 -0.16579090855E+03 -0.16487501941E+03  0.27371820525E+03  0.12499961876E+03 0.  0.
          4    1    3    3  501    0  0.25358592719E+02 -0.61610731501E+02 -0.98350855688E+02  0.11880001757E+03  0.12700000000E+01 0.  1.
         -4    1    3    3    0  501 -0.93375897997E+02 -0.10418017704E+03 -0.66524163719E+02  0.15491818768E+03  0.12700000000E+01 0.  1.
          2    1    1    2  502    0 -0.44509429369E+02  0.11552693247E+03 -0.58272599737E+03  0.59573244787E+03  0.00000000000E+00 0. -1.
          1    1    1    2  503    0  0.11252673465E+03  0.50263976076E+02  0.61019312422E+03  0.62251456380E+03  0.00000000000E+00 0. -1.
<mgrwt>
<rscale>  0 0.12420953E+03</rscale>
<asrwt>0</asrwt>
<pdfrwt beam="1">  1        2 0.10419672E+00 0.12324258E+03</pdfrwt>
<pdfrwt beam="2">  1        1 0.12533639E+00 0.12518407E+03</pdfrwt>
<totfact> 0.14255397E+02</totfact>
</mgrwt>
</event>
<event>
 7    1  0.4252091E-004  0.6755622E+02  0.7546771E-02  0.1372359E+00
          2   -1    0    0  503    0  0.00000000000E+00  0.00000000000E+00  0.10002886545E+04  0.10002886545E+04  0.00000000000E+00 0. -1.
         -2   -1    0    0    0  501 -0.00000000000E+00 -0.00000000000E+00 -0.60424280065E+02  0.60424280065E+02  0.00000000000E+00 0.  1.
         25    2    1    2    0    0 -0.13115997692E+02  0.69928484116E+02  0.43660701072E+03  0.45968992386E+03  0.12500848773E+03 0.  0.
          4    1    3    3  502    0 -0.57603852798E+02  0.19781975911E+02  0.10517385064E+03  0.12154292322E+03  0.12700000000E+01 0. -1.
         -4    1    3    3    0  502  0.44487855106E+02  0.50146508205E+02  0.33143316008E+03  0.33814700063E+03  0.12700000000E+01 0. -1.
          1    1    1    2  503    0 -0.50098137361E+02 -0.42181634737E+02  0.52467097136E+03  0.52874260455E+03  0.00000000000E+00 0. -1.
         -1    1    1    2    0  501  0.63214135053E+02 -0.27746849379E+02 -0.21413607649E+02  0.72280406152E+02  0.00000000000E+00 0.  1.
<mgrwt>
<rscale>  0 0.66515762E+02</rscale>
<asrwt>0</asrwt>
<pdfrwt beam="1">  1        2 0.15389055E+00 0.65491325E+02</pdfrwt>
<pdfrwt beam="2">  1       -2 0.92960438E-02 0.67556223E+02</pdfrwt>
<totfact> 0.19201177E+03</totfact>
</mgrwt>
</event>
<event>
 7    1  0.4252091E-004  0.6926059E+02  0.7546771E-02  0.1384219E+00
          1   -1    0    0  502    0 -0.00000000000E+00  0.00000000000E+00  0.11745964781E+04  0.11745964781E+04  0.00000000000E+00 0. -1.
          2   -1    0    0  503    0  0.00000000000E+00 -0.00000000000E+00 -0.14803852577E+04  0.14803852577E+04  0.00000000000E+00 0. -1.
         25    2    1    2    0    0 -0.56814831614E+02 -0.81617546505E+02 -0.76702084859E+02  0.17719479328E+03  0.12500174381E+03 0.  0.
          4    1    3    3  501    0 -0.22610252177E+02  0.31557294725E+02 -0.33561223164E+02  0.51332786347E+02  0.12700000000E+01 0.  1.
         -4    1    3    3    0  501 -0.34204579437E+02 -0.11317484123E+03 -0.43140861695E+02  0.12586200694E+03  0.12700000000E+01 0.  1.
          2    1    1    2  502    0 -0.78476321891E+01  0.57442450036E+02  0.11227213912E+04  0.11242173023E+04  0.00000000000E+00 0. -1.
          1    1    1    2  503    0  0.64662463804E+02  0.24175096470E+02 -0.13518080860E+04  0.13535696402E+04  0.00000000000E+00 0. -1.
<mgrwt>
<rscale>  0 0.63367612E+02</rscale>
<asrwt>0</asrwt>
<pdfrwt beam="2">  1        2 0.22775158E+00 0.69260590E+02</pdfrwt>
<pdfrwt beam="1">  1        1 0.18070715E+00 0.57976033E+02</pdfrwt>
<totfact> 0.28722636E+01</totfact>
</mgrwt>
</event>
<event>
 7    1  0.4252091E-004  0.3469650E+02  0.7546771E-02  0.1614927E+00
          1   -1    0    0  502    0 -0.00000000000E+00  0.00000000000E+00  0.42169736079E+02  0.42169736079E+02  0.00000000000E+00 0. -1.
          2   -1    0    0  503    0  0.00000000000E+00 -0.00000000000E+00 -0.12141486847E+04  0.12141486847E+04  0.00000000000E+00 0. -1.
         25    2    1    2    0    0  0.46210019562E+02  0.30811407677E+02 -0.57620812242E+03  0.59222055106E+03  0.12499868804E+03 0.  0.
          4    1    3    3  501    0  0.87219583093E+02  0.64923759732E+01 -0.32745530217E+03  0.33893656404E+03  0.12700000000E+01 0.  1.
         -4    1    3    3    0  501 -0.41009563531E+02  0.24319031704E+02 -0.24875282025E+03  0.25328398703E+03  0.12700000000E+01 0.  1.
          2    1    1    2  502    0 -0.23432422154E+02 -0.25195030613E+02  0.25222257762E+02  0.42661812693E+02  0.00000000000E+00 0. -1.
          1    1    1    2  503    0 -0.22777597408E+02 -0.56163770642E+01 -0.62099308398E+03  0.62143605704E+03  0.00000000000E+00 0. -1.
<mgrwt>
<rscale>  0 0.28530218E+02</rscale>
<asrwt>0</asrwt>
<pdfrwt beam="2">  1        2 0.18679209E+00 0.23459809E+02</pdfrwt>
<pdfrwt beam="1">  1        1 0.64876524E-02 0.34696503E+02</pdfrwt>
<totfact> 0.30552316E+03</totfact>
</mgrwt>
</event>
<event>
 7    1  0.4252091E-004  0.4875756E+02  0.7546771E-02  0.1457620E+00
          2   -1    0    0  503    0  0.00000000000E+00  0.00000000000E+00  0.22302546972E+04  0.22302546972E+04  0.00000000000E+00 0. -1.
         -2   -1    0    0    0  501 -0.00000000000E+00 -0.00000000000E+00 -0.27263167718E+03  0.27263167718E+03  0.00000000000E+00 0.  1.
         25    2    1    2    0    0 -0.71363329484E+01 -0.35461733189E+02 -0.68717169535E+02  0.14716150722E+03  0.12500399214E+03 0.  0.
          4    1    3    3  502    0 -0.65468300754E+02 -0.24281643611E+02 -0.45644717116E+02  0.83431107632E+02  0.12700000000E+01 0. -1.
         -4    1    3    3    0  502  0.58331967806E+02 -0.11180089577E+02 -0.23072452419E+02  0.63730399588E+02  0.12700000000E+01 0. -1.
          1    1    1    2  503    0  0.48228834091E+02  0.71609361207E+01  0.21869755005E+04  0.21875189460E+04  0.00000000000E+00 0. -1.
         -1    1    1    2    0  501 -0.41092501142E+02  0.28300797068E+02 -0.16063531097E+03  0.16820592110E+03  0.00000000000E+00 0.  1.
<mgrwt>
<rscale>  0 0.47793352E+02</rscale>
<asrwt>0</asrwt>
<pdfrwt beam="1">  1        2 0.34311609E+00 0.48757558E+02</pdfrwt>
<pdfrwt beam="2">  1       -2 0.41943337E-01 0.46848213E+02</pdfrwt>
<totfact> 0.37449951E+01</totfact>
</mgrwt>
</event>
<event>
 7    1  0.4252091E-004  0.3197981E+02  0.7546771E-02  0.1596696E+00
          1   -1    0    0  502    0 -0.00000000000E+00  0.00000000000E+00  0.11690979644E+04  0.11690979644E+04  0.00000000000E+00 0. -1.
          2   -1    0    0  503    0  0.00000000000E+00 -0.00000000000E+00 -0.60070948338E+02  0.60070948338E+02  0.00000000000E+00 0. -1.
         25    2    1    2    0    0 -0.35118859200E+02 -0.26785706771E+02  0.49878709316E+03  0.51610151430E+03  0.12498560078E+03 0.  0.
          4    1    3    3  501    0  0.42892637518E+02 -0.16937964180E+02  0.27630280508E+03  0.28012769584E+03  0.12700000000E+01 0. -1.
         -4    1    3    3    0  501 -0.78011496718E+02 -0.98477425911E+01  0.22248428808E+03  0.23597381846E+03  0.12700000000E+01 0. -1.
          2    1    1    2  502    0  0.31839163661E+02 -0.14045654748E+01  0.65732144922E+03  0.65809360486E+03  0.00000000000E+00 0. -1.
          1    1    1    2  503    0  0.32796955386E+01  0.28190272245E+02 -0.47081526359E+02  0.54973793542E+02  0.00000000000E+00 0. -1.
<mgrwt>
<rscale>  0 0.30126406E+02</rscale>
<asrwt>0</asrwt>
<pdfrwt beam="2">  1        2 0.92416852E-02 0.28380413E+02</pdfrwt>
<pdfrwt beam="1">  1        1 0.17986121E+00 0.31979813E+02</pdfrwt>
<totfact> 0.11641585E+03</totfact>
</mgrwt>
</event>
<event>
 7    1  0.4252091E-004  0.7647155E+02  0.7546771E-02  0.1386806E+00
          2   -1    0    0  503    0  0.00000000000E+00  0.00000000000E+00  0.96032144690E+03  0.96032144690E+03  0.00000000000E+00 0. -1.
          1   -1    0    0  502    0 -0.00000000000E+00 -0.00000000000E+00 -0.49162848108E+03  0.49162848108E+03  0.00000000000E+00 0. -1.
         25    2    1    2    0    0 -0.59137263891E+02 -0.10835237929E+03  0.85949361653E+01  0.17589409073E+03  0.12500961622E+03 0.  0.
          4    1    3    3  501    0  0.18838638901E+02  0.70344316879E+01  0.28818638305E+02  0.35163963920E+02  0.12700000000E+01 0.  1.
         -4    1    3    3    0  501 -0.77975902792E+02 -0.11538681098E+03 -0.20223702140E+02  0.14073012681E+03  0.12700000000E+01 0.  1.
          2    1    1    2  502    0  0.46623885455E+02  0.58476314023E+02 -0.40378050833E+03  0.41064822525E+03  0.00000000000E+00 0. -1.
          1    1    1    2  503    0  0.12513378436E+02  0.49876065269E+02  0.86387853797E+03  0.86540761200E+03  0.00000000000E+00 0. -1.
<mgrwt>
<rscale>  0 0.62708123E+02</rscale>
<asrwt>0</asrwt>
<pdfrwt beam="1">  1        2 0.14774176E+00 0.51421849E+02</pdfrwt>
<pdfrwt beam="2">  1        1 0.75635151E-01 0.76471553E+02</pdfrwt>
<totfact> 0.19610097E+02</totfact>
</mgrwt>
</event>
<event>
 7    1  0.4252091E-004  0.3678951E+02  0.7546771E-02  0.1547458E+00
         -3   -1    0    0    0  501 -0.00000000000E+00  0.00000000000E+00  0.25157658859E+03  0.25157658859E+03  0.00000000000E+00 0.  1.
          3   -1    0    0  503    0  0.00000000000E+00 -0.00000000000E+00 -0.77121043110E+02  0.77121043110E+02  0.00000000000E+00 0. -1.
         25    2    1    2    0    0  0.64440046032E+02  0.10499121909E+02  0.23961195263E+02  0.14304413011E+03  0.12499893274E+03 0.  0.
          4    1    3    3  502    0  0.43576516323E+02  0.63807245405E+02 -0.76200083654E+01  0.77652783391E+02  0.12700000000E+01 0.  1.
         -4    1    3    3    0  502  0.20863529709E+02 -0.53308123496E+02  0.31581203628E+02  0.65391346715E+02  0.12700000000E+01 0.  1.
          2    1    1    2  503    0 -0.32888818220E+02  0.65947470374E+01  0.27974809811E+01  0.33659930960E+02  0.00000000000E+00 0. -1.
         -2    1    1    2    0  501 -0.31551227812E+02 -0.17093868946E+02  0.14769686924E+03  0.15199357064E+03  0.00000000000E+00 0.  1.
<mgrwt>
<rscale>  0 0.35129022E+02</rscale>
<asrwt>0</asrwt>
<pdfrwt beam="2">  1        3 0.11864776E-01 0.33543480E+02</pdfrwt>
<pdfrwt beam="1">  1       -3 0.38704090E-01 0.36789509E+02</pdfrwt>
<totfact> 0.64068123E+02</totfact>
</mgrwt>
</event>
<event>
 7    1  0.4252091E-004  0.5726566E+02  0.7546771E-02  0.1528161E+00
         -2   -1    0    0    0  501 -0.00000000000E+00  0.00000000000E+00  0.95664235441E+03  0.95664235441E+03  0.00000000000E+00 0.  1.
          2   -1    0    0  503    0  0.00000000000E+00 -0.00000000000E+00 -0.94747771152E+02  0.94747771152E+02  0.00000000000E+00 0. -1.
         25    2    1    2    0    0 -0.66398575512E+02 -0.38941844255E+02  0.42284357967E+02  0.15276062959E+03  0.12499041947E+03 0.  0.
          4    1    3    3  502    0 -0.68268967761E+02 -0.78264017610E+02  0.45186632335E+02  0.11326673410E+03  0.12700000000E+01 0.  1.
         -4    1    3    3    0  502  0.18703922490E+01  0.39322173356E+02 -0.29022743680E+01  0.39493895492E+02  0.12700000000E+01 0.  1.
          1    1    1    2  503    0  0.42904787788E+02  0.32197339059E+02 -0.21042251298E+02  0.57621747607E+02  0.00000000000E+00 0. -1.
         -1    1    1    2    0  501  0.23493787723E+02  0.67445051957E+01  0.84065247659E+03  0.84100774836E+03  0.00000000000E+00 0.  1.
<mgrwt>
<rscale>  0 0.37412944E+02</rscale>
<asrwt>0</asrwt>
<pdfrwt beam="2">  1        2 0.14576581E-01 0.57265663E+02</pdfrwt>
<pdfrwt beam="1">  1       -2 0.14717574E+00 0.24442717E+02</pdfrwt>
<totfact> 0.13979786E+02</totfact>
</mgrwt>
</event>
<event>
 7    1  0.4252091E-004  0.8811386E+02  0.7546771E-02  0.1477538E+00
          2   -1    0    0  503    0  0.00000000000E+00  0.00000000000E+00  0.17990197332E+04  0.17990197332E+04  0.00000000000E+00 0. -1.
         -2   -1    0    0    0  501 -0.00000000000E+00 -0.00000000000E+00 -0.42848892639E+02  0.42848892639E+02  0.00000000000E+00 0.  1.
         25    2    1    2    0    0 -0.12407911682E+02  0.74169057664E+02  0.12937547087E+04  0.13019530505E+04  0.12500197593E+03 0.  0.
          4    1    3    3  502    0 -0.58786948956E+02  0.21160465617E+02  0.88238951093E+03  0.88459964536E+03  0.12700000000E+01 0.  1.
         -4    1    3    3    0  502  0.46379037274E+02  0.53008592047E+02  0.41136519779E+03  0.41735340514E+03  0.12700000000E+01 0.  1.
          1    1    1    2  503    0 -0.20996032774E+02  0.79919259685E+01  0.44976525531E+03  0.45032598099E+03  0.00000000000E+00 0. -1.
         -1    1    1    2    0  501  0.33403944456E+02 -0.82160983632E+02  0.12650876521E+02  0.89589594337E+02  0.00000000000E+00 0.  1.
<mgrwt>
<rscale>  0 0.44491942E+02</rscale>
<asrwt>0</asrwt>
<pdfrwt beam="1">  1        2 0.27677221E+00 0.22465624E+02</pdfrwt>
<pdfrwt beam="2">  1       -2 0.65921387E-02 0.88113863E+02</pdfrwt>
<totfact> 0.14352235E+03</totfact>
</mgrwt>
</event>
<event>
 7    1  0.4252091E-004  0.1159404E+03  0.7546771E-02  0.1406422E+00
          2   -1    0    0  503    0  0.00000000000E+00  0.00000000000E+00  0.14353147703E+04  0.14353147703E+04  0.00000000000E+00 0. -1.
          1   -1    0    0  502    0 -0.00000000000E+00 -0.00000000000E+00 -0.10204755571E+04  0.10204755571E+04  0.00000000000E+00 0. -1.
         25    2    1    2    0    0  0.85498281958E+02 -0.10226581628E+03  0.22626755739E+02  0.18414135787E+03  0.12501126431E+03 0.  0.
          4    1    3    3  501    0  0.21462673905E+02 -0.50021240396E+02  0.70149529027E+02  0.88799437975E+02  0.12700000000E+01 0.  1.
         -4    1    3    3    0  501  0.64035608053E+02 -0.52244575885E+02 -0.47522773288E+02  0.95341919895E+02  0.12700000000E+01 0.  1.
          2    1    1    2  502    0 -0.56529621817E+02  0.10062880616E+03 -0.93601513905E+03  0.94310449862E+03  0.00000000000E+00 0. -1.
          1    1    1    2  503    0 -0.28968660142E+02  0.16370101185E+01  0.13282275965E+04  0.13285444709E+04  0.00000000000E+00 0. -1.
<mgrwt>
<rscale>  0 0.57999966E+02</rscale>
<asrwt>0</asrwt>
<pdfrwt beam="1">  1        2 0.22081766E+00 0.29014877E+02</pdfrwt>
<pdfrwt beam="2">  1        1 0.15699624E+00 0.11594039E+03</pdfrwt>
<totfact> 0.39594370E+01</totfact>
</mgrwt>
</event>
<event>
 7    1  0.4252091E-004  0.8118345E+02  0.7546771E-02  0.1355492E+00
          2   -1    0    0  503    0  0.00000000000E+00  0.00000000000E+00  0.56960091470E+03  0.56960091470E+03  0.00000000000E+00 0. -1.
         -2   -1    0    0    0  501 -0.00000000000E+00 -0.00000000000E+00 -0.20842775078E+03  0.20842775078E+03  0.00000000000E+00 0.  1.
         25    2    1    2    0    0 -0.13330235092E+03  0.68502943787E+01  0.36755002466E+02  0.18652743265E+03  0.12500043852E+03 0.  0.
          4    1    3    3  502    0 -0.48743717761E+02 -0.54562559701E+02  0.37032401808E+02  0.82012405317E+02  0.12700000000E+01 0. -1.
         -4    1    3    3    0  502 -0.84558633160E+02  0.61412854079E+02 -0.27739934180E+00  0.10451502733E+03  0.12700000000E+01 0. -1.
          1    1    1    2  503    0  0.74069884993E+02 -0.27548766791E+02  0.44692650284E+03  0.45385964940E+03  0.00000000000E+00 0. -1.
         -1    1    1    2    0  501  0.59232465928E+02  0.20698472413E+02 -0.12250834139E+03  0.13764158343E+03  0.00000000000E+00 0.  1.
<mgrwt>
<rscale>  0 0.71371145E+02</rscale>
<asrwt>0</asrwt>
<pdfrwt beam="1">  1        2 0.87630909E-01 0.81183446E+02</pdfrwt>
<pdfrwt beam="2">  1       -2 0.32065808E-01 0.62744815E+02</pdfrwt>
<totfact> 0.48801049E+02</totfact>
</mgrwt>
</event>
<event>
 7    1  0.4252091E-004  0.9602226E+02  0.7546771E-02  0.1289882E+00
          2   -1    0    0  503    0  0.00000000000E+00  0.00000000000E+00  0.16437294832E+04  0.16437294832E+04  0.00000000000E+00 0. -1.
         -2   -1    0    0    0  501 -0.00000000000E+00 -0.00000000000E+00 -0.89694865193E+02  0.89694865193E+02  0.00000000000E+00 0.  1.
         25    2    1    2    0    0 -0.68640789456E+02  0.52102632663E+02  0.17455890380E+03  0.23134465904E+03  0.12499319207E+03 0.  0.
          4    1    3    3  502    0 -0.23416313963E+02 -0.32123581868E+02  0.99723497333E+01  0.41003767276E+02  0.12700000000E+01 0.  1.
         -4    1    3    3    0  502 -0.45224475492E+02  0.84226214531E+02  0.16458655407E+03  0.19034089177E+03  0.12700000000E+01 0.  1.
          1    1    1    2  503    0 -0.30999984010E+02 -0.89940748193E+02  0.13915648788E+04  0.13948129442E+04  0.00000000000E+00 0. -1.
         -1    1    1    2    0  501  0.99640773465E+02  0.37838115530E+02 -0.12089164623E+02  0.10726674520E+03  0.00000000000E+00 0.  1.
<mgrwt>
<rscale>  0 0.95576728E+02</rscale>
<asrwt>0</asrwt>
<pdfrwt beam="1">  1        2 0.25288144E+00 0.95133260E+02</pdfrwt>
<pdfrwt beam="2">  1       -2 0.13799211E-01 0.96022262E+02</pdfrwt>
<totfact> 0.47057572E+02</totfact>
</mgrwt>
</event>
<event>
 7    1  0.4252091E-004  0.1263960E+03  0.7546771E-02  0.1347753E+00
          2   -1    0    0  503    0  0.00000000000E+00  0.00000000000E+00  0.32749095216E+04  0.32749095216E+04  0.00000000000E+00 0. -1.
          1   -1    0    0  502    0 -0.00000000000E+00 -0.00000000000E+00 -0.23716248008E+04  0.23716248008E+04  0.00000000000E+00 0. -1.
         25    2    1    2    0    0 -0.10092916367E+03 -0.32648099055E+02  0.17021620460E+04  0.17100386301E+04  0.12499556438E+03 0.  0.
          4    1    3    3  501    0  0.20081765567E+02 -0.33334077187E+02  0.27312740928E+03  0.27588880479E+03  0.12700000000E+01 0. -1.
         -4    1    3    3    0  501 -0.12101092923E+03  0.68597813143E+00  0.14290346368E+04  0.14341498254E+04  0.12700000000E+01 0. -1.
          2    1    1    2  502    0  0.12640513935E+03 -0.20472734823E+01 -0.23657031654E+04  0.23690787064E+04  0.00000000000E+00 0. -1.
          1    1    1    2  503    0 -0.25475975686E+02  0.34695372538E+02  0.15668258401E+04  0.15674169858E+04  0.00000000000E+00 0. -1.
<mgrwt>
<rscale>  0 0.73760431E+02</rscale>
<asrwt>0</asrwt>
<pdfrwt beam="1">  1        2 0.50383224E+00 0.43044096E+02</pdfrwt>
<pdfrwt beam="2">  1        1 0.36486535E+00 0.12639599E+03</pdfrwt>
<totfact> 0.57609234E-01</totfact>
</mgrwt>
</event>
<event>
 7    1  0.4252091E-004  0.1144450E+03  0.7546771E-02  0.1346078E+00
          1   -1    0    0  502    0 -0.00000000000E+00  0.00000000000E+00  0.14625377600E+03  0.14625377600E+03  0.00000000000E+00 0. -1.
          2   -1    0    0  503    0  0.00000000000E+00 -0.00000000000E+00 -0.19198900572E+04  0.19198900572E+04  0.00000000000E+00 0. -1.
         25    2    1    2    0    0  0.17453173160E+02  0.14785836777E+03 -0.67870593819E+03  0.70600071494E+03  0.12501419432E+03 0.  0.
          4    1    3    3  501    0  0.24860625671E+02 -0.10172575512E+02 -0.20068890498E+03  0.20248254612E+03  0.12700000000E+01 0.  1.
         -4    1    3    3    0  501 -0.74074525109E+01  0.15803094328E+03 -0.47801703321E+03  0.50351816882E+03  0.12700000000E+01 0.  1.
          2    1    1    2  502    0 -0.40946953619E+02 -0.10574151897E+03  0.10779371211E+03  0.15645256858E+03  0.00000000000E+00 0. -1.
          1    1    1    2  503    0  0.23493780459E+02 -0.42116848800E+02 -0.12027240551E+04  0.12036905497E+04  0.00000000000E+00 0. -1.
<mgrwt>
<rscale>  0 0.74291797E+02</rscale>
<asrwt>0</asrwt>
<pdfrwt beam="2">  1        2 0.29536768E+00 0.48226411E+02</pdfrwt>
<pdfrwt beam="1">  1        1 0.22500583E-01 0.11444499E+03</pdfrwt>
<totfact> 0.28603873E+02</totfact>
</mgrwt>
</event>
<event>
 7    1  0.4252091E-004  0.5651905E+02  0.7546771E-02  0.1560596E+00
         -2   -1    0    0    0  501 -0.00000000000E+00  0.00000000000E+00  0.35873878399E+02  0.35873878399E+02  0.00000000000E+00 0.  1.
          2   -1    0    0  503    0  0.00000000000E+00 -0.00000000000E+00 -0.96586332582E+03  0.96586332582E+03  0.00000000000E+00 0. -1.
         25    2    1    2    0    0 -0.68624221200E+02 -0.37855382653E+01 -0.28667985451E+03  0.32021023862E+03  0.12500257558E+03 0.  0.
          4    1    3    3  502    0 -0.22196725776E+02 -0.45606362353E+02 -0.23099981314E+03  0.23650615530E+03  0.12700000000E+01 0.  1.
         -4    1    3    3    0  502 -0.46427495424E+02  0.41820824088E+02 -0.55680041367E+02  0.83704083325E+02  0.12700000000E+01 0.  1.
          1    1    1    2  503    0  0.54752586207E+02 -0.10727802047E+02 -0.65561154041E+03  0.65798132447E+03  0.00000000000E+00 0. -1.
         -1    1    1    2    0  501  0.13871634993E+02  0.14513340312E+02  0.12301947488E+02  0.23545641134E+02  0.00000000000E+00 0.  1.
<mgrwt>
<rscale>  0 0.33685242E+02</rscale>
<asrwt>0</asrwt>
<pdfrwt beam="2">  1        2 0.14859437E+00 0.56519053E+02</pdfrwt>
<pdfrwt beam="1">  1       -2 0.55190579E-02 0.20076337E+02</pdfrwt>
<totfact> 0.38347767E+03</totfact>
</mgrwt>
</event>
<event>
 7    1  0.4252091E-004  0.1092062E+03  0.7546771E-02  0.1337274E+00
          2   -1    0    0  503    0  0.00000000000E+00  0.00000000000E+00  0.69025519901E+03  0.69025519901E+03  0.00000000000E+00 0. -1.
         -2   -1    0    0    0  501 -0.00000000000E+00 -0.00000000000E+00 -0.41995191683E+03  0.41995191683E+03  0.00000000000E+00 0.  1.
         25    2    1    2    0    0  0.86487757742E+02  0.17575940239E+02  0.66899537651E+02  0.16699294945E+03  0.12498820389E+03 0.  0.
          4    1    3    3  502    0  0.43916710399E+02 -0.22797142342E+02 -0.26910157807E+02  0.56339654280E+02  0.12700000000E+01 0.  1.
         -4    1    3    3    0  502  0.42571047343E+02  0.40373082582E+02  0.93809695458E+02  0.11065329517E+03  0.12700000000E+01 0.  1.
          1    1    1    2  503    0 -0.86496620045E+02 -0.72110656247E+02  0.56571858003E+03  0.57681810288E+03  0.00000000000E+00 0. -1.
         -1    1    1    2    0  501  0.88623028650E-02  0.54534716007E+02 -0.36231483551E+03  0.36639606351E+03  0.00000000000E+00 0.  1.
<mgrwt>
<rscale>  0 0.77172061E+02</rscale>
<asrwt>0</asrwt>
<pdfrwt beam="1">  1        2 0.10619311E+00 0.10920616E+03</pdfrwt>
<pdfrwt beam="2">  1       -2 0.64607987E-01 0.54534717E+02</pdfrwt>
<totfact> 0.10206605E+02</totfact>
</mgrwt>
</event>
<event>
 7    1  0.4252091E-004  0.1816664E+03  0.7546771E-02  0.1332139E+00
          1   -1    0    0  502    0 -0.00000000000E+00  0.00000000000E+00  0.14732108188E+04  0.14732108188E+04  0.00000000000E+00 0. -1.
          2   -1    0    0  503    0  0.00000000000E+00 -0.00000000000E+00 -0.98001543790E+03  0.98001543790E+03  0.00000000000E+00 0. -1.
         25    2    1    2    0    0  0.11768015143E+03  0.12076776660E+03  0.27175743332E+03  0.34338268523E+03  0.12500437778E+03 0.  0.
          4    1    3    3  501    0  0.99475209873E+02  0.72983372787E+02  0.85204439201E+02  0.14994432114E+03  0.12700000000E+01 0.  1.
         -4    1    3    3    0  501  0.18204941562E+02  0.47784393812E+02  0.18655299412E+03  0.19343836409E+03  0.12700000000E+01 0.  1.
          2    1    1    2  502    0 -0.10445438171E+03 -0.15240041451E+03  0.11580036776E+04  0.11726504686E+04  0.00000000000E+00 0. -1.
          1    1    1    2  503    0 -0.13225769720E+02  0.31632647915E+02 -0.93656573002E+03  0.93719310285E+03  0.00000000000E+00 0. -1.
<mgrwt>
<rscale>  0 0.78921821E+02</rscale>
<asrwt>0</asrwt>
<pdfrwt beam="2">  1        2 0.15077160E+00 0.34286228E+02</pdfrwt>
<pdfrwt beam="1">  1        1 0.22664782E+00 0.18166635E+03</pdfrwt>
<totfact> 0.31861562E+01</totfact>
</mgrwt>
</event>
<event>
 7    1  0.4252091E-004  0.1353873E+03  0.7546771E-02  0.1307381E+00
          2   -1    0    0  503    0  0.00000000000E+00  0.00000000000E+00  0.49447773701E+03  0.49447773701E+03  0.00000000000E+00 0. -1.
         -2   -1    0    0    0  501 -0.00000000000E+00 -0.00000000000E+00 -0.72172296272E+03  0.72172296272E+03  0.00000000000E+00 0.  1.
         25    2    1    2    0    0 -0.12055309468E+03  0.86658477865E+02  0.22589008344E+03  0.29781689426E+03  0.12500332912E+03 0.  0.
          4    1    3    3  502    0 -0.19088295701E+02  0.61746914348E+02  0.16422962840E+03  0.17649370586E+03  0.12700000000E+01 0. -1.
         -4    1    3    3    0  502 -0.10146479898E+03  0.24911563517E+02  0.61660455034E+02  0.12132318840E+03  0.12700000000E+01 0. -1.
          1    1    1    2  503    0  0.49728335598E+02  0.28670378346E+02  0.22226472542E+03  0.22955719575E+03  0.00000000000E+00 0. -1.
         -1    1    1    2    0  501  0.70824759079E+02 -0.11532885621E+03 -0.67540003456E+03  0.68882660972E+03  0.00000000000E+00 0.  1.
<mgrwt>
<rscale>  0 0.88155511E+02</rscale>
<asrwt>0</asrwt>
<pdfrwt beam="1">  1        2 0.76073498E-01 0.57401202E+02</pdfrwt>
<pdfrwt beam="2">  1       -2 0.11103430E+00 0.13538731E+03</pdfrwt>
<totfact> 0.44715329E+01</totfact>
</mgrwt>
</event>
<event>
 7    1  0.4252091E-004  0.5211217E+02  0.7546771E-02  0.1562123E+00
          2   -1    0    0  503    0  0.00000000000E+00  0.00000000000E+00  0.20607953458E+03  0.20607953458E+03  0.00000000000E+00 0. -1.
          1   -1    0    0  502    0 -0.00000000000E+00 -0.00000000000E+00 -0.88531273304E+03  0.88531273304E+03  0.00000000000E+00 0. -1.
         25    2    1    2    0    0  0.14082890286E+02 -0.35227241887E+02 -0.49233512683E+02  0.13960659830E+03  0.12500710839E+03 0.  0.
          4    1    3    3  501    0  0.50971032229E+02 -0.42774872911E+02  0.12082814205E+02  0.67641283091E+02  0.12700000000E+01 0. -1.
         -4    1    3    3    0  501 -0.36888141943E+02  0.75476310241E+01 -0.61316326888E+02  0.71965315209E+02  0.12700000000E+01 0. -1.
          2    1    1    2  502    0 -0.12441069768E+02 -0.17614123278E+02 -0.78639807244E+03  0.78669369255E+03  0.00000000000E+00 0. -1.
          1    1    1    2  503    0 -0.16418205186E+01  0.52841365165E+02  0.15639838665E+03  0.16509197677E+03  0.00000000000E+00 0. -1.
<mgrwt>
<rscale>  0 0.33522899E+02</rscale>
<asrwt>0</asrwt>
<pdfrwt beam="1">  1        2 0.31704544E-01 0.52112166E+02</pdfrwt>
<pdfrwt beam="2">  1        1 0.13620196E+00 0.21564729E+02</pdfrwt>
<totfact> 0.49375757E+02</totfact>
</mgrwt>
</event>
<event>
 7    1  0.4252091E-004  0.9292465E+02  0.7546771E-02  0.1329954E+00
          1   -1    0    0  503    0  0.00000000000E+00  0.00000000000E+00  0.60848208609E+03  0.60848208609E+03  0.00000000000E+00 0. -1.
         -1   -1    0    0    0  501 -0.00000000000E+00 -0.00000000000E+00 -0.14728047823E+03  0.14728047823E+03  0.00000000000E+00 0.  1.
         25    2    1    2    0    0 -0.63461730236E+02  0.11191629457E+03  0.16886712799E+03  0.24635874749E+03  0.12499550934E+03 0.  0.
          4    1    3    3  502    0  0.18206287779E+02 -0.17702763868E+02  0.16663699834E+02  0.30399811767E+02  0.12700000000E+01 0.  1.
         -4    1    3    3    0  502 -0.81668018015E+02  0.12961905844E+03  0.15220342815E+03  0.21595893572E+03  0.12700000000E+01 0.  1.
          2    1    1    2  503    0 -0.12965546148E+01 -0.90120424189E+02  0.38435964001E+03  0.39478564409E+03  0.00000000000E+00 0. -1.
         -2    1    1    2    0  501  0.64758284851E+02 -0.21795870382E+02 -0.92025160139E+02  0.11461817274E+03  0.00000000000E+00 0.  1.
<mgrwt>
<rscale>  0 0.79682755E+02</rscale>
<asrwt>0</asrwt>
<pdfrwt beam="1">  1        1 0.93612627E-01 0.92924645E+02</pdfrwt>
<pdfrwt beam="2">  1       -1 0.22658535E-01 0.68327852E+02</pdfrwt>
<totfact> 0.56765309E+02</totfact>
</mgrwt>
</event>
<event>
 7    1  0.4252091E-004  0.9695919E+02  0.7546771E-02  0.1404282E+00
         -1   -1    0    0    0  501 -0.00000000000E+00  0.00000000000E+00  0.49262995625E+02  0.49262995625E+02  0.00000000000E+00 0.  1.
          1   -1    0    0  503    0  0.00000000000E+00 -0.00000000000E+00 -0.12544647075E+04  0.12544647075E+04  0.00000000000E+00 0. -1.
         25    2    1    2    0    0 -0.66878845353E+02  0.50772765635E+02 -0.43597479311E+03  0.46124751926E+03  0.12499840043E+03 0.  0.
          4    1    3    3  502    0  0.26717246205E+01  0.71684149770E+02 -0.28224607485E+03  0.29122193445E+03  0.12700000000E+01 0. -1.
         -4    1    3    3    0  502 -0.69550569974E+02 -0.20911384136E+02 -0.15372871827E+03  0.17002558481E+03  0.12700000000E+01 0. -1.
          2    1    1    2  503    0  0.56021283705E+02 -0.84343865345E+02 -0.79332011152E+03  0.79975563218E+03  0.00000000000E+00 0. -1.
         -2    1    1    2    0  501  0.10857561649E+02  0.33571099711E+02  0.24093192751E+02  0.42724551696E+02  0.00000000000E+00 0.  1.
<mgrwt>
<rscale>  0 0.58489590E+02</rscale>
<asrwt>0</asrwt>
<pdfrwt beam="2">  1        1 0.19299457E+00 0.96959191E+02</pdfrwt>
<pdfrwt beam="1">  1       -1 0.75789226E-02 0.35283217E+02</pdfrwt>
<totfact> 0.90609271E+02</totfact>
</mgrwt>
</event>
<event>
 7    1  0.4252091E-004  0.7357895E+02  0.7546771E-02  0.1361224E+00
         -1   -1    0    0    0  501 -0.00000000000E+00  0.00000000000E+00  0.30084516358E+03  0.30084516358E+03  0.00000000000E+00 0.  1.
          1   -1    0    0  503    0  0.00000000000E+00 -0.00000000000E+00 -0.79815051205E+03  0.79815051205E+03  0.00000000000E+00 0. -1.
         25    2    1    2    0    0  0.10665044827E+03  0.39994847985E+02 -0.27731619929E+03  0.32481260536E+03  0.12500019293E+03 0.  0.
          4    1    3    3  502    0 -0.26879287561E+02  0.14358726130E+02 -0.31194176729E+02  0.43627499099E+02  0.12700000000E+01 0. -1.
         -4    1    3    3    0  502  0.13352973583E+03  0.25636121855E+02 -0.24612202256E+03  0.28118510626E+03  0.12700000000E+01 0. -1.
          2    1    1    2  503    0 -0.42786516025E+02 -0.56513751714E+02 -0.49057645745E+03  0.49567101054E+03  0.00000000000E+00 0. -1.
         -2    1    1    2    0  501 -0.63863932245E+02  0.16518903729E+02  0.27058730827E+03  0.27851205974E+03  0.00000000000E+00 0.  1.
<mgrwt>
<rscale>  0 0.69668416E+02</rscale>
<asrwt>0</asrwt>
<pdfrwt beam="2">  1        1 0.12279239E+00 0.73578948E+02</pdfrwt>
<pdfrwt beam="1">  1       -1 0.46283871E-01 0.65965719E+02</pdfrwt>
<totfact> 0.11884875E+02</totfact>
</mgrwt>
</event>
<event>
 7    1  0.4252091E-004  0.1090776E+03  0.7546771E-02  0.1321791E+00
          2   -1    0    0  503    0  0.00000000000E+00  0.00000000000E+00  0.17962367285E+04  0.17962367285E+04  0.00000000000E+00 0. -1.
          1   -1    0    0  502    0 -0.00000000000E+00 -0.00000000000E+00 -0.25297489574E+03  0.25297489574E+03  0.00000000000E+00 0. -1.
         25    2    1    2    0    0  0.62214366049E+02 -0.34551268714E+02  0.27393562471E+03  0.30940441996E+03  0.12500380431E+03 0.  0.
          4    1    3    3  501    0  0.63434767683E+02  0.31247479208E+02  0.19001034132E+03  0.20274594303E+03  0.12700000000E+01 0. -1.
         -4    1    3    3    0  501 -0.12204016340E+01 -0.65798747923E+02  0.83925283397E+02  0.10665847693E+03  0.12700000000E+01 0. -1.
          2    1    1    2  502    0 -0.54995138546E+02  0.96705092309E+02 -0.22139453223E+03  0.24777384656E+03  0.00000000000E+00 0. -1.
          1    1    1    2  503    0 -0.72192275030E+01 -0.62153823595E+02  0.14907207403E+04  0.14920333578E+04  0.00000000000E+00 0. -1.
<mgrwt>
<rscale>  0 0.82614591E+02</rscale>
<asrwt>0</asrwt>
<pdfrwt beam="1">  1        2 0.27634410E+00 0.62571679E+02</pdfrwt>
<pdfrwt beam="2">  1        1 0.38919216E-01 0.10907763E+03</pdfrwt>
<totfact> 0.16195463E+02</totfact>
</mgrwt>
</event>
<event>
 7    1  0.4252091E-004  0.1335036E+03  0.7546771E-02  0.1257901E+00
          2   -1    0    0  503    0  0.00000000000E+00  0.00000000000E+00  0.14344433620E+04  0.14344433620E+04  0.00000000000E+00 0. -1.
          1   -1    0    0  502    0 -0.00000000000E+00 -0.00000000000E+00 -0.20846990521E+04  0.20846990521E+04  0.00000000000E+00 0. -1.
         25    2    1    2    0    0 -0.66249019242E+02  0.53749747002E+02 -0.14178819666E+03  0.20737522930E+03  0.12499050029E+03 0.  0.
          4    1    3    3  501    0  0.23110067279E+01 -0.10904296380E+02  0.18381799101E+02  0.21534806009E+02  0.12700000000E+01 0. -1.
         -4    1    3    3    0  501 -0.68560025970E+02  0.64654043382E+02 -0.16016999576E+03  0.18584042329E+03  0.12700000000E+01 0. -1.
          2    1    1    2  502    0  0.13867451737E+03  0.46631200069E+01 -0.19060485599E+04  0.19110922215E+04  0.00000000000E+00 0. -1.
          1    1    1    2  503    0 -0.72425498126E+02 -0.58412867008E+02  0.13975810664E+04  0.14006749633E+04  0.00000000000E+00 0. -1.
<mgrwt>
<rscale>  0 0.11145378E+03</rscale>
<asrwt>0</asrwt>
<pdfrwt beam="1">  1        2 0.22068359E+00 0.93045773E+02</pdfrwt>
<pdfrwt beam="2">  1        1 0.32072293E+00 0.13350360E+03</pdfrwt>
<totfact> 0.71500856E+00</totfact>
</mgrwt>
</event>
<event>
 7    1  0.4252091E-004  0.1255166E+03  0.7546771E-02  0.1336992E+00
          1   -1    0    0  502    0 -0.00000000000E+00  0.00000000000E+00  0.99720468287E+03  0.99720468287E+03  0.00000000000E+00 0. -1.
          2   -1    0    0  503    0  0.00000000000E+00 -0.00000000000E+00 -0.18139502500E+03  0.18139502500E+03  0.00000000000E+00 0. -1.
         25    2    1    2    0    0 -0.63550100599E+02  0.75037986603E+02  0.40556693614E+03  0.43563930848E+03  0.12501101026E+03 0.  0.
          4    1    3    3  501    0 -0.64388799182E+02  0.10252505171E+03  0.37700881753E+03  0.39597293479E+03  0.12700000000E+01 0.  1.
         -4    1    3    3    0  501  0.83869858282E+00 -0.27487065108E+02  0.28558118606E+02  0.39666373692E+02  0.12700000000E+01 0.  1.
          2    1    1    2  502    0  0.18090192903E+02  0.43990215972E+02  0.55102931236E+03  0.55307838256E+03  0.00000000000E+00 0. -1.
          1    1    1    2  503    0  0.45459907696E+02 -0.11902820258E+03 -0.14078659062E+03  0.18988201683E+03  0.00000000000E+00 0. -1.
<mgrwt>
<rscale>  0 0.77266745E+02</rscale>
<asrwt>0</asrwt>
<pdfrwt beam="2">  1        2 0.27906928E-01 0.12551658E+03</pdfrwt>
<pdfrwt beam="1">  1        1 0.15341610E+00 0.47564632E+02</pdfrwt>
<totfact> 0.45768028E+02</totfact>
</mgrwt>
</event>
<event>
 7    1  0.4252091E-004  0.1166807E+03  0.7546771E-02  0.1249931E+00
          1   -1    0    0  502    0 -0.00000000000E+00  0.00000000000E+00  0.81153911121E+03  0.81153911121E+03  0.00000000000E+00 0. -1.
          2   -1    0    0  503    0  0.00000000000E+00 -0.00000000000E+00 -0.20283016576E+04  0.20283016576E+04  0.00000000000E+00 0. -1.
         25    2    1    2    0    0 -0.13115045623E+03  0.45297423944E+02  0.71636190550E+02  0.20002157533E+03  0.12499835204E+03 0.  0.
          4    1    3    3  501    0 -0.64821549647E+02  0.86635541291E+02  0.35288626740E+02  0.11381761898E+03  0.12700000000E+01 0. -1.
         -4    1    3    3    0  501 -0.66328906585E+02 -0.41338117346E+02  0.36347563810E+02  0.86203956344E+02  0.12700000000E+01 0. -1.
          2    1    1    2  502    0  0.94509919887E+02  0.65914397811E+02  0.66903577072E+03  0.67888562755E+03  0.00000000000E+00 0. -1.
          1    1    1    2  503    0  0.36640536344E+02 -0.11121182176E+03 -0.19574345077E+04  0.19609335659E+04  0.00000000000E+00 0. -1.
<mgrwt>
<rscale>  0 0.11595062E+03</rscale>
<asrwt>0</asrwt>
<pdfrwt beam="2">  1        2 0.31204640E+00 0.11668068E+03</pdfrwt>
<pdfrwt beam="1">  1        1 0.12485217E+00 0.11522514E+03</pdfrwt>
<totfact> 0.25368912E+01</totfact>
</mgrwt>
</event>
<event>
 7    1  0.4252091E-004  0.7740088E+02  0.7546771E-02  0.1408957E+00
         -2   -1    0    0    0  501  0.00000000000E+00  0.00000000000E+00  0.56126088543E+03  0.56126088543E+03  0.00000000000E+00 0.  1.
         -1   -1    0    0    0  502 -0.00000000000E+00 -0.00000000000E+00 -0.13910966571E+04  0.13910966571E+04  0.00000000000E+00 0.  1.
         25    2    1    2    0    0 -0.16293651150E+02  0.74571355088E+02 -0.39413167045E+03  0.42046513514E+03  0.12499914461E+03 0.  0.
          4    1    3    3  503    0 -0.39531927895E+02  0.60017069687E+02 -0.38482648685E+03  0.39148162136E+03  0.12700000000E+01 0. -1.
         -4    1    3    3    0  503  0.23238276744E+02  0.14554285401E+02 -0.93051835913E+01  0.28983513783E+02  0.12700000000E+01 0. -1.
         -2    1    1    2    0  502  0.54881904028E+02 -0.56505681966E+02 -0.98138969461E+03  0.98454590963E+03  0.00000000000E+00 0.  1.
         -1    1    1    2    0  501 -0.38588252878E+02 -0.18065673122E+02  0.54568559337E+03  0.54734649777E+03  0.00000000000E+00 0.  1.
<mgrwt>
<rscale>  0 0.57427158E+02</rscale>
<asrwt>0</asrwt>
<pdfrwt beam="1">  1       -2 0.86347831E-01 0.42607767E+02</pdfrwt>
<pdfrwt beam="2">  1       -1 0.21401486E+00 0.77400876E+02</pdfrwt>
<totfact> 0.14181083E+00</totfact>
</mgrwt>
</event>
<event>
 7    1  0.4252091E-004  0.6419837E+02  0.7546771E-02  0.1486509E+00
          1   -1    0    0  502    0 -0.00000000000E+00  0.00000000000E+00  0.53957707419E+03  0.53957707419E+03  0.00000000000E+00 0. -1.
          2   -1    0    0  503    0  0.00000000000E+00 -0.00000000000E+00 -0.82750225578E+03  0.82750225578E+03  0.00000000000E+00 0. -1.
         25    2    1    2    0    0  0.78646507995E+02  0.48891663281E+02 -0.58518907116E+02  0.16620036823E+03  0.12498972738E+03 0.  0.
          4    1    3    3  501    0  0.73423711293E+01 -0.34585991837E+02  0.10019707665E+02  0.36771030538E+02  0.12700000000E+01 0. -1.
         -4    1    3    3    0  501  0.71304136866E+02  0.83477655117E+02 -0.68538614781E+02  0.12942933769E+03  0.12700000000E+01 0. -1.
          2    1    1    2  502    0 -0.53701788733E+02 -0.34206268620E+02  0.48335481216E+03  0.48753033277E+03  0.00000000000E+00 0. -1.
          1    1    1    2  503    0 -0.24944719262E+02 -0.14685394661E+02 -0.71276108664E+03  0.71334862898E+03  0.00000000000E+00 0. -1.
<mgrwt>
<rscale>  0 0.43108213E+02</rscale>
<asrwt>0</asrwt>
<pdfrwt beam="2">  1        2 0.12730804E+00 0.28946500E+02</pdfrwt>
<pdfrwt beam="1">  1        1 0.83011858E-01 0.64198367E+02</pdfrwt>
<totfact> 0.21527991E+02</totfact>
</mgrwt>
</event>
<event>
 7    1  0.4252091E-004  0.6383844E+02  0.7546771E-02  0.1393355E+00
         -1   -1    0    0    0  501 -0.00000000000E+00  0.00000000000E+00  0.34758616992E+02  0.34758616992E+02  0.00000000000E+00 0.  1.
          1   -1    0    0  503    0  0.00000000000E+00 -0.00000000000E+00 -0.20320299592E+04  0.20320299592E+04  0.00000000000E+00 0. -1.
         25    2    1    2    0    0  0.23137615851E+01  0.14003178051E+02 -0.68890929672E+03  0.70030173082E+03  0.12500021036E+03 0.  0.
          4    1    3    3  502    0  0.62935139118E+02  0.16582769479E+02 -0.36248613428E+03  0.36828471381E+03  0.12700000000E+01 0.  1.
         -4    1    3    3    0  502 -0.60621377533E+02 -0.25795914279E+01 -0.32642316244E+03  0.33201701701E+03  0.12700000000E+01 0.  1.
          2    1    1    2  503    0 -0.12258998174E+02 -0.71591436239E+02 -0.13059793613E+04  0.13079975951E+04  0.00000000000E+00 0. -1.
         -2    1    1    2    0  501  0.99452365892E+01  0.57588258189E+02 -0.23826842245E+01  0.58489250261E+02  0.00000000000E+00 0.  1.
<mgrwt>
<rscale>  0 0.61079972E+02</rscale>
<asrwt>0</asrwt>
<pdfrwt beam="2">  1        1 0.31262005E+00 0.63838439E+02</pdfrwt>
<pdfrwt beam="1">  1       -1 0.53474785E-02 0.58440698E+02</pdfrwt>
<totfact> 0.53337827E+02</totfact>
</mgrwt>
</event>
<event>
 7    1  0.4252091E-004  0.5055910E+02  0.7546771E-02  0.1458437E+00
          1   -1    0    0  503    0  0.00000000000E+00  0.00000000000E+00  0.12975994022E+04  0.12975994022E+04  0.00000000000E+00 0. -1.
         -1   -1    0    0    0  501 -0.00000000000E+00 -0.00000000000E+00 -0.88015884958E+02  0.88015884958E+02  0.00000000000E+00 0.  1.
         25    2    1    2    0    0  0.52249560593E+02  0.32640423467E+02  0.20087399800E+03  0.24448006697E+03  0.12499890498E+03 0.  0.
          4    1    3    3  502    0  0.19080746524E+02  0.54261970142E+02  0.19635367072E+03  0.20460892746E+03  0.12700000000E+01 0.  1.
         -4    1    3    3    0  502  0.33168814068E+02 -0.21621546675E+02  0.45203272890E+01  0.39871139514E+02  0.12700000000E+01 0.  1.
          2    1    1    2  503    0 -0.10672886963E+02 -0.49621945835E+02  0.10666332744E+04  0.10678402456E+04  0.00000000000E+00 0. -1.
         -2    1    1    2    0  501 -0.41576673630E+02  0.16981522368E+02 -0.57923755157E+02  0.73294974613E+02  0.00000000000E+00 0.  1.
<mgrwt>
<rscale>  0 0.47651406E+02</rscale>
<asrwt>0</asrwt>
<pdfrwt beam="1">  1        1 0.19963066E+00 0.50559103E+02</pdfrwt>
<pdfrwt beam="2">  1       -1 0.13540906E-01 0.44910933E+02</pdfrwt>
<totfact> 0.38959742E+02</totfact>
</mgrwt>
</event>
<event>
 7    1  0.4252091E-004  0.7088154E+02  0.7546771E-02  0.1457837E+00
         -2   -1    0    0    0  501 -0.00000000000E+00  0.00000000000E+00  0.82230725550E+03  0.82230725550E+03  0.00000000000E+00 0.  1.
          2   -1    0    0  503    0  0.00000000000E+00 -0.00000000000E+00 -0.50407094265E+03  0.50407094265E+03  0.00000000000E+00 0. -1.
         25    2    1    2    0    0 -0.34056776788E+02  0.19619028072E+02 -0.15846275305E+03  0.20562266654E+03  0.12500186632E+03 0.  0.
          4    1    3    3  502    0 -0.74206671970E+02 -0.12419632843E+02 -0.67190283412E+02  0.10088123973E+03  0.12700000000E+01 0. -1.
         -4    1    3    3    0  502  0.40149895183E+02  0.32038660915E+02 -0.91272469639E+02  0.10474142681E+03  0.12700000000E+01 0. -1.
          1    1    1    2  503    0 -0.24335908891E+02  0.21047341493E+02 -0.31963412019E+03  0.32124943242E+03  0.00000000000E+00 0. -1.
         -1    1    1    2    0  501  0.58392685679E+02 -0.40666369565E+02  0.79633318609E+03  0.79950609918E+03  0.00000000000E+00 0.  1.
<mgrwt>
<rscale>  0 0.47755730E+02</rscale>
<asrwt>0</asrwt>
<pdfrwt beam="2">  1        2 0.77549376E-01 0.32174944E+02</pdfrwt>
<pdfrwt beam="1">  1       -2 0.12650881E+00 0.70881544E+02</pdfrwt>
<totfact> 0.33067546E+01</totfact>
</mgrwt>
</event>
<event>
 7    1  0.4252091E-004  0.7571372E+02  0.7546771E-02  0.1405624E+00
          2   -1    0    0  503    0  0.00000000000E+00  0.00000000000E+00  0.25716704316E+04  0.25716704316E+04  0.00000000000E+00 0. -1.
          1   -1    0    0  502    0 -0.00000000000E+00 -0.00000000000E+00 -0.44782608134E+03  0.44782608134E+03  0.00000000000E+00 0. -1.
         25    2    1    2    0    0 -0.86794249091E+02 -0.81356965025E+02 -0.21252889279E+03  0.27376110349E+03  0.12499765630E+03 0.  0.
          4    1    3    3  501    0 -0.38707242846E+02 -0.90496766936E+00  0.28753357933E+01  0.38845206540E+02  0.12700000000E+01 0. -1.
         -4    1    3    3    0  501 -0.48087006245E+02 -0.80451997355E+02 -0.21540422858E+03  0.23491589695E+03  0.12700000000E+01 0. -1.
          2    1    1    2  502    0  0.26032469951E+02  0.36349262919E+02 -0.20166972206E+03  0.20656629736E+03  0.00000000000E+00 0. -1.
          1    1    1    2  503    0  0.60761779140E+02  0.45007702105E+02  0.25380429651E+04  0.25391691121E+04  0.00000000000E+00 0. -1.
<mgrwt>
<rscale>  0 0.58181943E+02</rscale>
<asrwt>0</asrwt>
<pdfrwt beam="1">  1        2 0.39564160E+00 0.75713715E+02</pdfrwt>
<pdfrwt beam="2">  1        1 0.68896322E-01 0.44709713E+02</pdfrwt>
<totfact> 0.32184229E+01</totfact>
</mgrwt>
</event>
<event>
 7    1  0.4252091E-004  0.7385684E+02  0.7546771E-02  0.1381020E+00
          1   -1    0    0  503    0  0.00000000000E+00  0.00000000000E+00  0.48549914019E+03  0.48549914019E+03  0.00000000000E+00 0. -1.
         -1   -1    0    0    0  501 -0.00000000000E+00 -0.00000000000E+00 -0.79479298420E+02  0.79479298420E+02  0.00000000000E+00 0.  1.
         25    2    1    2    0    0 -0.80752426052E+02  0.71167271293E+02  0.10694896834E+03  0.19659332789E+03  0.12500047971E+03 0.  0.
          4    1    3    3  502    0 -0.10208182498E+03  0.89400883239E+02  0.79268865864E+02  0.15715719172E+03  0.12700000000E+01 0. -1.
         -4    1    3    3    0  502  0.21329398928E+02 -0.18233611945E+02  0.27680102472E+02  0.39436136170E+02  0.12700000000E+01 0. -1.
          2    1    1    2  503    0  0.25092203256E+02 -0.67225847196E+02  0.30401353515E+03  0.31236703212E+03  0.00000000000E+00 0. -1.
         -2    1    1    2    0  501  0.55660222797E+02 -0.39414240972E+01 -0.49426617159E+01  0.56018078605E+02  0.00000000000E+00 0.  1.
<mgrwt>
<rscale>  0 0.64196432E+02</rscale>
<asrwt>0</asrwt>
<pdfrwt beam="1">  1        1 0.74692174E-01 0.73856838E+02</pdfrwt>
<pdfrwt beam="2">  1       -1 0.12227585E-01 0.55799599E+02</pdfrwt>
<totfact> 0.19705906E+03</totfact>
</mgrwt>
</event>
<event>
 7    1  0.4252091E-004  0.1692483E+03  0.7546771E-02  0.1292061E+00
          2   -1    0    0  503    0  0.00000000000E+00  0.00000000000E+00  0.81838166410E+03  0.81838166410E+03  0.00000000000E+00 0. -1.
          1   -1    0    0  502    0 -0.00000000000E+00 -0.00000000000E+00 -0.15498439544E+04  0.15498439544E+04  0.00000000000E+00 0. -1.
         25    2    1    2    0    0  0.20115206628E+03  0.55388832522E+02 -0.10975850403E+04  0.11242101320E+04  0.12500169470E+03 0.  0.
          4    1    3    3  501    0  0.14352901030E+03  0.25472070152E+02 -0.44205466382E+03  0.46547109670E+03  0.12700000000E+01 0. -1.
         -4    1    3    3    0  501  0.57623055979E+02  0.29916762370E+02 -0.65553037647E+03  0.65873903529E+03  0.12700000000E+01 0. -1.
          2    1    1    2  502    0 -0.32760519131E+02 -0.41516234255E+02 -0.42843746538E+03  0.43168913707E+03  0.00000000000E+00 0. -1.
          1    1    1    2  503    0 -0.16839154715E+03 -0.13872598268E+02  0.79456021537E+03  0.81232634944E+03  0.00000000000E+00 0. -1.
<mgrwt>
<rscale>  0 0.94608352E+02</rscale>
<asrwt>0</asrwt>
<pdfrwt beam="1">  1        2 0.12590487E+00 0.16924834E+03</pdfrwt>
<pdfrwt beam="2">  1        1 0.23843753E+00 0.52885247E+02</pdfrwt>
<totfact> 0.37522212E+01</totfact>
</mgrwt>
</event>
<event>
 7    1  0.4252091E-004  0.5659592E+02  0.7546771E-02  0.1432946E+00
         -2   -1    0    0    0  501 -0.00000000000E+00  0.00000000000E+00  0.15473076860E+03  0.15473076860E+03  0.00000000000E+00 0.  1.
          2   -1    0    0  503    0  0.00000000000E+00 -0.00000000000E+00 -0.23159655751E+04  0.23159655751E+04  0.00000000000E+00 0. -1.
         25    2    1    2    0    0  0.10304229646E+03 -0.11366318146E+02 -0.37323648835E+03  0.40703720935E+03  0.12500762181E+03 0.  0.
          4    1    3    3  502    0  0.33253374640E+01 -0.49253873172E+02 -0.17602798920E+03  0.18282359742E+03  0.12700000000E+01 0. -1.
         -4    1    3    3    0  502  0.99716958999E+02  0.37887555025E+02 -0.19720849915E+03  0.22421361193E+03  0.12700000000E+01 0. -1.
          1    1    1    2  503    0 -0.47123467764E+02  0.11325916792E+02 -0.19198386159E+04  0.19204502620E+04  0.00000000000E+00 0. -1.
         -1    1    1    2    0  501 -0.55918828699E+02  0.40401354267E-01  0.13184029772E+03  0.14320887241E+03  0.00000000000E+00 0.  1.
<mgrwt>
<rscale>  0 0.52373137E+02</rscale>
<asrwt>0</asrwt>
<pdfrwt beam="2">  1        2 0.35630235E+00 0.48465427E+02</pdfrwt>
<pdfrwt beam="1">  1       -2 0.23804737E-01 0.56595921E+02</pdfrwt>
<totfact> 0.93410317E+01</totfact>
</mgrwt>
</event>
<event>
 7    1  0.4252091E-004  0.2430926E+03  0.7546771E-02  0.1143416E+00
          2   -1    0    0  503    0  0.00000000000E+00  0.00000000000E+00  0.33609317907E+03  0.33609317907E+03  0.00000000000E+00 0. -1.
          1   -1    0    0  502    0 -0.00000000000E+00 -0.00000000000E+00 -0.11508559950E+04  0.11508559950E+04  0.00000000000E+00 0. -1.
         25    2    1    2    0    0 -0.19110109406E+02  0.22910317066E+03  0.94093514329E+02  0.27808688093E+03  0.12500105929E+03 0.  0.
          4    1    3    3  501    0  0.18323489530E+02  0.17002442659E+03  0.13760219315E+02  0.17156634996E+03  0.12700000000E+01 0.  1.
         -4    1    3    3    0  501 -0.37433598936E+02  0.59078744070E+02  0.80333295014E+02  0.10652053097E+03  0.12700000000E+01 0.  1.
          2    1    1    2  502    0 -0.15500108968E+03 -0.19496034063E+03 -0.98484194680E+03  0.10158486759E+04  0.00000000000E+00 0. -1.
          1    1    1    2  503    0  0.17411119909E+03 -0.34142830027E+02  0.75985616571E+02  0.19301361718E+03  0.00000000000E+00 0. -1.
<mgrwt>
<rscale>  0 0.20768065E+03</rscale>
<asrwt>0</asrwt>
<pdfrwt beam="1">  1        2 0.51706643E-01 0.17742729E+03</pdfrwt>
<pdfrwt beam="2">  1        1 0.17705477E+00 0.24309256E+03</pdfrwt>
<totfact> 0.16534703E+02</totfact>
</mgrwt>
</event>
<event>
 7    1  0.4252091E-004  0.1293448E+03  0.7546771E-02  0.1232123E+00
          2   -1    0    0  503    0  0.00000000000E+00  0.00000000000E+00  0.35919078648E+03  0.35919078648E+03  0.00000000000E+00 0. -1.
          1   -1    0    0  502    0 -0.00000000000E+00 -0.00000000000E+00 -0.34348766836E+04  0.34348766836E+04  0.00000000000E+00 0. -1.
         25    2    1    2    0    0  0.10477183594E+02 -0.54107475511E+01 -0.18157400685E+03  0.22076442882E+03  0.12501506111E+03 0.  0.
          4    1    3    3  501    0 -0.39453310241E+02 -0.32192336231E+02 -0.30405183352E+02  0.59321145266E+02  0.12700000000E+01 0.  1.
         -4    1    3    3    0  501  0.49930493835E+02  0.26781588680E+02 -0.15116882350E+03  0.16144328356E+03  0.12700000000E+01 0.  1.
          2    1    1    2  502    0 -0.34252073963E+02 -0.12472719452E+03 -0.32194755998E+04  0.32220728135E+04  0.00000000000E+00 0. -1.
          1    1    1    2  503    0  0.23774890369E+02  0.13013794207E+03  0.32536370957E+03  0.35123022775E+03  0.00000000000E+00 0. -1.
<mgrwt>
<rscale>  0 0.12690445E+03</rscale>
<asrwt>0</asrwt>
<pdfrwt beam="1">  1        2 0.55260120E-01 0.12451015E+03</pdfrwt>
<pdfrwt beam="2">  1        1 0.52844258E+00 0.12934480E+03</pdfrwt>
<totfact> 0.49373585E+00</totfact>
</mgrwt>
</event>
<event>
 7    1  0.4252091E-004  0.8258060E+02  0.7546771E-02  0.1360335E+00
          1   -1    0    0  503    0  0.00000000000E+00  0.00000000000E+00  0.89356325794E+03  0.89356325794E+03  0.00000000000E+00 0. -1.
         -1   -1    0    0    0  501 -0.00000000000E+00 -0.00000000000E+00 -0.84536864914E+03  0.84536864914E+03  0.00000000000E+00 0.  1.
         25    2    1    2    0    0  0.77788353417E+02  0.10148670165E+03 -0.47509650999E+03  0.50763712060E+03  0.12501269480E+03 0.  0.
          4    1    3    3  502    0  0.10729217791E+03  0.99351140215E+02 -0.35486962975E+03  0.38381809170E+03  0.12700000000E+01 0.  1.
         -4    1    3    3    0  502 -0.29503824493E+02  0.21355614392E+01 -0.12022688024E+03  0.12381902889E+03  0.12700000000E+01 0.  1.
          2    1    1    2  503    0 -0.21895403758E+02 -0.55018710018E+02  0.87254771447E+03  0.87455473310E+03  0.00000000000E+00 0. -1.
         -2    1    1    2    0  501 -0.55892949659E+02 -0.46467991637E+02 -0.34925659568E+03  0.35674005339E+03  0.00000000000E+00 0.  1.
<mgrwt>
<rscale>  0 0.69928861E+02</rscale>
<asrwt>0</asrwt>
<pdfrwt beam="1">  1        1 0.13747127E+00 0.59215430E+02</pdfrwt>
<pdfrwt beam="2">  1       -1 0.13005671E+00 0.82580597E+02</pdfrwt>
<totfact> 0.12455742E+01</totfact>
</mgrwt>
</event>
<event>
 7    1  0.4252091E-004  0.5277229E+02  0.7546771E-02  0.1445927E+00
         -2   -1    0    0    0  501 -0.00000000000E+00  0.00000000000E+00  0.17360952324E+03  0.17360952324E+03  0.00000000000E+00 0.  1.
          2   -1    0    0  503    0  0.00000000000E+00 -0.00000000000E+00 -0.87309929228E+03  0.87309929228E+03  0.00000000000E+00 0. -1.
         25    2    1    2    0    0 -0.56732617352E+00 -0.11262498242E+02 -0.34402822520E+03  0.36620044114E+03  0.12498070904E+03 0.  0.
          4    1    3    3  502    0  0.55412007753E+02 -0.33778481506E+02 -0.18929623183E+03  0.20011534849E+03  0.12700000000E+01 0.  1.
         -4    1    3    3    0  502 -0.55979333926E+02  0.22515983264E+02 -0.15473199336E+03  0.16608509265E+03  0.12700000000E+01 0.  1.
          3    1    1    2  503    0 -0.42840940313E+02 -0.19735505345E+02 -0.51249606478E+03  0.51466207627E+03  0.00000000000E+00 0. -1.
         -1    1    1    2    0  501  0.43408266487E+02  0.30998003586E+02  0.15703452094E+03  0.16584629810E+03  0.00000000000E+00 0.  1.
<mgrwt>
<rscale>  0 0.49891604E+02</rscale>
<asrwt>0</asrwt>
<pdfrwt beam="2">  1        2 0.13432297E+00 0.47168171E+02</pdfrwt>
<pdfrwt beam="1">  1       -2 0.26709158E-01 0.52772285E+02</pdfrwt>
<totfact> 0.41584387E+02</totfact>
</mgrwt>
</event>
<event>
 7    1  0.4252091E-004  0.8411560E+02  0.7546771E-02  0.1406452E+00
          1   -1    0    0  502    0 -0.00000000000E+00  0.00000000000E+00  0.22852407039E+03  0.22852407039E+03  0.00000000000E+00 0. -1.
          2   -1    0    0  503    0  0.00000000000E+00 -0.00000000000E+00 -0.11141304407E+04  0.11141304407E+04  0.00000000000E+00 0. -1.
         25    2    1    2    0    0  0.10689394899E+03  0.46067513797E+02 -0.11391380336E+03  0.20530668793E+03  0.12500379737E+03 0.  0.
          4    1    3    3  501    0  0.32913350126E+02  0.30604155545E+02 -0.12129226314E+03  0.12935736914E+03  0.12700000000E+01 0.  1.
         -4    1    3    3    0  501  0.73980598862E+02  0.15463358251E+02  0.73784597836E+01  0.75949318793E+02  0.12700000000E+01 0.  1.
          2    1    1    2  502    0 -0.66956996132E+02 -0.47989718936E+02  0.17310371349E+03  0.19170588953E+03  0.00000000000E+00 0. -1.
          1    1    1    2  503    0 -0.39936952855E+02  0.19222051395E+01 -0.94479628042E+03  0.94564193359E+03  0.00000000000E+00 0. -1.
<mgrwt>
<rscale>  0 0.57993186E+02</rscale>
<asrwt>0</asrwt>
<pdfrwt beam="2">  1        2 0.17140468E+00 0.39983185E+02</pdfrwt>
<pdfrwt beam="1">  1        1 0.35157549E-01 0.84115601E+02</pdfrwt>
<totfact> 0.41852982E+02</totfact>
</mgrwt>
</event>
<event>
 7    1  0.4252091E-004  0.6441420E+02  0.7546771E-02  0.1474669E+00
          2   -1    0    0  503    0  0.00000000000E+00  0.00000000000E+00  0.59977930311E+03  0.59977930311E+03  0.00000000000E+00 0. -1.
         -2   -1    0    0    0  501 -0.00000000000E+00 -0.00000000000E+00 -0.25205891025E+03  0.25205891025E+03  0.00000000000E+00 0.  1.
         25    2    1    2    0    0 -0.20772011732E+02 -0.39098035368E+02  0.29284721936E+02  0.13580040241E+03  0.12499608600E+03 0.  0.
          4    1    3    3  502    0  0.25983409714E+02 -0.60015791329E+02  0.48126874019E+02  0.81208630650E+02  0.12700000000E+01 0.  1.
         -4    1    3    3    0  502 -0.46755421446E+02  0.20917755961E+02 -0.18842152083E+02  0.54591771762E+02  0.12700000000E+01 0.  1.
          1    1    1    2  503    0  0.52134393725E+02  0.39408662230E+02  0.51391733947E+03  0.51805604858E+03  0.00000000000E+00 0. -1.
         -1    1    1    2    0  501 -0.31362381993E+02 -0.31062686229E+00 -0.19548166855E+03  0.19798176237E+03  0.00000000000E+00 0.  1.
<mgrwt>
<rscale>  0 0.44947544E+02</rscale>
<asrwt>0</asrwt>
<pdfrwt beam="1">  1        2 0.92273738E-01 0.64414197E+02</pdfrwt>
<pdfrwt beam="2">  1       -2 0.38778294E-01 0.31363920E+02</pdfrwt>
<totfact> 0.32316752E+02</totfact>
</mgrwt>
</event>
<event>
 7    1  0.4252091E-004  0.8071929E+02  0.7546771E-02  0.1395897E+00
         -1   -1    0    0    0  501 -0.00000000000E+00  0.00000000000E+00  0.73882461291E+02  0.73882461291E+02  0.00000000000E+00 0.  1.
          1   -1    0    0  503    0  0.00000000000E+00 -0.00000000000E+00 -0.18080458633E+04  0.18080458633E+04  0.00000000000E+00 0. -1.
         25    2    1    2    0    0 -0.12244655732E+02  0.20909399635E+01 -0.26753111952E+02  0.12843379171E+03  0.12500082491E+03 0.  0.
          4    1    3    3  502    0 -0.22834836965E+02  0.53577276761E+01  0.47689262847E+02  0.53160264446E+02  0.12700000000E+01 0. -1.
         -4    1    3    3    0  502  0.10590181233E+02 -0.32667877126E+01 -0.74442374800E+02  0.75273527261E+02  0.12700000000E+01 0. -1.
          2    1    1    2  503    0 -0.47938966428E+02 -0.64941973971E+02 -0.16436144844E+04  0.16455953871E+04  0.00000000000E+00 0. -1.
         -2    1    1    2    0  501  0.60183622160E+02  0.62851034007E+02 -0.63795805603E+02  0.10789914580E+03  0.00000000000E+00 0.  1.
<mgrwt>
<rscale>  0 0.60463541E+02</rscale>
<asrwt>0</asrwt>
<pdfrwt beam="2">  1        1 0.27816090E+00 0.80719294E+02</pdfrwt>
<pdfrwt beam="1">  1       -1 0.11366532E-01 0.45290780E+02</pdfrwt>
<totfact> 0.23077299E+02</totfact>
</mgrwt>
</event>
<event>
 7    1  0.4252091E-004  0.6160658E+02  0.7546771E-02  0.1497824E+00
          1   -1    0    0  502    0 -0.00000000000E+00  0.00000000000E+00  0.21765170776E+04  0.21765170776E+04  0.00000000000E+00 0. -1.
          2   -1    0    0  503    0  0.00000000000E+00 -0.00000000000E+00 -0.50682668129E+03  0.50682668129E+03  0.00000000000E+00 0. -1.
         25    2    1    2    0    0 -0.44428951630E+02 -0.33765951114E+02  0.25798523504E+03  0.29205349027E+03  0.12499915394E+03 0.  0.
          4    1    3    3  501    0  0.87669296536E+01 -0.49007881618E+02  0.31557682543E+02  0.58958729156E+02  0.12700000000E+01 0.  1.
         -4    1    3    3    0  501 -0.53195881284E+02  0.15241930505E+02  0.22642755250E+03  0.23309476112E+03  0.12700000000E+01 0.  1.
          2    1    1    2  502    0 -0.16252661551E+02  0.22658277690E+02  0.18994525015E+04  0.18996571670E+04  0.00000000000E+00 0. -1.
          1    1    1    2  503    0  0.60681613181E+02  0.11107673424E+02 -0.48774734031E+03  0.49163310158E+03  0.00000000000E+00 0. -1.
<mgrwt>
<rscale>  0 0.41447197E+02</rscale>
<asrwt>0</asrwt>
<pdfrwt beam="2">  1        2 0.77973337E-01 0.61606583E+02</pdfrwt>
<pdfrwt beam="1">  1        1 0.33484878E+00 0.27884522E+02</pdfrwt>
<totfact> 0.30337021E+01</totfact>
</mgrwt>
</event>
<event>
 7    1  0.4252091E-004  0.5972060E+02  0.7546771E-02  0.1490849E+00
          2   -1    0    0  503    0  0.00000000000E+00  0.00000000000E+00  0.19897908834E+04  0.19897908834E+04  0.00000000000E+00 0. -1.
          1   -1    0    0  502    0 -0.00000000000E+00 -0.00000000000E+00 -0.22194225874E+02  0.22194225874E+02  0.00000000000E+00 0. -1.
         25    2    1    2    0    0  0.35132128286E+02  0.68331713035E+02  0.10179281253E+04  0.10284486478E+04  0.12500185358E+03 0.  0.
          4    1    3    3  501    0 -0.65998030283E+01 -0.29068982235E+02  0.43092461107E+03  0.43195624368E+03  0.12700000000E+01 0.  1.
         -4    1    3    3    0  501  0.41731931315E+02  0.97400695270E+02  0.58700351422E+03  0.59649240409E+03  0.12700000000E+01 0.  1.
          2    1    1    2  502    0 -0.65118431389E+01 -0.58728109900E+02  0.35629339096E+02  0.68998875337E+02  0.00000000000E+00 0. -1.
          1    1    1    2  503    0 -0.28620285147E+02 -0.96036031350E+01  0.91403919312E+03  0.91453758615E+03  0.00000000000E+00 0. -1.
<mgrwt>
<rscale>  0 0.42460330E+02</rscale>
<asrwt>0</asrwt>
<pdfrwt beam="1">  1        2 0.30612154E+00 0.30188573E+02</pdfrwt>
<pdfrwt beam="2">  1        1 0.34144978E-02 0.59720598E+02</pdfrwt>
<totfact> 0.31590049E+03</totfact>
</mgrwt>
</event>
<event>
 7    1  0.4252091E-004  0.7533942E+02  0.7546771E-02  0.1393948E+00
          2   -1    0    0  503    0  0.00000000000E+00  0.00000000000E+00  0.32546663414E+03  0.32546663414E+03  0.00000000000E+00 0. -1.
          1   -1    0    0  502    0 -0.00000000000E+00 -0.00000000000E+00 -0.75690990456E+03  0.75690990456E+03  0.00000000000E+00 0. -1.
         25    2    1    2    0    0  0.71444150263E+02 -0.42213632861E+02 -0.11135662708E+03  0.18684576916E+03  0.12499914261E+03 0.  0.
          4    1    3    3  501    0  0.18878483323E+02 -0.90278359694E+01  0.27572506501E+02  0.34637479262E+02  0.12700000000E+01 0. -1.
         -4    1    3    3    0  501  0.52565666940E+02 -0.33185796892E+02 -0.13892913358E+03  0.15220828990E+03  0.12700000000E+01 0. -1.
          2    1    1    2  502    0 -0.75470917083E+02 -0.69069117371E+01 -0.60330988383E+03  0.60805129774E+03  0.00000000000E+00 0. -1.
          1    1    1    2  503    0  0.40267668197E+01  0.49120544599E+02  0.28322324049E+03  0.28747947180E+03  0.00000000000E+00 0. -1.
<mgrwt>
<rscale>  0 0.60935437E+02</rscale>
<asrwt>0</asrwt>
<pdfrwt beam="1">  1        2 0.50071790E-01 0.49285320E+02</pdfrwt>
<pdfrwt beam="2">  1        1 0.11644768E+00 0.75339421E+02</pdfrwt>
<totfact> 0.36119991E+02</totfact>
</mgrwt>
</event>
<event>
 7    1  0.4252091E-004  0.8190923E+02  0.7546771E-02  0.1367201E+00
          2   -1    0    0  503    0  0.00000000000E+00  0.00000000000E+00  0.32145736652E+03  0.32145736652E+03  0.00000000000E+00 0. -1.
          1   -1    0    0  502    0 -0.00000000000E+00 -0.00000000000E+00 -0.56371999587E+03  0.56371999587E+03  0.00000000000E+00 0. -1.
         25    2    1    2    0    0  0.78422995066E+02  0.66903268897E+02 -0.15115000838E+03  0.22158074441E+03  0.12500195085E+03 0.  0.
          4    1    3    3  501    0  0.97734829890E+02  0.35092881553E+02 -0.52977417455E+02  0.11658399105E+03  0.12700000000E+01 0. -1.
         -4    1    3    3    0  501 -0.19311834824E+02  0.31810387344E+02 -0.98172590927E+02  0.10499675336E+03  0.12700000000E+01 0. -1.
          2    1    1    2  502    0 -0.23097469888E+02 -0.77715234527E+02 -0.37014842544E+03  0.37892348522E+03  0.00000000000E+00 0. -1.
          1    1    1    2  503    0 -0.55325525178E+02  0.10811965630E+02  0.27903580448E+03  0.28467313276E+03  0.00000000000E+00 0. -1.
<mgrwt>
<rscale>  0 0.67951413E+02</rscale>
<asrwt>0</asrwt>
<pdfrwt beam="1">  1        2 0.49454980E-01 0.56372088E+02</pdfrwt>
<pdfrwt beam="2">  1        1 0.86726153E-01 0.81909234E+02</pdfrwt>
<totfact> 0.54642037E+02</totfact>
</mgrwt>
</event>
<event>
 7    1  0.4252091E-004  0.8006732E+02  0.7546771E-02  0.1434988E+00
         -2   -1    0    0    0  501 -0.00000000000E+00  0.00000000000E+00  0.53676637605E+02  0.53676637605E+02  0.00000000000E+00 0.  1.
          2   -1    0    0  503    0  0.00000000000E+00 -0.00000000000E+00 -0.81616011750E+03  0.81616011750E+03  0.00000000000E+00 0. -1.
         25    2    1    2    0    0  0.66159279885E+02 -0.10651029554E+02 -0.37358499435E+03  0.39960147307E+03  0.12500037814E+03 0.  0.
          4    1    3    3  502    0 -0.31521993793E+02 -0.55115465762E+01 -0.17864759702E+03  0.18149542710E+03  0.12700000000E+01 0.  1.
         -4    1    3    3    0  502  0.97681273678E+02 -0.51394829777E+01 -0.19493739733E+03  0.21810604597E+03  0.12700000000E+01 0.  1.
          1    1    1    2  503    0 -0.73789194902E+02  0.43511701899E+02 -0.41738314828E+03  0.42608309748E+03  0.00000000000E+00 0. -1.
         -1    1    1    2    0  501  0.76299150174E+01 -0.32860672345E+02  0.28484662731E+02  0.44152184556E+02  0.00000000000E+00 0.  1.
<mgrwt>
<rscale>  0 0.51971705E+02</rscale>
<asrwt>0</asrwt>
<pdfrwt beam="2">  1        2 0.12556308E+00 0.80067319E+02</pdfrwt>
<pdfrwt beam="1">  1       -2 0.82579455E-02 0.33734839E+02</pdfrwt>
<totfact> 0.27695159E+03</totfact>
</mgrwt>
</event>
<event>
 7    1  0.4252091E-004  0.6064689E+02  0.7546771E-02  0.1420696E+00
          1   -1    0    0  502    0 -0.00000000000E+00  0.00000000000E+00  0.55601762014E+03  0.55601762014E+03  0.00000000000E+00 0. -1.
          2   -1    0    0  503    0  0.00000000000E+00 -0.00000000000E+00 -0.37882700290E+03  0.37882700290E+03  0.00000000000E+00 0. -1.
         25    2    1    2    0    0 -0.75484465149E+02 -0.35129747348E+02 -0.67140564160E+02  0.16451413744E+03  0.12500016974E+03 0.  0.
          4    1    3    3  501    0 -0.91661656614E+02  0.18876041722E+02 -0.37707952047E+02  0.10090424566E+03  0.12700000000E+01 0. -1.
         -4    1    3    3    0  501  0.16177191465E+02 -0.54005789070E+02 -0.29432612112E+02  0.63609891782E+02  0.12700000000E+01 0. -1.
          2    1    1    2  502    0  0.59372197522E+02 -0.11833647383E+02  0.50315673174E+03  0.50678574343E+03  0.00000000000E+00 0. -1.
          1    1    1    2  503    0  0.16112267627E+02  0.46963394731E+02 -0.25882555034E+03  0.26354474216E+03  0.00000000000E+00 0. -1.
<mgrwt>
<rscale>  0 0.54873897E+02</rscale>
<asrwt>0</asrwt>
<pdfrwt beam="2">  1        2 0.58281077E-01 0.49650434E+02</pdfrwt>
<pdfrwt beam="1">  1        1 0.85541173E-01 0.60646893E+02</pdfrwt>
<totfact> 0.47395509E+02</totfact>
</mgrwt>
</event>
<event>
 7    1  0.4252091E-004  0.1089433E+03  0.7546771E-02  0.1425092E+00
         -2   -1    0    0    0  501 -0.00000000000E+00  0.00000000000E+00  0.11562284736E+04  0.11562284736E+04  0.00000000000E+00 0.  1.
          2   -1    0    0  503    0  0.00000000000E+00 -0.00000000000E+00 -0.73496538801E+02  0.73496538801E+02  0.00000000000E+00 0. -1.
         25    2    1    2    0    0 -0.48498286014E+02  0.73717905211E+02  0.27855835791E+03  0.31781370859E+03  0.12499752523E+03 0.  0.
          4    1    3    3  502    0  0.17874842033E+02 -0.20110657057E+01 -0.34533270655E+01  0.18360085262E+02  0.12700000000E+01 0.  1.
         -4    1    3    3    0  502 -0.66373128047E+02  0.75728970917E+02  0.28201168498E+03  0.29945362333E+03  0.12700000000E+01 0.  1.
          1    1    1    2  503    0 -0.22857862259E+02  0.13846147730E+02 -0.46574536132E+02  0.53697160911E+02  0.00000000000E+00 0. -1.
         -1    1    1    2    0  501  0.71356148272E+02 -0.87564052942E+02  0.85074811305E+03  0.85821414292E+03  0.00000000000E+00 0.  1.
<mgrwt>
<rscale>  0 0.53957867E+02</rscale>
<asrwt>0</asrwt>
<pdfrwt beam="2">  1        2 0.11307161E-01 0.26724477E+02</pdfrwt>
<pdfrwt beam="1">  1       -2 0.17788129E+00 0.10894325E+03</pdfrwt>
<totfact> 0.10133694E+02</totfact>
</mgrwt>
</event>
<event>
 7    1  0.4252091E-004  0.9527464E+02  0.7546771E-02  0.1343778E+00
         -1   -1    0    0    0  501 -0.00000000000E+00  0.00000000000E+00  0.14144788636E+03  0.14144788636E+03  0.00000000000E+00 0.  1.
          1   -1    0    0  503    0  0.00000000000E+00 -0.00000000000E+00 -0.85457128334E+03  0.85457128334E+03  0.00000000000E+00 0. -1.
         25    2    1    2    0    0  0.98367050863E+02 -0.90472399420E+02 -0.17020504032E+03  0.24990638890E+03  0.12498846231E+03 0.  0.
          4    1    3    3  502    0  0.58451449480E+02 -0.43077009651E+02 -0.42378196276E+01  0.72744571770E+02  0.12700000000E+01 0.  1.
         -4    1    3    3    0  502  0.39915601382E+02 -0.47395389770E+02 -0.16596722070E+03  0.17716181713E+03  0.12700000000E+01 0.  1.
          2    1    1    2  503    0 -0.58645060740E+02  0.72136634128E+01 -0.62188237231E+03  0.62468309171E+03  0.00000000000E+00 0. -1.
         -2    1    1    2    0  501 -0.39721990123E+02  0.83258736008E+02  0.78964015649E+02  0.12142968907E+03  0.00000000000E+00 0.  1.
<mgrwt>
<rscale>  0 0.75029980E+02</rscale>
<asrwt>0</asrwt>
<pdfrwt beam="2">  1        1 0.13147250E+00 0.59087055E+02</pdfrwt>
<pdfrwt beam="1">  1       -1 0.21761213E-01 0.95274640E+02</pdfrwt>
<totfact> 0.38654699E+02</totfact>
</mgrwt>
</event>
<event>
 7    1  0.4252091E-004  0.5350551E+02  0.7546771E-02  0.1506733E+00
          1   -1    0    0  502    0 -0.00000000000E+00  0.00000000000E+00  0.36280887609E+02  0.36280887609E+02  0.00000000000E+00 0. -1.
          2   -1    0    0  503    0  0.00000000000E+00 -0.00000000000E+00 -0.12127166305E+04  0.12127166305E+04  0.00000000000E+00 0. -1.
         25    2    1    2    0    0  0.30134649338E+01 -0.26704724841E+02 -0.48408935143E+03  0.50069018577E+03  0.12500375459E+03 0.  0.
          4    1    3    3  501    0 -0.34681263606E+02  0.12282852635E+01 -0.35529161342E+02  0.49681313748E+02  0.12700000000E+01 0. -1.
         -4    1    3    3    0  501  0.37694728540E+02 -0.27933010104E+02 -0.44856019009E+03  0.45100887203E+03  0.12700000000E+01 0. -1.
          2    1    1    2  502    0 -0.21266208937E+02  0.50771762763E+02  0.25634331763E+00  0.55046246453E+02  0.00000000000E+00 0. -1.
          1    1    1    2  503    0  0.18252744004E+02 -0.24067037923E+02 -0.69260273480E+03  0.69326108591E+03  0.00000000000E+00 0. -1.
<mgrwt>
<rscale>  0 0.40201643E+02</rscale>
<asrwt>0</asrwt>
<pdfrwt beam="2">  1        2 0.18657182E+00 0.30205711E+02</pdfrwt>
<pdfrwt beam="1">  1        1 0.55816742E-02 0.53505513E+02</pdfrwt>
<totfact> 0.38266429E+03</totfact>
</mgrwt>
</event>
<event>
 7    1  0.4252091E-004  0.1222134E+03  0.7546771E-02  0.1398421E+00
          2   -1    0    0  503    0  0.00000000000E+00  0.00000000000E+00  0.23804108260E+03  0.23804108260E+03  0.00000000000E+00 0. -1.
         -2   -1    0    0    0  501 -0.00000000000E+00 -0.00000000000E+00 -0.35662466234E+03  0.35662466234E+03  0.00000000000E+00 0.  1.
         25    2    1    2    0    0  0.78056407448E+01 -0.10285617939E+03  0.23055217862E+02  0.16369745291E+03  0.12499996540E+03 0.  0.
          4    1    3    3  502    0 -0.13215825990E+00  0.52529212912E+01 -0.38604589863E+02  0.38981250703E+02  0.12700000000E+01 0.  1.
         -4    1    3    3    0  502  0.79377990047E+01 -0.10810910068E+03  0.61659807725E+02  0.12471620220E+03  0.12700000000E+01 0.  1.
          3    1    1    2  503    0 -0.22039731866E+02  0.12848828985E+03  0.11428725220E+03  0.17336829706E+03  0.00000000000E+00 0. -1.
         -1    1    1    2    0  501  0.14234091121E+02 -0.25632110461E+02 -0.25592604981E+03  0.25759999497E+03  0.00000000000E+00 0.  1.
<mgrwt>
<rscale>  0 0.59859818E+02</rscale>
<asrwt>0</asrwt>
<pdfrwt beam="1">  1        2 0.36621705E-01 0.12221343E+03</pdfrwt>
<pdfrwt beam="2">  1       -2 0.54865332E-01 0.29319182E+02</pdfrwt>
<totfact> 0.44667448E+02</totfact>
</mgrwt>
</event>
<event>
 7    1  0.4252091E-004  0.1562967E+03  0.7546771E-02  0.1313755E+00
          2   -1    0    0  503    0  0.00000000000E+00  0.00000000000E+00  0.10028527544E+04  0.10028527544E+04  0.00000000000E+00 0. -1.
         -2   -1    0    0    0  501 -0.00000000000E+00 -0.00000000000E+00 -0.20913112561E+03  0.20913112561E+03  0.00000000000E+00 0.  1.
         25    2    1    2    0    0 -0.13981509901E+03 -0.66157696347E+02  0.19129895647E+03  0.27594473282E+03  0.12500040852E+03 0.  0.
          4    1    3    3  502    0  0.17032803506E+02 -0.30485168455E+02  0.17331823436E+02  0.39005985369E+02  0.12700000000E+01 0.  1.
         -4    1    3    3    0  502 -0.15684790252E+03 -0.35672527892E+02  0.17396713303E+03  0.23693874745E+03  0.12700000000E+01 0.  1.
          1    1    1    2  503    0 -0.16148603928E+02  0.44064354442E+02  0.73112249813E+03  0.73262715757E+03  0.00000000000E+00 0. -1.
         -1    1    1    2    0  501  0.15596370294E+03  0.22093341905E+02 -0.12869982576E+03  0.20341198967E+03  0.00000000000E+00 0.  1.
<mgrwt>
<rscale>  0 0.85644827E+02</rscale>
<asrwt>0</asrwt>
<pdfrwt beam="1">  1        2 0.15428504E+00 0.46930211E+02</pdfrwt>
<pdfrwt beam="2">  1       -2 0.32174020E-01 0.15629668E+03</pdfrwt>
<totfact> 0.25753171E+02</totfact>
</mgrwt>
</event>
<event>
 7    1  0.4252091E-004  0.1551665E+03  0.7546771E-02  0.1412123E+00
          1   -1    0    0  503    0  0.00000000000E+00  0.00000000000E+00  0.15506215128E+04  0.15506215128E+04  0.00000000000E+00 0. -1.
         -1   -1    0    0    0  501 -0.00000000000E+00 -0.00000000000E+00 -0.54761329660E+03  0.54761329660E+03  0.00000000000E+00 0.  1.
         25    2    1    2    0    0 -0.13408687637E+03  0.10820098744E+03  0.13810927064E+03  0.25374824270E+03  0.12500902343E+03 0.  0.
          4    1    3    3  502    0 -0.90804809079E+02  0.59369008652E+02  0.87410511658E+01  0.10884948974E+03  0.12700000000E+01 0. -1.
         -4    1    3    3    0  502 -0.43282067291E+02  0.48831978791E+02  0.12936821947E+03  0.14489875296E+03  0.12700000000E+01 0. -1.
          2    1    1    2  503    0  0.11389228820E+03 -0.10349533944E+03  0.13501001034E+04  0.13588425324E+04  0.00000000000E+00 0. -1.
         -2    1    1    2    0  501  0.20194588170E+02 -0.47056479975E+01 -0.48520115783E+03  0.48564403433E+03  0.00000000000E+00 0.  1.
<mgrwt>
<rscale>  0 0.56722734E+02</rscale>
<asrwt>0</asrwt>
<pdfrwt beam="1">  1        1 0.23855715E+00 0.15516651E+03</pdfrwt>
<pdfrwt beam="2">  1       -1 0.84248200E-01 0.20735586E+02</pdfrwt>
<totfact> 0.11266923E+01</totfact>
</mgrwt>
</event>
<event>
 7    1  0.4252091E-004  0.5743894E+02  0.7546771E-02  0.1530035E+00
         -1   -1    0    0    0  501 -0.00000000000E+00  0.00000000000E+00  0.20557697239E+03  0.20557697239E+03  0.00000000000E+00 0.  1.
          1   -1    0    0  503    0  0.00000000000E+00 -0.00000000000E+00 -0.21424919193E+03  0.21424919193E+03  0.00000000000E+00 0. -1.
         25    2    1    2    0    0 -0.78244355282E+02  0.12992077175E+02  0.13952692361E+02  0.14865159478E+03  0.12494657180E+03 0.  0.
          4    1    3    3  502    0 -0.57926675336E+02 -0.34627265566E+02 -0.36170422166E+02  0.76579759569E+02  0.12700000000E+01 0.  1.
         -4    1    3    3    0  502 -0.20317679946E+02  0.47619342741E+02  0.50123114526E+02  0.72071835215E+02  0.12700000000E+01 0.  1.
          2    1    1    2  503    0  0.23227340964E+02 -0.63100882086E+01 -0.13963964458E+03  0.14169882469E+03  0.00000000000E+00 0. -1.
         -2    1    1    2    0  501  0.55017014318E+02 -0.66819889659E+01  0.11701473268E+03  0.12947574485E+03  0.00000000000E+00 0.  1.
<mgrwt>
<rscale>  0 0.37182113E+02</rscale>
<asrwt>0</asrwt>
<pdfrwt beam="2">  1        1 0.32961414E-01 0.24069204E+02</pdfrwt>
<pdfrwt beam="1">  1       -1 0.31627227E-01 0.57438939E+02</pdfrwt>
<totfact> 0.11782160E+03</totfact>
</mgrwt>
</event>
<event>
 7    1  0.4252091E-004  0.1267034E+03  0.7546771E-02  0.1238747E+00
          2   -1    0    0  503    0  0.00000000000E+00  0.00000000000E+00  0.17243711717E+03  0.17243711717E+03  0.00000000000E+00 0. -1.
          1   -1    0    0  502    0 -0.00000000000E+00 -0.00000000000E+00 -0.17386633072E+04  0.17386633072E+04  0.00000000000E+00 0. -1.
         25    2    1    2    0    0 -0.38376083394E+02 -0.96268624804E+02 -0.91202120356E+03  0.92636348332E+03  0.12500502228E+03 0.  0.
          4    1    3    3  501    0 -0.51765825642E+02  0.54152348310E+01 -0.45526809715E+03  0.45823539655E+03  0.12700000000E+01 0.  1.
         -4    1    3    3    0  501  0.13389742247E+02 -0.10168385963E+03 -0.45675310641E+03  0.46812808677E+03  0.12700000000E+01 0.  1.
          2    1    1    2  502    0  0.11869453839E+03 -0.44126617155E+01 -0.78924128461E+03  0.79812885574E+03  0.00000000000E+00 0. -1.
          3    1    1    2  503    0 -0.80318454998E+02  0.10068128652E+03  0.13503629817E+03  0.18660808528E+03  0.00000000000E+00 0. -1.
<mgrwt>
<rscale>  0 0.12267596E+03</rscale>
<asrwt>0</asrwt>
<pdfrwt beam="1">  1        2 0.26528788E-01 0.12670341E+03</pdfrwt>
<pdfrwt beam="2">  1        1 0.26748666E+00 0.11877653E+03</pdfrwt>
<totfact> 0.14650128E+02</totfact>
</mgrwt>
</event>
<event>
 7    1  0.4252091E-004  0.8945373E+02  0.7546771E-02  0.1470084E+00
          2   -1    0    0  503    0  0.00000000000E+00  0.00000000000E+00  0.14673018088E+04  0.14673018088E+04  0.00000000000E+00 0. -1.
         -2   -1    0    0    0  501 -0.00000000000E+00 -0.00000000000E+00 -0.36133204440E+03  0.36133204440E+03  0.00000000000E+00 0.  1.
         25    2    1    2    0    0 -0.78135874476E+02 -0.58641858166E+02  0.10025452635E+03  0.18767110858E+03  0.12500157012E+03 0.  0.
          4    1    3    3  502    0 -0.23472064050E+02 -0.59752525684E+02  0.11439428630E+03  0.13118295528E+03  0.12700000000E+01 0. -1.
         -4    1    3    3    0  502 -0.54663810426E+02  0.11106675179E+01 -0.14139759947E+02  0.56488153306E+02  0.12700000000E+01 0. -1.
          1    1    1    2  503    0  0.81849905132E+02  0.35603048054E+02  0.13214027319E+04  0.13244138945E+04  0.00000000000E+00 0. -1.
         -1    1    1    2    0  501 -0.37140306569E+01  0.23038810113E+02 -0.31568749382E+03  0.31654885018E+03  0.00000000000E+00 0.  1.
<mgrwt>
<rscale>  0 0.45689332E+02</rscale>
<asrwt>0</asrwt>
<pdfrwt beam="1">  1        2 0.22573874E+00 0.89453730E+02</pdfrwt>
<pdfrwt beam="2">  1       -2 0.55589546E-01 0.23336255E+02</pdfrwt>
<totfact> 0.48651839E+01</totfact>
</mgrwt>
</event>
<event>
 7    1  0.4252091E-004  0.1083040E+03  0.7546771E-02  0.1317503E+00
          2   -1    0    0  503    0  0.00000000000E+00  0.00000000000E+00  0.71478467156E+03  0.71478467156E+03  0.00000000000E+00 0. -1.
          1   -1    0    0  502    0 -0.00000000000E+00 -0.00000000000E+00 -0.17849195457E+03  0.17849195457E+03  0.00000000000E+00 0. -1.
         25    2    1    2    0    0  0.13360867316E+03 -0.92844397977E+02  0.22957004604E+03  0.30789647722E+03  0.12500589933E+03 0.  0.
          4    1    3    3  501    0 -0.23347814291E+02 -0.22425122690E+02  0.27344423873E+02  0.42395011225E+02  0.12700000000E+01 0.  1.
         -4    1    3    3    0  501  0.15695648745E+03 -0.70419275287E+02  0.20222562217E+03  0.26550146599E+03  0.12700000000E+01 0.  1.
          2    1    1    2  502    0 -0.61322608566E+02  0.22963459913E+02 -0.12553332325E+03  0.14158530311E+03  0.00000000000E+00 0. -1.
          1    1    1    2  503    0 -0.72286064593E+02  0.69880938063E+02  0.43225599419E+03  0.44379484580E+03  0.00000000000E+00 0. -1.
<mgrwt>
<rscale>  0 0.84213255E+02</rscale>
<asrwt>0</asrwt>
<pdfrwt beam="1">  1        2 0.10996687E+00 0.10830401E+03</pdfrwt>
<pdfrwt beam="2">  1        1 0.27460301E-01 0.65481164E+02</pdfrwt>
<totfact> 0.94295462E+02</totfact>
</mgrwt>
</event>
<event>
 7    1  0.4252091E-004  0.5834630E+02  0.7546771E-02  0.1416495E+00
          1   -1    0    0  502    0 -0.00000000000E+00  0.00000000000E+00  0.27868799509E+03  0.27868799509E+03  0.00000000000E+00 0. -1.
          2   -1    0    0  503    0  0.00000000000E+00 -0.00000000000E+00 -0.11342843741E+04  0.11342843741E+04  0.00000000000E+00 0. -1.
         25    2    1    2    0    0  0.30388280353E+02  0.87729825182E+01 -0.17208041390E+03  0.21503115982E+03  0.12500527204E+03 0.  0.
          4    1    3    3  501    0 -0.14871540194E+02  0.41290703781E+02 -0.14787985025E+03  0.15426000109E+03  0.12700000000E+01 0.  1.
         -4    1    3    3    0  501  0.45259820546E+02 -0.32517721263E+02 -0.24200563656E+02  0.60771158729E+02  0.12700000000E+01 0.  1.
          2    1    1    2  502    0  0.11620589843E+02 -0.52024421215E+02  0.25347130466E+03  0.25901598560E+03  0.00000000000E+00 0. -1.
          1    1    1    2  503    0 -0.42008870196E+02  0.43251438697E+02 -0.93698726979E+03  0.93892522380E+03  0.00000000000E+00 0. -1.
<mgrwt>
<rscale>  0 0.55769476E+02</rscale>
<asrwt>0</asrwt>
<pdfrwt beam="2">  1        2 0.17450528E+00 0.58346297E+02</pdfrwt>
<pdfrwt beam="1">  1        1 0.42875077E-01 0.53306458E+02</pdfrwt>
<totfact> 0.31235931E+02</totfact>
</mgrwt>
</event>
<event>
 7    1  0.4252091E-004  0.6332447E+02  0.7546771E-02  0.1530966E+00
          2   -1    0    0  503    0  0.00000000000E+00  0.00000000000E+00  0.10075458568E+03  0.10075458568E+03  0.00000000000E+00 0. -1.
          1   -1    0    0  502    0 -0.00000000000E+00 -0.00000000000E+00 -0.34436139659E+03  0.34436139659E+03  0.00000000000E+00 0. -1.
         25    2    1    2    0    0 -0.28902171868E+02  0.35718149951E+02 -0.50584693670E+02  0.14248371334E+03  0.12502669939E+03 0.  0.
          4    1    3    3  501    0 -0.69104876021E+02 -0.56804672466E+01 -0.61143877307E+01  0.69618605526E+02  0.12700000000E+01 0. -1.
         -4    1    3    3    0  501  0.40202704154E+02  0.41398617197E+02 -0.44470305939E+02  0.72865107819E+02  0.12700000000E+01 0. -1.
          2    1    1    2  502    0 -0.17718043060E+02  0.12525897718E+02 -0.22658131300E+03  0.22761792233E+03  0.00000000000E+00 0. -1.
          1    1    1    2  503    0  0.46620214928E+02 -0.48244047668E+02  0.33559195754E+02  0.75014346595E+02  0.00000000000E+00 0. -1.
<mgrwt>
<rscale>  0 0.37068170E+02</rscale>
<asrwt>0</asrwt>
<pdfrwt beam="1">  1        2 0.15500705E-01 0.63324466E+02</pdfrwt>
<pdfrwt beam="2">  1        1 0.52978676E-01 0.21698552E+02</pdfrwt>
<totfact> 0.35245505E+03</totfact>
</mgrwt>
</event>
<event>
 7    1  0.4252091E-004  0.6061927E+02  0.7546771E-02  0.1508161E+00
          2   -1    0    0  503    0  0.00000000000E+00  0.00000000000E+00  0.23847636466E+04  0.23847636466E+04  0.00000000000E+00 0. -1.
          1   -1    0    0  502    0 -0.00000000000E+00 -0.00000000000E+00 -0.48348330104E+02  0.48348330104E+02  0.00000000000E+00 0. -1.
         25    2    1    2    0    0  0.30303831091E+02  0.79665121800E+02  0.10688939039E+04  0.10795481117E+04  0.12500037555E+03 0.  0.
          4    1    3    3  501    0  0.58249875630E+02  0.26168554222E+02  0.23665461510E+03  0.24512213484E+03  0.12700000000E+01 0. -1.
         -4    1    3    3    0  501 -0.27946044538E+02  0.53496567578E+02  0.83223928883E+03  0.83442597690E+03  0.12700000000E+01 0. -1.
          2    1    1    2  502    0 -0.27695387388E+02 -0.53391044217E+02 -0.21797409429E+02  0.63974722688E+02  0.00000000000E+00 0. -1.
          1    1    1    2  503    0 -0.26084437038E+01 -0.26274077583E+02  0.12893188220E+04  0.12895891423E+04  0.00000000000E+00 0. -1.
<mgrwt>
<rscale>  0 0.40006815E+02</rscale>
<asrwt>0</asrwt>
<pdfrwt beam="1">  1        2 0.36688662E+00 0.26403241E+02</pdfrwt>
<pdfrwt beam="2">  1        1 0.74382065E-02 0.60619273E+02</pdfrwt>
<totfact> 0.74027956E+02</totfact>
</mgrwt>
</event>
<event>
 7    1  0.4252091E-004  0.6374388E+02  0.7546771E-02  0.1427327E+00
          1   -1    0    0  502    0 -0.00000000000E+00  0.00000000000E+00  0.79239163604E+02  0.79239163604E+02  0.00000000000E+00 0. -1.
          2   -1    0    0  503    0  0.00000000000E+00 -0.00000000000E+00 -0.39710509250E+03  0.39710509250E+03  0.00000000000E+00 0. -1.
         25    2    1    2    0    0 -0.16055725987E+02 -0.53765856634E+02 -0.35636436943E+02  0.14158032860E+03  0.12500592039E+03 0.  0.
          4    1    3    3  501    0 -0.46751712546E+02 -0.18922568192E+02 -0.68212544117E+02  0.84843092163E+02  0.12700000000E+01 0. -1.
         -4    1    3    3    0  501  0.30695986558E+02 -0.34843288441E+02  0.32576107173E+02  0.56737236439E+02  0.12700000000E+01 0. -1.
          2    1    1    2  502    0 -0.26268183667E+02  0.68764832927E+02 -0.31538208902E+02  0.80082946633E+02  0.00000000000E+00 0. -1.
          1    1    1    2  503    0  0.42323909654E+02 -0.14998976293E+02 -0.25069128305E+03  0.25468098087E+03  0.00000000000E+00 0. -1.
<mgrwt>
<rscale>  0 0.53500407E+02</rscale>
<asrwt>0</asrwt>
<pdfrwt beam="2">  1        2 0.61093091E-01 0.44903036E+02</pdfrwt>
<pdfrwt beam="1">  1        1 0.12190641E-01 0.63743875E+02</pdfrwt>
<totfact> 0.49888158E+03</totfact>
</mgrwt>
</event>
<event>
 7    1  0.4252091E-004  0.1143910E+03  0.7546771E-02  0.1375087E+00
          2   -1    0    0  503    0  0.00000000000E+00  0.00000000000E+00  0.87352958598E+03  0.87352958598E+03  0.00000000000E+00 0. -1.
         -2   -1    0    0    0  501 -0.00000000000E+00 -0.00000000000E+00 -0.20091952169E+03  0.20091952169E+03  0.00000000000E+00 0.  1.
         25    2    1    2    0    0  0.11012990544E+01  0.14407366970E+03  0.13770095707E+03  0.23523258817E+03  0.12495751998E+03 0.  0.
          4    1    3    3  502    0  0.13058429078E+02  0.15445228476E+03  0.78140091957E+02  0.17359008529E+03  0.12700000000E+01 0. -1.
         -4    1    3    3    0  502 -0.11957130023E+02 -0.10378615065E+02  0.59560865110E+02  0.61642502883E+02  0.12700000000E+01 0. -1.
          1    1    1    2  503    0  0.16400719280E+02 -0.11054869206E+03  0.68007940717E+03  0.68920098445E+03  0.00000000000E+00 0. -1.
         -1    1    1    2    0  501 -0.17502018334E+02 -0.33524977635E+02 -0.14517029994E+03  0.15001553505E+03  0.00000000000E+00 0.  1.
<mgrwt>
<rscale>  0 0.65773129E+02</rscale>
<asrwt>0</asrwt>
<pdfrwt beam="1">  1        2 0.13438916E+00 0.11439099E+03</pdfrwt>
<pdfrwt beam="2">  1       -2 0.30910696E-01 0.37818577E+02</pdfrwt>
<totfact> 0.30675276E+02</totfact>
</mgrwt>
</event>
<event>
 7    1  0.4252091E-004  0.9121861E+02  0.7546771E-02  0.1473117E+00
          2   -1    0    0  503    0  0.00000000000E+00  0.00000000000E+00  0.13862924364E+04  0.13862924364E+04  0.00000000000E+00 0. -1.
          1   -1    0    0  502    0 -0.00000000000E+00 -0.00000000000E+00 -0.10999278679E+03  0.10999278679E+03  0.00000000000E+00 0. -1.
         25    2    1    2    0    0  0.21752076948E+02  0.71567863833E+02  0.66660315244E+02  0.16020323377E+03  0.12500546587E+03 0.  0.
          4    1    3    3  501    0 -0.42679406047E+02  0.41277453506E+02 -0.44683752539E+01  0.59556184783E+02  0.12700000000E+01 0. -1.
         -4    1    3    3    0  501  0.64431482995E+02  0.30290410327E+02  0.71128690498E+02  0.10064704899E+03  0.12700000000E+01 0. -1.
          2    1    1    2  502    0 -0.22488676816E+02 -0.93949666385E+02 -0.26157364519E+02  0.10008240663E+03  0.00000000000E+00 0. -1.
          1    1    1    2  503    0  0.73659986824E+00  0.22381802552E+02  0.12357966989E+04  0.12359995828E+04  0.00000000000E+00 0. -1.
<mgrwt>
<rscale>  0 0.45196706E+02</rscale>
<asrwt>0</asrwt>
<pdfrwt beam="1">  1        2 0.21327575E+00 0.22393920E+02</pdfrwt>
<pdfrwt beam="2">  1        1 0.16921968E-01 0.91218606E+02</pdfrwt>
<totfact> 0.79113052E+02</totfact>
</mgrwt>
</event>
<event>
 7    1  0.4252091E-004  0.1084000E+03  0.7546771E-02  0.1284229E+00
          2   -1    0    0  503    0  0.00000000000E+00  0.00000000000E+00  0.31791285181E+04  0.31791285181E+04  0.00000000000E+00 0. -1.
          1   -1    0    0  502    0 -0.00000000000E+00 -0.00000000000E+00 -0.47132096257E+03  0.47132096257E+03  0.00000000000E+00 0. -1.
         25    2    1    2    0    0  0.84730775106E+02 -0.13717381719E+03  0.83286069535E+03  0.85747895957E+03  0.12496906762E+03 0.  0.
          4    1    3    3  501    0  0.11078218567E+03 -0.13026761563E+03  0.77491121401E+03  0.79355613969E+03  0.12700000000E+01 0. -1.
         -4    1    3    3    0  501 -0.26051410569E+02 -0.69062015576E+01  0.57949481346E+02  0.63922819876E+02  0.12700000000E+01 0. -1.
          2    1    1    2  502    0 -0.82924581574E+02  0.31971036223E+02 -0.45351064570E+03  0.46213692684E+03  0.00000000000E+00 0. -1.
          1    1    1    2  503    0 -0.18061935327E+01  0.10520278097E+03  0.23284575059E+04  0.23308335943E+04  0.00000000000E+00 0. -1.
<mgrwt>
<rscale>  0 0.98152793E+02</rscale>
<asrwt>0</asrwt>
<pdfrwt beam="1">  1        2 0.48909668E+00 0.10840002E+03</pdfrwt>
<pdfrwt beam="2">  1        1 0.72510919E-01 0.88874256E+02</pdfrwt>
<totfact> 0.12927002E+01</totfact>
</mgrwt>
</event>
<event>
 7    1  0.4252091E-004  0.9664688E+02  0.7546771E-02  0.1399832E+00
          1   -1    0    0  502    0 -0.00000000000E+00  0.00000000000E+00  0.67950805933E+02  0.67950805933E+02  0.00000000000E+00 0. -1.
          2   -1    0    0  503    0  0.00000000000E+00 -0.00000000000E+00 -0.21911331395E+04  0.21911331395E+04  0.00000000000E+00 0. -1.
         25    2    1    2    0    0  0.11653849316E+03  0.58010235605E+02 -0.14188644880E+03  0.22957715786E+03  0.12500999654E+03 0.  0.
          4    1    3    3  501    0  0.11108324181E+03  0.38232064562E+02 -0.16246307837E+03  0.20049200010E+03  0.12700000000E+01 0.  1.
         -4    1    3    3    0  501  0.54552513558E+01  0.19778171043E+02  0.20576629573E+02  0.29085157757E+02  0.12700000000E+01 0.  1.
          2    1    1    2  502    0 -0.36190963689E+02 -0.58620017878E+01  0.83131509606E+01  0.37593315850E+02  0.00000000000E+00 0. -1.
          1    1    1    2  503    0 -0.80347529472E+02 -0.52148233817E+02 -0.19896090357E+04  0.19919134717E+04  0.00000000000E+00 0. -1.
<mgrwt>
<rscale>  0 0.59525871E+02</rscale>
<asrwt>0</asrwt>
<pdfrwt beam="2">  1        2 0.33709740E+00 0.96646877E+02</pdfrwt>
<pdfrwt beam="1">  1        1 0.10453970E-01 0.36662637E+02</pdfrwt>
<totfact> 0.47930446E+02</totfact>
</mgrwt>
</event>
<event>
 7    1  0.4252091E-004  0.8654178E+02  0.7546771E-02  0.1494356E+00
          2   -1    0    0  503    0  0.00000000000E+00  0.00000000000E+00  0.20197441892E+04  0.20197441892E+04  0.00000000000E+00 0. -1.
         -2   -1    0    0    0  501 -0.00000000000E+00 -0.00000000000E+00 -0.31842905548E+02  0.31842905548E+02  0.00000000000E+00 0.  1.
         25    2    1    2    0    0  0.61600187153E+02  0.43796075099E+02  0.11682379230E+04  0.11773343686E+04  0.12499476562E+03 0.  0.
          4    1    3    3  502    0  0.97749434952E+02  0.43724100561E+02  0.76184834215E+03  0.76933819504E+03  0.12700000000E+01 0.  1.
         -4    1    3    3    0  502 -0.36149247799E+02  0.71974537770E-01  0.40638958087E+03  0.40799617355E+03  0.12700000000E+01 0.  1.
          1    1    1    2  503    0 -0.22479751131E+01  0.20206749886E+02  0.77669814564E+03  0.77696420482E+03  0.00000000000E+00 0. -1.
         -1    1    1    2    0  501 -0.59352212040E+02 -0.64002824984E+02  0.42965214951E+02  0.97288521295E+02  0.00000000000E+00 0.  1.
<mgrwt>
<rscale>  0 0.41946588E+02</rscale>
<asrwt>0</asrwt>
<pdfrwt beam="1">  1        2 0.31072977E+00 0.20331408E+02</pdfrwt>
<pdfrwt beam="2">  1       -2 0.48989101E-02 0.86541782E+02</pdfrwt>
<totfact> 0.17875550E+03</totfact>
</mgrwt>
</event>
<event>
 7    1  0.4252091E-004  0.6349564E+02  0.7546771E-02  0.1518787E+00
         -2   -1    0    0    0  501 -0.00000000000E+00  0.00000000000E+00  0.76416035827E+03  0.76416035827E+03  0.00000000000E+00 0.  1.
          2   -1    0    0  503    0  0.00000000000E+00 -0.00000000000E+00 -0.22093755069E+03  0.22093755069E+03  0.00000000000E+00 0. -1.
         25    2    1    2    0    0 -0.49025780445E+02 -0.23698042444E+02  0.22961160255E+03  0.26704410670E+03  0.12500377009E+03 0.  0.
          4    1    3    3  502    0 -0.83722836099E+02  0.10734241626E+02  0.17108511576E+03  0.19077858099E+03  0.12700000000E+01 0. -1.
         -4    1    3    3    0  502  0.34697055655E+02 -0.34432284070E+02  0.58526486785E+02  0.76265525716E+02  0.12700000000E+01 0. -1.
          3    1    1    2  503    0  0.43587583924E+02  0.46522688209E+02 -0.19692065341E+03  0.20698304696E+03  0.00000000000E+00 0. -1.
         -1    1    1    2    0  501  0.54381965206E+01 -0.22824645766E+02  0.51053185844E+03  0.51107075530E+03  0.00000000000E+00 0.  1.
<mgrwt>
<rscale>  0 0.38598361E+02</rscale>
<asrwt>0</asrwt>
<pdfrwt beam="2">  1        2 0.33990393E-01 0.63495640E+02</pdfrwt>
<pdfrwt beam="1">  1       -2 0.11756313E+00 0.23463555E+02</pdfrwt>
<totfact> 0.95049408E+01</totfact>
</mgrwt>
</event>
<event>
 7    1  0.4252091E-004  0.1133789E+03  0.7546771E-02  0.1287064E+00
          2   -1    0    0  503    0  0.00000000000E+00  0.00000000000E+00  0.66472922416E+03  0.66472922416E+03  0.00000000000E+00 0. -1.
          1   -1    0    0  502    0 -0.00000000000E+00 -0.00000000000E+00 -0.78321171807E+03  0.78321171807E+03  0.00000000000E+00 0. -1.
         25    2    1    2    0    0 -0.69748761150E+02 -0.16429979064E+03 -0.15959706986E+02  0.21849094209E+03  0.12499707453E+03 0.  0.
          4    1    3    3  501    0 -0.72328549637E+02 -0.18234972610E+03 -0.32008602871E+01  0.19620066286E+03  0.12700000000E+01 0. -1.
         -4    1    3    3    0  501  0.25797884865E+01  0.18049935462E+02 -0.12758846699E+02  0.22290279224E+02  0.12700000000E+01 0. -1.
          2    1    1    2  502    0 -0.50459594774E+01  0.82575906366E+02 -0.65792539445E+03  0.66310637659E+03  0.00000000000E+00 0. -1.
          1    1    1    2  503    0  0.74794720628E+02  0.81723884274E+02  0.55540260753E+03  0.56634362356E+03  0.00000000000E+00 0. -1.
<mgrwt>
<rscale>  0 0.96849497E+02</rscale>
<asrwt>0</asrwt>
<pdfrwt beam="1">  1        2 0.10226604E+00 0.11337885E+03</pdfrwt>
<pdfrwt beam="2">  1        1 0.12049411E+00 0.82729934E+02</pdfrwt>
<totfact> 0.15803997E+02</totfact>
</mgrwt>
</event>
<event>
 7    1  0.4252091E-004  0.1161220E+03  0.7546771E-02  0.1307088E+00
          1   -1    0    0  502    0 -0.00000000000E+00  0.00000000000E+00  0.38563726846E+03  0.38563726846E+03  0.00000000000E+00 0. -1.
          2   -1    0    0  503    0  0.00000000000E+00 -0.00000000000E+00 -0.55549298189E+04  0.55549298189E+04  0.00000000000E+00 0. -1.
         25    2    1    2    0    0 -0.11453369361E+03  0.26198545625E+02 -0.98032064707E+03  0.99521758443E+03  0.12500055412E+03 0.  0.
          4    1    3    3  501    0 -0.75913205623E+02  0.59189840640E+02 -0.84850010907E+03  0.85394396772E+03  0.12700000000E+01 0.  1.
         -4    1    3    3    0  501 -0.38620487990E+02 -0.32991295015E+02 -0.13182053800E+03  0.14127361671E+03  0.12700000000E+01 0.  1.
          2    1    1    2  502    0  0.80424574164E+02 -0.83986474018E+02  0.36899744277E+03  0.38688622710E+03  0.00000000000E+00 0. -1.
          1    1    1    2  503    0  0.34109119449E+02  0.57787928393E+02 -0.45579693461E+04  0.45584632758E+04  0.00000000000E+00 0. -1.
<mgrwt>
<rscale>  0 0.88273399E+02</rscale>
<asrwt>0</asrwt>
<pdfrwt beam="2">  1        2 0.85460461E+00 0.67103478E+02</pdfrwt>
<pdfrwt beam="1">  1        1 0.59328809E-01 0.11612204E+03</pdfrwt>
<totfact> 0.10811854E-01</totfact>
</mgrwt>
</event>
<event>
 7    1  0.4252091E-004  0.4889105E+02  0.7546771E-02  0.1500680E+00
          2   -1    0    0  503    0  0.00000000000E+00  0.00000000000E+00  0.56067786948E+02  0.56067786948E+02  0.00000000000E+00 0. -1.
          1   -1    0    0  502    0 -0.00000000000E+00 -0.00000000000E+00 -0.98089927594E+03  0.98089927594E+03  0.00000000000E+00 0. -1.
         25    2    1    2    0    0 -0.40966714722E+02  0.10581895166E+02 -0.67374488185E+03  0.68654603765E+03  0.12499219088E+03 0.  0.
          4    1    3    3  501    0  0.42809982740E+02 -0.55154258480E+00 -0.14887405350E+03  0.15491318706E+03  0.12700000000E+01 0.  1.
         -4    1    3    3    0  501 -0.83776697462E+02  0.11133437751E+02 -0.52487082835E+03  0.53163285059E+03  0.12700000000E+01 0.  1.
          2    1    1    2  502    0  0.49393941105E+02  0.22824643743E+02 -0.29194677644E+03  0.29697415048E+03  0.00000000000E+00 0. -1.
          1    1    1    2  503    0 -0.84272263827E+01 -0.33406538909E+02  0.40860169294E+02  0.53446874755E+02  0.00000000000E+00 0. -1.
<mgrwt>
<rscale>  0 0.41042020E+02</rscale>
<asrwt>0</asrwt>
<pdfrwt beam="1">  1        2 0.86258137E-02 0.34453084E+02</pdfrwt>
<pdfrwt beam="2">  1        1 0.15090757E+00 0.48891050E+02</pdfrwt>
<totfact> 0.16671016E+03</totfact>
</mgrwt>
</event>
<event>
 7    1  0.4252091E-004  0.3755107E+02  0.7546771E-02  0.1599009E+00
          2   -1    0    0  503    0  0.00000000000E+00  0.00000000000E+00  0.44670077537E+02  0.44670077537E+02  0.00000000000E+00 0. -1.
          1   -1    0    0  502    0 -0.00000000000E+00 -0.00000000000E+00 -0.14436755558E+04  0.14436755558E+04  0.00000000000E+00 0. -1.
         25    2    1    2    0    0 -0.10808128678E+01 -0.19862562311E+02 -0.26013174248E+03  0.28928784258E+03  0.12499297132E+03 0.  0.
          4    1    3    3  501    0  0.43787209516E+02 -0.42890597618E+02 -0.72272087889E+02  0.94772309611E+02  0.12700000000E+01 0. -1.
         -4    1    3    3    0  501 -0.44868022384E+02  0.23028035307E+02 -0.18785965459E+03  0.19451553297E+03  0.12700000000E+01 0. -1.
          2    1    1    2  502    0 -0.18793747904E+02  0.33019308736E+02 -0.11638869942E+04  0.11645069407E+04  0.00000000000E+00 0. -1.
          1    1    1    2  503    0  0.19874560772E+02 -0.13156746425E+02  0.25013258413E+02  0.34550850045E+02  0.00000000000E+00 0. -1.
<mgrwt>
<rscale>  0 0.29916927E+02</rscale>
<asrwt>0</asrwt>
<pdfrwt beam="1">  1        2 0.68723198E-02 0.23834809E+02</pdfrwt>
<pdfrwt beam="2">  1        1 0.22210393E+00 0.37551068E+02</pdfrwt>
<totfact> 0.10738987E+03</totfact>
</mgrwt>
</event>
<event>
 7    1  0.4252091E-004  0.2730598E+03  0.7546771E-02  0.1300498E+00
          2   -1    0    0  503    0  0.00000000000E+00  0.00000000000E+00  0.16793512556E+04  0.16793512556E+04  0.00000000000E+00 0. -1.
          1   -1    0    0  502    0 -0.00000000000E+00 -0.00000000000E+00 -0.70297097547E+02  0.70297097547E+02  0.00000000000E+00 0. -1.
         25    2    1    2    0    0  0.19182222489E+03  0.18085755270E+03  0.51206709793E+03  0.58935754937E+03  0.12499755150E+03 0.  0.
          4    1    3    3  501    0  0.13107526060E+03  0.12361703763E+03  0.45179253617E+03  0.48639490599E+03  0.12700000000E+01 0.  1.
         -4    1    3    3    0  501  0.60746964291E+02  0.57240515063E+02  0.60274561761E+02  0.10296264337E+03  0.12700000000E+01 0.  1.
          2    1    1    2  502    0 -0.19088896620E+03 -0.21115586001E+03  0.61865057342E+03  0.68099480661E+03  0.00000000000E+00 0. -1.
          1    1    1    2  503    0 -0.93325869386E+00  0.30298307312E+02  0.47833648674E+03  0.47929599721E+03  0.00000000000E+00 0. -1.
<mgrwt>
<rscale>  0 0.90978967E+02</rscale>
<asrwt>0</asrwt>
<pdfrwt beam="1">  1        2 0.25836170E+00 0.30312677E+02</pdfrwt>
<pdfrwt beam="2">  1        1 0.10814939E-01 0.27305976E+03</pdfrwt>
<totfact> 0.10500875E+03</totfact>
</mgrwt>
</event>
<event>
 7    1  0.4252091E-004  0.1333848E+03  0.7546771E-02  0.1311701E+00
          1   -1    0    0  503    0  0.00000000000E+00  0.00000000000E+00  0.35361777790E+03  0.35361777790E+03  0.00000000000E+00 0. -1.
         -1   -1    0    0    0  501 -0.00000000000E+00 -0.00000000000E+00 -0.35090588927E+03  0.35090588927E+03  0.00000000000E+00 0.  1.
         25    2    1    2    0    0  0.16430130898E+03 -0.86100509751E+02  0.16128820494E+03  0.27576582339E+03  0.12499874553E+03 0.  0.
          4    1    3    3  502    0  0.57778673755E+02 -0.14894356461E+02  0.13121132953E+03  0.14414660209E+03  0.12700000000E+01 0.  1.
         -4    1    3    3    0  502  0.10652263523E+03 -0.71206153289E+02  0.30076875412E+02  0.13161922131E+03  0.12700000000E+01 0.  1.
          2    1    1    2  503    0 -0.52020115746E+02  0.20792400020E+02  0.11388484677E+03  0.12691798401E+03  0.00000000000E+00 0. -1.
         -2    1    1    2    0  501 -0.11228119324E+03  0.65308109731E+02 -0.27246116309E+03  0.30183985976E+03  0.00000000000E+00 0.  1.
<mgrwt>
<rscale>  0 0.86443203E+02</rscale>
<asrwt>0</asrwt>
<pdfrwt beam="1">  1        1 0.54402735E-01 0.56021570E+02</pdfrwt>
<pdfrwt beam="2">  1       -1 0.53985521E-01 0.13338483E+03</pdfrwt>
<totfact> 0.26016476E+02</totfact>
</mgrwt>
</event>
<event>
 7    1  0.4252091E-004  0.7552751E+02  0.7546771E-02  0.1397132E+00
          1   -1    0    0  502    0 -0.00000000000E+00  0.00000000000E+00  0.12079521015E+04  0.12079521015E+04  0.00000000000E+00 0. -1.
          2   -1    0    0  503    0  0.00000000000E+00 -0.00000000000E+00 -0.13659956357E+04  0.13659956357E+04  0.00000000000E+00 0. -1.
         25    2    1    2    0    0  0.50582426309E+01  0.43170094088E+02 -0.44433870510E+03  0.46362876720E+03  0.12500202431E+03 0.  0.
          4    1    3    3  501    0  0.50500413777E+02  0.12519441775E+02 -0.81699035135E+02  0.96867814345E+02  0.12700000000E+01 0.  1.
         -4    1    3    3    0  501 -0.45442171146E+02  0.30650652313E+02 -0.36263966996E+03  0.36676095285E+03  0.12700000000E+01 0.  1.
          2    1    1    2  502    0  0.40440441001E+02  0.25727255287E+02  0.11959573888E+04  0.11969174561E+04  0.00000000000E+00 0. -1.
          1    1    1    2  503    0 -0.45498683632E+02 -0.68897349374E+02 -0.90966221789E+03  0.91340151392E+03  0.00000000000E+00 0. -1.
<mgrwt>
<rscale>  0 0.60166949E+02</rscale>
<asrwt>0</asrwt>
<pdfrwt beam="2">  1        2 0.21015317E+00 0.75527507E+02</pdfrwt>
<pdfrwt beam="1">  1        1 0.18583878E+00 0.47930376E+02</pdfrwt>
<totfact> 0.31510913E+01</totfact>
</mgrwt>
</event>
<event>
 7    1  0.4252091E-004  0.1023111E+03  0.7546771E-02  0.1384479E+00
          1   -1    0    0  502    0 -0.00000000000E+00  0.00000000000E+00  0.25954446873E+03  0.25954446873E+03  0.00000000000E+00 0. -1.
          2   -1    0    0  503    0  0.00000000000E+00 -0.00000000000E+00 -0.10622824605E+04  0.10622824605E+04  0.00000000000E+00 0. -1.
         25    2    1    2    0    0  0.48800546393E+02  0.85922293721E+02  0.11091542211E+03  0.19414024594E+03  0.12499628132E+03 0.  0.
          4    1    3    3  501    0 -0.15865560024E+02 -0.19140634287E+02 -0.43819211369E+01  0.25276352756E+02  0.12700000000E+01 0.  1.
         -4    1    3    3    0  501  0.64666106417E+02  0.10506292801E+03  0.11529734325E+03  0.16886389318E+03  0.12700000000E+01 0.  1.
          2    1    1    2  502    0 -0.83416840907E+02 -0.67602572142E+02  0.79601724960E+02  0.13365968623E+03  0.00000000000E+00 0. -1.
          1    1    1    2  503    0  0.34616294514E+02 -0.18319721579E+02 -0.99325513889E+03  0.99402699711E+03  0.00000000000E+00 0. -1.
<mgrwt>
<rscale>  0 0.63301016E+02</rscale>
<asrwt>0</asrwt>
<pdfrwt beam="2">  1        2 0.16342807E+00 0.39165036E+02</pdfrwt>
<pdfrwt beam="1">  1        1 0.39929919E-01 0.10231112E+03</pdfrwt>
<totfact> 0.38325043E+02</totfact>
</mgrwt>
</event>
<event>
 7    1  0.4252091E-004  0.2095283E+03  0.7546771E-02  0.1326902E+00
          2   -1    0    0  503    0  0.00000000000E+00  0.00000000000E+00  0.15227791145E+04  0.15227791145E+04  0.00000000000E+00 0. -1.
          1   -1    0    0  502    0 -0.00000000000E+00 -0.00000000000E+00 -0.15423113769E+04  0.15423113769E+04  0.00000000000E+00 0. -1.
         25    2    1    2    0    0 -0.79784209945E+02  0.22510428242E+03  0.31627891877E+03  0.41556648541E+03  0.12500276483E+03 0.  0.
          4    1    3    3  501    0  0.29855370614E+02  0.89510100364E+02  0.12675969676E+03  0.15802858869E+03  0.12700000000E+01 0. -1.
         -4    1    3    3    0  501 -0.10963958056E+03  0.13559418206E+03  0.18951922201E+03  0.25753789672E+03  0.12700000000E+01 0. -1.
          2    1    1    2  502    0  0.62049027994E+02 -0.19952066698E+03 -0.14851436389E+04  0.14997700512E+04  0.00000000000E+00 0. -1.
          1    1    1    2  503    0  0.17735181951E+02 -0.25583615440E+02  0.11493324577E+04  0.11497539547E+04  0.00000000000E+00 0. -1.
<mgrwt>
<rscale>  0 0.80762322E+02</rscale>
<asrwt>0</asrwt>
<pdfrwt beam="1">  1        2 0.23427371E+00 0.31129697E+02</pdfrwt>
<pdfrwt beam="2">  1        1 0.23727867E+00 0.20952830E+03</pdfrwt>
<totfact> 0.15079044E+01</totfact>
</mgrwt>
</event>
<event>
 7    1  0.4252091E-004  0.3524657E+02  0.7546771E-02  0.1559020E+00
          2   -1    0    0  503    0  0.00000000000E+00  0.00000000000E+00  0.26737755432E+03  0.26737755432E+03  0.00000000000E+00 0. -1.
          1   -1    0    0  502    0 -0.00000000000E+00 -0.00000000000E+00 -0.81614748817E+03  0.81614748817E+03  0.00000000000E+00 0. -1.
         25    2    1    2    0    0  0.55521107401E+00 -0.15878807991E+02  0.29686016662E+02  0.12945793502E+03  0.12500261018E+03 0.  0.
          4    1    3    3  501    0 -0.31575950675E+02  0.26201856042E+02  0.56704092772E+02  0.70003892450E+02  0.12700000000E+01 0. -1.
         -4    1    3    3    0  501  0.32131161749E+02 -0.42080664033E+02 -0.27018076110E+02  0.59454042566E+02  0.12700000000E+01 0. -1.
          2    1    1    2  502    0  0.32499754789E+02  0.10368006693E+01 -0.76416485228E+03  0.76485634630E+03  0.00000000000E+00 0. -1.
          1    1    1    2  503    0 -0.33054965863E+02  0.14842007322E+02  0.18570890177E+03  0.18921076118E+03  0.00000000000E+00 0. -1.
<mgrwt>
<rscale>  0 0.33853917E+02</rscale>
<asrwt>0</asrwt>
<pdfrwt beam="1">  1        2 0.41135009E-01 0.35246572E+02</pdfrwt>
<pdfrwt beam="2">  1        1 0.12556115E+00 0.32516288E+02</pdfrwt>
<totfact> 0.41093503E+02</totfact>
</mgrwt>
</event>
<event>
 7    1  0.4252091E-004  0.5067839E+02  0.7546771E-02  0.1489355E+00
          1   -1    0    0  502    0 -0.00000000000E+00  0.00000000000E+00  0.15817507526E+04  0.15817507526E+04  0.00000000000E+00 0. -1.
          2   -1    0    0  503    0  0.00000000000E+00 -0.00000000000E+00 -0.96193236506E+03  0.96193236506E+03  0.00000000000E+00 0. -1.
         25    2    1    2    0    0  0.29135023420E+02  0.79795525374E+02 -0.68335820561E+02  0.16586366549E+03  0.12499918279E+03 0.  0.
          4    1    3    3  501    0  0.13510325551E+02  0.36872984616E+02 -0.10186940800E+03  0.10918395064E+03  0.12700000000E+01 0.  1.
         -4    1    3    3    0  501  0.15624697869E+02  0.42922540757E+02  0.33533587441E+02  0.56679714848E+02  0.12700000000E+01 0.  1.
          2    1    1    2  502    0 -0.95546913827E+01 -0.49649179386E+02  0.15321872686E+04  0.15330212521E+04  0.00000000000E+00 0. -1.
          1    1    1    2  503    0 -0.19580332037E+02 -0.30146345988E+02 -0.84403306055E+03  0.84479820009E+03  0.00000000000E+00 0. -1.
<mgrwt>
<rscale>  0 0.42681839E+02</rscale>
<asrwt>0</asrwt>
<pdfrwt beam="2">  1        2 0.14798959E+00 0.35947066E+02</pdfrwt>
<pdfrwt beam="1">  1        1 0.24334627E+00 0.50678388E+02</pdfrwt>
<totfact> 0.31435625E+01</totfact>
</mgrwt>
</event>
<event>
 7    1  0.4252091E-004  0.8290922E+02  0.7546771E-02  0.1328857E+00
          2   -1    0    0  503    0  0.00000000000E+00  0.00000000000E+00  0.24165634313E+04  0.24165634313E+04  0.00000000000E+00 0. -1.
          1   -1    0    0  502    0 -0.00000000000E+00 -0.00000000000E+00 -0.50464098309E+03  0.50464098309E+03  0.00000000000E+00 0. -1.
         25    2    1    2    0    0 -0.10967833026E+03 -0.12699628284E+02  0.76674175731E+03  0.78467082998E+03  0.12499908928E+03 0.  0.
          4    1    3    3  501    0 -0.84420908893E+02  0.49872668914E+02  0.49987526716E+03  0.50940265859E+03  0.12700000000E+01 0.  1.
         -4    1    3    3    0  501 -0.25257421366E+02 -0.62572297197E+02  0.26686649015E+03  0.27526817139E+03  0.12700000000E+01 0.  1.
          2    1    1    2  502    0  0.52205995332E+02  0.64430748639E+02 -0.49128874468E+03  0.49823831443E+03  0.00000000000E+00 0. -1.
          1    1    1    2  503    0  0.57472334928E+02 -0.51731120356E+02  0.16364694356E+04  0.16382952700E+04  0.00000000000E+00 0. -1.
<mgrwt>
<rscale>  0 0.80068518E+02</rscale>
<asrwt>0</asrwt>
<pdfrwt beam="1">  1        2 0.37177898E+00 0.77325145E+02</pdfrwt>
<pdfrwt beam="2">  1        1 0.77637076E-01 0.82909222E+02</pdfrwt>
<totfact> 0.32877515E+01</totfact>
</mgrwt>
</event>
<event>
 7    1  0.4252091E-004  0.5636792E+02  0.7546771E-02  0.1440271E+00
         -2   -1    0    0    0  501  0.00000000000E+00  0.00000000000E+00  0.26267883879E+03  0.26267883879E+03  0.00000000000E+00 0.  1.
         -1   -1    0    0    0  502 -0.00000000000E+00 -0.00000000000E+00 -0.82999733156E+02  0.82999733156E+02  0.00000000000E+00 0.  1.
         25    2    1    2    0    0 -0.44381165340E+02 -0.24300022301E+02  0.26426191226E+02  0.13742456845E+03  0.12500795779E+03 0.  0.
          4    1    3    3  503    0 -0.11777215566E+02  0.29027063142E+02 -0.36912193974E+02  0.48429290363E+02  0.12700000000E+01 0. -1.
         -4    1    3    3    0  503 -0.32603949774E+02 -0.53327085443E+02  0.63338385199E+02  0.88995278090E+02  0.12700000000E+01 0. -1.
         -2    1    1    2    0  502  0.62883712274E+02 -0.17877434239E+02  0.21717957139E+02  0.68888559185E+02  0.00000000000E+00 0.  1.
         -1    1    1    2    0  501 -0.18502546934E+02  0.42177456540E+02  0.13153495727E+03  0.13936544431E+03  0.00000000000E+00 0.  1.
<mgrwt>
<rscale>  0 0.50952514E+02</rscale>
<asrwt>0</asrwt>
<pdfrwt beam="1">  1       -2 0.40412128E-01 0.46057378E+02</pdfrwt>
<pdfrwt beam="2">  1       -1 0.12769190E-01 0.56367922E+02</pdfrwt>
<totfact> 0.16198329E+03</totfact>
</mgrwt>
</event>
<event>
 7    1  0.4252091E-004  0.1303094E+03  0.7546771E-02  0.1326713E+00
          1   -1    0    0  502    0 -0.00000000000E+00  0.00000000000E+00  0.20930446128E+03  0.20930446128E+03  0.00000000000E+00 0. -1.
          2   -1    0    0  503    0  0.00000000000E+00 -0.00000000000E+00 -0.12185740732E+04  0.12185740732E+04  0.00000000000E+00 0. -1.
         25    2    1    2    0    0  0.85235890279E+02 -0.70096118740E+02 -0.22690532359E+03  0.28158392707E+03  0.12499943702E+03 0.  0.
          4    1    3    3  501    0  0.67472666253E+02 -0.49863705550E+02 -0.23805906535E+03  0.25241371064E+03  0.12700000000E+01 0.  1.
         -4    1    3    3    0  501  0.17763224025E+02 -0.20232413190E+02  0.11153741760E+02  0.29170216429E+02  0.12700000000E+01 0.  1.
          2    1    1    2  502    0 -0.18008890906E+02 -0.46792229974E+02  0.17368810953E+03  0.18077995555E+03  0.00000000000E+00 0. -1.
          1    1    1    2  503    0 -0.67226999372E+02  0.11688834871E+03 -0.95605239790E+03  0.96551465191E+03  0.00000000000E+00 0. -1.
<mgrwt>
<rscale>  0 0.80829873E+02</rscale>
<asrwt>0</asrwt>
<pdfrwt beam="2">  1        2 0.18747293E+00 0.13030935E+03</pdfrwt>
<pdfrwt beam="1">  1        1 0.32200687E-01 0.50138139E+02</pdfrwt>
<totfact> 0.37601308E+02</totfact>
</mgrwt>
</event>
<event>
 7    1  0.4252091E-004  0.1943315E+03  0.7546771E-02  0.1296251E+00
          2   -1    0    0  503    0  0.00000000000E+00  0.00000000000E+00  0.11043765773E+03  0.11043765773E+03  0.00000000000E+00 0. -1.
          1   -1    0    0  502    0 -0.00000000000E+00 -0.00000000000E+00 -0.13511849934E+04  0.13511849934E+04  0.00000000000E+00 0. -1.
         25    2    1    2    0    0  0.11929373039E+03  0.16139190148E+03 -0.49209952300E+03  0.54595325787E+03  0.12499871705E+03 0.  0.
          4    1    3    3  501    0  0.46058262442E+02 -0.73864009219E+01 -0.15550709761E+03  0.16235760766E+03  0.12700000000E+01 0. -1.
         -4    1    3    3    0  501  0.73235467948E+02  0.16877830241E+03 -0.33659242538E+03  0.38359565020E+03  0.12700000000E+01 0. -1.
          2    1    1    2  502    0 -0.41291234160E+02  0.16042756814E+02 -0.71808648195E+03  0.71945154919E+03  0.00000000000E+00 0. -1.
          3    1    1    2  503    0 -0.78002496231E+02 -0.17743465830E+03 -0.30561330672E+02  0.19621784403E+03  0.00000000000E+00 0. -1.
<mgrwt>
<rscale>  0 0.92782267E+02</rscale>
<asrwt>0</asrwt>
<pdfrwt beam="1">  1        2 0.16990409E-01 0.19433153E+03</pdfrwt>
<pdfrwt beam="2">  1        1 0.20787461E+00 0.44298263E+02</pdfrwt>
<totfact> 0.47580536E+02</totfact>
</mgrwt>
</event>
<event>
 7    1  0.4252091E-004  0.9735623E+02  0.7546771E-02  0.1288951E+00
         -2   -1    0    0    0  501 -0.00000000000E+00  0.00000000000E+00  0.48345820219E+03  0.48345820219E+03  0.00000000000E+00 0.  1.
          2   -1    0    0  503    0  0.00000000000E+00 -0.00000000000E+00 -0.12708344045E+03  0.12708344045E+03  0.00000000000E+00 0. -1.
         25    2    1    2    0    0  0.12126797025E+03  0.82415499560E+02  0.14449147200E+02  0.19321865422E+03  0.12500574110E+03 0.  0.
          4    1    3    3  502    0  0.86077902701E+02  0.50223373909E+02 -0.51212223084E+02  0.11205399285E+03  0.12700000000E+01 0. -1.
         -4    1    3    3    0  502  0.35190067553E+02  0.32192125651E+02  0.65661370284E+02  0.81164661373E+02  0.12700000000E+01 0. -1.
          1    1    1    2  503    0 -0.25931686565E+02 -0.91030612125E+02  0.43967199434E+02  0.10436541256E+03  0.00000000000E+00 0. -1.
         -1    1    1    2    0  501 -0.95336283690E+02  0.86151125644E+01  0.29795841511E+03  0.31295757585E+03  0.00000000000E+00 0.  1.
<mgrwt>
<rscale>  0 0.95994657E+02</rscale>
<asrwt>0</asrwt>
<pdfrwt beam="2">  1        2 0.19551299E-01 0.94652125E+02</pdfrwt>
<pdfrwt beam="1">  1       -2 0.74378184E-01 0.97356231E+02</pdfrwt>
<totfact> 0.47016045E+02</totfact>
</mgrwt>
</event>
<event>
 7    1  0.4252091E-004  0.1820481E+03  0.7546771E-02  0.1303052E+00
          1   -1    0    0  502    0 -0.00000000000E+00  0.00000000000E+00  0.17159728659E+03  0.17159728659E+03  0.00000000000E+00 0. -1.
          2   -1    0    0  503    0  0.00000000000E+00 -0.00000000000E+00 -0.51059189236E+03  0.51059189236E+03  0.00000000000E+00 0. -1.
         25    2    1    2    0    0  0.17369239071E+03  0.12080517333E+03 -0.20198609934E+03  0.31809571355E+03  0.12499424851E+03 0.  0.
          4    1    3    3  501    0  0.29619763657E-01  0.34627344151E+02 -0.84680480408E+02  0.91495631057E+02  0.12700000000E+01 0. -1.
         -4    1    3    3    0  501  0.17366277094E+03  0.86177829175E+02 -0.11730561893E+03  0.22660008249E+03  0.12700000000E+01 0. -1.
          2    1    1    2  502    0 -0.33453895132E+02 -0.29210577681E+02  0.79074072900E+02  0.90692502188E+02  0.00000000000E+00 0. -1.
          1    1    1    2  503    0 -0.14023849558E+03 -0.91594595645E+02 -0.21608257934E+03  0.27340096321E+03  0.00000000000E+00 0. -1.
<mgrwt>
<rscale>  0 0.89917246E+02</rscale>
<asrwt>0</asrwt>
<pdfrwt beam="2">  1        2 0.78552598E-01 0.18204812E+03</pdfrwt>
<pdfrwt beam="1">  1        1 0.26399583E-01 0.44411946E+02</pdfrwt>
<totfact> 0.14197706E+03</totfact>
</mgrwt>
</event>
<event>
 7    1  0.4252091E-004  0.7606352E+02  0.7546771E-02  0.1465912E+00
          2   -1    0    0  503    0  0.00000000000E+00  0.00000000000E+00  0.11120047879E+04  0.11120047879E+04  0.00000000000E+00 0. -1.
         -2   -1    0    0    0  501 -0.00000000000E+00 -0.00000000000E+00 -0.22123534237E+04  0.22123534237E+04  0.00000000000E+00 0.  1.
         25    2    1    2    0    0  0.15577773914E+02 -0.62390796733E+02 -0.18433162713E+04  0.18486680292E+04  0.12499331039E+03 0.  0.
          4    1    3    3  502    0 -0.26877562123E+02  0.45394616162E+01 -0.12233762106E+04  0.12236805039E+04  0.12700000000E+01 0.  1.
         -4    1    3    3    0  502  0.42455336037E+02 -0.66930258349E+02 -0.61994006067E+03  0.62498752529E+03  0.12700000000E+01 0.  1.
          1    1    1    2  503    0 -0.43856060471E+02  0.62161379205E+02  0.11074763449E+04  0.11100861433E+04  0.00000000000E+00 0. -1.
         -1    1    1    2    0  501  0.28278286557E+02  0.22941752789E+00 -0.36450870944E+03  0.36560403907E+03  0.00000000000E+00 0.  1.
<mgrwt>
<rscale>  0 0.46379057E+02</rscale>
<asrwt>0</asrwt>
<pdfrwt beam="1">  1        2 0.17107766E+00 0.76063523E+02</pdfrwt>
<pdfrwt beam="2">  1       -2 0.34036206E+00 0.28279217E+02</pdfrwt>
<totfact> 0.70098979E-01</totfact>
</mgrwt>
</event>
<event>
 7    1  0.4252091E-004  0.1811655E+03  0.7546771E-02  0.1266997E+00
          2   -1    0    0  503    0  0.00000000000E+00  0.00000000000E+00  0.46680900876E+03  0.46680900876E+03  0.00000000000E+00 0. -1.
         -2   -1    0    0    0  501 -0.00000000000E+00 -0.00000000000E+00 -0.12677476274E+04  0.12677476274E+04  0.00000000000E+00 0.  1.
         25    2    1    2    0    0  0.15829967414E+03 -0.55042215438E+02  0.48104275256E+02  0.21454302186E+03  0.12500501837E+03 0.  0.
          4    1    3    3  502    0  0.74856071402E+02 -0.90863031545E+02  0.19563448353E+02  0.11934765745E+03  0.12700000000E+01 0. -1.
         -4    1    3    3    0  502  0.83443602743E+02  0.35820816107E+02  0.28540826903E+02  0.95195364412E+02  0.12700000000E+01 0. -1.
          1    1    1    2  503    0  0.24091749730E+02  0.57914871992E+02  0.32544991601E+03  0.33143957614E+03  0.00000000000E+00 0. -1.
         -1    1    1    2    0  501 -0.18239142388E+03 -0.28726565548E+01 -0.11744928099E+04  0.11885740382E+04  0.00000000000E+00 0.  1.
<mgrwt>
<rscale>  0 0.10660103E+03</rscale>
<asrwt>0</asrwt>
<pdfrwt beam="1">  1        2 0.71816771E-01 0.62725950E+02</pdfrwt>
<pdfrwt beam="2">  1       -2 0.19503809E+00 0.18116554E+03</pdfrwt>
<totfact> 0.11027412E+01</totfact>
</mgrwt>
</event>
<event>
 7    1  0.4252091E-004  0.1026752E+03  0.7546771E-02  0.1372597E+00
          2   -1    0    0  503    0  0.00000000000E+00  0.00000000000E+00  0.39263026551E+03  0.39263026551E+03  0.00000000000E+00 0. -1.
          1   -1    0    0  502    0 -0.00000000000E+00 -0.00000000000E+00 -0.20998133824E+04  0.20998133824E+04  0.00000000000E+00 0. -1.
         25    2    1    2    0    0  0.22008639213E+02  0.14319818826E+03 -0.20016007857E+01  0.19136039826E+03  0.12499877717E+03 0.  0.
          4    1    3    3  501    0  0.50245266388E+02  0.82112984848E+02 -0.50198975068E+02  0.10857568362E+03  0.12700000000E+01 0.  1.
         -4    1    3    3    0  501 -0.28236627175E+02  0.61085203416E+02  0.48197374282E+02  0.82784714642E+02  0.12700000000E+01 0.  1.
          2    1    1    2  502    0 -0.11873328915E+02 -0.10140331308E+03 -0.20002717653E+04  0.20028756184E+04  0.00000000000E+00 0. -1.
          3    1    1    2  503    0 -0.10135310297E+02 -0.41794875181E+02  0.29509024924E+03  0.29820763119E+03  0.00000000000E+00 0. -1.
<mgrwt>
<rscale>  0 0.66450522E+02</rscale>
<asrwt>0</asrwt>
<pdfrwt beam="1">  1        2 0.60404657E-01 0.43006233E+02</pdfrwt>
<pdfrwt beam="2">  1        1 0.32304821E+00 0.10267516E+03</pdfrwt>
<totfact> 0.36733695E+01</totfact>
</mgrwt>
</event>
<event>
 7    1  0.4252091E-004  0.8920694E+02  0.7546771E-02  0.1358374E+00
          1   -1    0    0  502    0 -0.00000000000E+00  0.00000000000E+00  0.59097924213E+03  0.59097924213E+03  0.00000000000E+00 0. -1.
          2   -1    0    0  503    0  0.00000000000E+00 -0.00000000000E+00 -0.10946614684E+04  0.10946614684E+04  0.00000000000E+00 0. -1.
         25    2    1    2    0    0  0.94011404138E+02 -0.44788718602E+02 -0.87079135314E+02  0.18453150440E+03  0.12499970755E+03 0.  0.
          4    1    3    3  501    0  0.89908916830E+02  0.47300397985E+01 -0.70430382670E+01  0.90317240271E+02  0.12700000000E+01 0. -1.
         -4    1    3    3    0  501  0.41024873080E+01 -0.49518758401E+02 -0.80036097047E+02  0.94214264133E+02  0.12700000000E+01 0. -1.
          2    1    1    2  502    0 -0.47521885060E+02  0.75520011720E+02  0.53776408120E+03  0.54511632590E+03  0.00000000000E+00 0. -1.
          1    1    1    2  503    0 -0.46489519078E+02 -0.30731293118E+02 -0.95436717218E+03  0.95599288025E+03  0.00000000000E+00 0. -1.
<mgrwt>
<rscale>  0 0.70508062E+02</rscale>
<asrwt>0</asrwt>
<pdfrwt beam="2">  1        2 0.16840945E+00 0.55728698E+02</pdfrwt>
<pdfrwt beam="1">  1        1 0.90919884E-01 0.89206943E+02</pdfrwt>
<totfact> 0.12854913E+02</totfact>
</mgrwt>
</event>
<event>
 7    1  0.4252091E-004  0.1169737E+03  0.7546771E-02  0.1290096E+00
          2   -1    0    0  503    0  0.00000000000E+00  0.00000000000E+00  0.17572997352E+04  0.17572997352E+04  0.00000000000E+00 0. -1.
         -2   -1    0    0    0  501 -0.00000000000E+00 -0.00000000000E+00 -0.23165369399E+03  0.23165369399E+03  0.00000000000E+00 0.  1.
         25    2    1    2    0    0  0.51791708916E+00 -0.18003088630E+03  0.54168958877E+03  0.58435004482E+03  0.12500390408E+03 0.  0.
          4    1    3    3  502    0  0.35286424649E+02 -0.11419835218E+03  0.18707573768E+03  0.22200301785E+03  0.12700000000E+01 0. -1.
         -4    1    3    3    0  502 -0.34768507559E+02 -0.65832534113E+02  0.35461385109E+03  0.36234702697E+03  0.12700000000E+01 0. -1.
          1    1    1    2  503    0 -0.26799558577E+02  0.10665855382E+03  0.11844240090E+04  0.11895185986E+04  0.00000000000E+00 0. -1.
         -1    1    1    2    0  501  0.26281641488E+02  0.73372332478E+02 -0.20046755651E+03  0.21508478576E+03  0.00000000000E+00 0.  1.
<mgrwt>
<rscale>  0 0.95480976E+02</rscale>
<asrwt>0</asrwt>
<pdfrwt beam="1">  1        2 0.27035380E+00 0.11697372E+03</pdfrwt>
<pdfrwt beam="2">  1       -2 0.35639031E-01 0.77937307E+02</pdfrwt>
<totfact> 0.79658619E+01</totfact>
</mgrwt>
</event>
<event>
 7    1  0.4252091E-004  0.1453601E+03  0.7546771E-02  0.1234723E+00
         -2   -1    0    0    0  501 -0.00000000000E+00  0.00000000000E+00  0.13627251693E+04  0.13627251693E+04  0.00000000000E+00 0.  1.
          2   -1    0    0  503    0  0.00000000000E+00 -0.00000000000E+00 -0.32608518684E+03  0.32608518684E+03  0.00000000000E+00 0. -1.
         25    2    1    2    0    0 -0.13311282974E+01 -0.68261626064E+02  0.89347567676E+01  0.14269990703E+03  0.12498804780E+03 0.  0.
          4    1    3    3  502    0 -0.58429480675E+02 -0.11988068866E+02  0.17217822258E+02  0.62094962038E+02  0.12700000000E+01 0.  1.
         -4    1    3    3    0  502  0.57098352378E+02 -0.56273557198E+02 -0.82830654909E+01  0.80604944996E+02  0.12700000000E+01 0.  1.
          1    1    1    2  503    0  0.10915481933E+02  0.17570898534E+03 -0.22672593783E+03  0.28704955349E+03  0.00000000000E+00 0. -1.
         -1    1    1    2    0  501 -0.95843536357E+01 -0.10744735928E+03  0.12544311636E+04  0.12590608956E+04  0.00000000000E+00 0.  1.
<mgrwt>
<rscale>  0 0.12522209E+03</rscale>
<asrwt>0</asrwt>
<pdfrwt beam="2">  1        2 0.50166953E-01 0.14536010E+03</pdfrwt>
<pdfrwt beam="1">  1       -2 0.20965002E+00 0.10787398E+03</pdfrwt>
<totfact> 0.13505890E+01</totfact>
</mgrwt>
</event>
<event>
 7    1  0.4252091E-004  0.1254416E+03  0.7546771E-02  0.1275141E+00
          1   -1    0    0  502    0 -0.00000000000E+00  0.00000000000E+00  0.86516052410E+03  0.86516052410E+03  0.00000000000E+00 0. -1.
          2   -1    0    0  503    0  0.00000000000E+00 -0.00000000000E+00 -0.37272774498E+03  0.37272774498E+03  0.00000000000E+00 0. -1.
         25    2    1    2    0    0 -0.83674098213E+02 -0.23588211028E+02  0.10510384337E+03  0.18501250577E+03  0.12500020395E+03 0.  0.
          4    1    3    3  501    0 -0.70285401029E+02 -0.40156409500E+02  0.33309189336E+01  0.81026432371E+02  0.12700000000E+01 0. -1.
         -4    1    3    3    0  501 -0.13388697184E+02  0.16568198472E+02  0.10177292443E+03  0.10398607340E+03  0.12700000000E+01 0. -1.
          2    1    1    2  502    0  0.80435447791E+02  0.10726706749E+03  0.70844486254E+03  0.72102025512E+03  0.00000000000E+00 0. -1.
          1    1    1    2  503    0  0.32386504223E+01 -0.83678856463E+02 -0.32111592679E+03  0.33185550819E+03  0.00000000000E+00 0. -1.
<mgrwt>
<rscale>  0 0.10249228E+03</rscale>
<asrwt>0</asrwt>
<pdfrwt beam="2">  1        2 0.57342730E-01 0.83741506E+02</pdfrwt>
<pdfrwt beam="1">  1        1 0.13310162E+00 0.12544158E+03</pdfrwt>
<totfact> 0.25110263E+02</totfact>
</mgrwt>
</event>
<event>
 7    1  0.4252091E-004  0.1195751E+03  0.7546771E-02  0.1414801E+00
          2   -1    0    0  503    0  0.00000000000E+00  0.00000000000E+00  0.48129845050E+03  0.48129845050E+03  0.00000000000E+00 0. -1.
         -2   -1    0    0    0  501 -0.00000000000E+00 -0.00000000000E+00 -0.10940703952E+04  0.10940703952E+04  0.00000000000E+00 0.  1.
         25    2    1    2    0    0  0.98679270324E+02  0.10577001586E+03 -0.42673743192E+03  0.46760463449E+03  0.12499745497E+03 0.  0.
          4    1    3    3  502    0 -0.64195293290E+01  0.82135271256E+02 -0.16097005122E+03  0.18083247339E+03  0.12700000000E+01 0. -1.
         -4    1    3    3    0  502  0.10509879965E+03  0.23634744602E+02 -0.26576738070E+03  0.28677216110E+03  0.12700000000E+01 0. -1.
          1    1    1    2  503    0 -0.85567850775E+02 -0.82909206649E+02  0.45288803923E+03  0.46829837680E+03  0.00000000000E+00 0. -1.
         -1    1    1    2    0  501 -0.13111419549E+02 -0.22860809208E+02 -0.63892255205E+03  0.63946583446E+03  0.00000000000E+00 0.  1.
<mgrwt>
<rscale>  0 0.56136141E+02</rscale>
<asrwt>0</asrwt>
<pdfrwt beam="1">  1        2 0.74045916E-01 0.11957513E+03</pdfrwt>
<pdfrwt beam="2">  1       -2 0.16831852E+00 0.26353860E+02</pdfrwt>
<totfact> 0.17630500E+01</totfact>
</mgrwt>
</event>
<event>
 7    1  0.4252091E-004  0.1333416E+03  0.7546771E-02  0.1234032E+00
          1   -1    0    0  502    0 -0.00000000000E+00  0.00000000000E+00  0.22023565837E+04  0.22023565837E+04  0.00000000000E+00 0. -1.
          2   -1    0    0  503    0  0.00000000000E+00 -0.00000000000E+00 -0.47891096542E+03  0.47891096542E+03  0.00000000000E+00 0. -1.
         25    2    1    2    0    0 -0.98925970454E+02  0.62268684363E+02 -0.23911134428E+01  0.17114935565E+03  0.12499059099E+03 0.  0.
          4    1    3    3  501    0 -0.64880414100E+02 -0.21729833964E+02 -0.32332077025E+02  0.75687713155E+02  0.12700000000E+01 0. -1.
         -4    1    3    3    0  501 -0.34045556354E+02  0.83998518327E+02  0.29940963582E+02  0.95461642500E+02  0.12700000000E+01 0. -1.
          2    1    1    2  502    0 -0.33982511693E+02 -0.11345163711E+03  0.21033246696E+04  0.21066562963E+04  0.00000000000E+00 0. -1.
          3    1    1    2  503    0  0.13290848215E+03  0.51182952752E+02 -0.37748793783E+03  0.40346189719E+03  0.00000000000E+00 0. -1.
<mgrwt>
<rscale>  0 0.12566575E+03</rscale>
<asrwt>0</asrwt>
<pdfrwt beam="2">  1        2 0.73678611E-01 0.13334159E+03</pdfrwt>
<pdfrwt beam="1">  1        1 0.33882408E+00 0.11843177E+03</pdfrwt>
<totfact> 0.24999283E+01</totfact>
</mgrwt>
</event>
<event>
 7    1  0.4252091E-004  0.8989195E+02  0.7546771E-02  0.1426460E+00
          2   -1    0    0  503    0  0.00000000000E+00  0.00000000000E+00  0.15904816554E+04  0.15904816554E+04  0.00000000000E+00 0. -1.
         -2   -1    0    0    0  501 -0.00000000000E+00 -0.00000000000E+00 -0.13817634102E+03  0.13817634102E+03  0.00000000000E+00 0.  1.
         25    2    1    2    0    0 -0.46099321117E+02  0.73270595805E+02  0.35288641230E+03  0.38424918054E+03  0.12499954058E+03 0.  0.
          4    1    3    3  502    0 -0.65269705892E+02  0.96570060367E+02  0.23186315951E+03  0.25951502597E+03  0.12700000000E+01 0. -1.
         -4    1    3    3    0  502  0.19170384775E+02 -0.23299464562E+02  0.12102325278E+03  0.12473415457E+03  0.12700000000E+01 0. -1.
          1    1    1    2  503    0 -0.25932452111E+02 -0.18837475603E+02  0.12050352866E+04  0.12054614820E+04  0.00000000000E+00 0. -1.
         -1    1    1    2    0  501  0.72031773228E+02 -0.54433120203E+02 -0.10561638451E+03  0.13894733393E+03  0.00000000000E+00 0.  1.
<mgrwt>
<rscale>  0 0.53677122E+02</rscale>
<asrwt>0</asrwt>
<pdfrwt beam="1">  1        2 0.24468947E+00 0.32052185E+02</pdfrwt>
<pdfrwt beam="2">  1       -2 0.21257900E-01 0.89891949E+02</pdfrwt>
<totfact> 0.27103737E+02</totfact>
</mgrwt>
</event>
<event>
 7    1  0.4252091E-004  0.9587800E+02  0.7546771E-02  0.1388088E+00
         -2   -1    0    0    0  501 -0.00000000000E+00  0.00000000000E+00  0.22234068475E+04  0.22234068475E+04  0.00000000000E+00 0.  1.
          2   -1    0    0  503    0  0.00000000000E+00 -0.00000000000E+00 -0.99040513027E+03  0.99040513027E+03  0.00000000000E+00 0. -1.
         25    2    1    2    0    0  0.74274919767E+01 -0.11997322792E+03  0.17704800295E+03  0.24783070750E+03  0.12500128471E+03 0.  0.
          4    1    3    3  502    0  0.40215807484E+02 -0.13627276367E+02  0.10996083731E+03  0.11788134914E+03  0.12700000000E+01 0.  1.
         -4    1    3    3    0  502 -0.32788315507E+02 -0.10634595156E+03  0.67087165635E+02  0.12994935836E+03  0.12700000000E+01 0.  1.
          1    1    1    2  503    0  0.26335281930E+02  0.30889124603E+02 -0.95345339992E+03  0.95431707043E+03  0.00000000000E+00 0. -1.
         -1    1    1    2    0  501 -0.33762773907E+02  0.89084103319E+02  0.20094071142E+04  0.20116641998E+04  0.00000000000E+00 0.  1.
<mgrwt>
<rscale>  0 0.62384692E+02</rscale>
<asrwt>0</asrwt>
<pdfrwt beam="2">  1        2 0.15237002E+00 0.40591687E+02</pdfrwt>
<pdfrwt beam="1">  1       -2 0.34206259E+00 0.95878001E+02</pdfrwt>
<totfact> 0.70012915E-01</totfact>
</mgrwt>
</event>
<event>
 7    1  0.4252091E-004  0.1220692E+03  0.7546771E-02  0.1391313E+00
          1   -1    0    0  502    0 -0.00000000000E+00  0.00000000000E+00  0.17983021806E+04  0.17983021806E+04  0.00000000000E+00 0. -1.
          2   -1    0    0  503    0  0.00000000000E+00 -0.00000000000E+00 -0.11739027919E+03  0.11739027919E+03  0.00000000000E+00 0. -1.
         25    2    1    2    0    0  0.62510659694E+00 -0.14151057628E+03  0.30025779453E+03  0.35469095109E+03  0.12500117459E+03 0.  0.
          4    1    3    3  501    0  0.15238774570E+01 -0.86479892214E+02  0.28459892182E+03  0.29745462370E+03  0.12700000000E+01 0. -1.
         -4    1    3    3    0  501 -0.89877086003E+00 -0.55030684067E+02  0.15658872711E+02  0.57236327385E+02  0.12700000000E+01 0. -1.
          2    1    1    2  502    0  0.20382262768E+02  0.23445333421E+02  0.14307150185E+04  0.14310522648E+04  0.00000000000E+00 0. -1.
          1    1    1    2  503    0 -0.21007369365E+02  0.11806524286E+03 -0.50060911605E+02  0.12994924398E+03  0.00000000000E+00 0. -1.
<mgrwt>
<rscale>  0 0.61581234E+02</rscale>
<asrwt>0</asrwt>
<pdfrwt beam="2">  1        2 0.18060044E-01 0.12206919E+03</pdfrwt>
<pdfrwt beam="1">  1        1 0.27666185E+00 0.31066385E+02</pdfrwt>
<totfact> 0.24202769E+02</totfact>
</mgrwt>
</event>
<event>
 7    1  0.4252091E-004  0.3469503E+02  0.7546771E-02  0.1566891E+00
          2   -1    0    0  503    0  0.00000000000E+00  0.00000000000E+00  0.36909226360E+04  0.36909226360E+04  0.00000000000E+00 0. -1.
         -2   -1    0    0    0  501 -0.00000000000E+00 -0.00000000000E+00 -0.35722724855E+01  0.35722724855E+01  0.00000000000E+00 0.  1.
         25    2    1    2    0    0  0.23379142678E+01 -0.83195381457E+01  0.18525899391E+04  0.18568230992E+04  0.12501143433E+03 0.  0.
          4    1    3    3  502    0 -0.42541828260E+02  0.29617638217E+02  0.13164264368E+04  0.13174472240E+04  0.12700000000E+01 0. -1.
         -4    1    3    3    0  502  0.44879742528E+02 -0.37937176362E+02  0.53616350236E+03  0.53937587525E+03  0.12700000000E+01 0. -1.
          1    1    1    2  503    0  0.23733820562E+02 -0.20607232924E+02  0.15434517214E+04  0.15437717346E+04  0.00000000000E+00 0. -1.
         -1    1    1    2    0  501 -0.26071734830E+02  0.28926771069E+02  0.29130870294E+03  0.29390007460E+03  0.00000000000E+00 0.  1.
<mgrwt>
<rscale>  0 0.33023082E+02</rscale>
<asrwt>0</asrwt>
<pdfrwt beam="1">  1        2 0.56783120E+00 0.31431708E+02</pdfrwt>
<pdfrwt beam="2">  1       -2 0.54958333E-03 0.34695026E+02</pdfrwt>
<totfact> 0.40392951E+03</totfact>
</mgrwt>
</event>
<event>
 7    1  0.4252091E-004  0.7145406E+02  0.7546771E-02  0.1431807E+00
          1   -1    0    0  503    0  0.00000000000E+00  0.00000000000E+00  0.13398554041E+03  0.13398554041E+03  0.00000000000E+00 0. -1.
         -1   -1    0    0    0  501 -0.00000000000E+00 -0.00000000000E+00 -0.61036869270E+03  0.61036869270E+03  0.00000000000E+00 0.  1.
         25    2    1    2    0    0  0.75460907906E+02 -0.68103593537E+00 -0.14885524313E+03  0.20851295013E+03  0.12499981813E+03 0.  0.
          4    1    3    3  502    0 -0.33939427487E+01 -0.51866846770E+02 -0.53027326349E+02  0.74264385010E+02  0.12700000000E+01 0.  1.
         -4    1    3    3    0  502  0.78854850654E+02  0.51185810835E+02 -0.95827916783E+02  0.13424856512E+03  0.12700000000E+01 0.  1.
          2    1    1    2  503    0 -0.62328939487E+02 -0.35743345897E+02  0.90764146025E+02  0.11576101968E+03  0.00000000000E+00 0. -1.
         -2    1    1    2    0  501 -0.13131968418E+02  0.36424381833E+02 -0.41829205518E+03  0.42008026330E+03  0.00000000000E+00 0.  1.
<mgrwt>
<rscale>  0 0.52598967E+02</rscale>
<asrwt>0</asrwt>
<pdfrwt beam="1">  1        1 0.20613161E-01 0.71454063E+02</pdfrwt>
<pdfrwt beam="2">  1       -1 0.93902873E-01 0.38719300E+02</pdfrwt>
<totfact> 0.29583060E+02</totfact>
</mgrwt>
</event>
<event>
 7    1  0.4252091E-004  0.9137483E+02  0.7546771E-02  0.1363105E+00
          1   -1    0    0  503    0  0.00000000000E+00  0.00000000000E+00  0.24847240614E+03  0.24847240614E+03  0.00000000000E+00 0. -1.
         -1   -1    0    0    0  501 -0.00000000000E+00 -0.00000000000E+00 -0.63626838740E+03  0.63626838740E+03  0.00000000000E+00 0.  1.
         25    2    1    2    0    0  0.49424477025E+02  0.12627430060E+03 -0.40064495535E+02  0.18872203556E+03  0.12499145963E+03 0.  0.
          4    1    3    3  502    0  0.27832860444E+02  0.11690265857E+03 -0.78564627741E+02  0.14357894460E+03  0.12700000000E+01 0.  1.
         -4    1    3    3    0  502  0.21591616581E+02  0.93716420285E+01  0.38500132206E+02  0.45143090952E+02  0.12700000000E+01 0.  1.
          2    1    1    2  503    0 -0.16375795613E+02 -0.85754865614E+02  0.16177871481E+03  0.18383257661E+03  0.00000000000E+00 0. -1.
         -2    1    1    2    0  501 -0.33048681412E+02 -0.40519434986E+02 -0.50951020053E+03  0.51218618138E+03  0.00000000000E+00 0.  1.
<mgrwt>
<rscale>  0 0.69121714E+02</rscale>
<asrwt>0</asrwt>
<pdfrwt beam="1">  1        1 0.38226524E-01 0.91374828E+02</pdfrwt>
<pdfrwt beam="2">  1       -1 0.97887443E-01 0.52288048E+02</pdfrwt>
<totfact> 0.12615785E+02</totfact>
</mgrwt>
</event>
<event>
 7    1  0.4252091E-004  0.6710439E+02  0.7546771E-02  0.1371731E+00
          1   -1    0    0  503    0  0.00000000000E+00  0.00000000000E+00  0.16448143885E+04  0.16448143885E+04  0.00000000000E+00 0. -1.
         -1   -1    0    0    0  501 -0.00000000000E+00 -0.00000000000E+00 -0.13299920896E+03  0.13299920896E+03  0.00000000000E+00 0.  1.
         25    2    1    2    0    0 -0.19087272831E+02 -0.70641955524E+01  0.15836963304E+03  0.20278012806E+03  0.12499845128E+03 0.  0.
          4    1    3    3  502    0  0.36999892870E+02 -0.26349628244E+02  0.15381284162E+02  0.47973865630E+02  0.12700000000E+01 0.  1.
         -4    1    3    3    0  502 -0.56087165702E+02  0.19285432692E+02  0.14298834888E+03  0.15480626243E+03  0.12700000000E+01 0.  1.
          2    1    1    2  503    0 -0.37653034893E+01  0.69274609089E+02  0.14534263719E+04  0.14550812237E+04  0.00000000000E+00 0. -1.
         -2    1    1    2    0  501  0.22852576321E+02 -0.62210413536E+02 -0.99980825427E+02  0.11995224571E+03  0.00000000000E+00 0.  1.
<mgrwt>
<rscale>  0 0.66688405E+02</rscale>
<asrwt>0</asrwt>
<pdfrwt beam="1">  1        1 0.25304835E+00 0.67104388E+02</pdfrwt>
<pdfrwt beam="2">  1       -1 0.20461418E-01 0.66275001E+02</pdfrwt>
<totfact> 0.12382032E+02</totfact>
</mgrwt>
</event>
<event>
 7    1  0.4252091E-004  0.6949525E+02  0.7546771E-02  0.1400488E+00
          2   -1    0    0  503    0  0.00000000000E+00  0.00000000000E+00  0.34316077837E+03  0.34316077837E+03  0.00000000000E+00 0. -1.
          1   -1    0    0  502    0 -0.00000000000E+00 -0.00000000000E+00 -0.11555007232E+04  0.11555007232E+04  0.00000000000E+00 0. -1.
         25    2    1    2    0    0  0.63064162822E+01 -0.22381297516E+02  0.12064851541E+02  0.12772575100E+03  0.12501045340E+03 0.  0.
          4    1    3    3  501    0  0.47572502139E+02  0.32906910457E+02  0.11818294641E+01  0.57870694971E+02  0.12700000000E+01 0. -1.
         -4    1    3    3    0  501 -0.41266085856E+02 -0.55288207973E+02  0.10883022077E+02  0.69855056025E+02  0.12700000000E+01 0. -1.
          2    1    1    2  502    0  0.25362034898E+02 -0.43926492190E+02 -0.10921310963E+04  0.10933083285E+04  0.00000000000E+00 0. -1.
          1    1    1    2  503    0 -0.31668451180E+02  0.66307789706E+02  0.26772630000E+03  0.27762742207E+03  0.00000000000E+00 0. -1.
<mgrwt>
<rscale>  0 0.59371467E+02</rscale>
<asrwt>0</asrwt>
<pdfrwt beam="1">  1        2 0.52793966E-01 0.69495249E+02</pdfrwt>
<pdfrwt beam="2">  1        1 0.17776934E+00 0.50722476E+02</pdfrwt>
<totfact> 0.17997357E+02</totfact>
</mgrwt>
</event>
<event>
 7    1  0.4252091E-004  0.1131943E+03  0.7546771E-02  0.1378460E+00
          1   -1    0    0  502    0 -0.00000000000E+00  0.00000000000E+00  0.24669058466E+04  0.24669058466E+04  0.00000000000E+00 0. -1.
          2   -1    0    0  503    0  0.00000000000E+00 -0.00000000000E+00 -0.18096510152E+04  0.18096510152E+04  0.00000000000E+00 0. -1.
         25    2    1    2    0    0  0.11441739890E+03  0.92575474287E+02  0.17757300068E+03  0.26233331882E+03  0.12500015992E+03 0.  0.
          4    1    3    3  501    0  0.67320709326E+02 -0.14963963327E+02  0.10048505603E+03  0.12188050495E+03  0.12700000000E+01 0. -1.
         -4    1    3    3    0  501  0.47096689570E+02  0.10753943761E+03  0.77087944655E+02  0.14045281386E+03  0.12700000000E+01 0. -1.
          2    1    1    2  502    0 -0.93485126092E+02 -0.61852171495E+02  0.22453588773E+04  0.22481551654E+04  0.00000000000E+00 0. -1.
          1    1    1    2  503    0 -0.20932272804E+02 -0.30723302792E+02 -0.17656770466E+04  0.17660683776E+04  0.00000000000E+00 0. -1.
<mgrwt>
<rscale>  0 0.64870256E+02</rscale>
<asrwt>0</asrwt>
<pdfrwt beam="2">  1        2 0.27840785E+00 0.37176355E+02</pdfrwt>
<pdfrwt beam="1">  1        1 0.37952398E+00 0.11319426E+03</pdfrwt>
<totfact> 0.29551855E+00</totfact>
</mgrwt>
</event>
<event>
 7    1  0.4252091E-004  0.1789994E+03  0.7546771E-02  0.1283962E+00
          1   -1    0    0  502    0 -0.00000000000E+00  0.00000000000E+00  0.10362140882E+03  0.10362140882E+03  0.00000000000E+00 0. -1.
          2   -1    0    0  503    0  0.00000000000E+00 -0.00000000000E+00 -0.20066933686E+04  0.20066933686E+04  0.00000000000E+00 0. -1.
         25    2    1    2    0    0  0.23634215845E+02  0.17227401002E+03 -0.12414159168E+03  0.24753533554E+03  0.12500278743E+03 0.  0.
          4    1    3    3  501    0 -0.34827493542E+02  0.50770802936E+02  0.37423248804E+01  0.61694786106E+02  0.12700000000E+01 0. -1.
         -4    1    3    3    0  501  0.58461709387E+02  0.12150320709E+03 -0.12788391657E+03  0.18584054943E+03  0.12700000000E+01 0. -1.
          2    1    1    2  502    0 -0.53714911819E+02  0.51094056373E+01  0.17987819988E+02  0.56876703891E+02  0.00000000000E+00 0. -1.
          1    1    1    2  503    0  0.30080695973E+02 -0.17738341566E+03 -0.17969181881E+04  0.18059027380E+04  0.00000000000E+00 0. -1.
<mgrwt>
<rscale>  0 0.98276836E+02</rscale>
<asrwt>0</asrwt>
<pdfrwt beam="2">  1        2 0.30872205E+00 0.17899940E+03</pdfrwt>
<pdfrwt beam="1">  1        1 0.15941756E-01 0.53957370E+02</pdfrwt>
<totfact> 0.33594661E+02</totfact>
</mgrwt>
</event>
<event>
 7    1  0.4252091E-004  0.1166506E+03  0.7546771E-02  0.1365824E+00
          2   -1    0    0  503    0  0.00000000000E+00  0.00000000000E+00  0.28099223272E+04  0.28099223272E+04  0.00000000000E+00 0. -1.
         -2   -1    0    0    0  501 -0.00000000000E+00 -0.00000000000E+00 -0.13791248184E+03  0.13791248184E+03  0.00000000000E+00 0.  1.
         25    2    1    2    0    0 -0.16828046737E+02  0.83455955097E+02  0.36314853273E+03  0.39338337974E+03  0.12500218813E+03 0.  0.
          4    1    3    3  502    0 -0.67088408771E+02  0.43253590522E+02  0.25824626706E+03  0.27030441179E+03  0.12700000000E+01 0.  1.
         -4    1    3    3    0  502  0.50260362035E+02  0.40202364575E+02  0.10490226567E+03  0.12307896795E+03  0.12700000000E+01 0.  1.
          1    1    1    2  503    0 -0.30495012556E+02  0.25946435162E+02  0.24025232448E+04  0.24028568632E+04  0.00000000000E+00 0. -1.
         -1    1    1    2    0  501  0.47323059293E+02 -0.10940239026E+03 -0.93661932153E+02  0.15159456610E+03  0.00000000000E+00 0.  1.
<mgrwt>
<rscale>  0 0.68342024E+02</rscale>
<asrwt>0</asrwt>
<pdfrwt beam="1">  1        2 0.43229570E+00 0.40039522E+02</pdfrwt>
<pdfrwt beam="2">  1       -2 0.21217307E-01 0.11665055E+03</pdfrwt>
<totfact> 0.67053293E+01</totfact>
</mgrwt>
</event>
<event>
 7    1  0.4252091E-004  0.4356550E+03  0.7546771E-02  0.1214810E+00
          1   -1    0    0  502    0 -0.00000000000E+00  0.00000000000E+00  0.60058046076E+03  0.60058046076E+03  0.00000000000E+00 0. -1.
          2   -1    0    0  503    0  0.00000000000E+00 -0.00000000000E+00 -0.23865538868E+04  0.23865538868E+04  0.00000000000E+00 0. -1.
         25    2    1    2    0    0 -0.35021470198E+03  0.23486882337E+03 -0.64323345751E+02  0.44449575534E+03  0.12500112811E+03 0.  0.
          4    1    3    3  501    0 -0.12825522512E+03  0.98873959713E+02 -0.85849544805E+02  0.18329544436E+03  0.12700000000E+01 0. -1.
         -4    1    3    3    0  501 -0.22195947686E+03  0.13599486366E+03  0.21526199053E+02  0.26120031098E+03  0.12700000000E+01 0. -1.
          2    1    1    2  502    0  0.34403653069E+03 -0.27872457153E+03  0.29078185728E+03  0.52971936886E+03  0.00000000000E+00 0. -1.
          1    1    1    2  503    0  0.61781712928E+01  0.43855748159E+02 -0.20124319375E+04  0.20129192233E+04  0.00000000000E+00 0. -1.
<mgrwt>
<rscale>  0 0.13890511E+03</rscale>
<asrwt>0</asrwt>
<pdfrwt beam="2">  1        2 0.36716214E+00 0.44288785E+02</pdfrwt>
<pdfrwt beam="1">  1        1 0.92396992E-01 0.43565501E+03</pdfrwt>
<totfact> 0.27776410E+01</totfact>
</mgrwt>
</event>
<event>
 7    1  0.4252091E-004  0.5070504E+02  0.7546771E-02  0.1474982E+00
          2   -1    0    0  503    0  0.00000000000E+00  0.00000000000E+00  0.41832828582E+03  0.41832828582E+03  0.00000000000E+00 0. -1.
          1   -1    0    0  502    0 -0.00000000000E+00 -0.00000000000E+00 -0.83873057187E+03  0.83873057187E+03  0.00000000000E+00 0. -1.
         25    2    1    2    0    0 -0.25763065804E+02  0.89986770275E+01 -0.17024025595E+02  0.12906775460E+03  0.12499582426E+03 0.  0.
          4    1    3    3  501    0  0.33062793547E+02 -0.17606086695E+02 -0.45110851755E+02  0.58649164119E+02  0.12700000000E+01 0.  1.
         -4    1    3    3    0  501 -0.58825859351E+02  0.26604763723E+02  0.28086826159E+02  0.70418590477E+02  0.12700000000E+01 0.  1.
          2    1    1    2  502    0  0.72408890919E+01  0.39090214310E+02 -0.76333235333E+03  0.76436689945E+03  0.00000000000E+00 0. -1.
          1    1    1    2  503    0  0.18522176712E+02 -0.48088891337E+02  0.35995409287E+03  0.36362420365E+03  0.00000000000E+00 0. -1.
<mgrwt>
<rscale>  0 0.44897534E+02</rscale>
<asrwt>0</asrwt>
<pdfrwt beam="1">  1        2 0.64358198E-01 0.50705039E+02</pdfrwt>
<pdfrwt beam="2">  1        1 0.12903547E+00 0.39755192E+02</pdfrwt>
<totfact> 0.24877922E+02</totfact>
</mgrwt>
</event>
<event>
 7    1  0.4252091E-004  0.1375036E+03  0.7546771E-02  0.1320975E+00
         -2   -1    0    0    0  501 -0.00000000000E+00  0.00000000000E+00  0.15382407239E+04  0.15382407239E+04  0.00000000000E+00 0.  1.
          2   -1    0    0  503    0  0.00000000000E+00 -0.00000000000E+00 -0.27462475010E+04  0.27462475010E+04  0.00000000000E+00 0. -1.
         25    2    1    2    0    0  0.13050773743E+03  0.55837321246E+02 -0.47787950238E+03  0.51394561142E+03  0.12498478601E+03 0.  0.
          4    1    3    3  502    0  0.65870158259E+02  0.16573061843E+02 -0.64412751355E+02  0.93617090133E+02  0.12700000000E+01 0.  1.
         -4    1    3    3    0  502  0.64637579168E+02  0.39264259403E+02 -0.41346675102E+03  0.42032852129E+03  0.12700000000E+01 0.  1.
          1    1    1    2  503    0 -0.99750057992E+02 -0.95256330422E+02 -0.22478094288E+04  0.22520370935E+04  0.00000000000E+00 0. -1.
         -1    1    1    2    0  501 -0.30757679435E+02  0.39419009176E+02  0.15176821541E+04  0.15185055199E+04  0.00000000000E+00 0.  1.
<mgrwt>
<rscale>  0 0.82915815E+02</rscale>
<asrwt>0</asrwt>
<pdfrwt beam="2">  1        2 0.42249961E+00 0.13750359E+03</pdfrwt>
<pdfrwt beam="1">  1       -2 0.23665242E+00 0.49998931E+02</pdfrwt>
<totfact> 0.32407842E-01</totfact>
</mgrwt>
</event>
<event>
 7    1  0.4252091E-004  0.7639867E+02  0.7546771E-02  0.1432296E+00
         -1   -1    0    0    0  501 -0.00000000000E+00  0.00000000000E+00  0.31712192676E+03  0.31712192676E+03  0.00000000000E+00 0.  1.
          1   -1    0    0  503    0  0.00000000000E+00 -0.00000000000E+00 -0.84606235056E+03  0.84606235056E+03  0.00000000000E+00 0. -1.
         25    2    1    2    0    0  0.48952569948E+02 -0.84456343072E+02 -0.79476986194E+02  0.17740293642E+03  0.12500393005E+03 0.  0.
          4    1    3    3  502    0  0.54993120060E+02 -0.11453645258E+03 -0.70978247855E+02  0.14554163251E+03  0.12700000000E+01 0.  1.
         -4    1    3    3    0  502 -0.60405501122E+01  0.30080109512E+02 -0.84987383386E+01  0.31861303916E+02  0.12700000000E+01 0.  1.
          2    1    1    2  503    0  0.84605742127E+01  0.35073883064E+02 -0.71180981109E+03  0.71272362509E+03  0.00000000000E+00 0. -1.
         -2    1    1    2    0  501 -0.57413144161E+02  0.49382460008E+02  0.26234637349E+03  0.27305771580E+03  0.00000000000E+00 0.  1.
<mgrwt>
<rscale>  0 0.52501960E+02</rscale>
<asrwt>0</asrwt>
<pdfrwt beam="2">  1        1 0.13016344E+00 0.36079892E+02</pdfrwt>
<pdfrwt beam="1">  1       -1 0.48787989E-01 0.76398670E+02</pdfrwt>
<totfact> 0.10322016E+02</totfact>
</mgrwt>
</event>
<event>
 7    1  0.4252091E-004  0.1702063E+03  0.7546771E-02  0.1332504E+00
          2   -1    0    0  503    0  0.00000000000E+00  0.00000000000E+00  0.23325430952E+04  0.23325430952E+04  0.00000000000E+00 0. -1.
          1   -1    0    0  502    0 -0.00000000000E+00 -0.00000000000E+00 -0.41694939506E+03  0.41694939506E+03  0.00000000000E+00 0. -1.
         25    2    1    2    0    0 -0.17542454078E+03 -0.80868392987E+02  0.11466976741E+04  0.11695531344E+04  0.12500204767E+03 0.  0.
          4    1    3    3  501    0 -0.16975059154E+03 -0.97999699089E+02  0.11216912970E+04  0.11386887999E+04  0.12700000000E+01 0.  1.
         -4    1    3    3    0  501 -0.56739492391E+01  0.17131306102E+02  0.25006377082E+02  0.30864334489E+02  0.12700000000E+01 0.  1.
          2    1    1    2  502    0  0.16342316494E+03  0.46421138783E+02 -0.38742825542E+03  0.42303983981E+03  0.00000000000E+00 0. -1.
          1    1    1    2  503    0  0.12001375836E+02  0.34447254204E+02  0.11563242815E+04  0.11568995160E+04  0.00000000000E+00 0. -1.
<mgrwt>
<rscale>  0 0.78795871E+02</rscale>
<asrwt>0</asrwt>
<pdfrwt beam="1">  1        2 0.35885278E+00 0.36478025E+02</pdfrwt>
<pdfrwt beam="2">  1        1 0.64146062E-01 0.17020629E+03</pdfrwt>
<totfact> 0.50660423E+01</totfact>
</mgrwt>
</event>
<event>
 7    1  0.4252091E-004  0.1741582E+03  0.7546771E-02  0.1283509E+00
          2   -1    0    0  503    0  0.00000000000E+00  0.00000000000E+00  0.63487144859E+03  0.63487144859E+03  0.00000000000E+00 0. -1.
         -2   -1    0    0    0  501 -0.00000000000E+00 -0.00000000000E+00 -0.11983279447E+04  0.11983279447E+04  0.00000000000E+00 0.  1.
         25    2    1    2    0    0 -0.99731851256E+02 -0.90703119273E+02  0.89680927282E+02  0.20454996033E+03  0.12499807819E+03 0.  0.
          4    1    3    3  502    0 -0.72547489922E+02 -0.41968002662E+02 -0.15718227778E+02  0.85282630857E+02  0.12700000000E+01 0.  1.
         -4    1    3    3    0  502 -0.27184361333E+02 -0.48735116611E+02  0.10539915506E+03  0.11926732947E+03  0.12700000000E+01 0.  1.
          1    1    1    2  503    0  0.15298949926E+03  0.10699993876E+03  0.46917526407E+03  0.50495564379E+03  0.00000000000E+00 0. -1.
         -1    1    1    2    0  501 -0.53257648000E+02 -0.16296819491E+02 -0.11223126874E+04  0.11236937892E+04  0.00000000000E+00 0.  1.
<mgrwt>
<rscale>  0 0.98487510E+02</rscale>
<asrwt>0</asrwt>
<pdfrwt beam="1">  1        2 0.97672531E-01 0.17415822E+03</pdfrwt>
<pdfrwt beam="2">  1       -2 0.18435814E+00 0.55695273E+02</pdfrwt>
<totfact> 0.97102589E+00</totfact>
</mgrwt>
</event>
<event>
 7    1  0.4252091E-004  0.6301290E+02  0.7546771E-02  0.1427100E+00
          2   -1    0    0  503    0  0.00000000000E+00  0.00000000000E+00  0.11636769118E+04  0.11636769118E+04  0.00000000000E+00 0. -1.
          1   -1    0    0  502    0 -0.00000000000E+00 -0.00000000000E+00 -0.58991282808E+03  0.58991282808E+03  0.00000000000E+00 0. -1.
         25    2    1    2    0    0  0.68247172015E+02  0.51599303738E+02  0.16229914478E+02  0.15234180600E+03  0.12499780437E+03 0.  0.
          4    1    3    3  501    0  0.10299041215E+03  0.43525474208E+02 -0.28837609899E+01  0.11185446293E+03  0.12700000000E+01 0. -1.
         -4    1    3    3    0  501 -0.34743240138E+02  0.80738295297E+01  0.19113675468E+02  0.40487343065E+02  0.12700000000E+01 0. -1.
          2    1    1    2  502    0 -0.57063765646E+01 -0.45143280149E+02 -0.51994684366E+03  0.52193409421E+03  0.00000000000E+00 0. -1.
          1    1    1    2  503    0 -0.62540795451E+02 -0.64560235892E+01  0.10774810129E+04  0.10793138397E+04  0.00000000000E+00 0. -1.
<mgrwt>
<rscale>  0 0.53546662E+02</rscale>
<asrwt>0</asrwt>
<pdfrwt beam="1">  1        2 0.17902722E+00 0.63012896E+02</pdfrwt>
<pdfrwt beam="2">  1        1 0.90755820E-01 0.45502511E+02</pdfrwt>
<totfact> 0.11983765E+02</totfact>
</mgrwt>
</event>
<event>
 7    1  0.4252091E-004  0.4403784E+02  0.7546771E-02  0.1487094E+00
          1   -1    0    0  503    0  0.00000000000E+00  0.00000000000E+00  0.19163256300E+03  0.19163256300E+03  0.00000000000E+00 0. -1.
         -1   -1    0    0    0  501 -0.00000000000E+00 -0.00000000000E+00 -0.44576254298E+03  0.44576254298E+03  0.00000000000E+00 0.  1.
         25    2    1    2    0    0 -0.93220471477E+01 -0.56732057065E+02  0.10284364002E+03  0.17177948293E+03  0.12500379835E+03 0.  0.
          4    1    3    3  502    0  0.42223455572E+02  0.52208025019E+01  0.75489254769E+02  0.86662087817E+02  0.12700000000E+01 0. -1.
         -4    1    3    3    0  502 -0.51545502720E+02 -0.61952859567E+02  0.27354385252E+02  0.85117395118E+02  0.12700000000E+01 0. -1.
          2    1    1    2  503    0 -0.27191124077E+02  0.32044076412E+02  0.44802916776E+02  0.61428669311E+02  0.00000000000E+00 0. -1.
         -2    1    1    2    0  501  0.36513171225E+02  0.24687980653E+02 -0.40177653678E+03  0.40418695374E+03  0.00000000000E+00 0.  1.
<mgrwt>
<rscale>  0 0.43020133E+02</rscale>
<asrwt>0</asrwt>
<pdfrwt beam="1">  1        1 0.29481933E-01 0.42025945E+02</pdfrwt>
<pdfrwt beam="2">  1       -1 0.68578852E-01 0.44037840E+02</pdfrwt>
<totfact> 0.34960056E+02</totfact>
</mgrwt>
</event>
<event>
 7    1  0.4252091E-004  0.7276079E+02  0.7546771E-02  0.1414665E+00
          1   -1    0    0  502    0 -0.00000000000E+00  0.00000000000E+00  0.31191046997E+03  0.31191046997E+03  0.00000000000E+00 0. -1.
          2   -1    0    0  503    0  0.00000000000E+00 -0.00000000000E+00 -0.11100181053E+04  0.11100181053E+04  0.00000000000E+00 0. -1.
         25    2    1    2    0    0 -0.27236361565E+02  0.10569696459E+03 -0.31715550403E+03  0.35794994007E+03  0.12500751238E+03 0.  0.
          4    1    3    3  501    0  0.22944858064E+02  0.89618542033E+02 -0.27594811911E+03  0.29104454457E+03  0.12700000000E+01 0. -1.
         -4    1    3    3    0  501 -0.50181219628E+02  0.16078422558E+02 -0.41207384919E+02  0.66905395501E+02  0.12700000000E+01 0. -1.
          2    1    1    2  502    0 -0.43744315769E+00 -0.72322138265E+02  0.28640610263E+03  0.29539657862E+03  0.00000000000E+00 0. -1.
          1    1    1    2  503    0  0.27673804723E+02 -0.33374826326E+02 -0.76735823395E+03  0.76858205658E+03  0.00000000000E+00 0. -1.
<mgrwt>
<rscale>  0 0.56165795E+02</rscale>
<asrwt>0</asrwt>
<pdfrwt beam="2">  1        2 0.17077202E+00 0.43355721E+02</pdfrwt>
<pdfrwt beam="1">  1        1 0.47986226E-01 0.72760792E+02</pdfrwt>
<totfact> 0.28663978E+02</totfact>
</mgrwt>
</event>
<event>
 7    1  0.4252091E-004  0.1093206E+03  0.7546771E-02  0.1317360E+00
          1   -1    0    0  502    0 -0.00000000000E+00  0.00000000000E+00  0.65772686442E+03  0.65772686442E+03  0.00000000000E+00 0. -1.
          2   -1    0    0  503    0  0.00000000000E+00 -0.00000000000E+00 -0.37211038232E+04  0.37211038232E+04  0.00000000000E+00 0. -1.
         25    2    1    2    0    0  0.26079090266E+02  0.16542686862E+03 -0.14331444543E+04  0.14483005694E+04  0.12500137858E+03 0.  0.
          4    1    3    3  501    0  0.49609543163E+02  0.11870036906E+03 -0.60622118567E+03  0.61972302140E+03  0.12700000000E+01 0.  1.
         -4    1    3    3    0  501 -0.23530452897E+02  0.46726499558E+02 -0.82692326863E+03  0.82857754802E+03  0.12700000000E+01 0.  1.
          2    1    1    2  502    0 -0.39292590546E+02 -0.10182953631E+03  0.64510111425E+03  0.65426952378E+03  0.00000000000E+00 0. -1.
          3    1    1    2  503    0  0.13213500281E+02 -0.63597332305E+02 -0.22753336187E+04  0.22762605944E+04  0.00000000000E+00 0. -1.
<mgrwt>
<rscale>  0 0.84267278E+02</rscale>
<asrwt>0</asrwt>
<pdfrwt beam="2">  1        2 0.57247751E+00 0.64955502E+02</pdfrwt>
<pdfrwt beam="1">  1        1 0.10118875E+00 0.10932060E+03</pdfrwt>
<totfact> 0.41584654E+00</totfact>
</mgrwt>
</event>
<event>
 7    1  0.4252091E-004  0.7866110E+02  0.7546771E-02  0.1483111E+00
         -2   -1    0    0    0  501 -0.00000000000E+00  0.00000000000E+00  0.25968883553E+03  0.25968883553E+03  0.00000000000E+00 0.  1.
          2   -1    0    0  503    0  0.00000000000E+00 -0.00000000000E+00 -0.30528277564E+04  0.30528277564E+04  0.00000000000E+00 0. -1.
         25    2    1    2    0    0  0.27249815718E+01 -0.73746455148E+02 -0.21900901828E+03  0.26274603543E+03  0.12499825548E+03 0.  0.
          4    1    3    3  502    0 -0.26708661493E+02  0.26056113488E+02 -0.86862133305E+02  0.94545844706E+02  0.12700000000E+01 0. -1.
         -4    1    3    3    0  502  0.29433643064E+02 -0.99802568635E+02 -0.13214688498E+03  0.16820019072E+03  0.12700000000E+01 0. -1.
          1    1    1    2  503    0  0.21371618374E+02  0.75921177048E+02 -0.28107802531E+04  0.28118866269E+04  0.00000000000E+00 0. -1.
         -1    1    1    2    0  501 -0.24096599945E+02 -0.21747219007E+01  0.23665035054E+03  0.23788392959E+03  0.00000000000E+00 0.  1.
<mgrwt>
<rscale>  0 0.43625324E+02</rscale>
<asrwt>0</asrwt>
<pdfrwt beam="2">  1        2 0.46966579E+00 0.78661103E+02</pdfrwt>
<pdfrwt beam="1">  1       -2 0.39952130E-01 0.24194535E+02</pdfrwt>
<totfact> 0.13790269E+01</totfact>
</mgrwt>
</event>
<event>
 7    1  0.4252091E-004  0.1491614E+03  0.7546771E-02  0.1336963E+00
         -2   -1    0    0    0  501 -0.00000000000E+00  0.00000000000E+00  0.15388410568E+03  0.15388410568E+03  0.00000000000E+00 0.  1.
          2   -1    0    0  503    0  0.00000000000E+00 -0.00000000000E+00 -0.24626416282E+04  0.24626416282E+04  0.00000000000E+00 0. -1.
         25    2    1    2    0    0  0.96996775949E+02 -0.10129848704E+03 -0.31819791427E+03  0.36951622322E+03  0.12499027385E+03 0.  0.
          4    1    3    3  502    0 -0.11334808115E+02 -0.46909184223E+02 -0.17677151604E+03  0.18324500326E+03  0.12700000000E+01 0.  1.
         -4    1    3    3    0  502  0.10833158406E+03 -0.54389302820E+02 -0.14142639823E+03  0.18627121995E+03  0.12700000000E+01 0.  1.
          1    1    1    2  503    0 -0.24976821955E+02 -0.31288030703E+02 -0.20741374708E+04  0.20745238081E+04  0.00000000000E+00 0. -1.
         -1    1    1    2    0  501 -0.72019953994E+02  0.13258651775E+03  0.83577862600E+02  0.17248570253E+03  0.00000000000E+00 0.  1.
<mgrwt>
<rscale>  0 0.77276389E+02</rscale>
<asrwt>0</asrwt>
<pdfrwt beam="2">  1        2 0.37886798E+00 0.40034766E+02</pdfrwt>
<pdfrwt beam="1">  1       -2 0.23674475E-01 0.14916136E+03</pdfrwt>
<totfact> 0.84474878E+01</totfact>
</mgrwt>
</event>
<event>
 7    1  0.4252091E-004  0.1266276E+03  0.7546771E-02  0.1341406E+00
          1   -1    0    0  503    0  0.00000000000E+00  0.00000000000E+00  0.90716834626E+03  0.90716834626E+03  0.00000000000E+00 0. -1.
         -1   -1    0    0    0  501 -0.00000000000E+00 -0.00000000000E+00 -0.23014436779E+04  0.23014436779E+04  0.00000000000E+00 0.  1.
         25    2    1    2    0    0  0.12251164846E+03  0.11630745850E+03 -0.10663393644E+03  0.23564953250E+03  0.12499350724E+03 0.  0.
          4    1    3    3  502    0 -0.12492227665E+02  0.44913072836E+02 -0.59942319804E+02  0.75946918746E+02  0.12700000000E+01 0. -1.
         -4    1    3    3    0  502  0.13500387613E+03  0.71394385662E+02 -0.46691616636E+02  0.15970261375E+03  0.12700000000E+01 0. -1.
          2    1    1    2  503    0 -0.98420274862E+02 -0.77854505802E+02  0.83774496920E+03  0.84709179431E+03  0.00000000000E+00 0. -1.
         -2    1    1    2    0  501 -0.24091373602E+02 -0.38452952696E+02 -0.21253863644E+04  0.21258706974E+04  0.00000000000E+00 0.  1.
<mgrwt>
<rscale>  0 0.75801789E+02</rscale>
<asrwt>0</asrwt>
<pdfrwt beam="1">  1        1 0.13956436E+00 0.12662756E+03</pdfrwt>
<pdfrwt beam="2">  1       -1 0.35406826E+00 0.45376468E+02</pdfrwt>
<totfact> 0.45769211E-01</totfact>
</mgrwt>
</event>
<event>
 7    1  0.4252091E-004  0.5619978E+02  0.7546771E-02  0.1505858E+00
          2   -1    0    0  503    0  0.00000000000E+00  0.00000000000E+00  0.38735320333E+04  0.38735320333E+04  0.00000000000E+00 0. -1.
          1   -1    0    0  502    0 -0.00000000000E+00 -0.00000000000E+00 -0.18171468331E+02  0.18171468331E+02  0.00000000000E+00 0. -1.
         25    2    1    2    0    0  0.48979578077E+02  0.67973030203E+02  0.22435950355E+04  0.22486354589E+04  0.12499364629E+03 0.  0.
          4    1    3    3  501    0 -0.34374408252E+02  0.55295701475E+02  0.11099736459E+04  0.11118823328E+04  0.12700000000E+01 0.  1.
         -4    1    3    3    0  501  0.83353986329E+02  0.12677328728E+02  0.11336213896E+04  0.11367531260E+04  0.12700000000E+01 0.  1.
          2    1    1    2  502    0 -0.36658914668E+02 -0.41798291535E+02  0.34275911044E+02  0.65313178439E+02  0.00000000000E+00 0. -1.
          1    1    1    2  503    0 -0.12320663409E+02 -0.26174738667E+02  0.15774896184E+04  0.15777548643E+04  0.00000000000E+00 0. -1.
<mgrwt>
<rscale>  0 0.40321598E+02</rscale>
<asrwt>0</asrwt>
<pdfrwt beam="1">  1        2 0.59592735E+00 0.28929495E+02</pdfrwt>
<pdfrwt beam="2">  1        1 0.27956136E-02 0.56199780E+02</pdfrwt>
<totfact> 0.38623637E+02</totfact>
</mgrwt>
</event>
<event>
 7    1  0.4252091E-004  0.3909441E+03  0.7546771E-02  0.1267860E+00
          1   -1    0    0  502    0 -0.00000000000E+00  0.00000000000E+00  0.59205032610E+03  0.59205032610E+03  0.00000000000E+00 0. -1.
          2   -1    0    0  503    0  0.00000000000E+00 -0.00000000000E+00 -0.14914363234E+04  0.14914363234E+04  0.00000000000E+00 0. -1.
         25    2    1    2    0    0  0.31978071901E+03 -0.19042342429E+03  0.53906946366E+01  0.39265105596E+03  0.12500001355E+03 0.  0.
          4    1    3    3  501    0  0.20718287184E+03 -0.10858885393E+03 -0.55977842197E+02  0.24052320740E+03  0.12700000000E+01 0. -1.
         -4    1    3    3    0  501  0.11259784717E+03 -0.81834570355E+02  0.61368536834E+02  0.15212784855E+03  0.12700000000E+01 0. -1.
          2    1    1    2  502    0 -0.34598288396E+03  0.20243678983E+03  0.29060136452E+03  0.49511005134E+03  0.00000000000E+00 0. -1.
          1    1    1    2  503    0  0.26202164952E+02 -0.12013365545E+02 -0.11953780564E+04  0.11957255422E+04  0.00000000000E+00 0. -1.
<mgrwt>
<rscale>  0 0.10615517E+03</rscale>
<asrwt>0</asrwt>
<pdfrwt beam="2">  1        2 0.22945174E+00 0.28824892E+02</pdfrwt>
<pdfrwt beam="1">  1        1 0.91084667E-01 0.39094407E+03</pdfrwt>
<totfact> 0.80754281E+01</totfact>
</mgrwt>
</event>
<event>
 7    1  0.4252091E-004  0.5534912E+02  0.7546771E-02  0.1425736E+00
          1   -1    0    0  502    0 -0.00000000000E+00  0.00000000000E+00  0.63328281503E+03  0.63328281503E+03  0.00000000000E+00 0. -1.
          2   -1    0    0  503    0  0.00000000000E+00 -0.00000000000E+00 -0.10563334540E+03  0.10563334540E+03  0.00000000000E+00 0. -1.
         25    2    1    2    0    0 -0.17332823995E+02 -0.42087248082E+02  0.10500944725E+02  0.13344967806E+03  0.12500713377E+03 0.  0.
          4    1    3    3  501    0  0.20193719131E+00 -0.21715551218E+02 -0.56878087889E+02  0.60896105994E+02  0.12700000000E+01 0.  1.
         -4    1    3    3    0  501 -0.17534761186E+02 -0.20371696864E+02  0.67379032614E+02  0.72553572063E+02  0.12700000000E+01 0.  1.
          2    1    1    2  502    0  0.55132286232E+02 -0.48944421374E+01  0.53862110593E+03  0.54145749631E+03  0.00000000000E+00 0. -1.
          1    1    1    2  503    0 -0.37799462237E+02  0.46981690220E+02 -0.21472581032E+02  0.64008986068E+02  0.00000000000E+00 0. -1.
<mgrwt>
<rscale>  0 0.53825541E+02</rscale>
<asrwt>0</asrwt>
<pdfrwt beam="2">  1        2 0.16251284E-01 0.52343907E+02</pdfrwt>
<pdfrwt beam="1">  1        1 0.97428123E-01 0.55349115E+02</pdfrwt>
<totfact> 0.15437009E+03</totfact>
</mgrwt>
</event>
<event>
 7    1  0.4252091E-004  0.1156772E+03  0.7546771E-02  0.1255391E+00
          1   -1    0    0  502    0 -0.00000000000E+00  0.00000000000E+00  0.52848651378E+03  0.52848651378E+03  0.00000000000E+00 0. -1.
          2   -1    0    0  503    0  0.00000000000E+00 -0.00000000000E+00 -0.18258933000E+03  0.18258933000E+03  0.00000000000E+00 0. -1.
         25    2    1    2    0    0 -0.12075903396E+03  0.85938523295E+02  0.17304389748E+03  0.25987587371E+03  0.12499242062E+03 0.  0.
          4    1    3    3  501    0 -0.10452463611E+03  0.83880571514E+02  0.62081395403E+02  0.14770599983E+03  0.12700000000E+01 0. -1.
         -4    1    3    3    0  501 -0.16234397857E+02  0.20579517807E+01  0.11096250208E+03  0.11216987388E+03  0.12700000000E+01 0. -1.
          2    1    1    2  502    0  0.14813614028E+02 -0.11583142863E+03  0.27640968191E+03  0.30006445186E+03  0.00000000000E+00 0. -1.
          1    1    1    2  503    0  0.10594541993E+03  0.29892905335E+02 -0.10355639561E+03  0.15113551821E+03  0.00000000000E+00 0. -1.
<mgrwt>
<rscale>  0 0.11284484E+03</rscale>
<asrwt>0</asrwt>
<pdfrwt beam="2">  1        2 0.28090666E-01 0.11008187E+03</pdfrwt>
<pdfrwt beam="1">  1        1 0.81305617E-01 0.11567716E+03</pdfrwt>
<totfact> 0.10779796E+03</totfact>
</mgrwt>
</event>
<event>
 7    1  0.4252091E-004  0.2129522E+03  0.7546771E-02  0.1226441E+00
          1   -1    0    0  502    0 -0.00000000000E+00  0.00000000000E+00  0.68074779400E+02  0.68074779400E+02  0.00000000000E+00 0. -1.
          2   -1    0    0  503    0  0.00000000000E+00 -0.00000000000E+00 -0.22857515512E+04  0.22857515512E+04  0.00000000000E+00 0. -1.
         25    2    1    2    0    0  0.10469094555E+03  0.26035739661E+03 -0.50196926940E+03  0.58850931908E+03  0.12499561264E+03 0.  0.
          4    1    3    3  501    0  0.13147525279E+03  0.22566827124E+03 -0.45199631316E+03  0.52202891754E+03  0.12700000000E+01 0. -1.
         -4    1    3    3    0  501 -0.26784307248E+02  0.34689125369E+02 -0.49972956240E+02  0.66480401541E+02  0.12700000000E+01 0. -1.
          2    1    1    2  502    0 -0.46001250295E+02 -0.65696478811E+02 -0.68101869777E+02  0.10521410088E+03  0.00000000000E+00 0. -1.
          1    1    1    2  503    0 -0.58689695251E+02 -0.19466091780E+03 -0.16476056326E+04  0.16601029107E+04  0.00000000000E+00 0. -1.
<mgrwt>
<rscale>  0 0.13068628E+03</rscale>
<asrwt>0</asrwt>
<pdfrwt beam="2">  1        2 0.35165411E+00 0.21295221E+03</pdfrwt>
<pdfrwt beam="1">  1        1 0.10473042E-01 0.80200638E+02</pdfrwt>
<totfact> 0.41198047E+02</totfact>
</mgrwt>
</event>
<event>
 7    1  0.4252091E-004  0.1089098E+03  0.7546771E-02  0.1380998E+00
          1   -1    0    0  502    0 -0.00000000000E+00  0.00000000000E+00  0.84501604200E+03  0.84501604200E+03  0.00000000000E+00 0. -1.
          2   -1    0    0  503    0  0.00000000000E+00 -0.00000000000E+00 -0.17587587002E+03  0.17587587002E+03  0.00000000000E+00 0. -1.
         25    2    1    2    0    0  0.13098603789E+03 -0.27814206751E+02  0.38775341762E+02  0.18722991446E+03  0.12498216480E+03 0.  0.
          4    1    3    3  501    0  0.21756311706E+02 -0.33482935007E+02 -0.36768075431E+02  0.54295011802E+02  0.12700000000E+01 0. -1.
         -4    1    3    3    0  501  0.10922972618E+03  0.56687282554E+01  0.75543417193E+02  0.13293490265E+03  0.12700000000E+01 0. -1.
          2    1    1    2  502    0 -0.10772339677E+03 -0.20397743186E+01  0.72436220091E+03  0.73233126998E+03  0.00000000000E+00 0. -1.
          1    1    1    2  503    0 -0.23262641120E+02  0.29853981070E+02 -0.93997370683E+02  0.10133072759E+03  0.00000000000E+00 0. -1.
<mgrwt>
<rscale>  0 0.64202255E+02</rscale>
<asrwt>0</asrwt>
<pdfrwt beam="2">  1        2 0.27057827E-01 0.37847201E+02</pdfrwt>
<pdfrwt beam="1">  1        1 0.13000246E+00 0.10890976E+03</pdfrwt>
<totfact> 0.56334926E+02</totfact>
</mgrwt>
</event>
<event>
 7    1  0.4252091E-004  0.3352183E+02  0.7546771E-02  0.1573376E+00
          2   -1    0    0  503    0  0.00000000000E+00  0.00000000000E+00  0.16907057402E+04  0.16907057402E+04  0.00000000000E+00 0. -1.
          1   -1    0    0  502    0 -0.00000000000E+00 -0.00000000000E+00 -0.13095603830E+03  0.13095603830E+03  0.00000000000E+00 0. -1.
         25    2    1    2    0    0 -0.87489256127E+01  0.13542287476E+02  0.12787901328E+03  0.17954903132E+03  0.12499950145E+03 0.  0.
          4    1    3    3  501    0 -0.46536628236E+02  0.51741130779E+02  0.53520467814E+02  0.87800089732E+02  0.12700000000E+01 0.  1.
         -4    1    3    3    0  501  0.37787702623E+02 -0.38198843303E+02  0.74358545462E+02  0.91748941588E+02  0.12700000000E+01 0.  1.
          2    1    1    2  502    0  0.27777511982E+02  0.14292281501E+02 -0.10261093860E+03  0.10726073001E+03  0.00000000000E+00 0. -1.
          1    1    1    2  503    0 -0.19028586369E+02 -0.27834568977E+02  0.15344816272E+04  0.15348520171E+04  0.00000000000E+00 0. -1.
<mgrwt>
<rscale>  0 0.32360160E+02</rscale>
<asrwt>0</asrwt>
<pdfrwt beam="1">  1        2 0.26010856E+00 0.33521828E+02</pdfrwt>
<pdfrwt beam="2">  1        1 0.20147084E-01 0.31238750E+02</pdfrwt>
<totfact> 0.41801784E+02</totfact>
</mgrwt>
</event>
<event>
 7    1  0.4252091E-004  0.5848636E+02  0.7546771E-02  0.1468560E+00
          2   -1    0    0  503    0  0.00000000000E+00  0.00000000000E+00  0.27798032759E+03  0.27798032759E+03  0.00000000000E+00 0. -1.
         -2   -1    0    0    0  501 -0.00000000000E+00 -0.00000000000E+00 -0.17995542743E+03  0.17995542743E+03  0.00000000000E+00 0.  1.
         25    2    1    2    0    0 -0.38220645989E+02 -0.75095208858E+02 -0.83017451389E+02  0.17209688064E+03  0.12500132366E+03 0.  0.
          4    1    3    3  502    0 -0.20828502369E+02  0.15519153292E+02 -0.75106555276E+02  0.79481307081E+02  0.12700000000E+01 0.  1.
         -4    1    3    3    0  502 -0.17392143620E+02 -0.90614362150E+02 -0.79108961126E+01  0.92615573555E+02  0.12700000000E+01 0.  1.
          1    1    1    2  503    0  0.51840437332E+01  0.35710140299E+02  0.21899026835E+03  0.22194329469E+03  0.00000000000E+00 0. -1.
         -1    1    1    2    0  501  0.33036602256E+02  0.39385068559E+02 -0.37947916796E+02  0.63895579684E+02  0.00000000000E+00 0.  1.
<mgrwt>
<rscale>  0 0.45939620E+02</rscale>
<asrwt>0</asrwt>
<pdfrwt beam="1">  1        2 0.42766204E-01 0.36084462E+02</pdfrwt>
<pdfrwt beam="2">  1       -2 0.27685450E-01 0.58486356E+02</pdfrwt>
<totfact> 0.13306060E+03</totfact>
</mgrwt>
</event>
<event>
 7    1  0.4252091E-004  0.5111288E+02  0.7546771E-02  0.1565273E+00
          2   -1    0    0  503    0  0.00000000000E+00  0.00000000000E+00  0.18549955231E+04  0.18549955231E+04  0.00000000000E+00 0. -1.
          1   -1    0    0  502    0 -0.00000000000E+00 -0.00000000000E+00 -0.95630654216E+02  0.95630654216E+02  0.00000000000E+00 0. -1.
         25    2    1    2    0    0  0.29615138629E+01 -0.68882418036E+02  0.54329851888E+03  0.56173985928E+03  0.12499932323E+03 0.  0.
          4    1    3    3  501    0 -0.11888412790E+02 -0.12927282219E+02  0.45974504639E+03  0.46008213350E+03  0.12700000000E+01 0.  1.
         -4    1    3    3    0  501  0.14849926652E+02 -0.55955135818E+02  0.83553472486E+02  0.10165772578E+03  0.12700000000E+01 0.  1.
          2    1    1    2  502    0 -0.12194374886E+02  0.49406297908E+02 -0.78820077569E+02  0.93820518437E+02  0.00000000000E+00 0. -1.
          1    1    1    2  503    0  0.92328610235E+01  0.19476120128E+02  0.12948864275E+04  0.12950657996E+04  0.00000000000E+00 0. -1.
<mgrwt>
<rscale>  0 0.33191494E+02</rscale>
<asrwt>0</asrwt>
<pdfrwt beam="1">  1        2 0.28538390E+00 0.21553769E+02</pdfrwt>
<pdfrwt beam="2">  1        1 0.14712410E-01 0.51112883E+02</pdfrwt>
<totfact> 0.55667207E+02</totfact>
</mgrwt>
</event>
<event>
 7    1  0.4252091E-004  0.4777253E+02  0.7546771E-02  0.1524348E+00
          2   -1    0    0  503    0  0.00000000000E+00  0.00000000000E+00  0.25708802869E+04  0.25708802869E+04  0.00000000000E+00 0. -1.
          3   -1    0    0  502    0 -0.00000000000E+00 -0.00000000000E+00 -0.13474227034E+02  0.13474227034E+02  0.00000000000E+00 0. -1.
         25    2    1    2    0    0 -0.56953746425E+02  0.44589513339E+02  0.59101611811E+03  0.60840864437E+03  0.12501628992E+03 0.  0.
          4    1    3    3  501    0  0.23170892605E+02 -0.27893154300E+02  0.13909199808E+03  0.14374670484E+03  0.12700000000E+01 0. -1.
         -4    1    3    3    0  501 -0.80124639030E+02  0.72482667639E+02  0.45192412002E+03  0.46466193953E+03  0.12700000000E+01 0. -1.
          2    1    1    2  502    0  0.29599003097E+02 -0.32151091500E+02  0.97862172716E+02  0.10717648304E+03  0.00000000000E+00 0. -1.
          1    1    1    2  503    0  0.27354743329E+02 -0.12438421840E+02  0.18685277691E+04  0.18687693866E+04  0.00000000000E+00 0. -1.
<mgrwt>
<rscale>  0 0.37888781E+02</rscale>
<asrwt>0</asrwt>
<pdfrwt beam="1">  1        2 0.39551965E+00 0.30049897E+02</pdfrwt>
<pdfrwt beam="2">  1        3 0.20729601E-02 0.47772534E+02</pdfrwt>
<totfact> 0.21665618E+03</totfact>
</mgrwt>
</event>
<event>
 7    1  0.4252091E-004  0.5434400E+02  0.7546771E-02  0.1495336E+00
          2   -1    0    0  503    0  0.00000000000E+00  0.00000000000E+00  0.12794352265E+04  0.12794352265E+04  0.00000000000E+00 0. -1.
          1   -1    0    0  502    0 -0.00000000000E+00 -0.00000000000E+00 -0.15032787819E+03  0.15032787819E+03  0.00000000000E+00 0. -1.
         25    2    1    2    0    0 -0.22378676703E+02  0.15093758588E+02  0.10081493331E+04  0.10162279927E+04  0.12500251516E+03 0.  0.
          4    1    3    3  501    0  0.48091282355E+02 -0.69250836336E+01  0.26510351906E+03  0.26952220120E+03  0.12700000000E+01 0. -1.
         -4    1    3    3    0  501 -0.70469959058E+02  0.22018842221E+02  0.74304581399E+03  0.74670579155E+03  0.12700000000E+01 0. -1.
          2    1    1    2  502    0  0.53839094627E+02 -0.84289006480E+01 -0.14019274089E+03  0.15041176508E+03  0.00000000000E+00 0. -1.
          1    1    1    2  503    0 -0.31460417924E+02 -0.66648579397E+01  0.26115075616E+03  0.26312334688E+03  0.00000000000E+00 0. -1.
<mgrwt>
<rscale>  0 0.41804655E+02</rscale>
<asrwt>0</asrwt>
<pdfrwt beam="1">  1        2 0.19683618E+00 0.32158642E+02</pdfrwt>
<pdfrwt beam="2">  1        1 0.23127367E-01 0.54343999E+02</pdfrwt>
<totfact> 0.57555671E+02</totfact>
</mgrwt>
</event>
<event>
 7    1  0.4252091E-004  0.1425686E+03  0.7546771E-02  0.1301392E+00
         -2   -1    0    0    0  501 -0.00000000000E+00  0.00000000000E+00  0.63320267659E+03  0.63320267659E+03  0.00000000000E+00 0.  1.
          2   -1    0    0  503    0  0.00000000000E+00 -0.00000000000E+00 -0.21868699772E+03  0.21868699772E+03  0.00000000000E+00 0. -1.
         25    2    1    2    0    0 -0.45428277058E+02 -0.94223196771E+02  0.81092193438E+02  0.18204778926E+03  0.12499485818E+03 0.  0.
          4    1    3    3  502    0 -0.36738072565E+01 -0.84344863322E+02 -0.63136520970E+01  0.84670112385E+02  0.12700000000E+01 0. -1.
         -4    1    3    3    0  502 -0.41754469801E+02 -0.98783334494E+01  0.87405845535E+02  0.97377676876E+02  0.12700000000E+01 0. -1.
          1    1    1    2  503    0  0.16791607413E+02 -0.55079085802E+02 -0.15127406071E+03  0.16186261217E+03  0.00000000000E+00 0. -1.
         -1    1    1    2    0  501  0.28636669645E+02  0.14930228257E+03  0.48469754615E+03  0.50797927287E+03  0.00000000000E+00 0.  1.
<mgrwt>
<rscale>  0 0.90605488E+02</rscale>
<asrwt>0</asrwt>
<pdfrwt beam="2">  1        2 0.33644154E-01 0.57581801E+02</pdfrwt>
<pdfrwt beam="1">  1       -2 0.97415796E-01 0.14256856E+03</pdfrwt>
<totfact> 0.14073794E+02</totfact>
</mgrwt>
</event>
<event>
 7    1  0.4252091E-004  0.5817303E+02  0.7546771E-02  0.1498613E+00
          1   -1    0    0  502    0 -0.00000000000E+00  0.00000000000E+00  0.84202228587E+03  0.84202228587E+03  0.00000000000E+00 0. -1.
          2   -1    0    0  503    0  0.00000000000E+00 -0.00000000000E+00 -0.82643152677E+02  0.82643152677E+02  0.00000000000E+00 0. -1.
         25    2    1    2    0    0  0.17749004213E+02  0.84181296106E+02  0.31535347259E+03  0.34996277004E+03  0.12499843989E+03 0.  0.
          4    1    3    3  501    0  0.17291326406E+02 -0.27274352029E+02  0.12747411603E+03  0.13150719906E+03  0.12700000000E+01 0.  1.
         -4    1    3    3    0  501  0.45767780678E+00  0.11145564813E+03  0.18787935655E+03  0.21845557097E+03  0.12700000000E+01 0.  1.
          2    1    1    2  502    0 -0.18392401798E+01 -0.29312601234E+02  0.49635891779E+03  0.49722709768E+03  0.00000000000E+00 0. -1.
          3    1    1    2  503    0 -0.15909764033E+02 -0.54868694872E+02 -0.52333257183E+02  0.77475570833E+02  0.00000000000E+00 0. -1.
<mgrwt>
<rscale>  0 0.41334686E+02</rscale>
<asrwt>0</asrwt>
<pdfrwt beam="2">  1        2 0.12714332E-01 0.58173030E+02</pdfrwt>
<pdfrwt beam="1">  1        1 0.12954188E+00 0.29370247E+02</pdfrwt>
<totfact> 0.14290814E+03</totfact>
</mgrwt>
</event>
<event>
 7    1  0.4252091E-004  0.1990393E+03  0.7546771E-02  0.1282175E+00
          2   -1    0    0  503    0  0.00000000000E+00  0.00000000000E+00  0.13950739286E+04  0.13950739286E+04  0.00000000000E+00 0. -1.
         -2   -1    0    0    0  501 -0.00000000000E+00 -0.00000000000E+00 -0.61486480954E+03  0.61486480954E+03  0.00000000000E+00 0.  1.
         25    2    1    2    0    0 -0.15253589689E+03 -0.62537841983E+02  0.18486326298E+03  0.27745044522E+03  0.12500456805E+03 0.  0.
          4    1    3    3  502    0 -0.17231230379E+03 -0.44268203051E+02  0.17245725980E+03  0.24777877875E+03  0.12700000000E+01 0. -1.
         -4    1    3    3    0  502  0.19776406898E+02 -0.18269638932E+02  0.12406003182E+02  0.29671666476E+02  0.12700000000E+01 0. -1.
          1    1    1    2  503    0  0.20009179734E+03  0.49341276233E+02  0.11536975851E+04  0.11719596439E+04  0.00000000000E+00 0. -1.
         -1    1    1    2    0  501 -0.47555900450E+02  0.13196565750E+02 -0.55835172908E+03  0.56052864903E+03  0.00000000000E+00 0.  1.
<mgrwt>
<rscale>  0 0.99111926E+02</rscale>
<asrwt>0</asrwt>
<pdfrwt beam="1">  1        2 0.21462676E+00 0.19903927E+03</pdfrwt>
<pdfrwt beam="2">  1       -2 0.94594586E-01 0.49352943E+02</pdfrwt>
<totfact> 0.16473596E+01</totfact>
</mgrwt>
</event>
<event>
 7    1  0.4252091E-004  0.1283285E+03  0.7546771E-02  0.1303893E+00
          1   -1    0    0  503    0  0.00000000000E+00  0.00000000000E+00  0.59964083793E+03  0.59964083793E+03  0.00000000000E+00 0. -1.
         -1   -1    0    0    0  501 -0.00000000000E+00 -0.00000000000E+00 -0.11047907525E+03  0.11047907525E+03  0.00000000000E+00 0.  1.
         25    2    1    2    0    0 -0.13415967080E+03  0.14239928658E+02  0.36298596028E+03  0.40692220543E+03  0.12500112427E+03 0.  0.
          4    1    3    3  502    0 -0.29946039376E+02  0.55140274427E+02  0.19660419888E+03  0.20637838805E+03  0.12700000000E+01 0. -1.
         -4    1    3    3    0  502 -0.10421363142E+03 -0.40900345770E+02  0.16638176141E+03  0.20054381738E+03  0.12700000000E+01 0. -1.
          2    1    1    2  503    0  0.10806050510E+03 -0.71051223513E+02  0.17935589760E+03  0.22111962176E+03  0.00000000000E+00 0. -1.
         -2    1    1    2    0  501  0.26099165703E+02  0.56811294855E+02 -0.53180095211E+02  0.82078085992E+02  0.00000000000E+00 0.  1.
<mgrwt>
<rscale>  0 0.89571414E+02</rscale>
<asrwt>0</asrwt>
<pdfrwt beam="1">  1        1 0.92252435E-01 0.12832854E+03</pdfrwt>
<pdfrwt beam="2">  1       -1 0.16996781E-01 0.62519514E+02</pdfrwt>
<totfact> 0.89656205E+02</totfact>
</mgrwt>
</event>
<event>
 7    1  0.4252091E-004  0.7466081E+02  0.7546771E-02  0.1362800E+00
         -2   -1    0    0    0  501 -0.00000000000E+00  0.00000000000E+00  0.63009537904E+03  0.63009537904E+03  0.00000000000E+00 0.  1.
          2   -1    0    0  503    0  0.00000000000E+00 -0.00000000000E+00 -0.23933583132E+04  0.23933583132E+04  0.00000000000E+00 0. -1.
         25    2    1    2    0    0 -0.55110086005E+02 -0.33164424203E+02 -0.19438218463E+04  0.19488984879E+04  0.12499978181E+03 0.  0.
          4    1    3    3  502    0  0.27661924331E+02 -0.45822256128E+02 -0.97278625254E+03  0.97425847045E+03  0.12700000000E+01 0.  1.
         -4    1    3    3    0  502 -0.82772010335E+02  0.12657831926E+02 -0.97103559374E+03  0.97464001745E+03  0.12700000000E+01 0.  1.
          1    1    1    2  503    0 -0.13497328387E+02  0.62721504756E+02 -0.44245311093E+03  0.44708044064E+03  0.00000000000E+00 0. -1.
         -1    1    1    2    0  501  0.68607414391E+02 -0.29557080554E+02  0.62301202301E+03  0.62747476374E+03  0.00000000000E+00 0.  1.
<mgrwt>
<rscale>  0 0.69210112E+02</rscale>
<asrwt>0</asrwt>
<pdfrwt beam="2">  1        2 0.36820898E+00 0.64157346E+02</pdfrwt>
<pdfrwt beam="1">  1       -2 0.96937749E-01 0.74660814E+02</pdfrwt>
<totfact> 0.53450676E+00</totfact>
</mgrwt>
</event>
<event>
 7    1  0.4252091E-004  0.1530255E+03  0.7546771E-02  0.1232804E+00
          1   -1    0    0  502    0 -0.00000000000E+00  0.00000000000E+00  0.73212531172E+03  0.73212531172E+03  0.00000000000E+00 0. -1.
          2   -1    0    0  503    0  0.00000000000E+00 -0.00000000000E+00 -0.23686501760E+04  0.23686501760E+04  0.00000000000E+00 0. -1.
         25    2    1    2    0    0  0.37588123555E+02 -0.94017481659E+02 -0.24495279998E+02  0.16271608461E+03  0.12499740621E+03 0.  0.
          4    1    3    3  501    0 -0.18113532086E+02  0.14575946088E+02  0.22070415865E+02  0.32082306735E+02  0.12700000000E+01 0. -1.
         -4    1    3    3    0  501  0.55701655641E+02 -0.10859342775E+03 -0.46565695863E+02  0.13063377788E+03  0.12700000000E+01 0. -1.
          2    1    1    2  502    0 -0.14077694216E+03  0.77465810834E+02  0.65205633687E+03  0.67156277870E+03  0.00000000000E+00 0. -1.
          1    1    1    2  503    0  0.10318881860E+03  0.16551670825E+02 -0.22640859211E+04  0.22664966244E+04  0.00000000000E+00 0. -1.
<mgrwt>
<rscale>  0 0.12646091E+03</rscale>
<asrwt>0</asrwt>
<pdfrwt beam="2">  1        2 0.36440771E+00 0.10450785E+03</pdfrwt>
<pdfrwt beam="1">  1        1 0.11263466E+00 0.15302547E+03</pdfrwt>
<totfact> 0.19757087E+01</totfact>
</mgrwt>
</event>
<event>
 7    1  0.4252091E-004  0.4032932E+02  0.7546771E-02  0.1540727E+00
          1   -1    0    0  502    0 -0.00000000000E+00  0.00000000000E+00  0.24826069890E+03  0.24826069890E+03  0.00000000000E+00 0. -1.
          2   -1    0    0  503    0  0.00000000000E+00 -0.00000000000E+00 -0.78039508212E+03  0.78039508212E+03  0.00000000000E+00 0. -1.
         25    2    1    2    0    0  0.45722178298E+01  0.12261771964E+02 -0.24831987970E+03  0.27831541194E+03  0.12500179855E+03 0.  0.
          4    1    3    3  501    0 -0.24160079744E+00  0.57003101420E+02 -0.52902485233E+02  0.77779803203E+02  0.12700000000E+01 0.  1.
         -4    1    3    3    0  501  0.48138186272E+01 -0.44741329456E+02 -0.19541739447E+03  0.20053560874E+03  0.12700000000E+01 0.  1.
          2    1    1    2  502    0 -0.14233100091E+02  0.28618127233E+02  0.23130909822E+03  0.23350691053E+03  0.00000000000E+00 0. -1.
          1    1    1    2  503    0  0.96608822616E+01 -0.40879899197E+02 -0.51512360174E+03  0.51683345855E+03  0.00000000000E+00 0. -1.
<mgrwt>
<rscale>  0 0.35902803E+02</rscale>
<asrwt>0</asrwt>
<pdfrwt beam="2">  1        2 0.12006078E+00 0.40329318E+02</pdfrwt>
<pdfrwt beam="1">  1        1 0.38193954E-01 0.31962139E+02</pdfrwt>
<totfact> 0.58353209E+02</totfact>
</mgrwt>
</event>
<event>
 7    1  0.4252091E-004  0.7344688E+02  0.7546771E-02  0.1467208E+00
          2   -1    0    0  503    0  0.00000000000E+00  0.00000000000E+00  0.88679585495E+03  0.88679585495E+03  0.00000000000E+00 0. -1.
         -2   -1    0    0    0  501 -0.00000000000E+00 -0.00000000000E+00 -0.19668142613E+02  0.19668142613E+02  0.00000000000E+00 0.  1.
         25    2    1    2    0    0  0.70194141551E+01 -0.64448721123E+02  0.59984785379E+03  0.61615336386E+03  0.12499844108E+03 0.  0.
          4    1    3    3  502    0 -0.36217720450E+02 -0.25233850757E+02  0.48790517819E+03  0.48989952674E+03  0.12700000000E+01 0. -1.
         -4    1    3    3    0  502  0.43237134605E+02 -0.39214870366E+02  0.11194267560E+03  0.12625383712E+03  0.12700000000E+01 0. -1.
          1    1    1    2  503    0 -0.27508741341E+02 -0.92263230854E+01  0.12970768557E+03  0.13291327843E+03  0.00000000000E+00 0. -1.
         -1    1    1    2    0  501  0.20489327185E+02  0.73675044209E+02  0.13757217297E+03  0.15739735526E+03  0.00000000000E+00 0.  1.
<mgrwt>
<rscale>  0 0.46163222E+02</rscale>
<asrwt>0</asrwt>
<pdfrwt beam="1">  1        2 0.13643010E+00 0.29014753E+02</pdfrwt>
<pdfrwt beam="2">  1       -2 0.30258688E-02 0.73446880E+02</pdfrwt>
<totfact> 0.12390330E+04</totfact>
</mgrwt>
</event>
<event>
 7    1  0.4252091E-004  0.6953269E+02  0.7546771E-02  0.1462547E+00
          1   -1    0    0  502    0 -0.00000000000E+00  0.00000000000E+00  0.12817899329E+04  0.12817899329E+04  0.00000000000E+00 0. -1.
          2   -1    0    0  503    0  0.00000000000E+00 -0.00000000000E+00 -0.22534846462E+03  0.22534846462E+03  0.00000000000E+00 0. -1.
         25    2    1    2    0    0  0.90284644332E+02 -0.26293836606E+01  0.22674429879E+03  0.27422105261E+03  0.12500391194E+03 0.  0.
          4    1    3    3  501    0  0.23941293074E+01  0.29290789502E+02  0.15111195685E+03  0.15394842840E+03  0.12700000000E+01 0. -1.
         -4    1    3    3    0  501  0.87890515025E+02 -0.31920173162E+02  0.75632341944E+02  0.12027262421E+03  0.12700000000E+01 0. -1.
          2    1    1    2  502    0 -0.65122114890E+02  0.21903346233E+02  0.10289086405E+04  0.10312000955E+04  0.00000000000E+00 0. -1.
          1    1    1    2  503    0 -0.25162529442E+02 -0.19273962572E+02 -0.19921147103E+03  0.20171724942E+03  0.00000000000E+00 0. -1.
<mgrwt>
<rscale>  0 0.46945825E+02</rscale>
<asrwt>0</asrwt>
<pdfrwt beam="2">  1        2 0.34668995E-01 0.31696033E+02</pdfrwt>
<pdfrwt beam="1">  1        1 0.19719845E+00 0.69532691E+02</pdfrwt>
<totfact> 0.21982071E+02</totfact>
</mgrwt>
</event>
<event>
 7    1  0.4252091E-004  0.1083150E+03  0.7546771E-02  0.1345912E+00
          1   -1    0    0  502    0 -0.00000000000E+00  0.00000000000E+00  0.17310134244E+03  0.17310134244E+03  0.00000000000E+00 0. -1.
          2   -1    0    0  503    0  0.00000000000E+00 -0.00000000000E+00 -0.19185899416E+04  0.19185899416E+04  0.00000000000E+00 0. -1.
         25    2    1    2    0    0 -0.15278528516E+03  0.35156110969E+02 -0.11207317947E+03  0.22970496500E+03  0.12499871156E+03 0.  0.
          4    1    3    3  501    0 -0.11171345659E+03 -0.10585914546E+02 -0.12823144751E+02  0.11295133426E+03  0.12700000000E+01 0.  1.
         -4    1    3    3    0  501 -0.41071828568E+02  0.45742025515E+02 -0.99250034719E+02  0.11675363074E+03  0.12700000000E+01 0.  1.
          2    1    1    2  502    0  0.50976182767E+02 -0.23077227124E+01  0.10686390333E+03  0.11842208675E+03  0.00000000000E+00 0. -1.
          1    1    1    2  503    0  0.10180910239E+03 -0.32848388257E+02 -0.17402793231E+04  0.17435642323E+04  0.00000000000E+00 0. -1.
<mgrwt>
<rscale>  0 0.74344728E+02</rscale>
<asrwt>0</asrwt>
<pdfrwt beam="2">  1        2 0.29516768E+00 0.10831497E+03</pdfrwt>
<pdfrwt beam="1">  1        1 0.26630976E-01 0.51028392E+02</pdfrwt>
<totfact> 0.20825190E+02</totfact>
</mgrwt>
</event>
<event>
 7    1  0.4252091E-004  0.1015901E+03  0.7546771E-02  0.1377192E+00
          1   -1    0    0  502    0 -0.00000000000E+00  0.00000000000E+00  0.31449060628E+03  0.31449060628E+03  0.00000000000E+00 0. -1.
          2   -1    0    0  503    0  0.00000000000E+00 -0.00000000000E+00 -0.99443029837E+03  0.99443029837E+03  0.00000000000E+00 0. -1.
         25    2    1    2    0    0  0.83258907128E+02 -0.46358903624E+02 -0.35810546509E+02  0.16120831813E+03  0.12499813212E+03 0.  0.
          4    1    3    3  501    0  0.10848899693E+03 -0.30313002053E+02  0.23948856597E+01  0.11267692277E+03  0.12700000000E+01 0. -1.
         -4    1    3    3    0  501 -0.25230089800E+02 -0.16045901571E+02 -0.38205432168E+02  0.48531395361E+02  0.12700000000E+01 0. -1.
          2    1    1    2  502    0 -0.22065324579E+02 -0.35566219415E+02  0.24710840200E+03  0.25062800492E+03  0.00000000000E+00 0. -1.
          1    1    1    2  503    0 -0.61193582549E+02  0.81925123039E+02 -0.89123754758E+03  0.89708458160E+03  0.00000000000E+00 0. -1.
<mgrwt>
<rscale>  0 0.65207709E+02</rscale>
<asrwt>0</asrwt>
<pdfrwt beam="2">  1        2 0.15298928E+00 0.10159009E+03</pdfrwt>
<pdfrwt beam="1">  1        1 0.48383170E-01 0.41854922E+02</pdfrwt>
<totfact> 0.31416926E+02</totfact>
</mgrwt>
</event>
<event>
 7    1  0.4252091E-004  0.1381640E+03  0.7546771E-02  0.1237389E+00
          1   -1    0    0  502    0 -0.00000000000E+00  0.00000000000E+00  0.41528360835E+03  0.41528360835E+03  0.00000000000E+00 0. -1.
          2   -1    0    0  503    0  0.00000000000E+00 -0.00000000000E+00 -0.64225081956E+03  0.64225081956E+03  0.00000000000E+00 0. -1.
         25    2    1    2    0    0  0.19765634328E+03  0.13416147026E+03  0.34602021570E+02  0.27182917066E+03  0.12500587179E+03 0.  0.
          4    1    3    3  501    0  0.77841807476E+02  0.98316784281E+02  0.67619435649E+02  0.14247644732E+03  0.12700000000E+01 0.  1.
         -4    1    3    3    0  501  0.11981453580E+03  0.35844685983E+02 -0.33017414079E+02  0.12935272334E+03  0.12700000000E+01 0.  1.
          2    1    1    2  502    0 -0.10209955393E+03 -0.42106047285E+02  0.24143457401E+03  0.26549555864E+03  0.00000000000E+00 0. -1.
          1    1    1    2  503    0 -0.95556789352E+02 -0.92055422979E+02 -0.50300380679E+03  0.52020969862E+03  0.00000000000E+00 0. -1.
<mgrwt>
<rscale>  0 0.12352726E+03</rscale>
<asrwt>0</asrwt>
<pdfrwt beam="2">  1        2 0.98807818E-01 0.13816398E+03</pdfrwt>
<pdfrwt beam="1">  1        1 0.63889786E-01 0.11044111E+03</pdfrwt>
<totfact> 0.37864187E+02</totfact>
</mgrwt>
</event>
<event>
 7    1  0.4252091E-004  0.5474240E+02  0.7546771E-02  0.1491209E+00
          2   -1    0    0  503    0  0.00000000000E+00  0.00000000000E+00  0.80366952506E+03  0.80366952506E+03  0.00000000000E+00 0. -1.
         -2   -1    0    0    0  501 -0.00000000000E+00 -0.00000000000E+00 -0.31321786826E+02  0.31321786826E+02  0.00000000000E+00 0.  1.
         25    2    1    2    0    0 -0.26215629643E+02 -0.65387754375E+02  0.65163783023E+03  0.66724805598E+03  0.12500115506E+03 0.  0.
          4    1    3    3  502    0  0.50605906298E+02 -0.30522805799E+02  0.26714031482E+03  0.27360219321E+03  0.12700000000E+01 0. -1.
         -4    1    3    3    0  502 -0.76821535940E+02 -0.34864948576E+02  0.38449751540E+03  0.39364586277E+03  0.12700000000E+01 0. -1.
          1    1    1    2  503    0 -0.14495893390E+02  0.29480366161E+02  0.10675321774E+03  0.11169365431E+03  0.00000000000E+00 0. -1.
         -1    1    1    2    0  501  0.40711523033E+02  0.35907388214E+02  0.13956690262E+02  0.56049601596E+02  0.00000000000E+00 0.  1.
<mgrwt>
<rscale>  0 0.42407212E+02</rscale>
<asrwt>0</asrwt>
<pdfrwt beam="1">  1        2 0.12364145E+00 0.32851528E+02</pdfrwt>
<pdfrwt beam="2">  1       -2 0.48187370E-02 0.54742403E+02</pdfrwt>
<totfact> 0.67997315E+03</totfact>
</mgrwt>
</event>
<event>
 7    1  0.4252091E-004  0.3375006E+02  0.7546771E-02  0.1602368E+00
          2   -1    0    0  503    0  0.00000000000E+00  0.00000000000E+00  0.50948920436E+02  0.50948920436E+02  0.00000000000E+00 0. -1.
          1   -1    0    0  502    0 -0.00000000000E+00 -0.00000000000E+00 -0.38583029938E+03  0.38583029938E+03  0.00000000000E+00 0. -1.
         25    2    1    2    0    0  0.45228156029E+02  0.27891280488E+02 -0.12645449008E+03  0.18555012364E+03  0.12495839586E+03 0.  0.
          4    1    3    3  501    0  0.70473162312E+01 -0.12359507811E+02  0.22468066631E+02  0.26624218627E+02  0.12700000000E+01 0.  1.
         -4    1    3    3    0  501  0.38180839797E+02  0.40250788299E+02 -0.14892255671E+03  0.15892590501E+03  0.12700000000E+01 0.  1.
          2    1    1    2  502    0 -0.25925313791E+02 -0.18187177771E+01 -0.21629289609E+03  0.21784867805E+03  0.00000000000E+00 0. -1.
          1    1    1    2  503    0 -0.19302842237E+02 -0.26072562711E+02  0.78660072235E+01  0.33380418128E+02  0.00000000000E+00 0. -1.
<mgrwt>
<rscale>  0 0.29616402E+02</rscale>
<asrwt>0</asrwt>
<pdfrwt beam="1">  1        2 0.78382951E-02 0.33750058E+02</pdfrwt>
<pdfrwt beam="2">  1        1 0.59358510E-01 0.25989029E+02</pdfrwt>
<totfact> 0.65487767E+03</totfact>
</mgrwt>
</event>
<event>
 7    1  0.4252091E-004  0.4016990E+02  0.7546771E-02  0.1519362E+00
          1   -1    0    0  503    0  0.00000000000E+00  0.00000000000E+00  0.17894959916E+03  0.17894959916E+03  0.00000000000E+00 0. -1.
         -1   -1    0    0    0  501 -0.00000000000E+00 -0.00000000000E+00 -0.26442634570E+03  0.26442634570E+03  0.00000000000E+00 0.  1.
         25    2    1    2    0    0 -0.26992206253E+02  0.74345738408E+01 -0.14378986613E+02  0.12890278922E+03  0.12500128690E+03 0.  0.
          4    1    3    3  502    0 -0.52239643455E+02  0.45455982098E+02  0.19610654022E+02  0.71982062404E+02  0.12700000000E+01 0.  1.
         -4    1    3    3    0  502  0.25247437202E+02 -0.38021408257E+02 -0.33989640636E+02  0.56920726820E+02  0.12700000000E+01 0.  1.
          2    1    1    2  503    0  0.10015001114E+02 -0.40248745475E+02  0.11629669380E+03  0.12347138433E+03  0.00000000000E+00 0. -1.
         -2    1    1    2    0  501  0.16977205139E+02  0.32814171634E+02 -0.18739445372E+03  0.19100177130E+03  0.00000000000E+00 0.  1.
<mgrwt>
<rscale>  0 0.38524157E+02</rscale>
<asrwt>0</asrwt>
<pdfrwt beam="1">  1        1 0.27530708E-01 0.40169896E+02</pdfrwt>
<pdfrwt beam="2">  1       -1 0.40680976E-01 0.36945844E+02</pdfrwt>
<totfact> 0.96435222E+02</totfact>
</mgrwt>
</event>
<event>
 7    1  0.4252091E-004  0.3969561E+02  0.7546771E-02  0.1611086E+00
          1   -1    0    0  503    0  0.00000000000E+00  0.00000000000E+00  0.19396015111E+04  0.19396015111E+04  0.00000000000E+00 0. -1.
         -1   -1    0    0    0  501 -0.00000000000E+00 -0.00000000000E+00 -0.12580198414E+03  0.12580198414E+03  0.00000000000E+00 0.  1.
         25    2    1    2    0    0  0.35827262429E+02 -0.45786675928E+02  0.51538834105E+03  0.53350871926E+03  0.12500559594E+03 0.  0.
          4    1    3    3  502    0  0.16035413484E+02 -0.44931331926E+02  0.55520761511E+02  0.73212887752E+02  0.12700000000E+01 0.  1.
         -4    1    3    3    0  502  0.19791848946E+02 -0.85534400192E+00  0.45986757954E+03  0.46029583151E+03  0.12700000000E+01 0.  1.
          2    1    1    2  503    0 -0.18269152380E+02  0.10308499165E+02  0.14117171488E+04  0.14118729884E+04  0.00000000000E+00 0. -1.
         -2    1    1    2    0  501 -0.17558110050E+02  0.35478176763E+02 -0.11330596292E+03  0.12002178756E+03  0.00000000000E+00 0.  1.
<mgrwt>
<rscale>  0 0.28856328E+02</rscale>
<asrwt>0</asrwt>
<pdfrwt beam="1">  1        1 0.29840021E+00 0.20976823E+02</pdfrwt>
<pdfrwt beam="2">  1       -1 0.19354153E-01 0.39695605E+02</pdfrwt>
<totfact> 0.10153220E+02</totfact>
</mgrwt>
</event>
<event>
 7    1  0.4252091E-004  0.3055632E+02  0.7546771E-02  0.1662118E+00
          1   -1    0    0  502    0 -0.00000000000E+00  0.00000000000E+00  0.10462925877E+03  0.10462925877E+03  0.00000000000E+00 0. -1.
          2   -1    0    0  503    0  0.00000000000E+00 -0.00000000000E+00 -0.18007531178E+04  0.18007531178E+04  0.00000000000E+00 0. -1.
         25    2    1    2    0    0  0.22068529591E+02  0.45529491600E+01 -0.39615581250E+03  0.41601893882E+03  0.12499832132E+03 0.  0.
          4    1    3    3  501    0 -0.15482271939E+02 -0.76100289099E+01  0.59412833874E+00  0.17308355580E+02  0.12700000000E+01 0.  1.
         -4    1    3    3    0  501  0.37550801530E+02  0.12162978070E+02 -0.39674994084E+03  0.39871058324E+03  0.12700000000E+01 0.  1.
          2    1    1    2  502    0 -0.35189998243E+01  0.20020465656E+02  0.93434831910E+02  0.95620448749E+02  0.00000000000E+00 0. -1.
          1    1    1    2  503    0 -0.18549529767E+02 -0.24573414816E+02 -0.13934028785E+04  0.13937429890E+04  0.00000000000E+00 0. -1.
<mgrwt>
<rscale>  0 0.24922477E+02</rscale>
<asrwt>0</asrwt>
<pdfrwt beam="2">  1        2 0.27703893E+00 0.30556317E+02</pdfrwt>
<pdfrwt beam="1">  1        1 0.16096810E-01 0.20327381E+02</pdfrwt>
<totfact> 0.47767955E+02</totfact>
</mgrwt>
</event>
<event>
 7    1  0.4252091E-004  0.4300915E+02  0.7546771E-02  0.1558937E+00
         -2   -1    0    0    0  501  0.00000000000E+00  0.00000000000E+00  0.55488632702E+02  0.55488632702E+02  0.00000000000E+00 0.  1.
         -3   -1    0    0    0  502 -0.00000000000E+00 -0.00000000000E+00 -0.13593598118E+04  0.13593598118E+04  0.00000000000E+00 0.  1.
         25    2    1    2    0    0 -0.36078787658E+02  0.56732312516E+02 -0.65382379378E+03  0.66905209080E+03  0.12499965071E+03 0.  0.
          4    1    3    3  503    0 -0.39615065088E+02 -0.24228358704E+02 -0.39787332010E+03  0.40057603335E+03  0.12700000000E+01 0. -1.
         -4    1    3    3    0  503  0.35362774308E+01  0.80960671220E+02 -0.25595047368E+03  0.26847605745E+03  0.12700000000E+01 0. -1.
         -2    1    1    2    0  502  0.66587607054E+01 -0.25816740467E+02 -0.68810127520E+03  0.68861760660E+03  0.00000000000E+00 0.  1.
         -1    1    1    2    0  501  0.29420026952E+02 -0.30915572049E+02  0.38053889910E+02  0.57178747085E+02  0.00000000000E+00 0.  1.
<mgrwt>
<rscale>  0 0.33862880E+02</rscale>
<asrwt>0</asrwt>
<pdfrwt beam="1">  1       -2 0.85367131E-02 0.43009151E+02</pdfrwt>
<pdfrwt beam="2">  1       -3 0.20913227E+00 0.26661643E+02</pdfrwt>
<totfact> 0.44443190E+01</totfact>
</mgrwt>
</event>
<event>
 7    1  0.4252091E-004  0.7203550E+02  0.7546771E-02  0.1462414E+00
          2   -1    0    0  503    0  0.00000000000E+00  0.00000000000E+00  0.25592298402E+04  0.25592298402E+04  0.00000000000E+00 0. -1.
         -2   -1    0    0    0  501 -0.00000000000E+00 -0.00000000000E+00 -0.72435980871E+01  0.72435980871E+01  0.00000000000E+00 0.  1.
         25    2    1    2    0    0 -0.40501359610E+02 -0.67049736014E+02  0.11646142516E+04  0.11739200190E+04  0.12500331472E+03 0.  0.
          4    1    3    3  502    0 -0.52698167974E+02 -0.96016168466E+02  0.73035144628E+03  0.73851949839E+03  0.12700000000E+01 0.  1.
         -4    1    3    3    0  502  0.12196808365E+02  0.28966432452E+02  0.43426280535E+03  0.43540052062E+03  0.12700000000E+01 0.  1.
          1    1    1    2  503    0  0.30449384119E+02 -0.32689837993E+01  0.84434301880E+03  0.84489820964E+03  0.00000000000E+00 0. -1.
         -1    1    1    2    0  501  0.10051975491E+02  0.70318719813E+02  0.54302897171E+03  0.54765520968E+03  0.00000000000E+00 0.  1.
<mgrwt>
<rscale>  0 0.46968508E+02</rscale>
<asrwt>0</asrwt>
<pdfrwt beam="1">  1        2 0.39372695E+00 0.30624357E+02</pdfrwt>
<pdfrwt beam="2">  1       -2 0.11144017E-02 0.72035496E+02</pdfrwt>
<totfact> 0.76206210E+03</totfact>
</mgrwt>
</event>
<event>
 7    1  0.4252091E-004  0.6182568E+02  0.7546771E-02  0.1427232E+00
         -2   -1    0    0    0  501 -0.00000000000E+00  0.00000000000E+00  0.12853479404E+03  0.12853479404E+03  0.00000000000E+00 0.  1.
          2   -1    0    0  503    0  0.00000000000E+00 -0.00000000000E+00 -0.12454924672E+03  0.12454924672E+03  0.00000000000E+00 0. -1.
         25    2    1    2    0    0  0.55139672689E+02  0.38989703880E+02 -0.25617443085E+01  0.14212612464E+03  0.12503076525E+03 0.  0.
          4    1    3    3  502    0  0.66782839909E+02  0.84711519935E+01 -0.50457546387E+02  0.84138487090E+02  0.12700000000E+01 0. -1.
         -4    1    3    3    0  502 -0.11643167220E+02  0.30518551886E+02  0.47895802079E+02  0.57987637552E+02  0.12700000000E+01 0. -1.
          1    1    1    2  503    0  0.88983892376E+01 -0.45467107429E+02  0.79408971172E+00  0.46336484194E+02  0.00000000000E+00 0. -1.
         -1    1    1    2    0  501 -0.64038061926E+02  0.64774035493E+01  0.57532019146E+01  0.64621431927E+02  0.00000000000E+00 0.  1.
<mgrwt>
<rscale>  0 0.53519753E+02</rscale>
<asrwt>0</asrwt>
<pdfrwt beam="2">  1        2 0.19161423E-01 0.46329679E+02</pdfrwt>
<pdfrwt beam="1">  1       -2 0.19774584E-01 0.61825680E+02</pdfrwt>
<totfact> 0.55126992E+03</totfact>
</mgrwt>
</event>
<event>
 7    1  0.4252091E-004  0.1363389E+03  0.7546771E-02  0.1266749E+00
          2   -1    0    0  503    0  0.00000000000E+00  0.00000000000E+00  0.25641771151E+04  0.25641771151E+04  0.00000000000E+00 0. -1.
         -2   -1    0    0    0  501 -0.00000000000E+00 -0.00000000000E+00 -0.56373743699E+02  0.56373743699E+02  0.00000000000E+00 0.  1.
         25    2    1    2    0    0  0.17236043560E+02 -0.10499875736E+03  0.44412299775E+03  0.47349007518E+03  0.12500317565E+03 0.  0.
          4    1    3    3  502    0 -0.12820644137E+02 -0.94666702940E+01  0.28514447431E+03  0.28559231589E+03  0.12700000000E+01 0. -1.
         -4    1    3    3    0  502  0.30056687697E+02 -0.95532087062E+02  0.15897852344E+03  0.18789775929E+03  0.12700000000E+01 0. -1.
          1    1    1    2  503    0  0.83359085205E+02 -0.56553985282E+01  0.19674633833E+04  0.19692366250E+04  0.00000000000E+00 0. -1.
         -1    1    1    2    0  501 -0.10059512876E+03  0.11065415588E+03  0.96216990289E+02  0.17782415856E+03  0.00000000000E+00 0.  1.
<mgrwt>
<rscale>  0 0.10672961E+03</rscale>
<asrwt>0</asrwt>
<pdfrwt beam="1">  1        2 0.39448870E+00 0.83550707E+02</pdfrwt>
<pdfrwt beam="2">  1       -2 0.86728856E-02 0.13633887E+03</pdfrwt>
<totfact> 0.34542916E+02</totfact>
</mgrwt>
</event>
<event>
 7    1  0.4252091E-004  0.1304137E+03  0.7546771E-02  0.1314325E+00
          2   -1    0    0  503    0  0.00000000000E+00  0.00000000000E+00  0.10675111572E+04  0.10675111572E+04  0.00000000000E+00 0. -1.
          1   -1    0    0  502    0 -0.00000000000E+00 -0.00000000000E+00 -0.80033171985E+03  0.80033171985E+03  0.00000000000E+00 0. -1.
         25    2    1    2    0    0 -0.12792603386E+03 -0.11878889761E+03 -0.23915304873E+02  0.21604840092E+03  0.12501638852E+03 0.  0.
          4    1    3    3  501    0 -0.63359182376E+02 -0.25147263260E+02 -0.65875842832E+02  0.94805118056E+02  0.12700000000E+01 0.  1.
         -4    1    3    3    0  501 -0.64566851479E+02 -0.93641634350E+02  0.41960537958E+02  0.12124328286E+03  0.12700000000E+01 0.  1.
          2    1    1    2  502    0  0.16763742901E+02  0.53385883746E+02 -0.67490603090E+03  0.67722169649E+03  0.00000000000E+00 0. -1.
          1    1    1    2  503    0  0.11116229095E+03  0.65403013864E+02  0.96600077308E+03  0.97457277960E+03  0.00000000000E+00 0. -1.
<mgrwt>
<rscale>  0 0.85424996E+02</rscale>
<asrwt>0</asrwt>
<pdfrwt beam="1">  1        2 0.16423249E+00 0.13041368E+03</pdfrwt>
<pdfrwt beam="2">  1        1 0.12312796E+00 0.55956015E+02</pdfrwt>
<totfact> 0.84969578E+01</totfact>
</mgrwt>
</event>
<event>
 7    1  0.4252091E-004  0.7339644E+02  0.7546771E-02  0.1349173E+00
          1   -1    0    0  502    0 -0.00000000000E+00  0.00000000000E+00  0.11975043624E+04  0.11975043624E+04  0.00000000000E+00 0. -1.
          2   -1    0    0  503    0  0.00000000000E+00 -0.00000000000E+00 -0.19861300786E+03  0.19861300786E+03  0.00000000000E+00 0. -1.
         25    2    1    2    0    0 -0.19724949565E+02  0.51242117506E+02  0.74934067956E+02  0.15575239196E+03  0.12501545833E+03 0.  0.
          4    1    3    3  501    0 -0.29942553294E+02  0.89062198862E+02  0.36360314582E+02  0.10075870752E+03  0.12700000000E+01 0.  1.
         -4    1    3    3    0  501  0.10217603728E+02 -0.37820081356E+02  0.38573753374E+02  0.54993684448E+02  0.12700000000E+01 0.  1.
          2    1    1    2  502    0  0.74831346951E+02 -0.27619942634E+01  0.10722717103E+04  0.10748832401E+04  0.00000000000E+00 0. -1.
          1    1    1    2  503    0 -0.55106397386E+02 -0.48480123242E+02 -0.14831442374E+03  0.16548173819E+03  0.00000000000E+00 0. -1.
<mgrwt>
<rscale>  0 0.73313949E+02</rscale>
<asrwt>0</asrwt>
<pdfrwt beam="2">  1        2 0.30555848E-01 0.73396440E+02</pdfrwt>
<pdfrwt beam="1">  1        1 0.18423144E+00 0.73231552E+02</pdfrwt>
<totfact> 0.29002702E+02</totfact>
</mgrwt>
</event>
<event>
 7    1  0.4252091E-004  0.1244749E+03  0.7546771E-02  0.1304463E+00
          2   -1    0    0  503    0  0.00000000000E+00  0.00000000000E+00  0.78680236369E+03  0.78680236369E+03  0.00000000000E+00 0. -1.
          1   -1    0    0  502    0 -0.00000000000E+00 -0.00000000000E+00 -0.11476092960E+03  0.11476092960E+03  0.00000000000E+00 0. -1.
         25    2    1    2    0    0 -0.10910218042E+03 -0.35114527750E+02  0.60342098483E+02  0.18000532207E+03  0.12499772514E+03 0.  0.
          4    1    3    3  501    0 -0.11442790054E+03 -0.34983441524E+02  0.24893007515E+00  0.11966311240E+03  0.12700000000E+01 0.  1.
         -4    1    3    3    0  501  0.53257201167E+01 -0.13108622580E+00  0.60093168408E+02  0.60342209669E+02  0.12700000000E+01 0.  1.
          2    1    1    2  502    0 -0.14941266915E+02  0.62354505045E+02 -0.27570036994E+02  0.69795649551E+02  0.00000000000E+00 0. -1.
          1    1    1    2  503    0  0.12404344734E+03 -0.27239977295E+02  0.63926937260E+03  0.65176232166E+03  0.00000000000E+00 0. -1.
<mgrwt>
<rscale>  0 0.89338025E+02</rscale>
<asrwt>0</asrwt>
<pdfrwt beam="1">  1        2 0.12104651E+00 0.12447489E+03</pdfrwt>
<pdfrwt beam="2">  1        1 0.17655528E-01 0.64119621E+02</pdfrwt>
<totfact> 0.14409506E+03</totfact>
</mgrwt>
</event>
<event>
 7    1  0.4252091E-004  0.5701229E+02  0.7546771E-02  0.1542847E+00
          1   -1    0    0  502    0 -0.00000000000E+00  0.00000000000E+00  0.16176841528E+03  0.16176841528E+03  0.00000000000E+00 0. -1.
          2   -1    0    0  503    0  0.00000000000E+00 -0.00000000000E+00 -0.22498390570E+03  0.22498390570E+03  0.00000000000E+00 0. -1.
         25    2    1    2    0    0  0.42150534825E+02 -0.16960512051E+02  0.51576164848E+02  0.14265996169E+03  0.12500974896E+03 0.  0.
          4    1    3    3  501    0  0.97659511518E+01 -0.69744375261E+02  0.20482447787E+02  0.73353904121E+02  0.12700000000E+01 0. -1.
         -4    1    3    3    0  501  0.32384583673E+02  0.52783863211E+02  0.31093717061E+02  0.69306057569E+02  0.12700000000E+01 0. -1.
          2    1    1    2  502    0  0.14959396352E+00 -0.22299697334E+02  0.57882187650E+02  0.62029400503E+02  0.00000000000E+00 0. -1.
          1    1    1    2  503    0 -0.42300128788E+02  0.39260209384E+02 -0.17267384291E+03  0.18206295879E+03  0.00000000000E+00 0. -1.
<mgrwt>
<rscale>  0 0.35656492E+02</rscale>
<asrwt>0</asrwt>
<pdfrwt beam="2">  1        2 0.34612909E-01 0.57012291E+02</pdfrwt>
<pdfrwt beam="1">  1        1 0.24887448E-01 0.22300199E+02</pdfrwt>
<totfact> 0.35208131E+03</totfact>
</mgrwt>
</event>
<event>
 7    1  0.4252091E-004  0.5621064E+02  0.7546771E-02  0.1488998E+00
          1   -1    0    0  502    0 -0.00000000000E+00  0.00000000000E+00  0.17698220065E+03  0.17698220065E+03  0.00000000000E+00 0. -1.
          2   -1    0    0  503    0  0.00000000000E+00 -0.00000000000E+00 -0.14784180360E+04  0.14784180360E+04  0.00000000000E+00 0. -1.
         25    2    1    2    0    0  0.83721345546E+02 -0.15428914641E+02 -0.11414832298E+03  0.18947426432E+03  0.12499336819E+03 0.  0.
          4    1    3    3  501    0 -0.20608223423E+02  0.10878528581E+02 -0.68899312819E+02  0.72744549374E+02  0.12700000000E+01 0. -1.
         -4    1    3    3    0  501  0.10432956897E+03 -0.26307443222E+02 -0.45249010160E+02  0.11672971494E+03  0.12700000000E+01 0. -1.
          2    1    1    2  502    0 -0.55216435850E+02 -0.16183303825E+00  0.13364058662E+03  0.14459836572E+03  0.00000000000E+00 0. -1.
          1    1    1    2  503    0 -0.28504909695E+02  0.15590747679E+02 -0.13209280990E+04  0.13213276066E+04  0.00000000000E+00 0. -1.
<mgrwt>
<rscale>  0 0.42735053E+02</rscale>
<asrwt>0</asrwt>
<pdfrwt beam="2">  1        2 0.22744893E+00 0.32490018E+02</pdfrwt>
<pdfrwt beam="1">  1        1 0.27228030E-01 0.56210640E+02</pdfrwt>
<totfact> 0.37668843E+02</totfact>
</mgrwt>
</event>
<event>
 7    1  0.4252091E-004  0.3493290E+02  0.7546771E-02  0.1575652E+00
          1   -1    0    0  503    0  0.00000000000E+00  0.00000000000E+00  0.32621613344E+03  0.32621613344E+03  0.00000000000E+00 0. -1.
         -1   -1    0    0    0  501 -0.00000000000E+00 -0.00000000000E+00 -0.35402132052E+03  0.35402132052E+03  0.00000000000E+00 0.  1.
         25    2    1    2    0    0  0.21582875500E+02 -0.15701846670E+02  0.11307913304E+03  0.17063537476E+03  0.12496868522E+03 0.  0.
          4    1    3    3  502    0  0.61045634210E+02  0.28064459239E+02  0.46535302596E+02  0.81739406752E+02  0.12700000000E+01 0. -1.
         -4    1    3    3    0  502 -0.39462758709E+02 -0.43766305910E+02  0.66543830440E+02  0.88895968005E+02  0.12700000000E+01 0. -1.
          2    1    1    2  503    0  0.11539232641E+02  0.27209759160E+02  0.18221967018E+03  0.18460101052E+03  0.00000000000E+00 0. -1.
         -2    1    1    2    0  501 -0.33122108142E+02 -0.11507912490E+02 -0.32310399030E+03  0.32500106869E+03  0.00000000000E+00 0.  1.
<mgrwt>
<rscale>  0 0.32131881E+02</rscale>
<asrwt>0</asrwt>
<pdfrwt beam="1">  1        1 0.50187098E-01 0.29555454E+02</pdfrwt>
<pdfrwt beam="2">  1       -1 0.54464818E-01 0.34932902E+02</pdfrwt>
<totfact> 0.28459831E+02</totfact>
</mgrwt>
</event>
<event>
 7    1  0.4252091E-004  0.6002777E+02  0.7546771E-02  0.1418891E+00
          1   -1    0    0  502    0 -0.00000000000E+00  0.00000000000E+00  0.36698317761E+03  0.36698317761E+03  0.00000000000E+00 0. -1.
          2   -1    0    0  503    0  0.00000000000E+00 -0.00000000000E+00 -0.10415812777E+04  0.10415812777E+04  0.00000000000E+00 0. -1.
         25    2    1    2    0    0 -0.62306343243E+01  0.90919679019E+02 -0.12129736161E+03  0.19658843645E+03  0.12501501740E+03 0.  0.
          4    1    3    3  501    0  0.28649780985E+02  0.10692300182E+03 -0.11114861095E+03  0.15687244782E+03  0.12700000000E+01 0. -1.
         -4    1    3    3    0  501 -0.34880415309E+02 -0.16003322803E+02 -0.10148750658E+02  0.39715988629E+02  0.12700000000E+01 0. -1.
          2    1    1    2  502    0  0.34580799341E+02 -0.48689404610E+02  0.32588922187E+03  0.33131597416E+03  0.00000000000E+00 0. -1.
          1    1    1    2  503    0 -0.28350165017E+02 -0.42230274409E+02 -0.87918996040E+03  0.88066004474E+03  0.00000000000E+00 0. -1.
<mgrwt>
<rscale>  0 0.55256143E+02</rscale>
<asrwt>0</asrwt>
<pdfrwt beam="2">  1        2 0.16024327E+00 0.50863818E+02</pdfrwt>
<pdfrwt beam="1">  1        1 0.56458951E-01 0.60027767E+02</pdfrwt>
<totfact> 0.25428809E+02</totfact>
</mgrwt>
</event>
<event>
 7    1  0.4252091E-004  0.4261837E+02  0.7546771E-02  0.1540661E+00
          2   -1    0    0  503    0  0.00000000000E+00  0.00000000000E+00  0.10075264323E+04  0.10075264323E+04  0.00000000000E+00 0. -1.
          1   -1    0    0  502    0 -0.00000000000E+00 -0.00000000000E+00 -0.25115665665E+02  0.25115665665E+02  0.00000000000E+00 0. -1.
         25    2    1    2    0    0 -0.16666692018E+02 -0.35987527158E+02  0.55855321523E+03  0.57374042331E+03  0.12499399326E+03 0.  0.
          4    1    3    3  501    0 -0.29922944377E+02  0.39434236267E+02  0.14685341856E+03  0.15497735652E+03  0.12700000000E+01 0.  1.
         -4    1    3    3    0  501  0.13256252359E+02 -0.75421763425E+02  0.41169979667E+03  0.41876306679E+03  0.12700000000E+01 0.  1.
          2    1    1    2  502    0  0.39925282199E+02  0.16632775915E+02  0.10591374074E+02  0.44529255530E+02  0.00000000000E+00 0. -1.
          1    1    1    2  503    0 -0.23258590181E+02  0.19354751243E+02  0.41326617733E+03  0.41437241914E+03  0.00000000000E+00 0. -1.
<mgrwt>
<rscale>  0 0.35910470E+02</rscale>
<asrwt>0</asrwt>
<pdfrwt beam="1">  1        2 0.15500404E+00 0.30258361E+02</pdfrwt>
<pdfrwt beam="2">  1        1 0.38639493E-02 0.42618365E+02</pdfrwt>
<totfact> 0.77852190E+03</totfact>
</mgrwt>
</event>
<event>
 7    1  0.4252091E-004  0.1255257E+03  0.7546771E-02  0.1311974E+00
          2   -1    0    0  503    0  0.00000000000E+00  0.00000000000E+00  0.12591207767E+04  0.12591207767E+04  0.00000000000E+00 0. -1.
          1   -1    0    0  502    0 -0.00000000000E+00 -0.00000000000E+00 -0.39706210130E+03  0.39706210130E+03  0.00000000000E+00 0. -1.
         25    2    1    2    0    0 -0.17071043581E+03 -0.32562633387E+02  0.98680504873E+02  0.23569199090E+03  0.12494196471E+03 0.  0.
          4    1    3    3  501    0 -0.64285768816E+02 -0.63575520578E+02  0.84806200961E+02  0.12396859082E+03  0.12700000000E+01 0. -1.
         -4    1    3    3    0  501 -0.10642466700E+03  0.31012887190E+02  0.13874303911E+02  0.11172340008E+03  0.12700000000E+01 0. -1.
          2    1    1    2  502    0  0.12243439068E+03 -0.20161997326E+01 -0.31630287642E+03  0.33917805753E+03  0.00000000000E+00 0. -1.
          1    1    1    2  503    0  0.48276045136E+02  0.34578833120E+02  0.10796810469E+04  0.10813128295E+04  0.00000000000E+00 0. -1.
<mgrwt>
<rscale>  0 0.86336684E+02</rscale>
<asrwt>0</asrwt>
<pdfrwt beam="1">  1        2 0.19371089E+00 0.59382424E+02</pdfrwt>
<pdfrwt beam="2">  1        1 0.61086478E-01 0.12552574E+03</pdfrwt>
<totfact> 0.17319817E+02</totfact>
</mgrwt>
</event>
<event>
 7    1  0.4252091E-004  0.8238361E+02  0.7546771E-02  0.1476247E+00
          1   -1    0    0  502    0 -0.00000000000E+00  0.00000000000E+00  0.95399107506E+03  0.95399107506E+03  0.00000000000E+00 0. -1.
          2   -1    0    0  503    0  0.00000000000E+00 -0.00000000000E+00 -0.15365007194E+04  0.15365007194E+04  0.00000000000E+00 0. -1.
         25    2    1    2    0    0 -0.14661118476E+02 -0.81773983260E+02  0.34690371193E+03  0.37798551381E+03  0.12501572128E+03 0.  0.
          4    1    3    3  501    0  0.21429787473E+02  0.27026529614E+02  0.63495142438E+02  0.72269738531E+02  0.12700000000E+01 0.  1.
         -4    1    3    3    0  501 -0.36090905949E+02 -0.10880051287E+03  0.28340856949E+03  0.30571577528E+03  0.12700000000E+01 0.  1.
          2    1    1    2  502    0  0.37563509398E+02  0.73804180694E+02  0.58855078071E+03  0.59434846328E+03  0.00000000000E+00 0. -1.
          1    1    1    2  503    0 -0.22902390922E+02  0.79698025660E+01 -0.15179641370E+04  0.15181578174E+04  0.00000000000E+00 0. -1.
<mgrwt>
<rscale>  0 0.44696304E+02</rscale>
<asrwt>0</asrwt>
<pdfrwt beam="2">  1        2 0.23638472E+00 0.24249480E+02</pdfrwt>
<pdfrwt beam="1">  1        1 0.14676786E+00 0.82383607E+02</pdfrwt>
<totfact> 0.41134059E+01</totfact>
</mgrwt>
</event>
<event>
 7    1  0.4252091E-004  0.8994873E+02  0.7546771E-02  0.1364820E+00
          2   -1    0    0  503    0  0.00000000000E+00  0.00000000000E+00  0.14180507867E+04  0.14180507867E+04  0.00000000000E+00 0. -1.
          1   -1    0    0  502    0 -0.00000000000E+00 -0.00000000000E+00 -0.11479241701E+04  0.11479241701E+04  0.00000000000E+00 0. -1.
         25    2    1    2    0    0  0.53866838221E+02  0.94337070147E+02  0.82189211872E+03  0.83842029623E+03  0.12506326100E+03 0.  0.
          4    1    3    3  501    0  0.50473486135E+02 -0.13700549856E+02  0.17842633418E+03  0.18593775167E+03  0.12700000000E+01 0. -1.
         -4    1    3    3    0  501  0.33933520862E+01  0.10803762000E+03  0.64346578454E+03  0.65248254455E+03  0.12700000000E+01 0. -1.
          2    1    1    2  502    0 -0.16916073573E+01 -0.89921228127E+02 -0.11367144402E+04  0.11402668141E+04  0.00000000000E+00 0. -1.
          1    1    1    2  503    0 -0.52175230864E+02 -0.44158420193E+01  0.58494893811E+03  0.58728784644E+03  0.00000000000E+00 0. -1.
<mgrwt>
<rscale>  0 0.68628523E+02</rscale>
<asrwt>0</asrwt>
<pdfrwt beam="1">  1        2 0.21816166E+00 0.52361764E+02</pdfrwt>
<pdfrwt beam="2">  1        1 0.17660372E+00 0.89948728E+02</pdfrwt>
<totfact> 0.31826423E+01</totfact>
</mgrwt>
</event>
<event>
 7    1  0.4252091E-004  0.6259235E+02  0.7546771E-02  0.1534834E+00
         -2   -1    0    0    0  501 -0.00000000000E+00  0.00000000000E+00  0.41803070391E+02  0.41803070391E+02  0.00000000000E+00 0.  1.
          2   -1    0    0  503    0  0.00000000000E+00 -0.00000000000E+00 -0.14491123705E+04  0.14491123705E+04  0.00000000000E+00 0. -1.
         25    2    1    2    0    0 -0.46068804688E+02  0.68722638745E+02 -0.37806393533E+03  0.40669673338E+03  0.12499903159E+03 0.  0.
          4    1    3    3  502    0 -0.81305581761E+02  0.33087089177E+02 -0.30982636615E+03  0.32202382390E+03  0.12700000000E+01 0.  1.
         -4    1    3    3    0  502  0.35236777072E+02  0.35635549568E+02 -0.68237569179E+02  0.84672909475E+02  0.12700000000E+01 0.  1.
          1    1    1    2  503    0  0.33998189309E+02 -0.51050053901E+02 -0.10515325621E+04  0.10533198536E+04  0.00000000000E+00 0. -1.
         -1    1    1    2    0  501  0.12070615379E+02 -0.17672584844E+02  0.22287197292E+02  0.30898853924E+02  0.00000000000E+00 0.  1.
<mgrwt>
<rscale>  0 0.36600055E+02</rscale>
<asrwt>0</asrwt>
<pdfrwt beam="2">  1        2 0.22294034E+00 0.62592348E+02</pdfrwt>
<pdfrwt beam="1">  1       -2 0.64312424E-02 0.21401402E+02</pdfrwt>
<totfact> 0.17038493E+03</totfact>
</mgrwt>
</event>
<event>
 7    1  0.4252091E-004  0.5835081E+02  0.7546771E-02  0.1412830E+00
          2   -1    0    0  503    0  0.00000000000E+00  0.00000000000E+00  0.28499246545E+04  0.28499246545E+04  0.00000000000E+00 0. -1.
          1   -1    0    0  502    0 -0.00000000000E+00 -0.00000000000E+00 -0.18597402804E+02  0.18597402804E+02  0.00000000000E+00 0. -1.
         25    2    1    2    0    0 -0.16627627202E+02  0.54804119722E+02  0.10435479703E+04  0.10525654594E+04  0.12498684124E+03 0.  0.
          4    1    3    3  501    0 -0.31210861510E+02  0.92065650847E+02  0.76606562420E+03  0.77221004618E+03  0.12700000000E+01 0.  1.
         -4    1    3    3    0  501  0.14583234308E+02 -0.37261531125E+02  0.27748234607E+03  0.28035541319E+03  0.12700000000E+01 0.  1.
          2    1    1    2  502    0  0.54422350597E+02 -0.67386959519E+01  0.41915847609E+02  0.69022753845E+02  0.00000000000E+00 0. -1.
          1    1    1    2  503    0 -0.37794723395E+02 -0.48065423771E+02  0.17458634338E+04  0.17469338441E+04  0.00000000000E+00 0. -1.
<mgrwt>
<rscale>  0 0.56567125E+02</rscale>
<asrwt>0</asrwt>
<pdfrwt beam="1">  1        2 0.43844960E+00 0.58350809E+02</pdfrwt>
<pdfrwt beam="2">  1        1 0.28611412E-02 0.54837964E+02</pdfrwt>
<totfact> 0.13293531E+03</totfact>
</mgrwt>
</event>
<event>
 7    1  0.4252091E-004  0.1657825E+03  0.7546771E-02  0.1305963E+00
          2   -1    0    0  503    0  0.00000000000E+00  0.00000000000E+00  0.22460339781E+04  0.22460339781E+04  0.00000000000E+00 0. -1.
          1   -1    0    0  502    0 -0.00000000000E+00 -0.00000000000E+00 -0.27808297042E+04  0.27808297042E+04  0.00000000000E+00 0. -1.
         25    2    1    2    0    0  0.10566758654E+03 -0.12582824990E+03 -0.84896335055E+03  0.87371940563E+03  0.12509373236E+03 0.  0.
          4    1    3    3  501    0  0.71027920438E+02 -0.79907880237E+02 -0.24875544420E+03  0.27076026060E+03  0.12700000000E+01 0.  1.
         -4    1    3    3    0  501  0.34639666099E+02 -0.45920369666E+02 -0.60020790635E+03  0.60295914502E+03  0.12700000000E+01 0.  1.
          2    1    1    2  502    0  0.32689498447E+02  0.34444840579E+02 -0.19161165461E+04  0.19167048986E+04  0.00000000000E+00 0. -1.
          1    1    1    2  503    0 -0.13835708498E+03  0.91383409324E+02  0.22302841705E+04  0.22364393780E+04  0.00000000000E+00 0. -1.
<mgrwt>
<rscale>  0 0.88727540E+02</rscale>
<asrwt>0</asrwt>
<pdfrwt beam="1">  1        2 0.34554369E+00 0.16578253E+03</pdfrwt>
<pdfrwt beam="2">  1        1 0.42781995E+00 0.47487370E+02</pdfrwt>
<totfact> 0.10884445E+00</totfact>
</mgrwt>
</event>
<event>
 7    1  0.4252091E-004  0.8384311E+02  0.7546771E-02  0.1373137E+00
          2   -1    0    0  503    0  0.00000000000E+00  0.00000000000E+00  0.50433453226E+03  0.50433453226E+03  0.00000000000E+00 0. -1.
          1   -1    0    0  502    0 -0.00000000000E+00 -0.00000000000E+00 -0.51699586607E+03  0.51699586607E+03  0.00000000000E+00 0. -1.
         25    2    1    2    0    0  0.34386036668E+02  0.45361694710E+02 -0.23372138444E+03  0.27109039871E+03  0.12499694342E+03 0.  0.
          4    1    3    3  501    0 -0.45605616900E+02  0.30194092649E+02 -0.76714466696E+02  0.94224613685E+02  0.12700000000E+01 0. -1.
         -4    1    3    3    0  501  0.79991653568E+02  0.15167602061E+02 -0.15700691775E+03  0.17686578503E+03  0.12700000000E+01 0. -1.
          2    1    1    2  502    0  0.47045856460E+02 -0.23147640722E+02 -0.25826815742E+03  0.26353665213E+03  0.00000000000E+00 0. -1.
          1    1    1    2  503    0 -0.81431893128E+02 -0.22214053987E+02  0.47932820806E+03  0.48670334748E+03  0.00000000000E+00 0. -1.
<mgrwt>
<rscale>  0 0.66302873E+02</rscale>
<asrwt>0</asrwt>
<pdfrwt beam="1">  1        2 0.77589928E-01 0.83843111E+02</pdfrwt>
<pdfrwt beam="2">  1        1 0.79537826E-01 0.52432107E+02</pdfrwt>
<totfact> 0.38552739E+02</totfact>
</mgrwt>
</event>
<event>
 7    1  0.4252091E-004  0.6476477E+02  0.7546771E-02  0.1420086E+00
          2   -1    0    0  503    0  0.00000000000E+00  0.00000000000E+00  0.11434114075E+04  0.11434114075E+04  0.00000000000E+00 0. -1.
          1   -1    0    0  502    0 -0.00000000000E+00 -0.00000000000E+00 -0.42393368036E+03  0.42393368036E+03  0.00000000000E+00 0. -1.
         25    2    1    2    0    0 -0.20608114380E+02 -0.11304616684E+02  0.20797709972E+03  0.24378533735E+03  0.12499731181E+03 0.  0.
          4    1    3    3  501    0 -0.43661872086E+02 -0.59243821576E+02  0.12982122312E+03  0.14923589495E+03  0.12700000000E+01 0.  1.
         -4    1    3    3    0  501  0.23053757706E+02  0.47939204892E+02  0.78155876606E+02  0.94549442400E+02  0.12700000000E+01 0.  1.
          2    1    1    2  502    0  0.65235933515E+02 -0.24932658770E+01 -0.40280529894E+03  0.40806133393E+03  0.00000000000E+00 0. -1.
          1    1    1    2  503    0 -0.44627819135E+02  0.13797882561E+02  0.91430592637E+03  0.91549841660E+03  0.00000000000E+00 0. -1.
<mgrwt>
<rscale>  0 0.55002736E+02</rscale>
<asrwt>0</asrwt>
<pdfrwt beam="1">  1        2 0.17590945E+00 0.46712138E+02</pdfrwt>
<pdfrwt beam="2">  1        1 0.65220567E-01 0.64764773E+02</pdfrwt>
<totfact> 0.18838326E+02</totfact>
</mgrwt>
</event>
<event>
 7    1  0.4252091E-004  0.5400948E+02  0.7546771E-02  0.1440734E+00
          1   -1    0    0  502    0 -0.00000000000E+00  0.00000000000E+00  0.79587856505E+03  0.79587856505E+03  0.00000000000E+00 0. -1.
          2   -1    0    0  503    0  0.00000000000E+00 -0.00000000000E+00 -0.22045664628E+04  0.22045664628E+04  0.00000000000E+00 0. -1.
         25    2    1    2    0    0 -0.72093610169E+02  0.70745967612E+02 -0.24271860833E+03  0.29110069218E+03  0.12499923839E+03 0.  0.
          4    1    3    3  501    0 -0.51799088736E+02 -0.28664640586E+02 -0.86993104100E+02  0.10523412125E+03  0.12700000000E+01 0.  1.
         -4    1    3    3    0  501 -0.20294521433E+02  0.99410608198E+02 -0.15572550423E+03  0.18586657093E+03  0.12700000000E+01 0.  1.
          2    1    1    2  502    0  0.36311784086E+02 -0.31242577100E+02  0.77057711129E+03  0.77206458844E+03  0.00000000000E+00 0. -1.
          1    1    1    2  503    0  0.35781826083E+02 -0.39503390512E+02 -0.19365464007E+04  0.19372797472E+04  0.00000000000E+00 0. -1.
<mgrwt>
<rscale>  0 0.50864390E+02</rscale>
<asrwt>0</asrwt>
<pdfrwt beam="2">  1        2 0.33916406E+00 0.54009481E+02</pdfrwt>
<pdfrwt beam="1">  1        1 0.12244286E+00 0.47902446E+02</pdfrwt>
<totfact> 0.24377750E+01</totfact>
</mgrwt>
</event>
<event>
 7    1  0.4252091E-004  0.2229118E+03  0.7546771E-02  0.1145908E+00
         -2   -1    0    0    0  501 -0.00000000000E+00  0.00000000000E+00  0.28513647317E+03  0.28513647317E+03  0.00000000000E+00 0.  1.
          2   -1    0    0  503    0  0.00000000000E+00 -0.00000000000E+00 -0.84418005612E+03  0.84418005612E+03  0.00000000000E+00 0. -1.
         25    2    1    2    0    0  0.72767310021E+02 -0.15928656523E+03 -0.60829156904E+03  0.64522278724E+03  0.12500608362E+03 0.  0.
          4    1    3    3  502    0  0.47827371928E+02 -0.17597578901E+03 -0.48033133375E+03  0.51378472039E+03  0.12700000000E+01 0. -1.
         -4    1    3    3    0  502  0.24939938093E+02  0.16689223781E+02 -0.12796023529E+03  0.13143806686E+03  0.12700000000E+01 0. -1.
          1    1    1    2  503    0 -0.18138478496E+03 -0.48700298996E+02 -0.93133314907E+02  0.20963294989E+03  0.00000000000E+00 0. -1.
         -1    1    1    2    0  501  0.10861747494E+03  0.20798686423E+03  0.14238130100E+03  0.27446079215E+03  0.00000000000E+00 0.  1.
<mgrwt>
<rscale>  0 0.20460893E+03</rscale>
<asrwt>0</asrwt>
<pdfrwt beam="2">  1        2 0.12987385E+00 0.18780884E+03</pdfrwt>
<pdfrwt beam="1">  1       -2 0.43867150E-01 0.22291184E+03</pdfrwt>
<totfact> 0.16896759E+02</totfact>
</mgrwt>
</event>
<event>
 7    1  0.4252091E-004  0.1968437E+03  0.7546771E-02  0.1192779E+00
          2   -1    0    0  503    0  0.00000000000E+00  0.00000000000E+00  0.76948132167E+03  0.76948132167E+03  0.00000000000E+00 0. -1.
         -2   -1    0    0    0  501 -0.00000000000E+00 -0.00000000000E+00 -0.46204173937E+03  0.46204173937E+03  0.00000000000E+00 0.  1.
         25    2    1    2    0    0 -0.20931087795E+03 -0.14523397054E+03 -0.20566593014E+03  0.35046335951E+03  0.12498856635E+03 0.  0.
          4    1    3    3  502    0 -0.65788221012E+02 -0.53947389874E+02 -0.14825488135E+03  0.17093722135E+03  0.12700000000E+01 0.  1.
         -4    1    3    3    0  502 -0.14352265693E+03 -0.91286580662E+02 -0.57411048786E+02  0.17952613817E+03  0.12700000000E+01 0.  1.
          1    1    1    2  503    0  0.19413393449E+03  0.21838423414E+02  0.66017976602E+03  0.68847819480E+03  0.00000000000E+00 0. -1.
         -1    1    1    2    0  501  0.15176943452E+02  0.12339554712E+03 -0.14707425358E+03  0.19258150672E+03  0.00000000000E+00 0.  1.
<mgrwt>
<rscale>  0 0.15643742E+03</rscale>
<asrwt>0</asrwt>
<pdfrwt beam="1">  1        2 0.11838174E+00 0.19684368E+03</pdfrwt>
<pdfrwt beam="2">  1       -2 0.71083345E-01 0.12432538E+03</pdfrwt>
<totfact> 0.71390306E+01</totfact>
</mgrwt>
</event>
<event>
 7    1  0.4252091E-004  0.7738139E+02  0.7546771E-02  0.1470999E+00
          2   -1    0    0  503    0  0.00000000000E+00  0.00000000000E+00  0.21121151108E+04  0.21121151108E+04  0.00000000000E+00 0. -1.
          1   -1    0    0  502    0 -0.00000000000E+00 -0.00000000000E+00 -0.30534007719E+03  0.30534007719E+03  0.00000000000E+00 0. -1.
         25    2    1    2    0    0 -0.29823461027E+02 -0.59994010774E+02  0.61482760540E+01  0.14195561690E+03  0.12499950286E+03 0.  0.
          4    1    3    3  501    0  0.76659308009E+00 -0.67644966041E+02 -0.45423558006E+02  0.81494426911E+02  0.12700000000E+01 0.  1.
         -4    1    3    3    0  501 -0.30590054107E+02  0.76509552663E+01  0.51571834060E+02  0.60461189991E+02  0.12700000000E+01 0.  1.
          2    1    1    2  502    0 -0.26062380212E+02  0.62477651559E+01 -0.23594003503E+03  0.23745732745E+03  0.00000000000E+00 0. -1.
          1    1    1    2  503    0  0.55885841239E+02  0.53746245619E+02  0.20365667925E+04  0.20380422436E+04  0.00000000000E+00 0. -1.
<mgrwt>
<rscale>  0 0.45539896E+02</rscale>
<asrwt>0</asrwt>
<pdfrwt beam="1">  1        2 0.32494078E+00 0.77381387E+02</pdfrwt>
<pdfrwt beam="2">  1        1 0.46975398E-01 0.26800788E+02</pdfrwt>
<totfact> 0.87127810E+01</totfact>
</mgrwt>
</event>
<event>
 7    1  0.4252091E-004  0.5149550E+02  0.7546771E-02  0.1451559E+00
         -1   -1    0    0    0  501 -0.00000000000E+00  0.00000000000E+00  0.13044579851E+03  0.13044579851E+03  0.00000000000E+00 0.  1.
          1   -1    0    0  503    0  0.00000000000E+00 -0.00000000000E+00 -0.46459022734E+03  0.46459022734E+03  0.00000000000E+00 0. -1.
         25    2    1    2    0    0  0.42678295920E+02 -0.53268916112E+02 -0.36913299358E+03  0.39564355212E+03  0.12496255046E+03 0.  0.
          4    1    3    3  502    0  0.26735243713E+02 -0.86977335968E+02 -0.32671286264E+03  0.33915002248E+03  0.12700000000E+01 0. -1.
         -4    1    3    3    0  502  0.15943052207E+02  0.33708419856E+02 -0.42420130941E+02  0.56493529646E+02  0.12700000000E+01 0. -1.
          2    1    1    2  503    0 -0.46331235641E+02  0.18863427672E+01 -0.69122343001E+02  0.83234848393E+02  0.00000000000E+00 0. -1.
         -2    1    1    2    0  501  0.36529397210E+01  0.51382573345E+02  0.10411090775E+03  0.11615762534E+03  0.00000000000E+00 0.  1.
<mgrwt>
<rscale>  0 0.48865396E+02</rscale>
<asrwt>0</asrwt>
<pdfrwt beam="2">  1        1 0.71475419E-01 0.46369620E+02</pdfrwt>
<pdfrwt beam="1">  1       -1 0.20068585E-01 0.51495503E+02</pdfrwt>
<totfact> 0.97893970E+02</totfact>
</mgrwt>
</event>
<event>
 7    1  0.4252091E-004  0.1430005E+03  0.7546771E-02  0.1322265E+00
          1   -1    0    0  503    0  0.00000000000E+00  0.00000000000E+00  0.15224245529E+04  0.15224245529E+04  0.00000000000E+00 0. -1.
         -1   -1    0    0    0  501 -0.00000000000E+00 -0.00000000000E+00 -0.12462826641E+03  0.12462826641E+03  0.00000000000E+00 0.  1.
         25    2    1    2    0    0 -0.15966086602E+03 -0.94262903520E+02  0.40418304219E+03  0.46191668356E+03  0.12500401530E+03 0.  0.
          4    1    3    3  502    0 -0.13799375563E+03 -0.48599124797E+02  0.17928877578E+03  0.23140922528E+03  0.12700000000E+01 0.  1.
         -4    1    3    3    0  502 -0.21667110390E+02 -0.45663778723E+02  0.22489426641E+03  0.23050745828E+03  0.12700000000E+01 0.  1.
          2    1    1    2  503    0  0.42791925280E+02  0.20680605048E+02  0.10387549671E+04  0.10398416793E+04  0.00000000000E+00 0. -1.
         -2    1    1    2    0  501  0.11686894074E+03  0.73582298472E+02 -0.45141722753E+02  0.14529445651E+03  0.00000000000E+00 0.  1.
<mgrwt>
<rscale>  0 0.82440385E+02</rscale>
<asrwt>0</asrwt>
<pdfrwt beam="1">  1        1 0.23421915E+00 0.47527216E+02</pdfrwt>
<pdfrwt beam="2">  1       -1 0.19173581E-01 0.14300053E+03</pdfrwt>
<totfact> 0.17458736E+02</totfact>
</mgrwt>
</event>
<event>
 7    1  0.4252091E-004  0.1984370E+03  0.7546771E-02  0.1291811E+00
          1   -1    0    0  502    0 -0.00000000000E+00  0.00000000000E+00  0.23919771773E+03  0.23919771773E+03  0.00000000000E+00 0. -1.
          2   -1    0    0  503    0  0.00000000000E+00 -0.00000000000E+00 -0.11635220302E+04  0.11635220302E+04  0.00000000000E+00 0. -1.
         25    2    1    2    0    0 -0.19436058912E+03 -0.12934818688E+03 -0.36190320617E+02  0.26728508541E+03  0.12499834209E+03 0.  0.
          4    1    3    3  501    0 -0.25076240640E+02 -0.61502751599E+00  0.34939260995E+02  0.43029768328E+02  0.12700000000E+01 0. -1.
         -4    1    3    3    0  501 -0.16928434848E+03 -0.12873315936E+03 -0.71129581612E+02  0.22425531709E+03  0.12700000000E+01 0. -1.
          2    1    1    2  502    0  0.19995817696E+02  0.40549422306E+02  0.10967085249E+03  0.11862455168E+03  0.00000000000E+00 0. -1.
          1    1    1    2  503    0  0.17436477143E+03  0.88798764573E+02 -0.99780484429E+03  0.10168101108E+04  0.00000000000E+00 0. -1.
<mgrwt>
<rscale>  0 0.94718808E+02</rscale>
<asrwt>0</asrwt>
<pdfrwt beam="2">  1        2 0.17900339E+00 0.19843698E+03</pdfrwt>
<pdfrwt beam="1">  1        1 0.36799649E-01 0.45211596E+02</pdfrwt>
<totfact> 0.33485250E+02</totfact>
</mgrwt>
</event>
<event>
 7    1  0.4252091E-004  0.5581933E+02  0.7546771E-02  0.1418704E+00
          2   -1    0    0  503    0  0.00000000000E+00  0.00000000000E+00  0.32841511307E+03  0.32841511307E+03  0.00000000000E+00 0. -1.
         -2   -1    0    0    0  501 -0.00000000000E+00 -0.00000000000E+00 -0.61232632580E+03  0.61232632580E+03  0.00000000000E+00 0.  1.
         25    2    1    2    0    0 -0.27832275537E+02 -0.58507802216E+02  0.24424408389E+03  0.28191761512E+03  0.12499828286E+03 0.  0.
          4    1    3    3  502    0 -0.31046877706E+02 -0.17528222947E+02  0.14923321240E+01  0.35706962488E+02  0.12700000000E+01 0. -1.
         -4    1    3    3    0  502  0.32146021687E+01 -0.40979579269E+02  0.24275175177E+03  0.24621065264E+03  0.12700000000E+01 0. -1.
          1    1    1    2  503    0 -0.27582202923E+02  0.51797162234E+02  0.50537461054E+02  0.77445199357E+02  0.00000000000E+00 0. -1.
         -1    1    1    2    0  501  0.55414478460E+02  0.67106399818E+01 -0.57869275768E+03  0.58137862439E+03  0.00000000000E+00 0.  1.
<mgrwt>
<rscale>  0 0.55296103E+02</rscale>
<asrwt>0</asrwt>
<pdfrwt beam="1">  1        2 0.50525402E-01 0.54777785E+02</pdfrwt>
<pdfrwt beam="2">  1       -2 0.94204050E-01 0.55819326E+02</pdfrwt>
<totfact> 0.10208790E+02</totfact>
</mgrwt>
</event>
<event>
 7    1  0.4252091E-004  0.8888959E+02  0.7546771E-02  0.1348736E+00
          1   -1    0    0  502    0 -0.00000000000E+00  0.00000000000E+00  0.11858729160E+03  0.11858729160E+03  0.00000000000E+00 0. -1.
          2   -1    0    0  503    0  0.00000000000E+00 -0.00000000000E+00 -0.68352986833E+03  0.68352986833E+03  0.00000000000E+00 0. -1.
         25    2    1    2    0    0  0.90762057072E+01 -0.13385697323E+03 -0.14849176077E+03  0.23596875736E+03  0.12502553595E+03 0.  0.
          4    1    3    3  501    0  0.48579156315E+01 -0.92400004309E+01 -0.10253788026E+03  0.10307573303E+03  0.12700000000E+01 0.  1.
         -4    1    3    3    0  501  0.42182900757E+01 -0.12461697280E+03 -0.45953880519E+02  0.13289302433E+03  0.12700000000E+01 0.  1.
          2    1    1    2  502    0 -0.31909091372E+02  0.77621919254E+02  0.48715700678E+02  0.97039022839E+02  0.00000000000E+00 0. -1.
          1    1    1    2  503    0  0.22832885665E+02  0.56235053973E+02 -0.46516651663E+03  0.46910937974E+03  0.00000000000E+00 0. -1.
<mgrwt>
<rscale>  0 0.73450905E+02</rscale>
<asrwt>0</asrwt>
<pdfrwt beam="2">  1        2 0.10515844E+00 0.60693673E+02</pdfrwt>
<pdfrwt beam="1">  1        1 0.18244199E-01 0.88889586E+02</pdfrwt>
<totfact> 0.16947464E+03</totfact>
</mgrwt>
</event>
<event>
 7    1  0.4252091E-004  0.3899801E+02  0.7546771E-02  0.1532058E+00
          1   -1    0    0  502    0 -0.00000000000E+00  0.00000000000E+00  0.31841462596E+03  0.31841462596E+03  0.00000000000E+00 0. -1.
          2   -1    0    0  503    0  0.00000000000E+00 -0.00000000000E+00 -0.80565004659E+02  0.80565004659E+02  0.00000000000E+00 0. -1.
         25    2    1    2    0    0  0.32460565767E+02 -0.60663116345E+02  0.84164088929E+02  0.16565959912E+03  0.12500322756E+03 0.  0.
          4    1    3    3  501    0  0.76557008318E+02 -0.17013176426E+02  0.61204541743E+02  0.99488856284E+02  0.12700000000E+01 0.  1.
         -4    1    3    3    0  501 -0.44096442551E+02 -0.43649939919E+02  0.22959547186E+02  0.66170742837E+02  0.12700000000E+01 0.  1.
          2    1    1    2  502    0 -0.65408159329E+01  0.37171400055E+02  0.18350969518E+03  0.18735074988E+03  0.00000000000E+00 0. -1.
          3    1    1    2  503    0 -0.25919749834E+02  0.23491716290E+02 -0.29824162806E+02  0.45969281621E+02  0.00000000000E+00 0. -1.
<mgrwt>
<rscale>  0 0.36935114E+02</rscale>
<asrwt>0</asrwt>
<pdfrwt beam="2">  1        2 0.12394616E-01 0.34981340E+02</pdfrwt>
<pdfrwt beam="1">  1        1 0.48986865E-01 0.38998009E+02</pdfrwt>
<totfact> 0.48153382E+03</totfact>
</mgrwt>
</event>
<event>
 7    1  0.4252091E-004  0.1020236E+03  0.7546771E-02  0.1293361E+00
         -1   -1    0    0    0  501 -0.00000000000E+00  0.00000000000E+00  0.14417390688E+03  0.14417390688E+03  0.00000000000E+00 0.  1.
          1   -1    0    0  503    0  0.00000000000E+00 -0.00000000000E+00 -0.10987426002E+04  0.10987426002E+04  0.00000000000E+00 0. -1.
         25    2    1    2    0    0 -0.74464431673E+01  0.14921281616E+03 -0.36169006605E+03  0.41080920842E+03  0.12499835126E+03 0.  0.
          4    1    3    3  502    0  0.18122134593E+02  0.14258604239E+03 -0.19619338830E+03  0.24321317760E+03  0.12700000000E+01 0. -1.
         -4    1    3    3    0  502 -0.25568577761E+02  0.66267737755E+01 -0.16549667775E+03  0.16759603082E+03  0.12700000000E+01 0. -1.
          2    1    1    2  503    0 -0.52936487463E+02 -0.68631416773E+02 -0.68808934522E+03  0.69352684885E+03  0.00000000000E+00 0. -1.
         -2    1    1    2    0  501  0.60382930630E+02 -0.80581399390E+02  0.95210717985E+02  0.13858044977E+03  0.00000000000E+00 0.  1.
<mgrwt>
<rscale>  0 0.94036653E+02</rscale>
<asrwt>0</asrwt>
<pdfrwt beam="2">  1        1 0.16903732E+00 0.86674928E+02</pdfrwt>
<pdfrwt beam="1">  1       -1 0.22180601E-01 0.10202365E+03</pdfrwt>
<totfact> 0.24426558E+02</totfact>
</mgrwt>
</event>
<event>
 7    1  0.4252091E-004  0.4340731E+02  0.7546771E-02  0.1491420E+00
          1   -1    0    0  503    0  0.00000000000E+00  0.00000000000E+00  0.11370775375E+04  0.11370775375E+04  0.00000000000E+00 0. -1.
         -1   -1    0    0    0  501 -0.00000000000E+00 -0.00000000000E+00 -0.20552044030E+03  0.20552044030E+03  0.00000000000E+00 0.  1.
         25    2    1    2    0    0 -0.38769920464E+02  0.14674367524E+02 -0.57740714511E+02  0.14379729904E+03  0.12500091721E+03 0.  0.
          4    1    3    3  502    0  0.21289666981E+02 -0.23250951633E+02 -0.65131330808E+02  0.72370987452E+02  0.12700000000E+01 0.  1.
         -4    1    3    3    0  502 -0.60059587446E+02  0.37925319157E+02  0.73906162963E+01  0.71426311584E+02  0.12700000000E+01 0.  1.
          2    1    1    2  503    0  0.83344753644E+01 -0.42694084360E+02  0.10895137479E+04  0.10903817933E+04  0.00000000000E+00 0. -1.
         -2    1    1    2    0  501  0.30435445100E+02  0.28019716837E+02 -0.10021593621E+03  0.10841888544E+03  0.00000000000E+00 0.  1.
<mgrwt>
<rscale>  0 0.42376068E+02</rscale>
<asrwt>0</asrwt>
<pdfrwt beam="1">  1        1 0.17493500E+00 0.43407312E+02</pdfrwt>
<pdfrwt beam="2">  1       -1 0.31618530E-01 0.41369323E+02</pdfrwt>
<totfact> 0.13295474E+02</totfact>
</mgrwt>
</event>
<event>
 7    1  0.4252091E-004  0.9376367E+02  0.7546771E-02  0.1391540E+00
         -2   -1    0    0    0  501 -0.00000000000E+00  0.00000000000E+00  0.89757909972E+03  0.89757909972E+03  0.00000000000E+00 0.  1.
          2   -1    0    0  503    0  0.00000000000E+00 -0.00000000000E+00 -0.43300136678E+03  0.43300136678E+03  0.00000000000E+00 0. -1.
         25    2    1    2    0    0 -0.50714879055E+02 -0.42522206288E+02  0.22961585550E+03  0.26968488626E+03  0.12500543906E+03 0.  0.
          4    1    3    3  502    0  0.74683455179E+01  0.12388362495E+02  0.16818217075E+03  0.16880788835E+03  0.12700000000E+01 0. -1.
         -4    1    3    3    0  502 -0.58183224573E+02 -0.54910568783E+02  0.61433684747E+02  0.10087699791E+03  0.12700000000E+01 0. -1.
          1    1    1    2  503    0 -0.46792208918E+01 -0.40099200872E+02 -0.40814722790E+03  0.41013900164E+03  0.00000000000E+00 0. -1.
         -1    1    1    2    0  501  0.55394099947E+02  0.82621407160E+02  0.64310910534E+03  0.65075657861E+03  0.00000000000E+00 0.  1.
<mgrwt>
<rscale>  0 0.61525280E+02</rscale>
<asrwt>0</asrwt>
<pdfrwt beam="2">  1        2 0.66615595E-01 0.40371290E+02</pdfrwt>
<pdfrwt beam="1">  1       -2 0.13808909E+00 0.93763666E+02</pdfrwt>
<totfact> 0.30839795E+01</totfact>
</mgrwt>
</event>
<event>
 7    1  0.4252091E-004  0.5109893E+02  0.7546771E-02  0.1521576E+00
          1   -1    0    0  502    0 -0.00000000000E+00  0.00000000000E+00  0.35518967457E+03  0.35518967457E+03  0.00000000000E+00 0. -1.
          2   -1    0    0  503    0  0.00000000000E+00 -0.00000000000E+00 -0.12762872767E+03  0.12762872767E+03  0.00000000000E+00 0. -1.
         25    2    1    2    0    0  0.10357384718E+02 -0.58283780668E+02  0.22720262283E+03  0.26599050885E+03  0.12500257785E+03 0.  0.
          4    1    3    3  501    0  0.36733957431E+02 -0.45492409258E+02  0.22923496953E+03  0.23657816274E+03  0.12700000000E+01 0. -1.
         -4    1    3    3    0  501 -0.26376572713E+02 -0.12791371411E+02 -0.20323466992E+01  0.29412346111E+02  0.12700000000E+01 0. -1.
          2    1    1    2  502    0 -0.26835874130E+02  0.99390080447E+01  0.10045574322E+03  0.10445240240E+03  0.00000000000E+00 0. -1.
          1    1    1    2  503    0  0.16478489413E+02  0.48344772624E+02 -0.10009741915E+03  0.11237549099E+03  0.00000000000E+00 0. -1.
<mgrwt>
<rscale>  0 0.38240186E+02</rscale>
<asrwt>0</asrwt>
<pdfrwt beam="2">  1        2 0.19635189E-01 0.51098931E+02</pdfrwt>
<pdfrwt beam="1">  1        1 0.54644565E-01 0.28617268E+02</pdfrwt>
<totfact> 0.25847015E+03</totfact>
</mgrwt>
</event>
<event>
 7    1  0.4252091E-004  0.2240975E+03  0.7546771E-02  0.1222622E+00
          2   -1    0    0  503    0  0.00000000000E+00  0.00000000000E+00  0.97304075631E+03  0.97304075631E+03  0.00000000000E+00 0. -1.
          1   -1    0    0  502    0 -0.00000000000E+00 -0.00000000000E+00 -0.16423662880E+04  0.16423662880E+04  0.00000000000E+00 0. -1.
         25    2    1    2    0    0 -0.93697282403E+02  0.23725650556E+03 -0.52383380982E+03  0.59590100904E+03  0.12500528830E+03 0.  0.
          4    1    3    3  501    0 -0.10149059430E+03  0.19469574525E+03 -0.50091170228E+03  0.54691948250E+03  0.12700000000E+01 0. -1.
         -4    1    3    3    0  501  0.77933118966E+01  0.42560760309E+02 -0.22922107533E+02  0.48981526540E+02  0.12700000000E+01 0. -1.
          2    1    1    2  502    0 -0.47289943065E+02 -0.63663823224E+02 -0.10676637225E+04  0.10706050838E+04  0.00000000000E+00 0. -1.
          1    1    1    2  503    0  0.14098722547E+03 -0.17359268234E+03  0.92217200059E+03  0.94890095151E+03  0.00000000000E+00 0. -1.
<mgrwt>
<rscale>  0 0.13331258E+03</rscale>
<asrwt>0</asrwt>
<pdfrwt beam="1">  1        2 0.14969858E+00 0.22409745E+03</pdfrwt>
<pdfrwt beam="2">  1        1 0.25267173E+00 0.79305871E+02</pdfrwt>
<totfact> 0.24730328E+01</totfact>
</mgrwt>
</event>
<event>
 7    1  0.4252091E-004  0.7366087E+02  0.7546771E-02  0.1400282E+00
          2   -1    0    0  503    0  0.00000000000E+00  0.00000000000E+00  0.31408077961E+03  0.31408077961E+03  0.00000000000E+00 0. -1.
          1   -1    0    0  502    0 -0.00000000000E+00 -0.00000000000E+00 -0.11613918975E+03  0.11613918975E+03  0.00000000000E+00 0. -1.
         25    2    1    2    0    0  0.55996858014E+02  0.10909709541E+02  0.24965575084E+02  0.13967474858E+03  0.12502433996E+03 0.  0.
          4    1    3    3  501    0  0.40192806935E+02 -0.31290234560E+02  0.62765934967E+02  0.80843775273E+02  0.12700000000E+01 0. -1.
         -4    1    3    3    0  501  0.15804051080E+02  0.42199944101E+02 -0.37800359883E+02  0.58830973305E+02  0.12700000000E+01 0. -1.
          2    1    1    2  502    0 -0.58327947908E+02 -0.58785373120E+02 -0.25273880122E+02  0.86583131247E+02  0.00000000000E+00 0. -1.
          1    1    1    2  503    0  0.23310898936E+01  0.47875663580E+02  0.19824989489E+03  0.20396208954E+03  0.00000000000E+00 0. -1.
<mgrwt>
<rscale>  0 0.59420037E+02</rscale>
<asrwt>0</asrwt>
<pdfrwt beam="1">  1        2 0.48320120E-01 0.47932381E+02</pdfrwt>
<pdfrwt beam="2">  1        1 0.17867568E-01 0.73660869E+02</pdfrwt>
<totfact> 0.39326246E+03</totfact>
</mgrwt>
</event>
<event>
 7    1  0.4252091E-004  0.3159863E+02  0.7546771E-02  0.1632425E+00
          1   -1    0    0  503    0  0.00000000000E+00  0.00000000000E+00  0.25220397288E+03  0.25220397288E+03  0.00000000000E+00 0. -1.
         -1   -1    0    0    0  501 -0.00000000000E+00 -0.00000000000E+00 -0.82735953993E+02  0.82735953993E+02  0.00000000000E+00 0.  1.
         25    2    1    2    0    0  0.20012836141E+02 -0.47521050384E+01 -0.22583033082E+02  0.12867672019E+03  0.12499843528E+03 0.  0.
          4    1    3    3  502    0  0.11339572427E+02 -0.70719613908E+01 -0.74639159403E+02  0.75836769164E+02  0.12700000000E+01 0.  1.
         -4    1    3    3    0  502  0.86732637136E+01  0.23198563525E+01  0.52056126321E+02  0.52839951027E+02  0.12700000000E+01 0.  1.
          2    1    1    2  503    0  0.10958380476E+01  0.31579622074E+02  0.14334036498E+03  0.14678192540E+03  0.00000000000E+00 0. -1.
         -2    1    1    2    0  501 -0.21108674188E+02 -0.26827517035E+02  0.48710686990E+02  0.59481281285E+02  0.00000000000E+00 0.  1.
<mgrwt>
<rscale>  0 0.27109816E+02</rscale>
<asrwt>0</asrwt>
<pdfrwt beam="1">  1        1 0.38800611E-01 0.31598630E+02</pdfrwt>
<pdfrwt beam="2">  1       -1 0.12728608E-01 0.23258671E+02</pdfrwt>
<totfact> 0.38258435E+03</totfact>
</mgrwt>
</event>
<event>
 7    1  0.4252091E-004  0.3561852E+03  0.7546771E-02  0.1249912E+00
          2   -1    0    0  503    0  0.00000000000E+00  0.00000000000E+00  0.33228979854E+04  0.33228979854E+04  0.00000000000E+00 0. -1.
          1   -1    0    0  502    0 -0.00000000000E+00 -0.00000000000E+00 -0.47067486760E+02  0.47067486760E+02  0.00000000000E+00 0. -1.
         25    2    1    2    0    0 -0.23351236708E+03  0.26997183738E+03  0.15553665509E+04  0.16006823732E+04  0.12492451194E+03 0.  0.
          4    1    3    3  501    0 -0.11011911816E+03  0.17765903336E+03  0.66496605312E+03  0.69704405673E+03  0.12700000000E+01 0. -1.
         -4    1    3    3    0  501 -0.12339324892E+03  0.92312804027E+02  0.89040049777E+03  0.90363831647E+03  0.12700000000E+01 0. -1.
          2    1    1    2  502    0  0.20339046051E+03 -0.29273037353E+03  0.13279639371E+04  0.13749716249E+04  0.00000000000E+00 0. -1.
          1    1    1    2  503    0  0.30121906574E+02  0.22758536151E+02  0.39250001067E+03  0.39431147409E+03  0.00000000000E+00 0. -1.
<mgrwt>
<rscale>  0 0.11596128E+03</rscale>
<asrwt>0</asrwt>
<pdfrwt beam="1">  1        2 0.51121489E+00 0.37752884E+02</pdfrwt>
<pdfrwt beam="2">  1        1 0.72411545E-02 0.35618521E+03</pdfrwt>
<totfact> 0.25797914E+02</totfact>
</mgrwt>
</event>
<event>
 7    1  0.4252091E-004  0.4167182E+02  0.7546771E-02  0.1568009E+00
          1   -1    0    0  502    0 -0.00000000000E+00  0.00000000000E+00  0.11427048750E+03  0.11427048750E+03  0.00000000000E+00 0. -1.
          2   -1    0    0  503    0  0.00000000000E+00 -0.00000000000E+00 -0.10942826378E+04  0.10942826378E+04  0.00000000000E+00 0. -1.
         25    2    1    2    0    0  0.22971116398E+02  0.20498925890E+01  0.24874704675E+02  0.12951945493E+03  0.12499865609E+03 0.  0.
          4    1    3    3  501    0  0.15769717689E+02  0.55779019051E+02  0.43176432138E+02  0.72289696046E+02  0.12700000000E+01 0.  1.
         -4    1    3    3    0  501  0.72013987086E+01 -0.53729126462E+02 -0.18301727463E+02  0.57229758883E+02  0.12700000000E+01 0.  1.
          2    1    1    2  502    0  0.95901531040E+01  0.24151944954E+02  0.32046419476E+02  0.41258459531E+02  0.00000000000E+00 0. -1.
          1    1    1    2  503    0 -0.32561269502E+02 -0.26201837544E+02 -0.10369332745E+04  0.10377752108E+04  0.00000000000E+00 0. -1.
<mgrwt>
<rscale>  0 0.32907389E+02</rscale>
<asrwt>0</asrwt>
<pdfrwt beam="2">  1        2 0.16835117E+00 0.41671823E+02</pdfrwt>
<pdfrwt beam="1">  1        1 0.17580076E-01 0.25986294E+02</pdfrwt>
<totfact> 0.95024027E+02</totfact>
</mgrwt>
</event>
<event>
 7    1  0.4252091E-004  0.4828882E+02  0.7546771E-02  0.1565623E+00
          1   -1    0    0  502    0 -0.00000000000E+00  0.00000000000E+00  0.19088210506E+03  0.19088210506E+03  0.00000000000E+00 0. -1.
          2   -1    0    0  503    0  0.00000000000E+00 -0.00000000000E+00 -0.98905389110E+02  0.98905389110E+02  0.00000000000E+00 0. -1.
         25    2    1    2    0    0  0.17746884806E+00  0.37212111322E+02  0.48607124410E+02  0.13918407142E+03  0.12499912187E+03 0.  0.
          4    1    3    3  501    0  0.60572716172E+02  0.24099933013E+02  0.91323020155E+01  0.65839749056E+02  0.12700000000E+01 0. -1.
         -4    1    3    3    0  501 -0.60395247324E+02  0.13112178309E+02  0.39474822395E+02  0.73344322360E+02  0.12700000000E+01 0. -1.
          2    1    1    2  502    0 -0.21201166091E+02  0.82895409485E+01  0.83403485926E+02  0.86454308148E+02  0.00000000000E+00 0. -1.
          1    1    1    2  503    0  0.21023697243E+02 -0.45501652271E+02 -0.40033894386E+02  0.64149114607E+02  0.00000000000E+00 0. -1.
<mgrwt>
<rscale>  0 0.33154988E+02</rscale>
<asrwt>0</asrwt>
<pdfrwt beam="2">  1        2 0.15216214E-01 0.48288817E+02</pdfrwt>
<pdfrwt beam="1">  1        1 0.29366478E-01 0.22764137E+02</pdfrwt>
<totfact> 0.70117226E+03</totfact>
</mgrwt>
</event>
<event>
 7    1  0.4252091E-004  0.8702736E+02  0.7546771E-02  0.1321854E+00
          1   -1    0    0  503    0  0.00000000000E+00  0.00000000000E+00  0.78148117958E+03  0.78148117958E+03  0.00000000000E+00 0. -1.
         -1   -1    0    0    0  501 -0.00000000000E+00 -0.00000000000E+00 -0.90094817698E+02  0.90094817698E+02  0.00000000000E+00 0.  1.
         25    2    1    2    0    0  0.22786957498E+02 -0.93534326926E+02  0.35408503959E+03  0.38764344983E+03  0.12499325259E+03 0.  0.
          4    1    3    3  502    0  0.20574537842E+02 -0.12187362466E+03  0.23873078132E+03  0.26883171473E+03  0.12700000000E+01 0.  1.
         -4    1    3    3    0  502  0.22124196561E+01  0.28339297737E+02  0.11535425827E+03  0.11881173510E+03  0.12700000000E+01 0.  1.
          2    1    1    2  503    0  0.56739498149E+02  0.54076782533E+02  0.37816481891E+03  0.38620240719E+03  0.00000000000E+00 0. -1.
         -2    1    1    2    0  501 -0.79526455647E+02  0.39457544394E+02 -0.40863496620E+02  0.97730140250E+02  0.00000000000E+00 0.  1.
<mgrwt>
<rscale>  0 0.82591406E+02</rscale>
<asrwt>0</asrwt>
<pdfrwt beam="1">  1        1 0.12022787E+00 0.78381561E+02</pdfrwt>
<pdfrwt beam="2">  1       -1 0.13860742E-01 0.87027360E+02</pdfrwt>
<totfact> 0.87898955E+02</totfact>
</mgrwt>
</event>
<event>
 7    1  0.4252091E-004  0.6176807E+02  0.7546771E-02  0.1495156E+00
         -2   -1    0    0    0  501 -0.00000000000E+00  0.00000000000E+00  0.32580993129E+02  0.32580993129E+02  0.00000000000E+00 0.  1.
          2   -1    0    0  503    0  0.00000000000E+00 -0.00000000000E+00 -0.13740299217E+04  0.13740299217E+04  0.00000000000E+00 0. -1.
         25    2    1    2    0    0  0.33743749552E+02  0.37311966356E+02 -0.57456209900E+03  0.59015390981E+03  0.12501683160E+03 0.  0.
          4    1    3    3  502    0  0.15405270458E+02 -0.45398538581E+02 -0.25969515608E+03  0.26408622958E+03  0.12700000000E+01 0.  1.
         -4    1    3    3    0  502  0.18338479094E+02  0.82710504937E+02 -0.31486694292E+03  0.32606768023E+03  0.12700000000E+01 0.  1.
          1    1    1    2  503    0 -0.59318696497E+02 -0.25128657101E+02 -0.78179520766E+03  0.78444496549E+03  0.00000000000E+00 0. -1.
         -1    1    1    2    0  501  0.25574946945E+02 -0.12183309254E+02  0.14908378114E+02  0.32012039510E+02  0.00000000000E+00 0.  1.
<mgrwt>
<rscale>  0 0.41830665E+02</rscale>
<asrwt>0</asrwt>
<pdfrwt beam="2">  1        2 0.21138918E+00 0.61768073E+02</pdfrwt>
<pdfrwt beam="1">  1       -2 0.50124614E-02 0.28328624E+02</pdfrwt>
<totfact> 0.27640995E+03</totfact>
</mgrwt>
</event>
<event>
 7    1  0.4252091E-004  0.1922427E+03  0.7546771E-02  0.1350063E+00
          1   -1    0    0  502    0 -0.00000000000E+00  0.00000000000E+00  0.23653455394E+04  0.23653455394E+04  0.00000000000E+00 0. -1.
          2   -1    0    0  503    0  0.00000000000E+00 -0.00000000000E+00 -0.41963051701E+03  0.41963051701E+03  0.00000000000E+00 0. -1.
         25    2    1    2    0    0  0.77408366231E+02  0.14714367329E+03  0.35349476494E+02  0.21100959272E+03  0.12502858465E+03 0.  0.
          4    1    3    3  501    0  0.35004031394E+02  0.20141507997E+02  0.62462555485E+02  0.74391842940E+02  0.12700000000E+01 0.  1.
         -4    1    3    3    0  501  0.42404334836E+02  0.12700216529E+03 -0.27113078991E+02  0.13661774978E+03  0.12700000000E+01 0.  1.
          2    1    1    2  502    0 -0.84891354041E+02 -0.17386312685E+03  0.22374034380E+04  0.22457535646E+04  0.00000000000E+00 0. -1.
          1    1    1    2  503    0  0.74829878102E+01  0.26719453558E+02 -0.32703789203E+03  0.32821289909E+03  0.00000000000E+00 0. -1.
<mgrwt>
<rscale>  0 0.73035988E+02</rscale>
<asrwt>0</asrwt>
<pdfrwt beam="2">  1        2 0.64558543E-01 0.27747510E+02</pdfrwt>
<pdfrwt beam="1">  1        1 0.36389930E+00 0.19224268E+03</pdfrwt>
<totfact> 0.21386213E+01</totfact>
</mgrwt>
</event>
<event>
 7    1  0.6081477E-004  0.1320144E+03  0.7546771E-02  0.1395409E+00
          2   -1    0    0  503    0  0.00000000000E+00  0.00000000000E+00  0.14811372680E+04  0.14811372680E+04  0.00000000000E+00 0. -1.
         -2   -1    0    0    0  501 -0.00000000000E+00 -0.00000000000E+00 -0.23952823157E+02  0.23952823157E+02  0.00000000000E+00 0.  1.
         25    2    1    2    0    0  0.12287188200E+03  0.47567968900E+02  0.45505907555E+03  0.48996507870E+03  0.12500722002E+03 0.  0.
          4    1    3    3  502    0  0.12093257622E+03  0.50292794203E+00  0.22823362293E+03  0.25829661334E+03  0.12700000000E+01 0.  1.
         -4    1    3    3    0  502  0.19393057817E+01  0.47065040958E+02  0.22682545262E+03  0.23166846536E+03  0.12700000000E+01 0.  1.
          3    1    1    2  503    0 -0.11104297329E+03 -0.72726409790E+02  0.87363134160E+03  0.88365796190E+03  0.00000000000E+00 0. -1.
         -3    1    1    2    0  501 -0.11828908713E+02  0.25158440890E+02  0.12849402771E+03  0.13146705058E+03  0.00000000000E+00 0.  1.
<mgrwt>
<rscale>  0 0.60581114E+02</rscale>
<asrwt>0</asrwt>
<pdfrwt beam="1">  1        2 0.22786720E+00 0.13201437E+03</pdfrwt>
<pdfrwt beam="2">  1       -2 0.36850509E-02 0.27800544E+02</pdfrwt>
<totfact> 0.35428607E+03</totfact>
</mgrwt>
</event>
<event>
 7    1  0.4252091E-004  0.3586108E+02  0.7546771E-02  0.1611430E+00
          1   -1    0    0  502    0 -0.00000000000E+00  0.00000000000E+00  0.10843006767E+04  0.10843006767E+04  0.00000000000E+00 0. -1.
          2   -1    0    0  503    0  0.00000000000E+00 -0.00000000000E+00 -0.44542024024E+03  0.44542024024E+03  0.00000000000E+00 0. -1.
         25    2    1    2    0    0  0.18110301041E+02  0.20858866467E+02  0.53987321473E+03  0.55484315813E+03  0.12499906727E+03 0.  0.
          4    1    3    3  501    0 -0.53773437181E+02  0.10868122892E+02  0.25828204118E+03  0.26404720096E+03  0.12700000000E+01 0. -1.
         -4    1    3    3    0  501  0.71883738222E+02  0.99907435745E+01  0.28159117355E+03  0.29079595716E+03  0.12700000000E+01 0. -1.
          2    1    1    2  502    0 -0.15065686553E+01 -0.37023075669E+02  0.53599588631E+03  0.53727513252E+03  0.00000000000E+00 0. -1.
          1    1    1    2  503    0 -0.16603732386E+02  0.16164209203E+02 -0.43698866457E+03  0.43760262631E+03  0.00000000000E+00 0. -1.
<mgrwt>
<rscale>  0 0.28826922E+02</rscale>
<asrwt>0</asrwt>
<pdfrwt beam="2">  1        2 0.68526191E-01 0.23172518E+02</pdfrwt>
<pdfrwt beam="1">  1        1 0.16681549E+00 0.35861075E+02</pdfrwt>
<totfact> 0.15798288E+02</totfact>
</mgrwt>
</event>
<event>
 7    1  0.4252091E-004  0.7084854E+02  0.7546771E-02  0.1366177E+00
          2   -1    0    0  503    0  0.00000000000E+00  0.00000000000E+00  0.22640959421E+03  0.22640959421E+03  0.00000000000E+00 0. -1.
          1   -1    0    0  502    0 -0.00000000000E+00 -0.00000000000E+00 -0.63799487094E+03  0.63799487094E+03  0.00000000000E+00 0. -1.
         25    2    1    2    0    0 -0.28630781393E+02  0.10772743549E+03  0.18971392905E+01  0.16749174252E+03  0.12499985070E+03 0.  0.
          4    1    3    3  501    0 -0.68172721712E+02  0.75692627514E+02 -0.31470005965E+02  0.10662489400E+03  0.12700000000E+01 0. -1.
         -4    1    3    3    0  501  0.39541940319E+02  0.32034807978E+02  0.33367145256E+02  0.60866848521E+02  0.12700000000E+01 0. -1.
          2    1    1    2  502    0 -0.22577498469E+02 -0.66518534643E+02 -0.54519931271E+03  0.54970605733E+03  0.00000000000E+00 0. -1.
          1    1    1    2  503    0  0.51208279863E+02 -0.41208900849E+02  0.13171689669E+03  0.14720666530E+03  0.00000000000E+00 0. -1.
<mgrwt>
<rscale>  0 0.68241409E+02</rscale>
<asrwt>0</asrwt>
<pdfrwt beam="1">  1        2 0.34832246E-01 0.65730217E+02</pdfrwt>
<pdfrwt beam="2">  1        1 0.98153055E-01 0.70848541E+02</pdfrwt>
<totfact> 0.67030952E+02</totfact>
</mgrwt>
</event>
<event>
 7    1  0.4252091E-004  0.3889486E+02  0.7546771E-02  0.1540334E+00
          2   -1    0    0  503    0  0.00000000000E+00  0.00000000000E+00  0.18188544461E+03  0.18188544461E+03  0.00000000000E+00 0. -1.
         -2   -1    0    0    0  501 -0.00000000000E+00 -0.00000000000E+00 -0.28834881928E+03  0.28834881928E+03  0.00000000000E+00 0.  1.
         25    2    1    2    0    0  0.68005676050E+02 -0.16912494794E+01  0.77315595409E+02  0.16194910730E+03  0.12498871854E+03 0.  0.
          4    1    3    3  502    0  0.39468104322E+02 -0.19104399219E+02 -0.27600851508E+02  0.51827880839E+02  0.12700000000E+01 0.  1.
         -4    1    3    3    0  502  0.28537571728E+02  0.17413149740E+02  0.10491644692E+03  0.11012122646E+03  0.12700000000E+01 0.  1.
          1    1    1    2  503    0 -0.30906002383E+02  0.12197063912E+02  0.56168218240E+02  0.65259620683E+02  0.00000000000E+00 0. -1.
         -1    1    1    2    0  501 -0.37099673667E+02 -0.10505814432E+02 -0.23994718832E+03  0.24302553591E+03  0.00000000000E+00 0.  1.
<mgrwt>
<rscale>  0 0.35948716E+02</rscale>
<asrwt>0</asrwt>
<pdfrwt beam="1">  1        2 0.27982376E-01 0.33225733E+02</pdfrwt>
<pdfrwt beam="2">  1       -2 0.44361356E-01 0.38894858E+02</pdfrwt>
<totfact> 0.86503779E+02</totfact>
</mgrwt>
</event>
<event>
 7    1  0.4252091E-004  0.8777109E+02  0.7546771E-02  0.1345936E+00
          1   -1    0    0  502    0 -0.00000000000E+00  0.00000000000E+00  0.75822935951E+02  0.75822935951E+02  0.00000000000E+00 0. -1.
          2   -1    0    0  503    0  0.00000000000E+00 -0.00000000000E+00 -0.12139354265E+04  0.12139354265E+04  0.00000000000E+00 0. -1.
         25    2    1    2    0    0  0.42141913587E+01 -0.49261758637E+02 -0.37561622707E+03  0.39895293990E+03  0.12502566913E+03 0.  0.
          4    1    3    3  501    0  0.48238373958E+02  0.15709510368E+02 -0.20434521549E+03  0.21055239118E+03  0.12700000000E+01 0. -1.
         -4    1    3    3    0  501 -0.44024182600E+02 -0.64971269005E+02 -0.17127101158E+03  0.18840054872E+03  0.12700000000E+01 0. -1.
          2    1    1    2  502    0 -0.65159252828E+02  0.65060813064E+02  0.29208572610E+02  0.96601130115E+02  0.00000000000E+00 0. -1.
          3    1    1    2  503    0  0.60945061469E+02 -0.15799054426E+02 -0.79170483613E+03  0.79420429248E+03  0.00000000000E+00 0. -1.
<mgrwt>
<rscale>  0 0.74337289E+02</rscale>
<asrwt>0</asrwt>
<pdfrwt beam="2">  1        2 0.18675930E+00 0.62959595E+02</pdfrwt>
<pdfrwt beam="1">  1        1 0.11665067E-01 0.87771095E+02</pdfrwt>
<totfact> 0.14366367E+03</totfact>
</mgrwt>
</event>
<event>
 7    1  0.4252091E-004  0.8775164E+02  0.7546771E-02  0.1411989E+00
          2   -1    0    0  503    0  0.00000000000E+00  0.00000000000E+00  0.33952060323E+03  0.33952060323E+03  0.00000000000E+00 0. -1.
         -2   -1    0    0    0  501 -0.00000000000E+00 -0.00000000000E+00 -0.62003231290E+02  0.62003231290E+02  0.00000000000E+00 0.  1.
         25    2    1    2    0    0  0.24827865396E+02  0.89715516158E+02  0.18533763092E+03  0.24216237490E+03  0.12500912624E+03 0.  0.
          4    1    3    3  502    0 -0.28240557947E+02  0.54100879787E+02  0.16364350051E+03  0.17465750045E+03  0.12700000000E+01 0. -1.
         -4    1    3    3    0  502  0.53068423343E+02  0.35614636372E+02  0.21694130414E+02  0.67504874449E+02  0.12700000000E+01 0. -1.
          1    1    1    2  503    0  0.11727788250E+02 -0.86420121187E+02  0.85350968667E+02  0.12202772724E+03  0.00000000000E+00 0. -1.
         -1    1    1    2    0  501 -0.36555653646E+02 -0.32953949717E+01  0.68287723568E+01  0.37333732379E+02  0.00000000000E+00 0.  1.
<mgrwt>
<rscale>  0 0.56752324E+02</rscale>
<asrwt>0</asrwt>
<pdfrwt beam="1">  1        2 0.52233938E-01 0.87751635E+02</pdfrwt>
<pdfrwt beam="2">  1       -2 0.95389589E-02 0.36703889E+02</pdfrwt>
<totfact> 0.59046874E+03</totfact>
</mgrwt>
</event>
<event>
 7    1  0.4252091E-004  0.2133190E+03  0.7546771E-02  0.1247136E+00
          2   -1    0    0  503    0  0.00000000000E+00  0.00000000000E+00  0.32588514373E+04  0.32588514373E+04  0.00000000000E+00 0. -1.
         -2   -1    0    0    0  501 -0.00000000000E+00 -0.00000000000E+00 -0.13268471141E+03  0.13268471141E+03  0.00000000000E+00 0.  1.
         25    2    1    2    0    0 -0.67130280715E+02 -0.26391049872E+03  0.12645261584E+04  0.12995416364E+04  0.12500733354E+03 0.  0.
          4    1    3    3  502    0 -0.97153465475E+02 -0.16833035723E+03  0.94074794313E+03  0.96061553726E+03  0.12700000000E+01 0. -1.
         -4    1    3    3    0  502  0.30023184759E+02 -0.95580141490E+02  0.32377821527E+03  0.33892609910E+03  0.12700000000E+01 0. -1.
          1    1    1    2  503    0  0.27333982972E+02  0.58768357295E+02  0.18810153238E+04  0.18821316412E+04  0.00000000000E+00 0. -1.
         -1    1    1    2    0  501  0.39796297744E+02  0.20514214143E+03 -0.19374756310E+02  0.20986287115E+03  0.00000000000E+00 0.  1.
<mgrwt>
<rscale>  0 0.11758434E+03</rscale>
<asrwt>0</asrwt>
<pdfrwt beam="1">  1        2 0.50136170E+00 0.64814091E+02</pdfrwt>
<pdfrwt beam="2">  1       -2 0.20413035E-01 0.21331901E+03</pdfrwt>
<totfact> 0.37522475E+01</totfact>
</mgrwt>
</event>
<event>
 7    1  0.4252091E-004  0.6155949E+02  0.7546771E-02  0.1463336E+00
          1   -1    0    0  502    0 -0.00000000000E+00  0.00000000000E+00  0.98274127957E+03  0.98274127957E+03  0.00000000000E+00 0. -1.
          2   -1    0    0  503    0  0.00000000000E+00 -0.00000000000E+00 -0.15372053868E+03  0.15372053868E+03  0.00000000000E+00 0. -1.
         25    2    1    2    0    0  0.49679323011E+02 -0.10634528996E+02 -0.88126512373E+02  0.16115853043E+03  0.12499864562E+03 0.  0.
          4    1    3    3  501    0  0.11328150067E+02  0.19818109444E+02 -0.10643395895E+03  0.10886176998E+03  0.12700000000E+01 0.  1.
         -4    1    3    3    0  501  0.38351172945E+02 -0.30452638440E+02  0.18307446573E+02  0.52296760456E+02  0.12700000000E+01 0.  1.
          2    1    1    2  502    0 -0.41856813406E+02  0.45362176190E+02  0.93391617536E+03  0.93595360059E+03  0.00000000000E+00 0. -1.
          1    1    1    2  503    0 -0.78225096056E+01 -0.34727647194E+02 -0.16768922095E+02  0.39349687221E+02  0.00000000000E+00 0. -1.
<mgrwt>
<rscale>  0 0.46812181E+02</rscale>
<asrwt>0</asrwt>
<pdfrwt beam="2">  1        2 0.23649314E-01 0.35597769E+02</pdfrwt>
<pdfrwt beam="1">  1        1 0.15119096E+00 0.61559485E+02</pdfrwt>
<totfact> 0.52821125E+02</totfact>
</mgrwt>
</event>
<event>
 7    1  0.4252091E-004  0.1057445E+03  0.7546771E-02  0.1299819E+00
          2   -1    0    0  503    0  0.00000000000E+00  0.00000000000E+00  0.73734191474E+03  0.73734191474E+03  0.00000000000E+00 0. -1.
         -2   -1    0    0    0  501 -0.00000000000E+00 -0.00000000000E+00 -0.10780370948E+03  0.10780370948E+03  0.00000000000E+00 0.  1.
         25    2    1    2    0    0 -0.56960112768E+01 -0.36911895430E+02  0.25195778318E+03  0.28372998382E+03  0.12500018658E+03 0.  0.
          4    1    3    3  502    0  0.47817485973E+02 -0.28689851707E+02  0.20367818515E+03  0.21117773453E+03  0.12700000000E+01 0. -1.
         -4    1    3    3    0  502 -0.53513497250E+02 -0.82220437231E+01  0.48279598034E+02  0.72552249291E+02  0.12700000000E+01 0. -1.
          1    1    1    2  503    0  0.61601733553E+01 -0.78525305476E+02  0.42818744547E+03  0.43537186381E+03  0.00000000000E+00 0. -1.
         -1    1    1    2    0  501 -0.46416207847E+00  0.11543720091E+03 -0.50607023396E+02  0.12604377659E+03  0.00000000000E+00 0.  1.
<mgrwt>
<rscale>  0 0.91264076E+02</rscale>
<asrwt>0</asrwt>
<pdfrwt beam="1">  1        2 0.11343721E+00 0.78766562E+02</pdfrwt>
<pdfrwt beam="2">  1       -2 0.16585187E-01 0.10574451E+03</pdfrwt>
<totfact> 0.11440698E+03</totfact>
</mgrwt>
</event>
<event>
 7    1  0.4252091E-004  0.8566840E+02  0.7546771E-02  0.1454511E+00
         -1   -1    0    0    0  502 -0.00000000000E+00  0.00000000000E+00  0.46207550522E+02  0.46207550522E+02  0.00000000000E+00 0.  1.
         -2   -1    0    0    0  501  0.00000000000E+00 -0.00000000000E+00 -0.13169989704E+04  0.13169989704E+04  0.00000000000E+00 0.  1.
         25    2    1    2    0    0 -0.56926018777E+02 -0.19757457255E+02 -0.11779300326E+04  0.11860756715E+04  0.12500163213E+03 0.  0.
          4    1    3    3  503    0 -0.47535466636E+02 -0.71600406750E+02 -0.75317779612E+03  0.75806638515E+03  0.12700000000E+01 0. -1.
         -4    1    3    3    0  503 -0.93905521414E+01  0.51842949495E+02 -0.42475223648E+03  0.42800928632E+03  0.12700000000E+01 0. -1.
         -2    1    1    2    0  502  0.78892439902E+02  0.35926817727E+02 -0.69182987938E+01  0.86963303547E+02  0.00000000000E+00 0.  1.
         -1    1    1    2    0  501 -0.21966421125E+02 -0.16169360472E+02 -0.85943088482E+02  0.90167545896E+02  0.00000000000E+00 0.  1.
<mgrwt>
<rscale>  0 0.48339200E+02</rscale>
<asrwt>0</asrwt>
<pdfrwt beam="2">  1       -2 0.20261519E+00 0.27275848E+02</pdfrwt>
<pdfrwt beam="1">  1       -1 0.71088553E-02 0.85668402E+02</pdfrwt>
<totfact> 0.11398861E+02</totfact>
</mgrwt>
</event>
<event>
 7    1  0.4252091E-004  0.5691995E+03  0.7546771E-02  0.1023607E+00
          1   -1    0    0  502    0 -0.00000000000E+00  0.00000000000E+00  0.70137442562E+03  0.70137442562E+03  0.00000000000E+00 0. -1.
          2   -1    0    0  503    0  0.00000000000E+00 -0.00000000000E+00 -0.29397164578E+04  0.29397164578E+04  0.00000000000E+00 0. -1.
         25    2    1    2    0    0  0.46966267498E+03 -0.37270168906E+03  0.16964102619E+03  0.63552603104E+03  0.12500272426E+03 0.  0.
          4    1    3    3  501    0  0.36133958055E+03 -0.33535683183E+03  0.16833839766E+03  0.52093178647E+03  0.12700000000E+01 0.  1.
         -4    1    3    3    0  501  0.10832309444E+03 -0.37344857226E+02  0.13026285298E+01  0.11459424458E+03  0.12700000000E+01 0.  1.
          2    1    1    2  502    0 -0.59830487020E+03  0.16884621093E+02 -0.31735465261E+02  0.59938380683E+03  0.00000000000E+00 0. -1.
          1    1    1    2  503    0  0.12864219521E+03  0.35581706796E+03 -0.23762475931E+04  0.24061810456E+04  0.00000000000E+00 0. -1.
<mgrwt>
<rscale>  0 0.46407009E+03</rscale>
<asrwt>0</asrwt>
<pdfrwt beam="2">  1        2 0.45226408E+00 0.37835777E+03</pdfrwt>
<pdfrwt beam="1">  1        1 0.10790376E+00 0.56919949E+03</pdfrwt>
<totfact> 0.81270206E+00</totfact>
</mgrwt>
</event>
<event>
 7    1  0.4252091E-004  0.1310496E+03  0.7546771E-02  0.1417122E+00
          1   -1    0    0  502    0 -0.00000000000E+00  0.00000000000E+00  0.28292833090E+03  0.28292833090E+03  0.00000000000E+00 0. -1.
          2   -1    0    0  503    0  0.00000000000E+00 -0.00000000000E+00 -0.18351136265E+04  0.18351136265E+04  0.00000000000E+00 0. -1.
         25    2    1    2    0    0  0.92713096008E+02  0.55276929879E+02 -0.80929910685E+03  0.82597989829E+03  0.12500596340E+03 0.  0.
          4    1    3    3  501    0  0.27039952448E+02  0.47200794081E+02 -0.10212668898E+03  0.11571753321E+03  0.12700000000E+01 0. -1.
         -4    1    3    3    0  501  0.65673143561E+02  0.80761357978E+01 -0.70717241787E+03  0.71026236508E+03  0.12700000000E+01 0. -1.
          2    1    1    2  502    0 -0.11391776266E+03 -0.65678476704E+02  0.25869812575E+03  0.29019930947E+03  0.00000000000E+00 0. -1.
          1    1    1    2  503    0  0.21204666648E+02  0.10401546826E+02 -0.10015843145E+04  0.10018627497E+04  0.00000000000E+00 0. -1.
<mgrwt>
<rscale>  0 0.55634383E+02</rscale>
<asrwt>0</asrwt>
<pdfrwt beam="2">  1        2 0.28232518E+00 0.23618426E+02</pdfrwt>
<pdfrwt beam="1">  1        1 0.43527434E-01 0.13104957E+03</pdfrwt>
<totfact> 0.15071060E+02</totfact>
</mgrwt>
</event>
<event>
 7    1  0.4252091E-004  0.7549313E+02  0.7546771E-02  0.1346163E+00
         -1   -1    0    0    0  501 -0.00000000000E+00  0.00000000000E+00  0.10389520930E+02  0.10389520930E+02  0.00000000000E+00 0.  1.
          1   -1    0    0  503    0  0.00000000000E+00 -0.00000000000E+00 -0.45487684754E+04  0.45487684754E+04  0.00000000000E+00 0. -1.
         25    2    1    2    0    0  0.19078669258E+02  0.21634389569E+02 -0.20596711634E+04  0.20636623352E+04  0.12499956055E+03 0.  0.
          4    1    3    3  502    0  0.43800914788E+02 -0.33205492188E+02 -0.53796713356E+03  0.54076924334E+03  0.12700000000E+01 0. -1.
         -4    1    3    3    0  502 -0.24722245530E+02  0.54839881757E+02 -0.15217040298E+04  0.15228930919E+04  0.12700000000E+01 0. -1.
          2    1    1    2  503    0 -0.71981878708E+02 -0.72018020723E+02 -0.23024067398E+04  0.23046571939E+04  0.00000000000E+00 0. -1.
         -2    1    1    2    0  501  0.52903209450E+02  0.50383631154E+02 -0.17630105130E+03  0.19083846716E+03  0.00000000000E+00 0.  1.
<mgrwt>
<rscale>  0 0.74264851E+02</rscale>
<asrwt>0</asrwt>
<pdfrwt beam="2">  1        1 0.69981000E+00 0.75493134E+02</pdfrwt>
<pdfrwt beam="1">  1       -1 0.15983891E-02 0.73056552E+02</pdfrwt>
<totfact> 0.43179118E+01</totfact>
</mgrwt>
</event>
<event>
 7    1  0.4252091E-004  0.5104556E+02  0.7546771E-02  0.1483392E+00
          1   -1    0    0  502    0 -0.00000000000E+00  0.00000000000E+00  0.50245391152E+03  0.50245391152E+03  0.00000000000E+00 0. -1.
          2   -1    0    0  503    0  0.00000000000E+00 -0.00000000000E+00 -0.12022102539E+03  0.12022102539E+03  0.00000000000E+00 0. -1.
         25    2    1    2    0    0 -0.36526172893E+02 -0.46496959702E+02  0.11634178898E+03  0.18070978911E+03  0.12499794978E+03 0.  0.
          4    1    3    3  501    0 -0.49884983710E+02 -0.83486496957E+02  0.69544068862E+02  0.11956796054E+03  0.12700000000E+01 0. -1.
         -4    1    3    3    0  501  0.13358810817E+02  0.36989537254E+02  0.46797720121E+02  0.61141828573E+02  0.12700000000E+01 0. -1.
          2    1    1    2  502    0  0.49912977291E+02  0.11778475460E+02  0.34803148155E+03  0.35178963876E+03  0.00000000000E+00 0. -1.
          1    1    1    2  503    0 -0.13386804398E+02  0.34718484242E+02 -0.82140384401E+02  0.90175509035E+02  0.00000000000E+00 0. -1.
<mgrwt>
<rscale>  0 0.43582131E+02</rscale>
<asrwt>0</asrwt>
<pdfrwt beam="2">  1        2 0.18495543E-01 0.37209941E+02</pdfrwt>
<pdfrwt beam="1">  1        1 0.77300600E-01 0.51045558E+02</pdfrwt>
<totfact> 0.17741708E+03</totfact>
</mgrwt>
</event>
<event>
 7    1  0.4252091E-004  0.6613304E+02  0.7546771E-02  0.1407410E+00
          2   -1    0    0  503    0  0.00000000000E+00  0.00000000000E+00  0.15785278085E+04  0.15785278085E+04  0.00000000000E+00 0. -1.
         -2   -1    0    0    0  501 -0.00000000000E+00 -0.00000000000E+00 -0.10059629763E+03  0.10059629763E+03  0.00000000000E+00 0.  1.
         25    2    1    2    0    0 -0.54991432471E+02  0.89404661616E+02  0.51874511329E+03  0.54382531711E+03  0.12502892383E+03 0.  0.
          4    1    3    3  502    0 -0.67190619723E+02  0.52180013929E+02  0.14566930449E+03  0.16869645048E+03  0.12700000000E+01 0.  1.
         -4    1    3    3    0  502  0.12199187252E+02  0.37224647687E+02  0.37307580880E+03  0.37512886663E+03  0.12700000000E+01 0.  1.
          1    1    1    2  503    0  0.12373083548E+02 -0.62361058168E+02  0.10389570767E+04  0.10409004765E+04  0.00000000000E+00 0. -1.
         -1    1    1    2    0  501  0.42618348923E+02 -0.27043603448E+02 -0.79770679136E+02  0.94398312497E+02  0.00000000000E+00 0.  1.
<mgrwt>
<rscale>  0 0.57775735E+02</rscale>
<asrwt>0</asrwt>
<pdfrwt beam="1">  1        2 0.24285041E+00 0.66133044E+02</pdfrwt>
<pdfrwt beam="2">  1       -2 0.15476355E-01 0.50474550E+02</pdfrwt>
<totfact> 0.42038454E+02</totfact>
</mgrwt>
</event>
<event>
 7    1  0.4252091E-004  0.1820381E+03  0.7546771E-02  0.1288249E+00
          1   -1    0    0  502    0 -0.00000000000E+00  0.00000000000E+00  0.78823505537E+03  0.78823505537E+03  0.00000000000E+00 0. -1.
          2   -1    0    0  503    0  0.00000000000E+00 -0.00000000000E+00 -0.37656186462E+04  0.37656186462E+04  0.00000000000E+00 0. -1.
         25    2    1    2    0    0 -0.19205252731E+03  0.67287093801E+01 -0.26871538170E+03  0.35321758937E+03  0.12500104121E+03 0.  0.
          4    1    3    3  501    0 -0.33352028848E+02  0.51968805694E+02 -0.51462072599E+02  0.80393236095E+02  0.12700000000E+01 0. -1.
         -4    1    3    3    0  501 -0.15870049846E+03 -0.45240096314E+02 -0.21725330910E+03  0.27282435328E+03  0.12700000000E+01 0. -1.
          2    1    1    2  502    0  0.15123025714E+02 -0.48659995577E+02  0.74271779522E+03  0.74446371599E+03  0.00000000000E+00 0. -1.
          1    1    1    2  503    0  0.17692950159E+03  0.41931286197E+02 -0.34513860043E+04  0.34561723962E+04  0.00000000000E+00 0. -1.
<mgrwt>
<rscale>  0 0.96311519E+02</rscale>
<asrwt>0</asrwt>
<pdfrwt beam="2">  1        2 0.57932595E+00 0.18203807E+03</pdfrwt>
<pdfrwt beam="1">  1        1 0.12126693E+00 0.50955874E+02</pdfrwt>
<totfact> 0.25271339E+00</totfact>
</mgrwt>
</event>
<event>
 7    1  0.4252091E-004  0.1183347E+03  0.7546771E-02  0.1393350E+00
          2   -1    0    0  503    0  0.00000000000E+00  0.00000000000E+00  0.12747939232E+04  0.12747939232E+04  0.00000000000E+00 0. -1.
          1   -1    0    0  502    0 -0.00000000000E+00 -0.00000000000E+00 -0.24615463913E+03  0.24615463913E+03  0.00000000000E+00 0. -1.
         25    2    1    2    0    0 -0.22066870748E+02 -0.13714913677E+03  0.19037128111E+03  0.26676263028E+03  0.12499697493E+03 0.  0.
          4    1    3    3  501    0 -0.34868752644E+01  0.21283756339E+02  0.49235175068E+02  0.53766829430E+02  0.12700000000E+01 0. -1.
         -4    1    3    3    0  501 -0.18579995484E+02 -0.15843289311E+03  0.14113610604E+03  0.21299580085E+03  0.12700000000E+01 0. -1.
          2    1    1    2  502    0 -0.16403873768E+02  0.26924906072E+02 -0.20348436068E+03  0.20591241508E+03  0.00000000000E+00 0. -1.
          1    1    1    2  503    0  0.38470744516E+02  0.11022423070E+03  0.10417523636E+04  0.10482735169E+04  0.00000000000E+00 0. -1.
<mgrwt>
<rscale>  0 0.61081084E+02</rscale>
<asrwt>0</asrwt>
<pdfrwt beam="1">  1        2 0.19612214E+00 0.11833468E+03</pdfrwt>
<pdfrwt beam="2">  1        1 0.37869945E-01 0.31528362E+02</pdfrwt>
<totfact> 0.28822998E+02</totfact>
</mgrwt>
</event>
<event>
 7    1  0.4252091E-004  0.4738881E+02  0.7546771E-02  0.1491990E+00
          1   -1    0    0  502    0 -0.00000000000E+00  0.00000000000E+00  0.13408008685E+04  0.13408008685E+04  0.00000000000E+00 0. -1.
          2   -1    0    0  503    0  0.00000000000E+00 -0.00000000000E+00 -0.91494543397E+03  0.91494543397E+03  0.00000000000E+00 0. -1.
         25    2    1    2    0    0 -0.10827117927E+02 -0.62006946151E+01  0.59050462090E+03  0.60371811240E+03  0.12499670729E+03 0.  0.
          4    1    3    3  501    0  0.48406947125E+01 -0.64637448667E+02  0.32525354083E+03  0.33165179152E+03  0.12700000000E+01 0.  1.
         -4    1    3    3    0  501 -0.15667812639E+02  0.58436754052E+02  0.26525108007E+03  0.27206632088E+03  0.12700000000E+01 0.  1.
          2    1    1    2  502    0 -0.36468800292E+02  0.97276478656E+01  0.74259079788E+03  0.74354938883E+03  0.00000000000E+00 0. -1.
          1    1    1    2  503    0  0.47295918218E+02 -0.35269532505E+01 -0.90723998426E+03  0.90847880125E+03  0.00000000000E+00 0. -1.
<mgrwt>
<rscale>  0 0.42292286E+02</rscale>
<asrwt>0</asrwt>
<pdfrwt beam="2">  1        2 0.14076084E+00 0.47388806E+02</pdfrwt>
<pdfrwt beam="1">  1        1 0.20627706E+00 0.37743881E+02</pdfrwt>
<totfact> 0.48051423E+01</totfact>
</mgrwt>
</event>
<event>
 7    1  0.4252091E-004  0.3546598E+02  0.7546771E-02  0.1571221E+00
          1   -1    0    0  502    0 -0.00000000000E+00  0.00000000000E+00  0.79911524104E+03  0.79911524104E+03  0.00000000000E+00 0. -1.
          2   -1    0    0  503    0  0.00000000000E+00 -0.00000000000E+00 -0.66342276908E+03  0.66342276908E+03  0.00000000000E+00 0. -1.
         25    2    1    2    0    0  0.84747800607E+01 -0.22009884727E+02  0.71115911092E+03  0.72244541647E+03  0.12499536716E+03 0.  0.
          4    1    3    3  501    0  0.36454805370E+02 -0.47093192140E+02  0.17287804955E+03  0.18285282196E+03  0.12700000000E+01 0. -1.
         -4    1    3    3    0  501 -0.27980025310E+02  0.25083307413E+02  0.53828106136E+03  0.53959259451E+03  0.12700000000E+01 0. -1.
          2    1    1    2  502    0 -0.29134492670E+02 -0.68359499725E+01  0.79096590775E+02  0.84568431151E+02  0.00000000000E+00 0. -1.
          1    1    1    2  503    0  0.20659712610E+02  0.28845834699E+02 -0.65456322973E+03  0.65552416250E+03  0.00000000000E+00 0. -1.
<mgrwt>
<rscale>  0 0.32578292E+02</rscale>
<asrwt>0</asrwt>
<pdfrwt beam="2">  1        2 0.10206504E+00 0.35465980E+02</pdfrwt>
<pdfrwt beam="1">  1        1 0.12294081E+00 0.29925723E+02</pdfrwt>
<totfact> 0.16719650E+02</totfact>
</mgrwt>
</event>
<event>
 7    1  0.4252091E-004  0.8668225E+02  0.7546771E-02  0.1412732E+00
          2   -1    0    0  503    0  0.00000000000E+00  0.00000000000E+00  0.12297813161E+04  0.12297813161E+04  0.00000000000E+00 0. -1.
          1   -1    0    0  502    0 -0.00000000000E+00 -0.00000000000E+00 -0.35922755652E+03  0.35922755652E+03  0.00000000000E+00 0. -1.
         25    2    1    2    0    0 -0.71409508616E+02  0.62148586665E+02 -0.11233667072E+03  0.19288865451E+03  0.12499896282E+03 0.  0.
          4    1    3    3  501    0  0.36222376088E+02  0.17013646936E+02 -0.26753171755E+02  0.48154644744E+02  0.12700000000E+01 0.  1.
         -4    1    3    3    0  501 -0.10763188470E+03  0.45134939729E+02 -0.85583498962E+02  0.14473400977E+03  0.12700000000E+01 0.  1.
          2    1    1    2  502    0  0.81996857135E+02 -0.26755410712E+02 -0.19731180640E+03  0.21533993018E+03  0.00000000000E+00 0. -1.
          1    1    1    2  503    0 -0.10587348519E+02 -0.35393175953E+02  0.11802022367E+04  0.11807802879E+04  0.00000000000E+00 0. -1.
<mgrwt>
<rscale>  0 0.56588720E+02</rscale>
<asrwt>0</asrwt>
<pdfrwt beam="1">  1        2 0.18919712E+00 0.36942778E+02</pdfrwt>
<pdfrwt beam="2">  1        1 0.55265778E-01 0.86682252E+02</pdfrwt>
<totfact> 0.21084511E+02</totfact>
</mgrwt>
</event>
<event>
 7    1  0.4252091E-004  0.1038713E+03  0.7546771E-02  0.1380787E+00
          2   -1    0    0  503    0  0.00000000000E+00  0.00000000000E+00  0.25942076999E+03  0.25942076999E+03  0.00000000000E+00 0. -1.
          1   -1    0    0  502    0 -0.00000000000E+00 -0.00000000000E+00 -0.50481993266E+03  0.50481993266E+03  0.00000000000E+00 0. -1.
         25    2    1    2    0    0 -0.12184772127E+02 -0.82325974684E+02  0.10783573387E+03  0.18487459050E+03  0.12499613568E+03 0.  0.
          4    1    3    3  501    0  0.47004556812E+02 -0.74548607265E+02  0.79846691194E+02  0.11892867695E+03  0.12700000000E+01 0.  1.
         -4    1    3    3    0  501 -0.59189328939E+02 -0.77773674188E+01  0.27989042675E+02  0.65945913551E+02  0.12700000000E+01 0.  1.
          2    1    1    2  502    0 -0.17016983754E+02 -0.35924501043E+02 -0.43231817906E+03  0.43414186098E+03  0.00000000000E+00 0. -1.
          1    1    1    2  503    0  0.29201755880E+02  0.11825047573E+03  0.79083282520E+02  0.14522425118E+03  0.00000000000E+00 0. -1.
<mgrwt>
<rscale>  0 0.64257265E+02</rscale>
<asrwt>0</asrwt>
<pdfrwt beam="1">  1        2 0.39910888E-01 0.10387132E+03</pdfrwt>
<pdfrwt beam="2">  1        1 0.77664604E-01 0.39751069E+02</pdfrwt>
<totfact> 0.80561154E+02</totfact>
</mgrwt>
</event>
<event>
 7    1  0.4252091E-004  0.6956995E+02  0.7546771E-02  0.1398078E+00
          2   -1    0    0  503    0  0.00000000000E+00  0.00000000000E+00  0.30211607703E+03  0.30211607703E+03  0.00000000000E+00 0. -1.
          1   -1    0    0  502    0 -0.00000000000E+00 -0.00000000000E+00 -0.75093014120E+03  0.75093014120E+03  0.00000000000E+00 0. -1.
         25    2    1    2    0    0  0.11450365547E+03  0.33649407995E+02 -0.33562170477E+03  0.37750480726E+03  0.12499832405E+03 0.  0.
          4    1    3    3  501    0  0.11249526058E+03 -0.21796989270E+02 -0.19287520363E+03  0.22434961437E+03  0.12700000000E+01 0.  1.
         -4    1    3    3    0  501  0.20083948897E+01  0.55446397265E+02 -0.14274650114E+03  0.15315519288E+03  0.12700000000E+01 0.  1.
          2    1    1    2  502    0 -0.46392483003E+02 -0.22693143423E+02 -0.38840020367E+03  0.39181878394E+03  0.00000000000E+00 0. -1.
          1    1    1    2  503    0 -0.68111172463E+02 -0.10956264572E+02  0.27520784426E+03  0.28372262703E+03  0.00000000000E+00 0. -1.
<mgrwt>
<rscale>  0 0.59941335E+02</rscale>
<asrwt>0</asrwt>
<pdfrwt beam="1">  1        2 0.46479398E-01 0.69569946E+02</pdfrwt>
<pdfrwt beam="2">  1        1 0.11552771E+00 0.51645341E+02</pdfrwt>
<totfact> 0.40253356E+02</totfact>
</mgrwt>
</event>
<event>
 7    1  0.4252091E-004  0.1223558E+03  0.7546771E-02  0.1391333E+00
          2   -1    0    0  503    0  0.00000000000E+00  0.00000000000E+00  0.10572488612E+04  0.10572488612E+04  0.00000000000E+00 0. -1.
          1   -1    0    0  502    0 -0.00000000000E+00 -0.00000000000E+00 -0.16394162668E+04  0.16394162668E+04  0.00000000000E+00 0. -1.
         25    2    1    2    0    0  0.17004878401E+02 -0.11663051933E+03  0.83532310493E+01  0.17200398452E+03  0.12499500107E+03 0.  0.
          4    1    3    3  501    0  0.60676312065E+01  0.18168646956E+01  0.46602343229E+02  0.47047937683E+02  0.12700000000E+01 0. -1.
         -4    1    3    3    0  501  0.10937247194E+02 -0.11844738402E+03 -0.38249112180E+02  0.12495604683E+03  0.12700000000E+01 0. -1.
          2    1    1    2  502    0 -0.30520619584E+02 -0.53665503792E+01 -0.15535410047E+04  0.15538500447E+04  0.00000000000E+00 0. -1.
          1    1    1    2  503    0  0.13515741183E+02  0.12199706971E+03  0.96302036800E+03  0.97081109876E+03  0.00000000000E+00 0. -1.
<mgrwt>
<rscale>  0 0.61576498E+02</rscale>
<asrwt>0</asrwt>
<pdfrwt beam="1">  1        2 0.16265367E+00 0.12235583E+03</pdfrwt>
<pdfrwt beam="2">  1        1 0.25221789E+00 0.30988838E+02</pdfrwt>
<totfact> 0.25350710E+01</totfact>
</mgrwt>
</event>
<event>
 7    1  0.4252091E-004  0.8638224E+02  0.7546771E-02  0.1350193E+00
         -2   -1    0    0    0  501 -0.00000000000E+00  0.00000000000E+00  0.66549036775E+03  0.66549036775E+03  0.00000000000E+00 0.  1.
          2   -1    0    0  503    0  0.00000000000E+00 -0.00000000000E+00 -0.10902316017E+04  0.10902316017E+04  0.00000000000E+00 0. -1.
         25    2    1    2    0    0  0.81980010766E+02 -0.49324683301E+02 -0.44692925365E+03  0.47383986312E+03  0.12499924629E+03 0.  0.
          4    1    3    3  502    0  0.88339953386E+02  0.12433690152E+02 -0.19616886768E+03  0.21550494556E+03  0.12700000000E+01 0. -1.
         -4    1    3    3    0  502 -0.63599426194E+01 -0.61758373452E+02 -0.25076038596E+03  0.25833491756E+03  0.12700000000E+01 0. -1.
          1    1    1    2  503    0  0.36049435736E+01  0.61578030374E+02 -0.62545721242E+03  0.62849150671E+03  0.00000000000E+00 0. -1.
         -1    1    1    2    0  501 -0.85584954340E+02 -0.12253347073E+02  0.64764523214E+03  0.65339059959E+03  0.00000000000E+00 0.  1.
<mgrwt>
<rscale>  0 0.72995585E+02</rscale>
<asrwt>0</asrwt>
<pdfrwt beam="2">  1        2 0.16772794E+00 0.61683462E+02</pdfrwt>
<pdfrwt beam="1">  1       -2 0.10238313E+00 0.86382238E+02</pdfrwt>
<totfact> 0.21467544E+01</totfact>
</mgrwt>
</event>
<event>
 7    1  0.4252091E-004  0.8075642E+02  0.7546771E-02  0.1339181E+00
          2   -1    0    0  503    0  0.00000000000E+00  0.00000000000E+00  0.93322088918E+03  0.93322088918E+03  0.00000000000E+00 0. -1.
         -2   -1    0    0    0  501 -0.00000000000E+00 -0.00000000000E+00 -0.93769424037E+02  0.93769424037E+02  0.00000000000E+00 0.  1.
         25    2    1    2    0    0 -0.58649827775E+02  0.13070223713E+03  0.47891817653E+02  0.19606705953E+03  0.12500315414E+03 0.  0.
          4    1    3    3  502    0 -0.86802727066E+02  0.13072325401E+03  0.23259198769E+02  0.15863759262E+03  0.12700000000E+01 0.  1.
         -4    1    3    3    0  502  0.28152899292E+02 -0.21016874488E-01  0.24632618884E+02  0.37429466912E+02  0.12700000000E+01 0.  1.
          1    1    1    2  503    0  0.53493949280E+02 -0.58350564923E+02  0.73418366866E+03  0.73843892798E+03  0.00000000000E+00 0. -1.
         -1    1    1    2    0  501  0.51558784947E+01 -0.72351672208E+02  0.57375978830E+02  0.92484325705E+02  0.00000000000E+00 0.  1.
<mgrwt>
<rscale>  0 0.76535476E+02</rscale>
<asrwt>0</asrwt>
<pdfrwt beam="1">  1        2 0.14357244E+00 0.80756424E+02</pdfrwt>
<pdfrwt beam="2">  1       -2 0.14426066E-01 0.72535147E+02</pdfrwt>
<totfact> 0.10513152E+03</totfact>
</mgrwt>
</event>
<event>
 7    1  0.4252091E-004  0.5295084E+02  0.7546771E-02  0.1534881E+00
          1   -1    0    0  502    0 -0.00000000000E+00  0.00000000000E+00  0.77962604587E+03  0.77962604587E+03  0.00000000000E+00 0. -1.
          2   -1    0    0  503    0  0.00000000000E+00 -0.00000000000E+00 -0.81852977565E+03  0.81852977565E+03  0.00000000000E+00 0. -1.
         25    2    1    2    0    0 -0.89884055314E+01  0.76663957662E+02  0.25898522387E+03  0.29775314288E+03  0.12500173628E+03 0.  0.
          4    1    3    3  501    0  0.63647393038E+00 -0.22948739003E+02  0.14176906644E+03  0.14362148453E+03  0.12700000000E+01 0. -1.
         -4    1    3    3    0  501 -0.96248794618E+01  0.99612696665E+02  0.11721615743E+03  0.15413165835E+03  0.12700000000E+01 0. -1.
          2    1    1    2  502    0  0.85832950781E+01 -0.23789421385E+02  0.50006230530E+03  0.50070142671E+03  0.00000000000E+00 0. -1.
          1    1    1    2  503    0  0.40511045334E+00 -0.52874536278E+02 -0.79795125894E+03  0.79970125193E+03  0.00000000000E+00 0. -1.
<mgrwt>
<rscale>  0 0.36594445E+02</rscale>
<asrwt>0</asrwt>
<pdfrwt beam="2">  1        2 0.12592766E+00 0.52950841E+02</pdfrwt>
<pdfrwt beam="1">  1        1 0.11994247E+00 0.25290503E+02</pdfrwt>
<totfact> 0.13545437E+02</totfact>
</mgrwt>
</event>
<event>
 7    1  0.4252091E-004  0.2042325E+03  0.7546771E-02  0.1370083E+00
          2   -1    0    0  503    0  0.00000000000E+00  0.00000000000E+00  0.13448901747E+04  0.13448901747E+04  0.00000000000E+00 0. -1.
          1   -1    0    0  502    0 -0.00000000000E+00 -0.00000000000E+00 -0.55027551916E+03  0.55027551916E+03  0.00000000000E+00 0. -1.
         25    2    1    2    0    0 -0.14872233329E+02  0.20151760325E+03  0.11993760716E+03  0.26615758007E+03  0.12499720025E+03 0.  0.
          4    1    3    3  501    0  0.94475305874E+01  0.39263919474E+02  0.90983054088E+02  0.99551194056E+02  0.12700000000E+01 0.  1.
         -4    1    3    3    0  501 -0.24319763916E+02  0.16225368378E+03  0.28954553073E+02  0.16660638601E+03  0.12700000000E+01 0.  1.
          2    1    1    2  502    0  0.21870525661E+02  0.29946957221E+01 -0.46781467968E+03  0.46833520327E+03  0.00000000000E+00 0. -1.
          1    1    1    2  503    0 -0.69982923328E+01 -0.20451229898E+03  0.11424917280E+04  0.11606729105E+04  0.00000000000E+00 0. -1.
<mgrwt>
<rscale>  0 0.67144252E+02</rscale>
<asrwt>0</asrwt>
<pdfrwt beam="1">  1        2 0.20690618E+00 0.20423247E+03</pdfrwt>
<pdfrwt beam="2">  1        1 0.84657773E-01 0.22074603E+02</pdfrwt>
<totfact> 0.98655471E+01</totfact>
</mgrwt>
</event>
<event>
 7    1  0.4252091E-004  0.5620374E+02  0.7546771E-02  0.1443657E+00
          1   -1    0    0  502    0 -0.00000000000E+00  0.00000000000E+00  0.38401065761E+03  0.38401065761E+03  0.00000000000E+00 0. -1.
          2   -1    0    0  503    0  0.00000000000E+00 -0.00000000000E+00 -0.16697607998E+04  0.16697607998E+04  0.00000000000E+00 0. -1.
         25    2    1    2    0    0 -0.58481306597E+02  0.28611286228E+02 -0.24442008999E+03  0.28214391029E+03  0.12500134721E+03 0.  0.
          4    1    3    3  501    0 -0.25869407411E+02  0.13119827969E+02 -0.24429782285E+03  0.24601706298E+03  0.12700000000E+01 0. -1.
         -4    1    3    3    0  501 -0.32611899187E+02  0.15491458258E+02 -0.12226713189E+00  0.36126847313E+02  0.12700000000E+01 0. -1.
          2    1    1    2  502    0  0.38100456122E+02  0.24021561247E+02  0.36319085062E+03  0.36597305111E+03  0.00000000000E+00 0. -1.
          1    1    1    2  503    0  0.20380850475E+02 -0.52632847474E+02 -0.14045209029E+04  0.14056544961E+04  0.00000000000E+00 0. -1.
<mgrwt>
<rscale>  0 0.50313672E+02</rscale>
<asrwt>0</asrwt>
<pdfrwt beam="2">  1        2 0.25688628E+00 0.56203743E+02</pdfrwt>
<pdfrwt beam="1">  1        1 0.59078563E-01 0.45040872E+02</pdfrwt>
<totfact> 0.11386463E+02</totfact>
</mgrwt>
</event>
<event>
 7    1  0.4252091E-004  0.2181002E+03  0.7546771E-02  0.1176918E+00
          2   -1    0    0  503    0  0.00000000000E+00  0.00000000000E+00  0.20449079133E+04  0.20449079133E+04  0.00000000000E+00 0. -1.
          1   -1    0    0  502    0 -0.00000000000E+00 -0.00000000000E+00 -0.20748751178E+03  0.20748751178E+03  0.00000000000E+00 0. -1.
         25    2    1    2    0    0 -0.30030827884E+03  0.15262481835E+03  0.10697032374E+03  0.37489440459E+03  0.12499506755E+03 0.  0.
          4    1    3    3  501    0 -0.13441216249E+03  0.85394660831E+02 -0.12409701544E+02  0.15973256122E+03  0.12700000000E+01 0. -1.
         -4    1    3    3    0  501 -0.16589611636E+03  0.67230157515E+02  0.11938002529E+03  0.21516184336E+03  0.12700000000E+01 0. -1.
          2    1    1    2  502    0  0.96200439029E+02 -0.93147513542E+02 -0.13468636219E+00  0.13390669098E+03  0.00000000000E+00 0. -1.
          1    1    1    2  503    0  0.20410783982E+03 -0.59477304804E+02  0.17305847641E+04  0.17435943295E+04  0.00000000000E+00 0. -1.
<mgrwt>
<rscale>  0 0.17089486E+03</rscale>
<asrwt>0</asrwt>
<pdfrwt beam="1">  1        2 0.31460120E+00 0.21810015E+03</pdfrwt>
<pdfrwt beam="2">  1        1 0.31921157E-01 0.13390662E+03</pdfrwt>
<totfact> 0.13638762E+02</totfact>
</mgrwt>
</event>
<event>
 7    1  0.4252091E-004  0.1771310E+03  0.7546771E-02  0.1265061E+00
          1   -1    0    0  502    0 -0.00000000000E+00  0.00000000000E+00  0.12767576891E+03  0.12767576891E+03  0.00000000000E+00 0. -1.
          2   -1    0    0  503    0  0.00000000000E+00 -0.00000000000E+00 -0.20252911765E+04  0.20252911765E+04  0.00000000000E+00 0. -1.
         25    2    1    2    0    0 -0.10016435646E+03 -0.10647915599E+03 -0.31178844982E+03  0.36634349184E+03  0.12499923043E+03 0.  0.
          4    1    3    3  501    0 -0.38065352967E+02 -0.38428360191E+02 -0.15826385447E+02  0.56371955259E+02  0.12700000000E+01 0. -1.
         -4    1    3    3    0  501 -0.62099003489E+02 -0.68050795804E+02 -0.29596206437E+03  0.30997153658E+03  0.12700000000E+01 0. -1.
          2    1    1    2  502    0 -0.62293523466E+02  0.19834673650E+02  0.84131475945E+02  0.10654577697E+03  0.00000000000E+00 0. -1.
          1    1    1    2  503    0  0.16245787992E+03  0.86644482344E+02 -0.16699584337E+04  0.16800776766E+04  0.00000000000E+00 0. -1.
<mgrwt>
<rscale>  0 0.10761016E+03</rscale>
<asrwt>0</asrwt>
<pdfrwt beam="2">  1        2 0.31158324E+00 0.17713097E+03</pdfrwt>
<pdfrwt beam="1">  1        1 0.19642427E-01 0.65375051E+02</pdfrwt>
<totfact> 0.25578340E+02</totfact>
</mgrwt>
</event>
<event>
 7    1  0.4252091E-004  0.8666736E+02  0.7546771E-02  0.1313831E+00
         -1   -1    0    0    0  501 -0.00000000000E+00  0.00000000000E+00  0.21980886628E+04  0.21980886628E+04  0.00000000000E+00 0.  1.
          1   -1    0    0  503    0  0.00000000000E+00 -0.00000000000E+00 -0.89859234805E+02  0.89859234805E+02  0.00000000000E+00 0. -1.
         25    2    1    2    0    0  0.14927237720E+02 -0.71741208362E+02  0.12910565640E+04  0.12991608230E+04  0.12498867605E+03 0.  0.
          4    1    3    3  502    0  0.52683926569E+02 -0.35455861619E+02  0.10738726162E+04  0.10757493774E+04  0.12700000000E+01 0. -1.
         -4    1    3    3    0  502 -0.37756688849E+02 -0.36285346744E+02  0.21718394782E+03  0.22341144562E+03  0.12700000000E+01 0. -1.
          2    1    1    2  503    0 -0.82372157429E+02 -0.19180826266E+02 -0.60408640424E+02  0.10393401875E+03  0.00000000000E+00 0. -1.
         -2    1    1    2    0  501  0.67444919709E+02  0.90922034628E+02  0.87758150435E+03  0.88485305580E+03  0.00000000000E+00 0.  1.
<mgrwt>
<rscale>  0 0.85615224E+02</rscale>
<asrwt>0</asrwt>
<pdfrwt beam="2">  1        1 0.13824499E-01 0.84575862E+02</pdfrwt>
<pdfrwt beam="1">  1       -1 0.33816745E+00 0.86667359E+02</pdfrwt>
<totfact> 0.10275559E+01</totfact>
</mgrwt>
</event>
<event>
 7    1  0.4252091E-004  0.1427936E+03  0.7546771E-02  0.1364261E+00
         -1   -1    0    0    0  501 -0.00000000000E+00  0.00000000000E+00  0.18736160315E+03  0.18736160315E+03  0.00000000000E+00 0.  1.
          1   -1    0    0  503    0  0.00000000000E+00 -0.00000000000E+00 -0.31621975766E+03  0.31621975766E+03  0.00000000000E+00 0. -1.
         25    2    1    2    0    0  0.62472986700E+02  0.13405030449E+03 -0.23062042265E+03  0.30114375902E+03  0.12501770297E+03 0.  0.
          4    1    3    3  502    0 -0.25845766010E+01  0.10091046621E+03 -0.19569318886E+03  0.22019772772E+03  0.12700000000E+01 0.  1.
         -4    1    3    3    0  502  0.65057563301E+02  0.33139838275E+02 -0.34927233793E+02  0.80946031305E+02  0.12700000000E+01 0.  1.
          2    1    1    2  503    0 -0.29937333760E+02 -0.12776044604E+03  0.48878076370E+02  0.14002871803E+03  0.00000000000E+00 0. -1.
         -2    1    1    2    0  501 -0.32535652941E+02 -0.62898584518E+01  0.52884191776E+02  0.62408883754E+02  0.00000000000E+00 0.  1.
<mgrwt>
<rscale>  0 0.68788833E+02</rscale>
<asrwt>0</asrwt>
<pdfrwt beam="2">  1        1 0.48649193E-01 0.14279362E+03</pdfrwt>
<pdfrwt beam="1">  1       -1 0.28824862E-01 0.33138060E+02</pdfrwt>
<totfact> 0.86214838E+02</totfact>
</mgrwt>
</event>
<event>
 7    1  0.4252091E-004  0.2710690E+03  0.7546771E-02  0.1153753E+00
          2   -1    0    0  503    0  0.00000000000E+00  0.00000000000E+00  0.33515470022E+03  0.33515470022E+03  0.00000000000E+00 0. -1.
         -2   -1    0    0    0  501 -0.00000000000E+00 -0.00000000000E+00 -0.59802201144E+03  0.59802201144E+03  0.00000000000E+00 0.  1.
         25    2    1    2    0    0  0.94760881072E+02 -0.28443059672E+03 -0.23452693875E+03  0.40063535819E+03  0.12500166518E+03 0.  0.
          4    1    3    3  502    0  0.11437187644E+03 -0.16578710613E+03 -0.17319047906E+03  0.26563667973E+03  0.12700000000E+01 0. -1.
         -4    1    3    3    0  502 -0.19610995368E+02 -0.11864349059E+03 -0.61336459692E+02  0.13499867846E+03  0.12700000000E+01 0. -1.
          1    1    1    2  503    0 -0.13840683382E+03  0.25470935464E+02  0.15720534073E+03  0.21099464296E+03  0.00000000000E+00 0. -1.
         -1    1    1    2    0  501  0.43645952751E+02  0.25895966126E+03 -0.18554571321E+03  0.32154671051E+03  0.00000000000E+00 0.  1.
<mgrwt>
<rscale>  0 0.19531467E+03</rscale>
<asrwt>0</asrwt>
<pdfrwt beam="1">  1        2 0.51562262E-01 0.14073102E+03</pdfrwt>
<pdfrwt beam="2">  1       -2 0.92003385E-01 0.27106903E+03</pdfrwt>
<totfact> 0.10174004E+02</totfact>
</mgrwt>
</event>
<event>
 7    1  0.4252091E-004  0.7042230E+02  0.7546771E-02  0.1402599E+00
          1   -1    0    0  502    0 -0.00000000000E+00  0.00000000000E+00  0.10111651031E+04  0.10111651031E+04  0.00000000000E+00 0. -1.
          2   -1    0    0  503    0  0.00000000000E+00 -0.00000000000E+00 -0.13910410676E+04  0.13910410676E+04  0.00000000000E+00 0. -1.
         25    2    1    2    0    0  0.24464168001E+02  0.20993482817E+02  0.77277486525E+02  0.15045124502E+03  0.12499818146E+03 0.  0.
          4    1    3    3  501    0 -0.42390939270E+02  0.33825813783E+02  0.10838552900E+02  0.55319657801E+02  0.12700000000E+01 0.  1.
         -4    1    3    3    0  501  0.66855107271E+02 -0.12832330966E+02  0.66438933625E+02  0.95131587222E+02  0.12700000000E+01 0.  1.
          2    1    1    2  502    0 -0.18221100880E+02 -0.69823285138E+02  0.89540142146E+03  0.89830451698E+03  0.00000000000E+00 0. -1.
          1    1    1    2  503    0 -0.62430671209E+01  0.48829802321E+02 -0.13525548725E+04  0.13534504086E+04  0.00000000000E+00 0. -1.
<mgrwt>
<rscale>  0 0.58878676E+02</rscale>
<asrwt>0</asrwt>
<pdfrwt beam="2">  1        2 0.21400632E+00 0.49227284E+02</pdfrwt>
<pdfrwt beam="1">  1        1 0.15556386E+00 0.70422300E+02</pdfrwt>
<totfact> 0.41789434E+01</totfact>
</mgrwt>
</event>
<event>
 7    1  0.4252091E-004  0.3389724E+02  0.7546771E-02  0.1569384E+00
          2   -1    0    0  503    0  0.00000000000E+00  0.00000000000E+00  0.14034124864E+03  0.14034124864E+03  0.00000000000E+00 0. -1.
          1   -1    0    0  502    0 -0.00000000000E+00 -0.00000000000E+00 -0.40491627505E+03  0.40491627505E+03  0.00000000000E+00 0. -1.
         25    2    1    2    0    0 -0.42034402609E+02  0.14688442496E+02 -0.35564437417E+02  0.13731490309E+03  0.12493162953E+03 0.  0.
          4    1    3    3  501    0 -0.28328783516E+02 -0.50206798716E+02 -0.41002454978E+02  0.70753493391E+02  0.12700000000E+01 0.  1.
         -4    1    3    3    0  501 -0.13705619093E+02  0.64895241212E+02  0.54380175605E+01  0.66561409703E+02  0.12700000000E+01 0.  1.
          2    1    1    2  502    0  0.14654877512E+02 -0.30610128754E+02 -0.31473238487E+03  0.31655681876E+03  0.00000000000E+00 0. -1.
          1    1    1    2  503    0  0.27379525097E+02  0.15921686258E+02  0.85721795878E+02  0.91385801832E+02  0.00000000000E+00 0. -1.
<mgrwt>
<rscale>  0 0.32765921E+02</rscale>
<asrwt>0</asrwt>
<pdfrwt beam="1">  1        2 0.21590962E-01 0.31672362E+02</pdfrwt>
<pdfrwt beam="2">  1        1 0.62294810E-01 0.33897237E+02</pdfrwt>
<totfact> 0.19507077E+03</totfact>
</mgrwt>
</event>
<event>
 7    1  0.4252091E-004  0.8478059E+02  0.7546771E-02  0.1424771E+00
          2   -1    0    0  503    0  0.00000000000E+00  0.00000000000E+00  0.30840112977E+03  0.30840112977E+03  0.00000000000E+00 0. -1.
          1   -1    0    0  502    0 -0.00000000000E+00 -0.00000000000E+00 -0.29769853020E+03  0.29769853020E+03  0.00000000000E+00 0. -1.
         25    2    1    2    0    0  0.16564774638E+02  0.55500800848E+02 -0.71499467933E+02  0.15521172924E+03  0.12499510520E+03 0.  0.
          4    1    3    3  501    0 -0.24327525342E+02 -0.30658342671E+02 -0.62615922520E+01  0.39655805403E+02  0.12700000000E+01 0. -1.
         -4    1    3    3    0  501  0.40892299980E+02  0.86159143519E+02 -0.65237875681E+02  0.11555592383E+03  0.12700000000E+01 0. -1.
          2    1    1    2  502    0 -0.23132698318E+02 -0.89293942618E+02 -0.17156854340E+03  0.19479295419E+03  0.00000000000E+00 0. -1.
          1    1    1    2  503    0  0.65679236794E+01  0.33793141770E+02  0.25377061090E+03  0.25609497654E+03  0.00000000000E+00 0. -1.
<mgrwt>
<rscale>  0 0.54024189E+02</rscale>
<asrwt>0</asrwt>
<pdfrwt beam="1">  1        2 0.47446328E-01 0.34425486E+02</pdfrwt>
<pdfrwt beam="2">  1        1 0.45799774E-01 0.84780590E+02</pdfrwt>
<totfact> 0.12587152E+03</totfact>
</mgrwt>
</event>
<event>
 7    1  0.4252091E-004  0.2872212E+02  0.7546771E-02  0.1625007E+00
          1   -1    0    0  502    0 -0.00000000000E+00  0.00000000000E+00  0.43442344909E+03  0.43442344909E+03  0.00000000000E+00 0. -1.
          2   -1    0    0  503    0  0.00000000000E+00 -0.00000000000E+00 -0.28713247964E+03  0.28713247964E+03  0.00000000000E+00 0. -1.
         25    2    1    2    0    0 -0.79873303556E+00  0.44829686161E+02 -0.21423782864E+03  0.25205618752E+03  0.12499654280E+03 0.  0.
          4    1    3    3  501    0 -0.36015481115E+02 -0.73134320931E+01 -0.96646197575E+01  0.38021295927E+02  0.12700000000E+01 0. -1.
         -4    1    3    3    0  501  0.35216748080E+02  0.52143118254E+02 -0.20457320889E+03  0.21403489160E+03  0.12700000000E+01 0. -1.
          2    1    1    2  502    0 -0.15844579204E+02 -0.23935228572E+02  0.41167915176E+03  0.41267865205E+03  0.00000000000E+00 0. -1.
          1    1    1    2  503    0  0.16643312240E+02 -0.20894457589E+02 -0.50150353665E+02  0.56821089158E+02  0.00000000000E+00 0. -1.
<mgrwt>
<rscale>  0 0.27699292E+02</rscale>
<asrwt>0</asrwt>
<pdfrwt beam="2">  1        2 0.44174228E-01 0.26712885E+02</pdfrwt>
<pdfrwt beam="1">  1        1 0.66834377E-01 0.28722124E+02</pdfrwt>
<totfact> 0.85828126E+02</totfact>
</mgrwt>
</event>
<event>
 7    1  0.4252091E-004  0.6249489E+02  0.7546771E-02  0.1414947E+00
         -2   -1    0    0    0  501 -0.00000000000E+00  0.00000000000E+00  0.36044792673E+02  0.36044792673E+02  0.00000000000E+00 0.  1.
          2   -1    0    0  503    0  0.00000000000E+00 -0.00000000000E+00 -0.19581815005E+04  0.19581815005E+04  0.00000000000E+00 0. -1.
         25    2    1    2    0    0 -0.20420462272E+02 -0.66363861655E+01 -0.31455898580E+03  0.33916395724E+03  0.12499518968E+03 0.  0.
          4    1    3    3  502    0 -0.65483259096E+02  0.65039611924E+01 -0.25480001735E+03  0.26316348621E+03  0.12700000000E+01 0. -1.
         -4    1    3    3    0  502  0.45062796825E+02 -0.13140347358E+02 -0.59758968448E+02  0.76000471027E+02  0.12700000000E+01 0. -1.
          1    1    1    2  503    0  0.34597841166E+02  0.54967452748E+02 -0.16031888315E+04  0.16045039298E+04  0.00000000000E+00 0. -1.
         -1    1    1    2    0  501 -0.14177378894E+02 -0.48331066582E+02 -0.43888905728E+01  0.50558406124E+02  0.00000000000E+00 0.  1.
<mgrwt>
<rscale>  0 0.56104495E+02</rscale>
<asrwt>0</asrwt>
<pdfrwt beam="2">  1        2 0.30125875E+00 0.62494887E+02</pdfrwt>
<pdfrwt beam="1">  1       -2 0.55453517E-02 0.50367550E+02</pdfrwt>
<totfact> 0.13114959E+03</totfact>
</mgrwt>
</event>
<event>
 7    1  0.4252091E-004  0.5668755E+02  0.7546771E-02  0.1439851E+00
          2   -1    0    0  503    0  0.00000000000E+00  0.00000000000E+00  0.17213558363E+04  0.17213558363E+04  0.00000000000E+00 0. -1.
          1   -1    0    0  502    0 -0.00000000000E+00 -0.00000000000E+00 -0.21739189009E+03  0.21739189009E+03  0.00000000000E+00 0. -1.
         25    2    1    2    0    0 -0.96225353836E+02  0.54332924386E+01  0.73083108980E+02  0.17394070430E+03  0.12500155362E+03 0.  0.
          4    1    3    3  501    0 -0.29826340856E+02  0.62575529878E+02  0.41543272375E+02  0.80825515328E+02  0.12700000000E+01 0. -1.
         -4    1    3    3    0  501 -0.66399012979E+02 -0.57142237439E+02  0.31539836605E+02  0.93115188972E+02  0.12700000000E+01 0. -1.
          2    1    1    2  502    0  0.43563530154E+02  0.14588810512E+02 -0.16329572655E+03  0.16963522294E+03  0.00000000000E+00 0. -1.
          1    1    1    2  503    0  0.52661823682E+02 -0.20022102951E+02  0.15941765638E+04  0.15951717992E+04  0.00000000000E+00 0. -1.
<mgrwt>
<rscale>  0 0.51032412E+02</rscale>
<asrwt>0</asrwt>
<pdfrwt beam="1">  1        2 0.26482397E+00 0.56687554E+02</pdfrwt>
<pdfrwt beam="2">  1        1 0.33444907E-01 0.45941425E+02</pdfrwt>
<totfact> 0.21150233E+02</totfact>
</mgrwt>
</event>
<event>
 7    1  0.4252091E-004  0.6580449E+02  0.7546771E-02  0.1510530E+00
          1   -1    0    0  503    0  0.00000000000E+00  0.00000000000E+00  0.17199215247E+04  0.17199215247E+04  0.00000000000E+00 0. -1.
         -1   -1    0    0    0  501 -0.00000000000E+00 -0.00000000000E+00 -0.11912062903E+02  0.11912062903E+02  0.00000000000E+00 0.  1.
         25    2    1    2    0    0  0.72826851208E+02  0.20367561091E+02  0.12646763236E+04  0.12730859282E+04  0.12499195734E+03 0.  0.
          4    1    3    3  502    0  0.52342115558E+02  0.21101600444E+01  0.16616852095E+03  0.17423472699E+03  0.12700000000E+01 0. -1.
         -4    1    3    3    0  502  0.20484735650E+02  0.18257401047E+02  0.10985078026E+04  0.10988512012E+04  0.12700000000E+01 0. -1.
          2    1    1    2  503    0 -0.52248615418E+02 -0.32591379414E+02  0.42265479349E+03  0.42711730273E+03  0.00000000000E+00 0. -1.
         -2    1    1    2    0  501 -0.20578235790E+02  0.12223818322E+02  0.20678344759E+02  0.31630356693E+02  0.00000000000E+00 0.  1.
<mgrwt>
<rscale>  0 0.39686677E+02</rscale>
<asrwt>0</asrwt>
<pdfrwt beam="1">  1        1 0.26460311E+00 0.65804493E+02</pdfrwt>
<pdfrwt beam="2">  1       -1 0.18326264E-02 0.23935027E+02</pdfrwt>
<totfact> 0.32634985E+03</totfact>
</mgrwt>
</event>
<event>
 7    1  0.4252091E-004  0.1260312E+03  0.7546771E-02  0.1350280E+00
          1   -1    0    0  502    0 -0.00000000000E+00  0.00000000000E+00  0.53451785855E+03  0.53451785855E+03  0.00000000000E+00 0. -1.
          2   -1    0    0  503    0  0.00000000000E+00 -0.00000000000E+00 -0.57247087299E+03  0.57247087299E+03  0.00000000000E+00 0. -1.
         25    2    1    2    0    0 -0.68291149951E+02  0.96922838275E+02  0.12702435934E+03  0.21405225053E+03  0.12500184140E+03 0.  0.
          4    1    3    3  501    0 -0.69998790771E+02  0.29590100144E+02  0.12543620587E+03  0.14666717212E+03  0.12700000000E+01 0. -1.
         -4    1    3    3    0  501  0.17076408197E+01  0.67332738131E+02  0.15881534725E+01  0.67385078413E+02  0.12700000000E+01 0. -1.
          2    1    1    2  502    0  0.10487011355E+03 -0.75786536323E+02  0.35159110765E+03  0.37464335945E+03  0.00000000000E+00 0. -1.
          1    1    1    2  503    0 -0.36578963603E+02 -0.21136301952E+02 -0.51656848143E+03  0.51829312155E+03  0.00000000000E+00 0. -1.
<mgrwt>
<rscale>  0 0.72968306E+02</rscale>
<asrwt>0</asrwt>
<pdfrwt beam="2">  1        2 0.88072442E-01 0.42246465E+02</pdfrwt>
<pdfrwt beam="1">  1        1 0.82233517E-01 0.12603122E+03</pdfrwt>
<totfact> 0.31865402E+02</totfact>
</mgrwt>
</event>
<event>
 7    1  0.4252091E-004  0.7483573E+02  0.7546771E-02  0.1500081E+00
          1   -1    0    0  502    0 -0.00000000000E+00  0.00000000000E+00  0.10906728030E+03  0.10906728030E+03  0.00000000000E+00 0. -1.
          2   -1    0    0  503    0  0.00000000000E+00 -0.00000000000E+00 -0.14306521385E+04  0.14306521385E+04  0.00000000000E+00 0. -1.
         25    2    1    2    0    0 -0.10133272645E+02 -0.54552316985E+02 -0.54164683944E+03  0.55864547395E+03  0.12499931358E+03 0.  0.
          4    1    3    3  501    0  0.42618206096E+02  0.18183074650E+02 -0.16132022658E+03  0.16784744293E+03  0.12700000000E+01 0.  1.
         -4    1    3    3    0  501 -0.52751478741E+02 -0.72735391635E+02 -0.38032661286E+03  0.39079803102E+03  0.12700000000E+01 0.  1.
          2    1    1    2  502    0  0.12662738461E+01  0.75341710116E+02  0.86285066411E+02  0.11455605361E+03  0.00000000000E+00 0. -1.
          1    1    1    2  503    0  0.88669987988E+01 -0.20789393131E+02 -0.86622308522E+03  0.86651789128E+03  0.00000000000E+00 0. -1.
<mgrwt>
<rscale>  0 0.41126525E+02</rscale>
<asrwt>0</asrwt>
<pdfrwt beam="2">  1        2 0.22010032E+00 0.22601383E+02</pdfrwt>
<pdfrwt beam="1">  1        1 0.16779582E-01 0.74835730E+02</pdfrwt>
<totfact> 0.75449554E+02</totfact>
</mgrwt>
</event>
<event>
 7    1  0.4252091E-004  0.4871296E+02  0.7546771E-02  0.1492724E+00
          1   -1    0    0  502    0 -0.00000000000E+00  0.00000000000E+00  0.78817241754E+03  0.78817241754E+03  0.00000000000E+00 0. -1.
          2   -1    0    0  503    0  0.00000000000E+00 -0.00000000000E+00 -0.65509745381E+03  0.65509745381E+03  0.00000000000E+00 0. -1.
         25    2    1    2    0    0  0.17610242163E+00  0.24399663225E+02  0.41799254328E+03  0.43696562703E+03  0.12500327352E+03 0.  0.
          4    1    3    3  501    0 -0.81066176323E+01  0.36271699267E+02  0.42056697385E+03  0.42220794143E+03  0.12700000000E+01 0. -1.
         -4    1    3    3    0  501  0.82827200539E+01 -0.11872036042E+02 -0.25744305723E+01  0.14757685593E+02  0.12700000000E+01 0. -1.
          2    1    1    2  502    0 -0.35281874422E+02  0.94713978482E+01  0.35884318954E+03  0.36069786903E+03  0.00000000000E+00 0. -1.
          1    1    1    2  503    0  0.35105772000E+02 -0.33871061073E+02 -0.64376076909E+03  0.64560637530E+03  0.00000000000E+00 0. -1.
<mgrwt>
<rscale>  0 0.42184544E+02</rscale>
<asrwt>0</asrwt>
<pdfrwt beam="2">  1        2 0.10078422E+00 0.48712956E+02</pdfrwt>
<pdfrwt beam="1">  1        1 0.12125730E+00 0.36531056E+02</pdfrwt>
<totfact> 0.16966778E+02</totfact>
</mgrwt>
</event>
<event>
 7    1  0.4252091E-004  0.9111112E+02  0.7546771E-02  0.1394075E+00
          1   -1    0    0  502    0 -0.00000000000E+00  0.00000000000E+00  0.17942989622E+04  0.17942989622E+04  0.00000000000E+00 0. -1.
          2   -1    0    0  503    0  0.00000000000E+00 -0.00000000000E+00 -0.46132018112E+03  0.46132018112E+03  0.00000000000E+00 0. -1.
         25    2    1    2    0    0 -0.11195323506E+03 -0.46099151359E+02  0.52976643603E+03  0.55761808867E+03  0.12500718967E+03 0.  0.
          4    1    3    3  501    0  0.62368909154E+01  0.28517441787E+02  0.50077094778E+02  0.57978199487E+02  0.12700000000E+01 0. -1.
         -4    1    3    3    0  501 -0.11819012597E+03 -0.74616593146E+02  0.47968934125E+03  0.49963988918E+03  0.12700000000E+01 0. -1.
          2    1    1    2  502    0  0.86972427474E+02  0.13951784133E+02  0.12481251106E+04  0.12512294542E+04  0.00000000000E+00 0. -1.
          1    1    1    2  503    0  0.24980807586E+02  0.32147367226E+02 -0.44491276557E+03  0.44677160041E+03  0.00000000000E+00 0. -1.
<mgrwt>
<rscale>  0 0.60904401E+02</rscale>
<asrwt>0</asrwt>
<pdfrwt beam="2">  1        2 0.70972337E-01 0.40712332E+02</pdfrwt>
<pdfrwt beam="1">  1        1 0.27604599E+00 0.91111118E+02</pdfrwt>
<totfact> 0.49151860E+01</totfact>
</mgrwt>
</event>
<event>
 7    1  0.4252091E-004  0.7611371E+02  0.7546771E-02  0.1352683E+00
          1   -1    0    0  502    0 -0.00000000000E+00  0.00000000000E+00  0.11470836850E+04  0.11470836850E+04  0.00000000000E+00 0. -1.
          2   -1    0    0  503    0  0.00000000000E+00 -0.00000000000E+00 -0.21701644455E+04  0.21701644455E+04  0.00000000000E+00 0. -1.
         25    2    1    2    0    0 -0.10525480843E+03  0.81624178427E+02  0.45020632980E+03  0.48585193575E+03  0.12500113148E+03 0.  0.
          4    1    3    3  501    0  0.18724493092E+02  0.78898515222E+01  0.16488641583E+03  0.16613849471E+03  0.12700000000E+01 0.  1.
         -4    1    3    3    0  501 -0.12397930153E+03  0.73734326905E+02  0.28531991398E+03  0.31971344104E+03  0.12700000000E+01 0.  1.
          2    1    1    2  502    0  0.65950652187E+02 -0.25477427530E+02  0.67666672869E+03  0.68035024036E+03  0.00000000000E+00 0. -1.
          3    1    1    2  503    0  0.39304156248E+02 -0.56146750897E+02 -0.21499538189E+04  0.21510459544E+04  0.00000000000E+00 0. -1.
<mgrwt>
<rscale>  0 0.72225892E+02</rscale>
<asrwt>0</asrwt>
<pdfrwt beam="2">  1        2 0.33387145E+00 0.68536664E+02</pdfrwt>
<pdfrwt beam="1">  1        1 0.17647441E+00 0.76113707E+02</pdfrwt>
<totfact> 0.13334714E+01</totfact>
</mgrwt>
</event>
<event>
 7    1  0.4252091E-004  0.4485556E+02  0.7546771E-02  0.1539277E+00
          1   -1    0    0  502    0 -0.00000000000E+00  0.00000000000E+00  0.51365166214E+03  0.51365166214E+03  0.00000000000E+00 0. -1.
          2   -1    0    0  503    0  0.00000000000E+00 -0.00000000000E+00 -0.14070993091E+04  0.14070993091E+04  0.00000000000E+00 0. -1.
         25    2    1    2    0    0  0.44144707277E+02 -0.46492368142E+02 -0.72034985403E+02  0.15787652221E+03  0.12500264663E+03 0.  0.
          4    1    3    3  501    0  0.29547117941E+02 -0.13313997350E+02 -0.10436541981E+03  0.10928883043E+03  0.12700000000E+01 0. -1.
         -4    1    3    3    0  501  0.14597589336E+02 -0.33178370792E+02  0.32330434411E+02  0.48587691775E+02  0.12700000000E+01 0. -1.
          2    1    1    2  502    0 -0.15492180766E+02  0.41956217918E+02  0.46950521822E+03  0.47163066251E+03  0.00000000000E+00 0. -1.
          1    1    1    2  503    0 -0.28652526511E+02  0.45361502235E+01 -0.12909178798E+04  0.12912437865E+04  0.00000000000E+00 0. -1.
<mgrwt>
<rscale>  0 0.36072591E+02</rscale>
<asrwt>0</asrwt>
<pdfrwt beam="2">  1        2 0.21647682E+00 0.29009377E+02</pdfrwt>
<pdfrwt beam="1">  1        1 0.79023333E-01 0.44855559E+02</pdfrwt>
<totfact> 0.11376639E+02</totfact>
</mgrwt>
</event>
<event>
 7    1  0.4252091E-004  0.3189254E+02  0.7546771E-02  0.1648459E+00
          2   -1    0    0  503    0  0.00000000000E+00  0.00000000000E+00  0.44167920521E+03  0.44167920521E+03  0.00000000000E+00 0. -1.
         -2   -1    0    0    0  501 -0.00000000000E+00 -0.00000000000E+00 -0.61249210723E+03  0.61249210723E+03  0.00000000000E+00 0.  1.
         25    2    1    2    0    0  0.47011356404E+02 -0.63114476440E+01 -0.22286091165E+03  0.25989227187E+03  0.12500841985E+03 0.  0.
          4    1    3    3  502    0  0.43259512074E+02  0.31452324458E+02 -0.21442108912E+03  0.22099468423E+03  0.12700000000E+01 0. -1.
         -4    1    3    3    0  502  0.37518443299E+01 -0.37763772102E+02 -0.84398225247E+01  0.38897587631E+02  0.12700000000E+01 0. -1.
          1    1    1    2  503    0 -0.19255928886E+02 -0.84456990413E+01  0.42223579074E+03  0.42275901364E+03  0.00000000000E+00 0. -1.
         -1    1    1    2    0  501 -0.27755427518E+02  0.14757146685E+02 -0.37018778111E+03  0.37152002694E+03  0.00000000000E+00 0.  1.
<mgrwt>
<rscale>  0 0.25895824E+02</rscale>
<asrwt>0</asrwt>
<pdfrwt beam="1">  1        2 0.67950647E-01 0.21026665E+02</pdfrwt>
<pdfrwt beam="2">  1       -2 0.94229555E-01 0.31892537E+02</pdfrwt>
<totfact> 0.76212339E+01</totfact>
</mgrwt>
</event>
<event>
 7    1  0.4252091E-004  0.7136394E+02  0.7546771E-02  0.1361503E+00
          2   -1    0    0  503    0  0.00000000000E+00  0.00000000000E+00  0.23996075051E+03  0.23996075051E+03  0.00000000000E+00 0. -1.
         -2   -1    0    0    0  501 -0.00000000000E+00 -0.00000000000E+00 -0.52397912456E+03  0.52397912456E+03  0.00000000000E+00 0.  1.
         25    2    1    2    0    0 -0.70719568659E+01  0.29586526799E+02  0.13369669144E+03  0.18555525886E+03  0.12502229260E+03 0.  0.
          4    1    3    3  502    0 -0.43280670026E+02  0.42439438563E+02  0.13403573004E+03  0.14711054405E+03  0.12700000000E+01 0. -1.
         -4    1    3    3    0  502  0.36208713160E+02 -0.12852911765E+02 -0.33903860106E+00  0.38444714809E+02  0.12700000000E+01 0. -1.
          1    1    1    2  503    0  0.66937644393E+02  0.11114711024E+02  0.62794977196E+02  0.92452118413E+02  0.00000000000E+00 0. -1.
         -1    1    1    2    0  501 -0.59865687527E+02 -0.40701237822E+02 -0.48051004268E+03  0.48593249781E+03  0.00000000000E+00 0.  1.
<mgrwt>
<rscale>  0 0.69586920E+02</rscale>
<asrwt>0</asrwt>
<pdfrwt beam="1">  1        2 0.36917038E-01 0.67854145E+02</pdfrwt>
<pdfrwt beam="2">  1       -2 0.80612174E-01 0.71363944E+02</pdfrwt>
<totfact> 0.19832621E+02</totfact>
</mgrwt>
</event>
<event>
 7    1  0.4252091E-004  0.1383291E+03  0.7546771E-02  0.1277529E+00
          2   -1    0    0  503    0  0.00000000000E+00  0.00000000000E+00  0.28516803300E+04  0.28516803300E+04  0.00000000000E+00 0. -1.
          1   -1    0    0  502    0 -0.00000000000E+00 -0.00000000000E+00 -0.16302509070E+03  0.16302509070E+03  0.00000000000E+00 0. -1.
         25    2    1    2    0    0 -0.68725186758E+02 -0.10252609166E+01  0.10428239636E+03  0.17669364054E+03  0.12498648712E+03 0.  0.
          4    1    3    3  501    0 -0.76446138146E+02 -0.47427911350E+02  0.90605518869E+02  0.12768865166E+03  0.12700000000E+01 0.  1.
         -4    1    3    3    0  501  0.77209513876E+01  0.46402650434E+02  0.13676877493E+02  0.49004988884E+02  0.12700000000E+01 0.  1.
          2    1    1    2  502    0 -0.71850154890E+02 -0.18619332968E+02 -0.11393179519E+03  0.13597638866E+03  0.00000000000E+00 0. -1.
          1    1    1    2  503    0  0.14057534165E+03  0.19644593885E+02  0.26983046381E+04  0.27020353915E+04  0.00000000000E+00 0. -1.
<mgrwt>
<rscale>  0 0.10132752E+03</rscale>
<asrwt>0</asrwt>
<pdfrwt beam="1">  1        2 0.43872002E+00 0.13832909E+03</pdfrwt>
<pdfrwt beam="2">  1        1 0.25080785E-01 0.74223476E+02</pdfrwt>
<totfact> 0.70682202E+01</totfact>
</mgrwt>
</event>
<event>
 7    1  0.4252091E-004  0.8227052E+02  0.7546771E-02  0.1492850E+00
          1   -1    0    0  502    0 -0.00000000000E+00  0.00000000000E+00  0.29186903990E+03  0.29186903990E+03  0.00000000000E+00 0. -1.
          2   -1    0    0  503    0  0.00000000000E+00 -0.00000000000E+00 -0.22304250114E+03  0.22304250114E+03  0.00000000000E+00 0. -1.
         25    2    1    2    0    0  0.67243422486E+02  0.41165476030E+02  0.10693594471E+03  0.18241910079E+03  0.12500063111E+03 0.  0.
          4    1    3    3  501    0  0.92739055258E+02  0.17219556448E+02  0.11267606754E+03  0.14695085774E+03  0.12700000000E+01 0.  1.
         -4    1    3    3    0  501 -0.25495632773E+02  0.23945919581E+02 -0.57401228315E+01  0.35468243052E+02  0.12700000000E+01 0.  1.
          2    1    1    2  502    0 -0.80483155781E+02 -0.24084348073E+02  0.13447535898E+03  0.15855981950E+03  0.00000000000E+00 0. -1.
          1    1    1    2  503    0  0.13239733295E+02 -0.17081127956E+02 -0.17258476494E+03  0.17393262074E+03  0.00000000000E+00 0. -1.
<mgrwt>
<rscale>  0 0.42166178E+02</rscale>
<asrwt>0</asrwt>
<pdfrwt beam="2">  1        2 0.34314231E-01 0.21611466E+02</pdfrwt>
<pdfrwt beam="1">  1        1 0.44902929E-01 0.82270520E+02</pdfrwt>
<totfact> 0.17617936E+03</totfact>
</mgrwt>
</event>
<event>
 7    1  0.4252091E-004  0.8553593E+02  0.7546771E-02  0.1414450E+00
         -2   -1    0    0    0  501 -0.00000000000E+00  0.00000000000E+00  0.35515464231E+03  0.35515464231E+03  0.00000000000E+00 0.  1.
          2   -1    0    0  503    0  0.00000000000E+00 -0.00000000000E+00 -0.17591326999E+04  0.17591326999E+04  0.00000000000E+00 0. -1.
         25    2    1    2    0    0 -0.59308838478E+02 -0.94365010665E+01  0.45184333398E+02  0.14586448651E+03  0.12501295360E+03 0.  0.
          4    1    3    3  502    0 -0.79093818981E+02  0.12231228626E+01  0.74657897951E+02  0.10877841172E+03  0.12700000000E+01 0. -1.
         -4    1    3    3    0  502  0.19784980503E+02 -0.10659623929E+02 -0.29473564553E+02  0.37086074789E+02  0.12700000000E+01 0. -1.
          1    1    1    2  503    0  0.83941507868E+02 -0.18094111356E+02 -0.17063934498E+04  0.17085526562E+04  0.00000000000E+00 0. -1.
         -1    1    1    2    0  501 -0.24632669391E+02  0.27530612423E+02  0.25723105874E+03  0.25987019953E+03  0.00000000000E+00 0.  1.
<mgrwt>
<rscale>  0 0.56212619E+02</rscale>
<asrwt>0</asrwt>
<pdfrwt beam="2">  1        2 0.27063580E+00 0.85535926E+02</pdfrwt>
<pdfrwt beam="1">  1       -2 0.54639176E-01 0.36941887E+02</pdfrwt>
<totfact> 0.36152850E+01</totfact>
</mgrwt>
</event>
<event>
 7    1  0.4252091E-004  0.7847030E+02  0.7546771E-02  0.1348611E+00
          1   -1    0    0  503    0  0.00000000000E+00  0.00000000000E+00  0.43719367540E+03  0.43719367540E+03  0.00000000000E+00 0. -1.
         -1   -1    0    0    0  501 -0.00000000000E+00 -0.00000000000E+00 -0.91596043004E+03  0.91596043004E+03  0.00000000000E+00 0.  1.
         25    2    1    2    0    0 -0.10019367772E+02 -0.19075588203E+01 -0.44907549661E+03  0.46626218757E+03  0.12501039714E+03 0.  0.
          4    1    3    3  502    0  0.47488393932E+02  0.12585240866E+02 -0.32547317001E+03  0.32916247226E+03  0.12700000000E+01 0.  1.
         -4    1    3    3    0  502 -0.57507761703E+02 -0.14492799686E+02 -0.12360232660E+03  0.13709971532E+03  0.12700000000E+01 0.  1.
          2    1    1    2  503    0  0.77001832561E+02  0.17731216886E+02  0.42233125856E+03  0.42965959809E+03  0.00000000000E+00 0. -1.
         -2    1    1    2    0  501 -0.66982464790E+02 -0.15823658066E+02 -0.45202251659E+03  0.45723231977E+03  0.00000000000E+00 0.  1.
<mgrwt>
<rscale>  0 0.73490194E+02</rscale>
<asrwt>0</asrwt>
<pdfrwt beam="1">  1        1 0.67260566E-01 0.78470302E+02</pdfrwt>
<pdfrwt beam="2">  1       -1 0.14091699E+00 0.68826149E+02</pdfrwt>
<totfact> 0.27036626E+01</totfact>
</mgrwt>
</event>
<event>
 7    1  0.4252091E-004  0.2956873E+02  0.7546771E-02  0.1637198E+00
         -1   -1    0    0    0  501 -0.00000000000E+00  0.00000000000E+00  0.17102996003E+03  0.17102996003E+03  0.00000000000E+00 0.  1.
          1   -1    0    0  503    0  0.00000000000E+00 -0.00000000000E+00 -0.14836745080E+04  0.14836745080E+04  0.00000000000E+00 0. -1.
         25    2    1    2    0    0  0.22675124436E+02  0.67754842598E+01  0.11614584705E+03  0.17226329862E+03  0.12499887123E+03 0.  0.
          4    1    3    3  502    0  0.97092292699E+01 -0.10629649916E+02  0.13956325639E+03  0.14030956498E+03  0.12700000000E+01 0. -1.
         -4    1    3    3    0  502  0.12965895166E+02  0.17405134176E+02 -0.23417409341E+02  0.31953733638E+02  0.12700000000E+01 0. -1.
          2    1    1    2  503    0  0.72023602530E+01 -0.23084428977E+02 -0.14446756775E+04  0.14448780496E+04  0.00000000000E+00 0. -1.
         -2    1    1    2    0  501 -0.29877484689E+02  0.16308944717E+02  0.15885282539E+02  0.37563119818E+02  0.00000000000E+00 0.  1.
<mgrwt>
<rscale>  0 0.26740017E+02</rscale>
<asrwt>0</asrwt>
<pdfrwt beam="2">  1        1 0.22825762E+00 0.24181912E+02</pdfrwt>
<pdfrwt beam="1">  1       -1 0.26312301E-01 0.29568734E+02</pdfrwt>
<totfact> 0.11317024E+02</totfact>
</mgrwt>
</event>
<event>
 7    1  0.4252091E-004  0.2374584E+03  0.7546771E-02  0.1246126E+00
          1   -1    0    0  502    0 -0.00000000000E+00  0.00000000000E+00  0.65436551152E+03  0.65436551152E+03  0.00000000000E+00 0. -1.
          2   -1    0    0  503    0  0.00000000000E+00 -0.00000000000E+00 -0.16345902045E+04  0.16345902045E+04  0.00000000000E+00 0. -1.
         25    2    1    2    0    0  0.17372360408E+03  0.64064283525E+02 -0.60626285823E+02  0.23148401336E+03  0.12500071548E+03 0.  0.
          4    1    3    3  501    0  0.63801677955E+02  0.49821795476E+02 -0.85638367921E+02  0.11784909153E+03  0.12700000000E+01 0. -1.
         -4    1    3    3    0  501  0.10992192613E+03  0.14242488050E+02  0.25012082097E+02  0.11363492183E+03  0.12700000000E+01 0. -1.
          2    1    1    2  502    0  0.57417188920E+02  0.12765664521E+02  0.55741459210E+03  0.56050934271E+03  0.00000000000E+00 0. -1.
          1    1    1    2  503    0 -0.23114079300E+03 -0.76829948047E+02 -0.14770129992E+04  0.14969623599E+04  0.00000000000E+00 0. -1.
<mgrwt>
<rscale>  0 0.11818253E+03</rscale>
<asrwt>0</asrwt>
<pdfrwt beam="2">  1        2 0.25147541E+00 0.23745844E+03</pdfrwt>
<pdfrwt beam="1">  1        1 0.10067162E+00 0.58819179E+02</pdfrwt>
<totfact> 0.52998472E+01</totfact>
</mgrwt>
</event>
<event>
 7    1  0.4252091E-004  0.1043087E+03  0.7546771E-02  0.1361550E+00
          1   -1    0    0  502    0 -0.00000000000E+00  0.00000000000E+00  0.22497626918E+03  0.22497626918E+03  0.00000000000E+00 0. -1.
          2   -1    0    0  503    0  0.00000000000E+00 -0.00000000000E+00 -0.11107287606E+04  0.11107287606E+04  0.00000000000E+00 0. -1.
         25    2    1    2    0    0 -0.34933968108E+02 -0.95291166342E+02 -0.33087472252E+03  0.36797597589E+03  0.12500979290E+03 0.  0.
          4    1    3    3  501    0  0.35215726637E+02  0.79471100792E+01 -0.79067498223E+02  0.86928626680E+02  0.12700000000E+01 0.  1.
         -4    1    3    3    0  501 -0.70149694746E+02 -0.10323827642E+03 -0.25180722430E+03  0.28104734921E+03  0.12700000000E+01 0.  1.
          2    1    1    2  502    0 -0.10596674015E+02  0.10425627575E+03  0.19235956427E+03  0.21905219127E+03  0.00000000000E+00 0. -1.
          3    1    1    2  503    0  0.45530642124E+02 -0.89651094073E+01 -0.74723733319E+03  0.74867686266E+03  0.00000000000E+00 0. -1.
<mgrwt>
<rscale>  0 0.69573211E+02</rscale>
<asrwt>0</asrwt>
<pdfrwt beam="2">  1        2 0.17088135E+00 0.46404876E+02</pdfrwt>
<pdfrwt beam="1">  1        1 0.34611733E-01 0.10430869E+03</pdfrwt>
<totfact> 0.42559753E+02</totfact>
</mgrwt>
</event>
<event>
 7    1  0.4252091E-004  0.5018278E+02  0.7546771E-02  0.1520709E+00
          1   -1    0    0  502    0 -0.00000000000E+00  0.00000000000E+00  0.35807904953E+03  0.35807904953E+03  0.00000000000E+00 0. -1.
          2   -1    0    0  503    0  0.00000000000E+00 -0.00000000000E+00 -0.13104112218E+03  0.13104112218E+03  0.00000000000E+00 0. -1.
         25    2    1    2    0    0 -0.62615088940E+02 -0.20806712707E+02  0.22447172918E+03  0.26526618077E+03  0.12500008323E+03 0.  0.
          4    1    3    3  501    0 -0.28649359149E+02 -0.19070503854E+02  0.22842222839E+03  0.23100389005E+03  0.12700000000E+01 0.  1.
         -4    1    3    3    0  501 -0.33965729792E+02 -0.17362088530E+01 -0.39504992133E+01  0.34262290722E+02  0.12700000000E+01 0.  1.
          2    1    1    2  502    0  0.12966781848E+02  0.26284567101E+02  0.10547075357E+03  0.10946732735E+03  0.00000000000E+00 0. -1.
          1    1    1    2  503    0  0.49648307092E+02 -0.54778543942E+01 -0.10290455539E+03  0.11438666358E+03  0.00000000000E+00 0. -1.
<mgrwt>
<rscale>  0 0.38351084E+02</rscale>
<asrwt>0</asrwt>
<pdfrwt beam="2">  1        2 0.20160173E-01 0.50182776E+02</pdfrwt>
<pdfrwt beam="1">  1        1 0.55089084E-01 0.29308973E+02</pdfrwt>
<totfact> 0.24852594E+03</totfact>
</mgrwt>
</event>
<event>
 7    1  0.4252091E-004  0.1323726E+03  0.7546771E-02  0.1363628E+00
          1   -1    0    0  502    0 -0.00000000000E+00  0.00000000000E+00  0.19454047064E+03  0.19454047064E+03  0.00000000000E+00 0. -1.
          2   -1    0    0  503    0  0.00000000000E+00 -0.00000000000E+00 -0.13410856106E+04  0.13410856106E+04  0.00000000000E+00 0. -1.
         25    2    1    2    0    0  0.97731906957E+02  0.50960973508E+02 -0.39363645423E+03  0.42746148226E+03  0.12500045704E+03 0.  0.
          4    1    3    3  501    0  0.66334129574E+02 -0.32541430634E+02 -0.13548648629E+03  0.15432874756E+03  0.12700000000E+01 0.  1.
         -4    1    3    3    0  501  0.31397777383E+02  0.83502404142E+02 -0.25814996794E+03  0.27313273471E+03  0.12700000000E+01 0.  1.
          2    1    1    2  502    0 -0.10209472689E+03 -0.86631621843E+02  0.15198750502E+03  0.20255511063E+03  0.00000000000E+00 0. -1.
          1    1    1    2  503    0  0.43628199360E+01  0.35670648335E+02 -0.90489619071E+03  0.90560948830E+03  0.00000000000E+00 0. -1.
<mgrwt>
<rscale>  0 0.68971020E+02</rscale>
<asrwt>0</asrwt>
<pdfrwt beam="2">  1        2 0.20632086E+00 0.35936463E+02</pdfrwt>
<pdfrwt beam="1">  1        1 0.29929303E-01 0.13237256E+03</pdfrwt>
<totfact> 0.39543048E+02</totfact>
</mgrwt>
</event>
<event>
 7    1  0.4252091E-004  0.5468218E+02  0.7546771E-02  0.1491703E+00
         -2   -1    0    0    0  501 -0.00000000000E+00  0.00000000000E+00  0.62834029245E+02  0.62834029245E+02  0.00000000000E+00 0.  1.
          2   -1    0    0  503    0  0.00000000000E+00 -0.00000000000E+00 -0.18403263209E+04  0.18403263209E+04  0.00000000000E+00 0. -1.
         25    2    1    2    0    0 -0.21645181889E+02 -0.22966042667E+02 -0.53439538383E+03  0.54972752665E+03  0.12500389708E+03 0.  0.
          4    1    3    3  502    0 -0.49945088396E+02 -0.48904517949E+02 -0.46659168721E+03  0.47180035948E+03  0.12700000000E+01 0. -1.
         -4    1    3    3    0  502  0.28299906507E+02  0.25938475281E+02 -0.67803696620E+02  0.77927167173E+02  0.12700000000E+01 0. -1.
          1    1    1    2  503    0  0.14568739094E+02  0.54967969806E+02 -0.12927161479E+04  0.12939662920E+04  0.00000000000E+00 0. -1.
         -1    1    1    2    0  501  0.70764427955E+01 -0.32001927138E+02  0.49619240055E+02  0.59466531485E+02  0.00000000000E+00 0.  1.
<mgrwt>
<rscale>  0 0.42334470E+02</rscale>
<asrwt>0</asrwt>
<pdfrwt beam="2">  1        2 0.28312711E+00 0.54682178E+02</pdfrwt>
<pdfrwt beam="1">  1       -2 0.96667743E-02 0.32774981E+02</pdfrwt>
<totfact> 0.63776382E+02</totfact>
</mgrwt>
</event>
<event>
 7    1  0.4252091E-004  0.4597844E+02  0.7546771E-02  0.1589257E+00
          2   -1    0    0  503    0  0.00000000000E+00  0.00000000000E+00  0.11502177181E+04  0.11502177181E+04  0.00000000000E+00 0. -1.
         -2   -1    0    0    0  501 -0.00000000000E+00 -0.00000000000E+00 -0.18895902539E+02  0.18895902539E+02  0.00000000000E+00 0.  1.
         25    2    1    2    0    0  0.27430256042E+02  0.15244095591E+02  0.52338452051E+03  0.53902073539E+03  0.12500878159E+03 0.  0.
          4    1    3    3  502    0  0.17766503929E+02 -0.53547679444E+02  0.17852639150E+03  0.18723324491E+03  0.12700000000E+01 0.  1.
         -4    1    3    3    0  502  0.96637521125E+01  0.68791775035E+02  0.34485812901E+03  0.35178749048E+03  0.12700000000E+01 0.  1.
          1    1    1    2  503    0 -0.47084284230E+02 -0.89033378218E+01  0.60755094572E+03  0.60943773340E+03  0.00000000000E+00 0. -1.
         -1    1    1    2    0  501  0.19654028188E+02 -0.63407577692E+01  0.38634935542E+00  0.20655151874E+02  0.00000000000E+00 0.  1.
<mgrwt>
<rscale>  0 0.30814373E+02</rscale>
<asrwt>0</asrwt>
<pdfrwt beam="1">  1        2 0.17695652E+00 0.45978445E+02</pdfrwt>
<pdfrwt beam="2">  1       -2 0.29070628E-02 0.20651538E+02</pdfrwt>
<totfact> 0.75530809E+03</totfact>
</mgrwt>
</event>
<event>
 7    1  0.4252091E-004  0.7693782E+02  0.7546771E-02  0.1367886E+00
          2   -1    0    0  503    0  0.00000000000E+00  0.00000000000E+00  0.24739116205E+04  0.24739116205E+04  0.00000000000E+00 0. -1.
          1   -1    0    0  502    0 -0.00000000000E+00 -0.00000000000E+00 -0.96578442038E+02  0.96578442038E+02  0.00000000000E+00 0. -1.
         25    2    1    2    0    0  0.97878331838E+02 -0.17492298048E+02  0.17414716079E+03  0.23630689024E+03  0.12501025728E+03 0.  0.
          4    1    3    3  501    0 -0.25974566194E+01 -0.15258485987E+02  0.12217136463E+03  0.12315446972E+03  0.12700000000E+01 0. -1.
         -4    1    3    3    0  501  0.10047578846E+03 -0.22338120614E+01  0.51975796164E+02  0.11315242052E+03  0.12700000000E+01 0. -1.
          2    1    1    2  502    0 -0.45422484935E+02 -0.38701209079E+02 -0.51114258772E+02  0.78572598096E+02  0.00000000000E+00 0. -1.
          1    1    1    2  503    0 -0.52455846903E+02  0.56193507127E+02  0.22543002764E+04  0.22556105742E+04  0.00000000000E+00 0. -1.
<mgrwt>
<rscale>  0 0.67758300E+02</rscale>
<asrwt>0</asrwt>
<pdfrwt beam="1">  1        2 0.38060174E+00 0.76937822E+02</pdfrwt>
<pdfrwt beam="2">  1        1 0.14858224E-01 0.59673995E+02</pdfrwt>
<totfact> 0.23398550E+02</totfact>
</mgrwt>
</event>
<event>
 7    1  0.4252091E-004  0.8848289E+02  0.7546771E-02  0.1399661E+00
         -1   -1    0    0    0  501 -0.00000000000E+00  0.00000000000E+00  0.15128089275E+02  0.15128089275E+02  0.00000000000E+00 0.  1.
          1   -1    0    0  503    0  0.00000000000E+00 -0.00000000000E+00 -0.14721500398E+04  0.14721500398E+04  0.00000000000E+00 0. -1.
         25    2    1    2    0    0 -0.86038832232E+02  0.35858914248E+02 -0.10092744827E+04  0.10212476645E+04  0.12499307334E+03 0.  0.
          4    1    3    3  502    0 -0.84825417468E+02  0.58484324925E+01 -0.31362486843E+03  0.32494880613E+03  0.12700000000E+01 0. -1.
         -4    1    3    3    0  502 -0.12134147635E+01  0.30010481755E+02 -0.69564961425E+03  0.69629885832E+03  0.12700000000E+01 0. -1.
          2    1    1    2  503    0  0.26291922425E+02  0.30277282848E+02 -0.13456528788E+03  0.14041294721E+03  0.00000000000E+00 0. -1.
         -2    1    1    2    0  501  0.59746909806E+02 -0.66136197096E+02 -0.31318217999E+03  0.32561751744E+03  0.00000000000E+00 0.  1.
<mgrwt>
<rscale>  0 0.59566181E+02</rscale>
<asrwt>0</asrwt>
<pdfrwt beam="2">  1        1 0.22648463E+00 0.40099614E+02</pdfrwt>
<pdfrwt beam="1">  1       -1 0.23273982E-02 0.88482895E+02</pdfrwt>
<totfact> 0.43216794E+03</totfact>
</mgrwt>
</event>
<event>
 7    1  0.4252091E-004  0.1993664E+03  0.7546771E-02  0.1188974E+00
          1   -1    0    0  502    0 -0.00000000000E+00  0.00000000000E+00  0.27016650066E+04  0.27016650066E+04  0.00000000000E+00 0. -1.
          2   -1    0    0  503    0  0.00000000000E+00 -0.00000000000E+00 -0.79601504524E+03  0.79601504524E+03  0.00000000000E+00 0. -1.
         25    2    1    2    0    0 -0.10530504989E+03 -0.86076277476E+02  0.13232512612E+03  0.22722845732E+03  0.12499821493E+03 0.  0.
          4    1    3    3  501    0 -0.30048476242E+02 -0.93231079819E+02  0.35088438253E+02  0.10405650661E+03  0.12700000000E+01 0.  1.
         -4    1    3    3    0  501 -0.75256573650E+02  0.71548023436E+01  0.97236687869E+02  0.12317195071E+03  0.12700000000E+01 0.  1.
          2    1    1    2  502    0  0.49664143164E+02  0.20136526218E+03  0.25121103773E+04  0.25206572642E+04  0.00000000000E+00 0. -1.
          1    1    1    2  503    0  0.55640906728E+02 -0.11528898470E+03 -0.73878554209E+03  0.74979433027E+03  0.00000000000E+00 0. -1.
<mgrwt>
<rscale>  0 0.15975479E+03</rscale>
<asrwt>0</asrwt>
<pdfrwt beam="2">  1        2 0.12246385E+00 0.12801352E+03</pdfrwt>
<pdfrwt beam="1">  1        1 0.41564077E+00 0.19936639E+03</pdfrwt>
<totfact> 0.61269000E+00</totfact>
</mgrwt>
</event>
<event>
 7    1  0.4252091E-004  0.2726299E+03  0.7546771E-02  0.1260546E+00
          1   -1    0    0  502    0 -0.00000000000E+00  0.00000000000E+00  0.56043805455E+03  0.56043805455E+03  0.00000000000E+00 0. -1.
          2   -1    0    0  503    0  0.00000000000E+00 -0.00000000000E+00 -0.12523444061E+04  0.12523444061E+04  0.00000000000E+00 0. -1.
         25    2    1    2    0    0  0.51754396403E+02 -0.29790503640E+03 -0.38070723138E+03  0.50198624174E+03  0.12500505034E+03 0.  0.
          4    1    3    3  501    0  0.61048926531E+02 -0.25452640605E+03 -0.24246081580E+03  0.35679058691E+03  0.12700000000E+01 0.  1.
         -4    1    3    3    0  501 -0.92945301280E+01 -0.43378630350E+02 -0.13824641557E+03  0.14519565483E+03  0.12700000000E+01 0.  1.
          2    1    1    2  502    0  0.10749234973E+02  0.43072050935E+02  0.47751923287E+03  0.47957832038E+03  0.00000000000E+00 0. -1.
          1    1    1    2  503    0 -0.62503631376E+02  0.25483298547E+03 -0.78871835301E+03  0.83121789850E+03  0.00000000000E+00 0. -1.
<mgrwt>
<rscale>  0 0.11001313E+03</rscale>
<asrwt>0</asrwt>
<pdfrwt beam="2">  1        2 0.19266837E+00 0.27262992E+03</pdfrwt>
<pdfrwt beam="1">  1        1 0.86221239E-01 0.44393103E+02</pdfrwt>
<totfact> 0.10447397E+02</totfact>
</mgrwt>
</event>
<event>
 7    1  0.4252091E-004  0.1600272E+03  0.7546771E-02  0.1289735E+00
         -2   -1    0    0    0  501 -0.00000000000E+00  0.00000000000E+00  0.15180127373E+03  0.15180127373E+03  0.00000000000E+00 0.  1.
          2   -1    0    0  503    0  0.00000000000E+00 -0.00000000000E+00 -0.31393327219E+04  0.31393327219E+04  0.00000000000E+00 0. -1.
         25    2    1    2    0    0 -0.12544709975E+03 -0.13146318143E+03  0.18023449228E+02  0.22129448198E+03  0.12500744028E+03 0.  0.
          4    1    3    3  502    0  0.91716773833E+01 -0.31785968650E+02  0.40471306864E+02  0.52287733249E+02  0.12700000000E+01 0. -1.
         -4    1    3    3    0  502 -0.13461877713E+03 -0.99677212782E+02 -0.22447857636E+02  0.16900674873E+03  0.12700000000E+01 0. -1.
          3    1    1    2  503    0  0.69637057151E+02  0.14382261012E+03 -0.30083672923E+04  0.30126081770E+04  0.00000000000E+00 0. -1.
         -1    1    1    2    0  501  0.55810042600E+02 -0.12359428685E+02  0.28123948472E+01  0.57231336671E+02  0.00000000000E+00 0.  1.
<mgrwt>
<rscale>  0 0.95642584E+02</rscale>
<asrwt>0</asrwt>
<pdfrwt beam="2">  1        2 0.48297422E+00 0.16002717E+03</pdfrwt>
<pdfrwt beam="1">  1       -2 0.23354044E-01 0.57162193E+02</pdfrwt>
<totfact> 0.28797199E+01</totfact>
</mgrwt>
</event>
<event>
 7    1  0.4252091E-004  0.1201071E+03  0.7546771E-02  0.1400015E+00
         -1   -1    0    0    0  502 -0.00000000000E+00  0.00000000000E+00  0.29289880607E+03  0.29289880607E+03  0.00000000000E+00 0.  1.
         -2   -1    0    0    0  501  0.00000000000E+00 -0.00000000000E+00 -0.15971464317E+04  0.15971464317E+04  0.00000000000E+00 0.  1.
         25    2    1    2    0    0 -0.38707459014E+02  0.13251536858E+03 -0.16464267814E+03  0.24858020828E+03  0.12500527265E+03 0.  0.
          4    1    3    3  503    0  0.31461436192E+02  0.16991480895E+02 -0.28709288733E+00  0.35780269878E+02  0.12700000000E+01 0. -1.
         -4    1    3    3    0  503 -0.70168895206E+02  0.11552388769E+03 -0.16435558526E+03  0.21279993841E+03  0.12700000000E+01 0. -1.
         -2    1    1    2    0  502  0.25881201419E+02 -0.14070843871E+02  0.24750311277E+03  0.24925010745E+03  0.00000000000E+00 0.  1.
         -1    1    1    2    0  501  0.12826257595E+02 -0.11844452471E+03 -0.13871080602E+04  0.13922149220E+04  0.00000000000E+00 0.  1.
<mgrwt>
<rscale>  0 0.59482939E+02</rscale>
<asrwt>0</asrwt>
<pdfrwt beam="2">  1       -2 0.24571483E+00 0.12010710E+03</pdfrwt>
<pdfrwt beam="1">  1       -1 0.45061356E-01 0.29458874E+02</pdfrwt>
<totfact> 0.30336463E+00</totfact>
</mgrwt>
</event>
<event>
 7    1  0.4252091E-004  0.4412406E+02  0.7546771E-02  0.1535629E+00
          2   -1    0    0  503    0  0.00000000000E+00  0.00000000000E+00  0.20966697488E+04  0.20966697488E+04  0.00000000000E+00 0. -1.
          1   -1    0    0  502    0 -0.00000000000E+00 -0.00000000000E+00 -0.10834137539E+03  0.10834137539E+03  0.00000000000E+00 0. -1.
         25    2    1    2    0    0 -0.90868463935E+01  0.54730808991E+02  0.65255272281E+03  0.66672854222E+03  0.12499544281E+03 0.  0.
          4    1    3    3  501    0 -0.41122522844E+02  0.27387483722E+01  0.71997216427E+02  0.82968516324E+02  0.12700000000E+01 0. -1.
         -4    1    3    3    0  501  0.32035676451E+02  0.51992060619E+02  0.58055550639E+03  0.58376002589E+03  0.12700000000E+01 0. -1.
          2    1    1    2  502    0 -0.20495712043E+02 -0.22182061411E+02 -0.98656793475E+02  0.10317597084E+03  0.00000000000E+00 0. -1.
          1    1    1    2  503    0  0.29582558437E+02 -0.32548747580E+02  0.14344324441E+04  0.14351066111E+04  0.00000000000E+00 0. -1.
<mgrwt>
<rscale>  0 0.36504842E+02</rscale>
<asrwt>0</asrwt>
<pdfrwt beam="1">  1        2 0.32256455E+00 0.44124055E+02</pdfrwt>
<pdfrwt beam="2">  1        1 0.16667905E-01 0.30201292E+02</pdfrwt>
<totfact> 0.32480974E+02</totfact>
</mgrwt>
</event>
<event>
 7    1  0.4252091E-004  0.9146040E+02  0.7546771E-02  0.1315040E+00
         -2   -1    0    0    0  501 -0.00000000000E+00  0.00000000000E+00  0.11048286960E+03  0.11048286960E+03  0.00000000000E+00 0.  1.
          2   -1    0    0  503    0  0.00000000000E+00 -0.00000000000E+00 -0.15377972558E+04  0.15377972558E+04  0.00000000000E+00 0. -1.
         25    2    1    2    0    0  0.43244734451E+02  0.36196518803E+02 -0.37319766767E+03  0.39759389784E+03  0.12499645358E+03 0.  0.
          4    1    3    3  502    0 -0.35010282700E+02  0.15541045459E+02 -0.42917206104E+02  0.57539060371E+02  0.12700000000E+01 0.  1.
         -4    1    3    3    0  502  0.78255017151E+02  0.20655473344E+02 -0.33028046157E+03  0.34005483747E+03  0.12700000000E+01 0.  1.
          1    1    1    2  503    0 -0.53731931765E+02  0.58287627564E+02 -0.11276924457E+04  0.11304754840E+04  0.00000000000E+00 0. -1.
         -1    1    1    2    0  501  0.10487197314E+02 -0.94484146367E+02  0.73575727169E+02  0.12021074349E+03  0.00000000000E+00 0.  1.
<mgrwt>
<rscale>  0 0.85150148E+02</rscale>
<asrwt>0</asrwt>
<pdfrwt beam="2">  1        2 0.23658417E+00 0.79275267E+02</pdfrwt>
<pdfrwt beam="1">  1       -2 0.16997366E-01 0.91460401E+02</pdfrwt>
<totfact> 0.38468201E+02</totfact>
</mgrwt>
</event>
<event>
 7    1  0.4252091E-004  0.1330051E+03  0.7546771E-02  0.1235652E+00
          2   -1    0    0  503    0  0.00000000000E+00  0.00000000000E+00  0.32627360743E+03  0.32627360743E+03  0.00000000000E+00 0. -1.
         -2   -1    0    0    0  501 -0.00000000000E+00 -0.00000000000E+00 -0.27888212281E+03  0.27888212281E+03  0.00000000000E+00 0.  1.
         25    2    1    2    0    0 -0.54568983570E+01 -0.82067804874E+02  0.81921482826E+02  0.17061836954E+03  0.12503837946E+03 0.  0.
          4    1    3    3  502    0  0.48082847145E+02 -0.76428456766E+02  0.72812855907E+02  0.11600256066E+03  0.12700000000E+01 0.  1.
         -4    1    3    3    0  502 -0.53539745502E+02 -0.56393481088E+01  0.91086269188E+01  0.54615808882E+02  0.12700000000E+01 0.  1.
          1    1    1    2  503    0 -0.11672670041E+03 -0.34879871389E+01  0.15454824108E+03  0.19370711774E+03  0.00000000000E+00 0. -1.
         -1    1    1    2    0  501  0.12218359877E+03  0.85555792013E+02 -0.18907823928E+03  0.24083024296E+03  0.00000000000E+00 0.  1.
<mgrwt>
<rscale>  0 0.12462817E+03</rscale>
<asrwt>0</asrwt>
<pdfrwt beam="1">  1        2 0.50195940E-01 0.11677880E+03</pdfrwt>
<pdfrwt beam="2">  1       -2 0.42904942E-01 0.13300515E+03</pdfrwt>
<totfact> 0.52020982E+02</totfact>
</mgrwt>
</event>
<event>
 7    1  0.4252091E-004  0.4966898E+02  0.7546771E-02  0.1535287E+00
          2   -1    0    0  503    0  0.00000000000E+00  0.00000000000E+00  0.39480202278E+02  0.39480202278E+02  0.00000000000E+00 0. -1.
          1   -1    0    0  502    0 -0.00000000000E+00 -0.00000000000E+00 -0.52446919489E+03  0.52446919489E+03  0.00000000000E+00 0. -1.
         25    2    1    2    0    0  0.77135778854E+01  0.47737419513E+02 -0.27044946893E+03  0.30183700078E+03  0.12499719714E+03 0.  0.
          4    1    3    3  501    0  0.28961383321E+02  0.45267750516E+02 -0.32272762286E+02  0.62698285832E+02  0.12700000000E+01 0. -1.
         -4    1    3    3    0  501 -0.21247805436E+02  0.24696689967E+01 -0.23817670664E+03  0.23913871495E+03  0.12700000000E+01 0. -1.
          2    1    1    2  502    0 -0.26868071326E+02 -0.10848001718E+01 -0.20973562368E+03  0.21145236317E+03  0.00000000000E+00 0. -1.
          1    1    1    2  503    0  0.19154493440E+02 -0.46652619341E+02 -0.48039000020E+01  0.50660033217E+02  0.00000000000E+00 0. -1.
<mgrwt>
<rscale>  0 0.36545821E+02</rscale>
<asrwt>0</asrwt>
<pdfrwt beam="1">  1        2 0.60738777E-02 0.49668982E+02</pdfrwt>
<pdfrwt beam="2">  1        1 0.80687563E-01 0.26889962E+02</pdfrwt>
<totfact> 0.64298800E+03</totfact>
</mgrwt>
</event>
<event>
 7    1  0.4252091E-004  0.7781697E+02  0.7546771E-02  0.1393723E+00
          2   -1    0    0  503    0  0.00000000000E+00  0.00000000000E+00  0.34034329212E+03  0.34034329212E+03  0.00000000000E+00 0. -1.
          1   -1    0    0  502    0 -0.00000000000E+00 -0.00000000000E+00 -0.17676019182E+03  0.17676019182E+03  0.00000000000E+00 0. -1.
         25    2    1    2    0    0  0.60312094761E+02  0.12480044772E+02  0.13058055724E+03  0.19097007130E+03  0.12499994364E+03 0.  0.
          4    1    3    3  501    0  0.60992181943E+02  0.34634889105E+01  0.10444705634E+01  0.61112566894E+02  0.12700000000E+01 0.  1.
         -4    1    3    3    0  501 -0.68008718222E+00  0.90165558615E+01  0.12953608668E+03  0.12985750440E+03  0.12700000000E+01 0.  1.
          2    1    1    2  502    0  0.20285909809E+02 -0.43284034971E+02 -0.13175013375E+03  0.14015392811E+03  0.00000000000E+00 0. -1.
          1    1    1    2  503    0 -0.80598004570E+02  0.30803990199E+02  0.16475267681E+03  0.18597948454E+03  0.00000000000E+00 0. -1.
<mgrwt>
<rscale>  0 0.60990184E+02</rscale>
<asrwt>0</asrwt>
<pdfrwt beam="1">  1        2 0.52360506E-01 0.77816972E+02</pdfrwt>
<pdfrwt beam="2">  1        1 0.27193876E-01 0.47801944E+02</pdfrwt>
<totfact> 0.21322933E+03</totfact>
</mgrwt>
</event>
<event>
 7    1  0.4252091E-004  0.1388930E+03  0.7546771E-02  0.1364975E+00
          2   -1    0    0  503    0  0.00000000000E+00  0.00000000000E+00  0.19432519267E+03  0.19432519267E+03  0.00000000000E+00 0. -1.
         -2   -1    0    0    0  501 -0.00000000000E+00 -0.00000000000E+00 -0.67462933854E+03  0.67462933854E+03  0.00000000000E+00 0.  1.
         25    2    1    2    0    0 -0.16491165001E+03 -0.45983364629E+01 -0.11944095662E+03  0.23896567021E+03  0.12498580885E+03 0.  0.
          4    1    3    3  502    0 -0.13066949079E+03  0.52137572491E+02 -0.80801111506E+02  0.16224449085E+03  0.12700000000E+01 0. -1.
         -4    1    3    3    0  502 -0.34242159219E+02 -0.56735908954E+02 -0.38639845110E+02  0.76721179363E+02  0.12700000000E+01 0. -1.
          1    1    1    2  503    0  0.13382546073E+03 -0.88394562777E+01  0.10036891456E+03  0.16751510062E+03  0.00000000000E+00 0. -1.
         -1    1    1    2    0  501  0.31086189284E+02  0.13437792741E+02 -0.46123210382E+03  0.46247376037E+03  0.00000000000E+00 0.  1.
<mgrwt>
<rscale>  0 0.68584194E+02</rscale>
<asrwt>0</asrwt>
<pdfrwt beam="1">  1        2 0.29896183E-01 0.13889304E+03</pdfrwt>
<pdfrwt beam="2">  1       -2 0.10378913E+00 0.33866288E+02</pdfrwt>
<totfact> 0.14587735E+02</totfact>
</mgrwt>
</event>
<event>
 7    1  0.4252091E-004  0.2371677E+03  0.7546771E-02  0.1195903E+00
          2   -1    0    0  503    0  0.00000000000E+00  0.00000000000E+00  0.14700659886E+04  0.14700659886E+04  0.00000000000E+00 0. -1.
          1   -1    0    0  502    0 -0.00000000000E+00 -0.00000000000E+00 -0.17949642371E+04  0.17949642371E+04  0.00000000000E+00 0. -1.
         25    2    1    2    0    0  0.30886725671E+03  0.50287795010E+02 -0.21882409149E+03  0.40179434130E+03  0.12500746013E+03 0.  0.
          4    1    3    3  501    0  0.21015868901E+03  0.11395513290E+02 -0.20670913106E+03  0.29500306786E+03  0.12700000000E+01 0.  1.
         -4    1    3    3    0  501  0.98708567703E+02  0.38892281720E+02 -0.12114960435E+02  0.10679127343E+03  0.12700000000E+01 0.  1.
          2    1    1    2  502    0 -0.91640883026E+02  0.39299396151E+02 -0.14729444909E+04  0.14763156733E+04  0.00000000000E+00 0. -1.
          1    1    1    2  503    0 -0.21722637368E+03 -0.89587191161E+02  0.13668703339E+04  0.13869202111E+04  0.00000000000E+00 0. -1.
<mgrwt>
<rscale>  0 0.15378062E+03</rscale>
<asrwt>0</asrwt>
<pdfrwt beam="1">  1        2 0.22616400E+00 0.23716769E+03</pdfrwt>
<pdfrwt beam="2">  1        1 0.27614834E+00 0.99712055E+02</pdfrwt>
<totfact> 0.10070309E+01</totfact>
</mgrwt>
</event>
<event>
 7    1  0.4252091E-004  0.6028878E+02  0.7546771E-02  0.1458192E+00
          1   -1    0    0  503    0  0.00000000000E+00  0.00000000000E+00  0.13345876297E+04  0.13345876297E+04  0.00000000000E+00 0. -1.
         -1   -1    0    0    0  501 -0.00000000000E+00 -0.00000000000E+00 -0.10099286079E+03  0.10099286079E+03  0.00000000000E+00 0.  1.
         25    2    1    2    0    0 -0.83049893037E+02  0.27431081625E+02  0.53558777280E+02  0.16168657576E+03  0.12499702870E+03 0.  0.
          4    1    3    3  502    0 -0.55984250410E+02  0.67146645922E+02 -0.29625757008E+01  0.87483130416E+02  0.12700000000E+01 0. -1.
         -4    1    3    3    0  502 -0.27065642627E+02 -0.39715564297E+02  0.56521352981E+02  0.74203445345E+02  0.12700000000E+01 0. -1.
          2    1    1    2  503    0  0.26558299458E+02 -0.26799747393E+02  0.12095607223E+04  0.12101490448E+04  0.00000000000E+00 0. -1.
         -2    1    1    2    0  501  0.56491593579E+02 -0.63133423216E+00 -0.29524730630E+02  0.63744869965E+02  0.00000000000E+00 0.  1.
<mgrwt>
<rscale>  0 0.47693910E+02</rscale>
<asrwt>0</asrwt>
<pdfrwt beam="1">  1        1 0.20532116E+00 0.37730223E+02</pdfrwt>
<pdfrwt beam="2">  1       -1 0.15537364E-01 0.60288779E+02</pdfrwt>
<totfact> 0.31333512E+02</totfact>
</mgrwt>
</event>
<event>
 7    1  0.4252091E-004  0.2438983E+03  0.7546771E-02  0.1218805E+00
          2   -1    0    0  503    0  0.00000000000E+00  0.00000000000E+00  0.12590371961E+04  0.12590371961E+04  0.00000000000E+00 0. -1.
          1   -1    0    0  502    0 -0.00000000000E+00 -0.00000000000E+00 -0.64383252661E+03  0.64383252661E+03  0.00000000000E+00 0. -1.
         25    2    1    2    0    0  0.24277636838E+03  0.95546291538E+02  0.48200390523E+02  0.29327909001E+03  0.12497955080E+03 0.  0.
          4    1    3    3  501    0  0.79754362615E+02  0.82927974487E+02  0.59192643907E+02  0.12939547636E+03  0.12700000000E+01 0. -1.
         -4    1    3    3    0  501  0.16302200577E+03  0.12618317051E+02 -0.10992253384E+02  0.16388361365E+03  0.12700000000E+01 0. -1.
          2    1    1    2  502    0 -0.24185294715E+03 -0.19709369555E+02 -0.49162475689E+03  0.54824830951E+03  0.00000000000E+00 0. -1.
          1    1    1    2  503    0 -0.92342122755E+00 -0.75836921983E+02  0.10586290358E+04  0.10613423232E+04  0.00000000000E+00 0. -1.
<mgrwt>
<rscale>  0 0.13600687E+03</rscale>
<asrwt>0</asrwt>
<pdfrwt beam="1">  1        2 0.19369803E+00 0.75842544E+02</pdfrwt>
<pdfrwt beam="2">  1        1 0.99051158E-01 0.24389833E+03</pdfrwt>
<totfact> 0.88316701E+01</totfact>
</mgrwt>
</event>
<event>
 7    1  0.4252091E-004  0.9390433E+02  0.7546771E-02  0.1349511E+00
          1   -1    0    0  502    0 -0.00000000000E+00  0.00000000000E+00  0.10140931229E+04  0.10140931229E+04  0.00000000000E+00 0. -1.
          2   -1    0    0  503    0  0.00000000000E+00 -0.00000000000E+00 -0.12810280426E+04  0.12810280426E+04  0.00000000000E+00 0. -1.
         25    2    1    2    0    0  0.14809877185E+03  0.24234469829E+01  0.14740450018E+03  0.24347854831E+03  0.12495838305E+03 0.  0.
          4    1    3    3  501    0  0.40146944750E+02  0.55703687138E+02  0.80253391952E+02  0.10562621717E+03  0.12700000000E+01 0. -1.
         -4    1    3    3    0  501  0.10795182710E+03 -0.53280240155E+02  0.67151108233E+02  0.13785233115E+03  0.12700000000E+01 0. -1.
          2    1    1    2  502    0 -0.91032816529E+02 -0.14978973615E+01  0.81545636469E+03  0.82052318681E+03  0.00000000000E+00 0. -1.
          1    1    1    2  503    0 -0.57065955322E+02 -0.92554962139E+00 -0.12297957846E+04  0.12311194303E+04  0.00000000000E+00 0. -1.
<mgrwt>
<rscale>  0 0.73208231E+02</rscale>
<asrwt>0</asrwt>
<pdfrwt beam="2">  1        2 0.19708124E+00 0.57073461E+02</pdfrwt>
<pdfrwt beam="1">  1        1 0.15601433E+00 0.93904330E+02</pdfrwt>
<totfact> 0.45919230E+01</totfact>
</mgrwt>
</event>
<event>
 7    1  0.4252091E-004  0.1102039E+03  0.7546771E-02  0.1315253E+00
          1   -1    0    0  502    0 -0.00000000000E+00  0.00000000000E+00  0.45113472014E+03  0.45113472014E+03  0.00000000000E+00 0. -1.
          2   -1    0    0  503    0  0.00000000000E+00 -0.00000000000E+00 -0.73128566342E+03  0.73128566342E+03  0.00000000000E+00 0. -1.
         25    2    1    2    0    0 -0.57562214764E+02 -0.73530462971E+02 -0.14676660050E+03  0.21420811979E+03  0.12499818401E+03 0.  0.
          4    1    3    3  501    0 -0.19568308273E+02 -0.10408689221E+03 -0.11304586211E+03  0.15491281309E+03  0.12700000000E+01 0.  1.
         -4    1    3    3    0  501 -0.37993906490E+02  0.30556429242E+02 -0.33720738390E+02  0.59295306695E+02  0.12700000000E+01 0.  1.
          2    1    1    2  502    0  0.50367267096E+02 -0.42132727689E+02  0.40866819124E+03  0.41391027877E+03  0.00000000000E+00 0. -1.
          1    1    1    2  503    0  0.71949476677E+01  0.11566319066E+03 -0.54205253402E+03  0.55430198500E+03  0.00000000000E+00 0. -1.
<mgrwt>
<rscale>  0 0.85068505E+02</rscale>
<asrwt>0</asrwt>
<pdfrwt beam="2">  1        2 0.11250549E+00 0.11020386E+03</pdfrwt>
<pdfrwt beam="1">  1        1 0.69405342E-01 0.65666036E+02</pdfrwt>
<totfact> 0.29744957E+02</totfact>
</mgrwt>
</event>
<event>
 7    1  0.4252091E-004  0.5606366E+02  0.7546771E-02  0.1467248E+00
          1   -1    0    0  502    0 -0.00000000000E+00  0.00000000000E+00  0.18384253503E+03  0.18384253503E+03  0.00000000000E+00 0. -1.
          2   -1    0    0  503    0  0.00000000000E+00 -0.00000000000E+00 -0.94613592385E+02  0.94613592385E+02  0.00000000000E+00 0. -1.
         25    2    1    2    0    0 -0.62501322659E+02  0.99545529586E+01  0.57495300105E+02  0.15143799980E+03  0.12498899868E+03 0.  0.
          4    1    3    3  501    0  0.29930333745E+02 -0.26772419572E+02  0.22132545418E+02  0.45869922547E+02  0.12700000000E+01 0. -1.
         -4    1    3    3    0  501 -0.92431656404E+02  0.36726972530E+02  0.35362754687E+02  0.10556807726E+03  0.12700000000E+01 0. -1.
          2    1    1    2  502    0  0.12191977298E+02 -0.35991205443E+02  0.54102369829E+02  0.66114125577E+02  0.00000000000E+00 0. -1.
          3    1    1    2  503    0  0.50309345360E+02  0.26036652484E+02 -0.22368727289E+02  0.60904002033E+02  0.00000000000E+00 0. -1.
<mgrwt>
<rscale>  0 0.46156552E+02</rscale>
<asrwt>0</asrwt>
<pdfrwt beam="2">  1        2 0.14555937E-01 0.56063660E+02</pdfrwt>
<pdfrwt beam="1">  1        1 0.28283467E-01 0.38000147E+02</pdfrwt>
<totfact> 0.79124744E+03</totfact>
</mgrwt>
</event>
<event>
 7    1  0.4252091E-004  0.1702621E+03  0.7546771E-02  0.1311915E+00
          2   -1    0    0  503    0  0.00000000000E+00  0.00000000000E+00  0.59938931579E+03  0.59938931579E+03  0.00000000000E+00 0. -1.
          1   -1    0    0  502    0 -0.00000000000E+00 -0.00000000000E+00 -0.44235442394E+03  0.44235442394E+03  0.00000000000E+00 0. -1.
         25    2    1    2    0    0  0.58415275401E+02 -0.11967617380E+03 -0.30705597669E+02  0.18520726978E+03  0.12499667226E+03 0.  0.
          4    1    3    3  501    0  0.50932849398E+02 -0.31772540147E+01 -0.44407484775E+02  0.67660089380E+02  0.12700000000E+01 0. -1.
         -4    1    3    3    0  501  0.74824260031E+01 -0.11649891978E+03  0.13701887106E+02  0.11754718040E+03  0.12700000000E+01 0. -1.
          2    1    1    2  502    0  0.62406191513E+01 -0.43356117800E+02 -0.31812695644E+03  0.32112841464E+03  0.00000000000E+00 0. -1.
          1    1    1    2  503    0 -0.64655894552E+02  0.16303229160E+03  0.50586744596E+03  0.53540805530E+03  0.00000000000E+00 0. -1.
<mgrwt>
<rscale>  0 0.86359614E+02</rscale>
<asrwt>0</asrwt>
<pdfrwt beam="1">  1        2 0.92213741E-01 0.17026212E+03</pdfrwt>
<pdfrwt beam="2">  1        1 0.68054527E-01 0.43802948E+02</pdfrwt>
<totfact> 0.38242080E+02</totfact>
</mgrwt>
</event>
<event>
 7    1  0.4252091E-004  0.1331910E+03  0.7546771E-02  0.1307896E+00
          1   -1    0    0  502    0 -0.00000000000E+00  0.00000000000E+00  0.65714621272E+03  0.65714621272E+03  0.00000000000E+00 0. -1.
          2   -1    0    0  503    0  0.00000000000E+00 -0.00000000000E+00 -0.11258362652E+04  0.11258362652E+04  0.00000000000E+00 0. -1.
         25    2    1    2    0    0 -0.10794932670E+03 -0.50415617148E+02 -0.42079444748E+03  0.45484970557E+03  0.12500198416E+03 0.  0.
          4    1    3    3  501    0 -0.68780626910E+02 -0.90145468424E+02 -0.32200057824E+03  0.34138389740E+03  0.12700000000E+01 0. -1.
         -4    1    3    3    0  501 -0.39168699785E+02  0.39729851276E+02 -0.98793869243E+02  0.11346580818E+03  0.12700000000E+01 0. -1.
          2    1    1    2  502    0  0.13359073071E+03 -0.16920725691E+01  0.63189587898E+03  0.64586511620E+03  0.00000000000E+00 0. -1.
          1    1    1    2  503    0 -0.25641404018E+02  0.52107689717E+02 -0.67979148402E+03  0.68226765618E+03  0.00000000000E+00 0. -1.
<mgrwt>
<rscale>  0 0.87949136E+02</rscale>
<asrwt>0</asrwt>
<pdfrwt beam="2">  1        2 0.17320558E+00 0.58074891E+02</pdfrwt>
<pdfrwt beam="1">  1        1 0.10109942E+00 0.13319096E+03</pdfrwt>
<totfact> 0.10520018E+02</totfact>
</mgrwt>
</event>
<event>
 7    1  0.4252091E-004  0.4324903E+02  0.7546771E-02  0.1503257E+00
          1   -1    0    0  503    0  0.00000000000E+00  0.00000000000E+00  0.51905234495E+03  0.51905234495E+03  0.00000000000E+00 0. -1.
         -1   -1    0    0    0  501 -0.00000000000E+00 -0.00000000000E+00 -0.31416621545E+02  0.31416621545E+02  0.00000000000E+00 0.  1.
         25    2    1    2    0    0  0.29993600524E+02  0.21685696623E+02  0.27208984666E+03  0.30170434889E+03  0.12499097556E+03 0.  0.
          4    1    3    3  502    0  0.71279472379E+02 -0.17160304534E+02  0.14276900005E+03  0.16049872121E+03  0.12700000000E+01 0.  1.
         -4    1    3    3    0  502 -0.41285871855E+02  0.38846001156E+02  0.12932084662E+03  0.14120562769E+03  0.12700000000E+01 0.  1.
          2    1    1    2  503    0 -0.10383323194E+01 -0.46703190705E+02  0.20328340562E+03  0.20858190036E+03  0.00000000000E+00 0. -1.
         -2    1    1    2    0  501 -0.28955268205E+02  0.25017494082E+02  0.12262471116E+02  0.40182717240E+02  0.00000000000E+00 0.  1.
<mgrwt>
<rscale>  0 0.40681261E+02</rscale>
<asrwt>0</asrwt>
<pdfrwt beam="1">  1        1 0.79854200E-01 0.43249030E+02</pdfrwt>
<pdfrwt beam="2">  1       -1 0.48333268E-02 0.38265945E+02</pdfrwt>
<totfact> 0.68622366E+03</totfact>
</mgrwt>
</event>
<event>
 7    1  0.4252091E-004  0.8931671E+02  0.7546771E-02  0.1422215E+00
          2   -1    0    0  503    0  0.00000000000E+00  0.00000000000E+00  0.23412370775E+04  0.23412370775E+04  0.00000000000E+00 0. -1.
          1   -1    0    0  502    0 -0.00000000000E+00 -0.00000000000E+00 -0.86855272346E+03  0.86855272346E+03  0.00000000000E+00 0. -1.
         25    2    1    2    0    0 -0.79547544949E+02 -0.26658215109E+01  0.84846495523E+03  0.86130849870E+03  0.12499852469E+03 0.  0.
          4    1    3    3  501    0 -0.17029887949E+02  0.54016537171E+02  0.47834217445E+03  0.48168522100E+03  0.12700000000E+01 0. -1.
         -4    1    3    3    0  501 -0.62517657000E+02 -0.56682358682E+02  0.37012278077E+03  0.37962327770E+03  0.12700000000E+01 0. -1.
          2    1    1    2  502    0  0.81825307279E+02  0.35910210991E+02 -0.85962793383E+03  0.86425986184E+03  0.00000000000E+00 0. -1.
          1    1    1    2  503    0 -0.22777623293E+01 -0.33244389481E+02  0.14838473327E+04  0.14842214405E+04  0.00000000000E+00 0. -1.
<mgrwt>
<rscale>  0 0.54554933E+02</rscale>
<asrwt>0</asrwt>
<pdfrwt beam="1">  1        2 0.36019032E+00 0.33322329E+02</pdfrwt>
<pdfrwt beam="2">  1        1 0.13362350E+00 0.89316708E+02</pdfrwt>
<totfact> 0.18955135E+01</totfact>
</mgrwt>
</event>
<event>
 7    1  0.4252091E-004  0.4846532E+02  0.7546771E-02  0.1454705E+00
          2   -1    0    0  503    0  0.00000000000E+00  0.00000000000E+00  0.16330055326E+04  0.16330055326E+04  0.00000000000E+00 0. -1.
          1   -1    0    0  502    0 -0.00000000000E+00 -0.00000000000E+00 -0.15202577068E+04  0.15202577068E+04  0.00000000000E+00 0. -1.
         25    2    1    2    0    0  0.21499039798E+02 -0.15802857833E+01  0.13141424890E+03  0.18264583550E+03  0.12500036159E+03 0.  0.
          4    1    3    3  501    0 -0.45532812053E+02 -0.28762420067E+02  0.65175354546E+02  0.84557397795E+02  0.12700000000E+01 0.  1.
         -4    1    3    3    0  501  0.67031851851E+02  0.27182134284E+02  0.66238894354E+02  0.98088437708E+02  0.12700000000E+01 0.  1.
          2    1    1    2  502    0 -0.11968126788E+02 -0.46633813037E+02 -0.14938448645E+04  0.14946204962E+04  0.00000000000E+00 0. -1.
          1    1    1    2  503    0 -0.95309130097E+01  0.48214098820E+02  0.14751784414E+04  0.14759969077E+04  0.00000000000E+00 0. -1.
<mgrwt>
<rscale>  0 0.48304935E+02</rscale>
<asrwt>0</asrwt>
<pdfrwt beam="1">  1        2 0.25123162E+00 0.48465322E+02</pdfrwt>
<pdfrwt beam="2">  1        1 0.23388580E+00 0.48145078E+02</pdfrwt>
<totfact> 0.15245600E+01</totfact>
</mgrwt>
</event>
<event>
 7    1  0.4252091E-004  0.2739811E+03  0.7546771E-02  0.1163207E+00
          1   -1    0    0  502    0 -0.00000000000E+00  0.00000000000E+00  0.29265278944E+04  0.29265278944E+04  0.00000000000E+00 0. -1.
          2   -1    0    0  503    0  0.00000000000E+00 -0.00000000000E+00 -0.57209925878E+03  0.57209925878E+03  0.00000000000E+00 0. -1.
         25    2    1    2    0    0  0.33951323641E+03 -0.49617405034E+02  0.91707046028E+03  0.98710376288E+03  0.12499793994E+03 0.  0.
          4    1    3    3  501    0  0.85719886326E+01 -0.51520850652E+01 -0.10597839266E+01  0.10137011966E+02  0.12700000000E+01 0.  1.
         -4    1    3    3    0  501  0.33094124777E+03 -0.44465319968E+02  0.91813024420E+03  0.97696675091E+03  0.12700000000E+01 0.  1.
          2    1    1    2  502    0 -0.23331799310E+03  0.11496532221E+03  0.19584875995E+04  0.19756841824E+04  0.00000000000E+00 0. -1.
          1    1    1    2  503    0 -0.10619524331E+03 -0.65347917172E+02 -0.52112942416E+03  0.53583920789E+03  0.00000000000E+00 0. -1.
<mgrwt>
<rscale>  0 0.18483211E+03</rscale>
<asrwt>0</asrwt>
<pdfrwt beam="2">  1        2 0.88015272E-01 0.12469074E+03</pdfrwt>
<pdfrwt beam="1">  1        1 0.45023505E+00 0.27398112E+03</pdfrwt>
<totfact> 0.60560970E+00</totfact>
</mgrwt>
</event>
<event>
 7    1  0.4252091E-004  0.8156207E+02  0.7546771E-02  0.1362762E+00
          1   -1    0    0  502    0 -0.00000000000E+00  0.00000000000E+00  0.15023878808E+04  0.15023878808E+04  0.00000000000E+00 0. -1.
          2   -1    0    0  503    0  0.00000000000E+00 -0.00000000000E+00 -0.97446237735E+03  0.97446237735E+03  0.00000000000E+00 0. -1.
         25    2    1    2    0    0 -0.80914207214E+02  0.11284216999E+03 -0.42463961593E+02  0.19159632900E+03  0.12500200396E+03 0.  0.
          4    1    3    3  501    0 -0.37986774518E+02 -0.13028582049E+02 -0.42657703467E+02  0.58600610522E+02  0.12700000000E+01 0. -1.
         -4    1    3    3    0  501 -0.42927432696E+02  0.12587075204E+03  0.19374187478E+00  0.13299571847E+03  0.12700000000E+01 0. -1.
          2    1    1    2  502    0  0.40638535983E+02 -0.70074202942E+02  0.14256643332E+04  0.14279638215E+04  0.00000000000E+00 0. -1.
          1    1    1    2  503    0  0.40275671230E+02 -0.42767967046E+02 -0.85527486813E+03  0.85729010770E+03  0.00000000000E+00 0. -1.
<mgrwt>
<rscale>  0 0.69220949E+02</rscale>
<asrwt>0</asrwt>
<pdfrwt beam="2">  1        2 0.14991729E+00 0.58747159E+02</pdfrwt>
<pdfrwt beam="1">  1        1 0.23113660E+00 0.81562069E+02</pdfrwt>
<totfact> 0.32191635E+01</totfact>
</mgrwt>
</event>
<event>
 7    1  0.4252091E-004  0.1649632E+03  0.7546771E-02  0.1397917E+00
         -1   -1    0    0    0  501 -0.00000000000E+00  0.00000000000E+00  0.28227862431E+03  0.28227862431E+03  0.00000000000E+00 0.  1.
          1   -1    0    0  503    0  0.00000000000E+00 -0.00000000000E+00 -0.45909356782E+03  0.45909356782E+03  0.00000000000E+00 0. -1.
         25    2    1    2    0    0  0.15000603522E+03 -0.63902155587E+02  0.13208095562E+03  0.24424822369E+03  0.12500607924E+03 0.  0.
          4    1    3    3  502    0  0.13198795005E+03 -0.94318953967E+02  0.78957563066E+02  0.18042392774E+03  0.12700000000E+01 0. -1.
         -4    1    3    3    0  502  0.18018085168E+02  0.30416798380E+02  0.53123392558E+02  0.63824295952E+02  0.12700000000E+01 0. -1.
          2    1    1    2  503    0  0.11993454084E+02  0.18214294096E+02 -0.32709768053E+03  0.32782387963E+03  0.00000000000E+00 0. -1.
         -2    1    1    2    0  501 -0.16199948930E+03  0.45687861491E+02  0.18201781391E+02  0.16930008880E+03  0.00000000000E+00 0.  1.
<mgrwt>
<rscale>  0 0.59979772E+02</rscale>
<asrwt>0</asrwt>
<pdfrwt beam="2">  1        1 0.70629780E-01 0.21808334E+02</pdfrwt>
<pdfrwt beam="1">  1       -1 0.43427481E-01 0.16496322E+03</pdfrwt>
<totfact> 0.28474042E+02</totfact>
</mgrwt>
</event>
<event>
 7    1  0.4252091E-004  0.5507156E+02  0.7546771E-02  0.1438106E+00
          1   -1    0    0  502    0 -0.00000000000E+00  0.00000000000E+00  0.16287483605E+04  0.16287483605E+04  0.00000000000E+00 0. -1.
          2   -1    0    0  503    0  0.00000000000E+00 -0.00000000000E+00 -0.34529937590E+02  0.34529937590E+02  0.00000000000E+00 0. -1.
         25    2    1    2    0    0  0.94402054160E+01 -0.84227864722E+02  0.11780067026E+04  0.11876483184E+04  0.12500114517E+03 0.  0.
          4    1    3    3  501    0 -0.38545652010E+02 -0.34248909509E+02  0.88723787876E+03  0.88873585586E+03  0.12700000000E+01 0.  1.
         -4    1    3    3    0  501  0.47985857426E+02 -0.49978955213E+02  0.29076882382E+03  0.29891246258E+03  0.12700000000E+01 0.  1.
          2    1    1    2  502    0  0.18094391451E+02  0.45018867023E+02  0.42427895068E+03  0.42704418200E+03  0.00000000000E+00 0. -1.
          1    1    1    2  503    0 -0.27534596867E+02  0.39208997700E+02 -0.80672303727E+01  0.48585797628E+02  0.00000000000E+00 0. -1.
<mgrwt>
<rscale>  0 0.51366858E+02</rscale>
<asrwt>0</asrwt>
<pdfrwt beam="2">  1        2 0.53122994E-02 0.47911372E+02</pdfrwt>
<pdfrwt beam="1">  1        1 0.25057661E+00 0.55071563E+02</pdfrwt>
<totfact> 0.11727906E+03</totfact>
</mgrwt>
</event>
<event>
 7    1  0.4252091E-004  0.4311322E+03  0.7546771E-02  0.1264628E+00
         -2   -1    0    0    0  501 -0.00000000000E+00  0.00000000000E+00  0.46845683916E+03  0.46845683916E+03  0.00000000000E+00 0.  1.
          2   -1    0    0  503    0  0.00000000000E+00 -0.00000000000E+00 -0.31582640451E+04  0.31582640451E+04  0.00000000000E+00 0. -1.
         25    2    1    2    0    0 -0.22622718116E+03 -0.38629495381E+03 -0.13846060553E+04  0.14605347966E+04  0.12500173966E+03 0.  0.
          4    1    3    3  502    0 -0.72107606335E+01 -0.11164800618E+03 -0.38910988911E+03  0.40487700732E+03  0.12700000000E+01 0. -1.
         -4    1    3    3    0  502 -0.21901642052E+03 -0.27464694763E+03 -0.99549616617E+03  0.10556577893E+04  0.12700000000E+01 0. -1.
          3    1    1    2  503    0 -0.79728016137E+01  0.25767535452E+02 -0.16282178924E+04  0.16284412905E+04  0.00000000000E+00 0. -1.
         -1    1    1    2    0  501  0.23419998277E+03  0.36052741836E+03  0.32301674181E+03  0.53774479710E+03  0.00000000000E+00 0.  1.
<mgrwt>
<rscale>  0 0.10783710E+03</rscale>
<asrwt>0</asrwt>
<pdfrwt beam="2">  1        2 0.48588677E+00 0.26972791E+02</pdfrwt>
<pdfrwt beam="1">  1       -2 0.72070284E-01 0.43113225E+03</pdfrwt>
<totfact> 0.45264948E+00</totfact>
</mgrwt>
</event>
<event>
 7    1  0.4252091E-004  0.7621293E+02  0.7546771E-02  0.1381830E+00
          2   -1    0    0  503    0  0.00000000000E+00  0.00000000000E+00  0.24111001182E+04  0.24111001182E+04  0.00000000000E+00 0. -1.
          1   -1    0    0  502    0 -0.00000000000E+00 -0.00000000000E+00 -0.11188252385E+04  0.11188252385E+04  0.00000000000E+00 0. -1.
         25    2    1    2    0    0  0.91994763990E+02  0.14228504545E+02 -0.23412171122E+03  0.28125751933E+03  0.12500931795E+03 0.  0.
          4    1    3    3  501    0  0.29904146728E+02 -0.46186731212E+02 -0.15287728394E+03  0.16248245744E+03  0.12700000000E+01 0.  1.
         -4    1    3    3    0  501  0.62090617263E+02  0.60415235757E+02 -0.81244427274E+02  0.11877506189E+03  0.12700000000E+01 0.  1.
          2    1    1    2  502    0 -0.54733563057E+02 -0.52924025793E+02 -0.85914978165E+03  0.86251670288E+03  0.00000000000E+00 0. -1.
          3    1    1    2  503    0 -0.37261200933E+02  0.38695521247E+02  0.23855463726E+04  0.23861511344E+04  0.00000000000E+00 0. -1.
<mgrwt>
<rscale>  0 0.63985068E+02</rscale>
<asrwt>0</asrwt>
<pdfrwt beam="1">  1        2 0.37093848E+00 0.53719088E+02</pdfrwt>
<pdfrwt beam="2">  1        1 0.17212696E+00 0.76212927E+02</pdfrwt>
<totfact> 0.10886706E+01</totfact>
</mgrwt>
</event>
<event>
 7    1  0.4252091E-004  0.1049577E+03  0.7546771E-02  0.1365835E+00
          2   -1    0    0  503    0  0.00000000000E+00  0.00000000000E+00  0.14155699905E+04  0.14155699905E+04  0.00000000000E+00 0. -1.
          1   -1    0    0  502    0 -0.00000000000E+00 -0.00000000000E+00 -0.12187196265E+03  0.12187196265E+03  0.00000000000E+00 0. -1.
         25    2    1    2    0    0  0.89768344192E+02 -0.40661527880E+02  0.30553676635E+03  0.34451242510E+03  0.12499751991E+03 0.  0.
          4    1    3    3  501    0  0.11760229204E+03 -0.51483242802E+02  0.23240672864E+03  0.26550955501E+03  0.12700000000E+01 0. -1.
         -4    1    3    3    0  501 -0.27833947847E+02  0.10821714922E+02  0.73130037714E+02  0.79002870091E+02  0.12700000000E+01 0. -1.
          2    1    1    2  502    0 -0.10621707271E+03 -0.68249683110E+00 -0.74243043987E+02  0.12959383441E+03  0.00000000000E+00 0. -1.
          1    1    1    2  503    0  0.16448728515E+02  0.41344024711E+02  0.10624043055E+04  0.10633356937E+04  0.00000000000E+00 0. -1.
<mgrwt>
<rscale>  0 0.68338787E+02</rscale>
<asrwt>0</asrwt>
<pdfrwt beam="1">  1        2 0.21777999E+00 0.44495944E+02</pdfrwt>
<pdfrwt beam="2">  1        1 0.18749534E-01 0.10495765E+03</pdfrwt>
<totfact> 0.63761284E+02</totfact>
</mgrwt>
</event>
<event>
 7    1  0.4252091E-004  0.3302356E+02  0.7546771E-02  0.1567708E+00
          2   -1    0    0  503    0  0.00000000000E+00  0.00000000000E+00  0.64539672058E+03  0.64539672058E+03  0.00000000000E+00 0. -1.
          1   -1    0    0  502    0 -0.00000000000E+00 -0.00000000000E+00 -0.97539646612E+03  0.97539646612E+03  0.00000000000E+00 0. -1.
         25    2    1    2    0    0 -0.67457132609E+01  0.12320572904E+02  0.11376974670E+03  0.16960215924E+03  0.12499614390E+03 0.  0.
          4    1    3    3  501    0  0.48954124846E+02  0.16194279008E+02  0.11151292793E+02  0.52770495951E+02  0.12700000000E+01 0. -1.
         -4    1    3    3    0  501 -0.55699838107E+02 -0.38737061044E+01  0.10261845391E+03  0.11683166329E+03  0.12700000000E+01 0. -1.
          2    1    1    2  502    0  0.30961047492E+02  0.10990158956E+02 -0.94663424869E+03  0.94720418646E+03  0.00000000000E+00 0. -1.
          1    1    1    2  503    0 -0.24215334231E+02 -0.23310731859E+02  0.50286475644E+03  0.50398684100E+03  0.00000000000E+00 0. -1.
<mgrwt>
<rscale>  0 0.32938554E+02</rscale>
<asrwt>0</asrwt>
<pdfrwt beam="1">  1        2 0.99291803E-01 0.33023559E+02</pdfrwt>
<pdfrwt beam="2">  1        1 0.15006099E+00 0.32853768E+02</pdfrwt>
<totfact> 0.12787671E+02</totfact>
</mgrwt>
</event>
<event>
 7    1  0.4252091E-004  0.9153718E+02  0.7546771E-02  0.1472213E+00
          1   -1    0    0  502    0 -0.00000000000E+00  0.00000000000E+00  0.12103994173E+04  0.12103994173E+04  0.00000000000E+00 0. -1.
          2   -1    0    0  503    0  0.00000000000E+00 -0.00000000000E+00 -0.88168681850E+03  0.88168681850E+03  0.00000000000E+00 0. -1.
         25    2    1    2    0    0 -0.39572031921E+02 -0.62931578887E+02  0.17444677838E+02  0.14647354826E+03  0.12499541681E+03 0.  0.
          4    1    3    3  501    0 -0.69845120735E+02  0.51070593236E+00  0.28225832282E+02  0.75345286641E+02  0.12700000000E+01 0.  1.
         -4    1    3    3    0  501  0.30273088814E+02 -0.63442284819E+02 -0.10781154444E+02  0.71128261616E+02  0.12700000000E+01 0.  1.
          2    1    1    2  502    0  0.61275143807E+02  0.68714856286E+02  0.11264074607E+04  0.11301637679E+04  0.00000000000E+00 0. -1.
          1    1    1    2  503    0 -0.21703111886E+02 -0.57832773990E+01 -0.81513953972E+03  0.81544891967E+03  0.00000000000E+00 0. -1.
<mgrwt>
<rscale>  0 0.45342753E+02</rscale>
<asrwt>0</asrwt>
<pdfrwt beam="2">  1        2 0.13564413E+00 0.22460440E+02</pdfrwt>
<pdfrwt beam="1">  1        1 0.18621529E+00 0.91537178E+02</pdfrwt>
<totfact> 0.58522114E+01</totfact>
</mgrwt>
</event>
<event>
 7    1  0.4252091E-004  0.6442720E+02  0.7546771E-02  0.1419094E+00
          3   -1    0    0  502    0 -0.00000000000E+00  0.00000000000E+00  0.12352571017E+02  0.12352571017E+02  0.00000000000E+00 0. -1.
          2   -1    0    0  503    0  0.00000000000E+00 -0.00000000000E+00 -0.15652955244E+04  0.15652955244E+04  0.00000000000E+00 0. -1.
         25    2    1    2    0    0  0.36839818345E+02 -0.43451668457E+02 -0.70361951056E+03  0.71690462259E+03  0.12500641003E+03 0.  0.
          4    1    3    3  501    0 -0.22910805330E+02  0.28234779837E+02 -0.32151021944E+03  0.32356226897E+03  0.12700000000E+01 0. -1.
         -4    1    3    3    0  501  0.59750623675E+02 -0.71686448294E+02 -0.38210929112E+03  0.39334235363E+03  0.12700000000E+01 0. -1.
          2    1    1    2  502    0 -0.39513384871E+02 -0.26029848129E+02 -0.13515806000E+03  0.14320112346E+03  0.00000000000E+00 0. -1.
          1    1    1    2  503    0  0.26735665264E+01  0.69481516586E+02 -0.71416538281E+03  0.71754234935E+03  0.00000000000E+00 0. -1.
<mgrwt>
<rscale>  0 0.55213004E+02</rscale>
<asrwt>0</asrwt>
<pdfrwt beam="2">  1        2 0.24081467E+00 0.64427196E+02</pdfrwt>
<pdfrwt beam="1">  1        3 0.19003958E-02 0.47316599E+02</pdfrwt>
<totfact> 0.69639884E+03</totfact>
</mgrwt>
</event>
<event>
 7    1  0.4252091E-004  0.1377216E+03  0.7546771E-02  0.1312931E+00
          2   -1    0    0  503    0  0.00000000000E+00  0.00000000000E+00  0.12780455975E+04  0.12780455975E+04  0.00000000000E+00 0. -1.
         -2   -1    0    0    0  501 -0.00000000000E+00 -0.00000000000E+00 -0.12818360219E+03  0.12818360219E+03  0.00000000000E+00 0.  1.
         25    2    1    2    0    0  0.10550951985E+03  0.10069207152E+03  0.46537354911E+03  0.50345671475E+03  0.12499988545E+03 0.  0.
          4    1    3    3  502    0  0.43745736760E+01  0.78408771310E+02  0.12456343625E+03  0.14725737627E+03  0.12700000000E+01 0.  1.
         -4    1    3    3    0  502  0.10113494618E+03  0.22283300210E+02  0.34081011286E+03  0.35619933848E+03  0.12700000000E+01 0.  1.
          1    1    1    2  503    0 -0.47758790751E+02  0.24457984780E+02  0.74876827299E+03  0.75068836527E+03  0.00000000000E+00 0. -1.
         -3    1    1    2    0  501 -0.57750729103E+02 -0.12515005630E+03 -0.64279826839E+02  0.15208411963E+03  0.00000000000E+00 0.  1.
<mgrwt>
<rscale>  0 0.85963685E+02</rscale>
<asrwt>0</asrwt>
<pdfrwt beam="1">  1        2 0.19662239E+00 0.53657200E+02</pdfrwt>
<pdfrwt beam="2">  1       -2 0.19720555E-01 0.13772160E+03</pdfrwt>
<totfact> 0.42707769E+02</totfact>
</mgrwt>
</event>
<event>
 7    1  0.4252091E-004  0.1901548E+03  0.7546771E-02  0.1318766E+00
         -2   -1    0    0    0  501 -0.00000000000E+00  0.00000000000E+00  0.22337368500E+03  0.22337368500E+03  0.00000000000E+00 0.  1.
          2   -1    0    0  503    0  0.00000000000E+00 -0.00000000000E+00 -0.68288615157E+03  0.68288615157E+03  0.00000000000E+00 0. -1.
         25    2    1    2    0    0  0.79078833483E+02 -0.17251245782E+03 -0.15466740937E+03  0.27488349289E+03  0.12499966854E+03 0.  0.
          4    1    3    3  502    0  0.81592302160E+02 -0.62139705696E+02 -0.26932312519E+02  0.10604531651E+03  0.12700000000E+01 0. -1.
         -4    1    3    3    0  502 -0.25134686778E+01 -0.11037275212E+03 -0.12773509685E+03  0.16883817638E+03  0.12700000000E+01 0. -1.
          1    1    1    2  503    0  0.32469890248E+02  0.17479019742E+02 -0.41114419402E+03  0.41279457140E+03  0.00000000000E+00 0. -1.
         -1    1    1    2    0  501 -0.11154872373E+03  0.15503343807E+03  0.10629913682E+03  0.21858177229E+03  0.00000000000E+00 0.  1.
<mgrwt>
<rscale>  0 0.83738112E+02</rscale>
<asrwt>0</asrwt>
<pdfrwt beam="2">  1        2 0.10505941E+00 0.36875600E+02</pdfrwt>
<pdfrwt beam="1">  1       -2 0.34365183E-01 0.19015477E+03</pdfrwt>
<totfact> 0.36551811E+02</totfact>
</mgrwt>
</event>
<event>
 7    1  0.4252091E-004  0.1425622E+03  0.7546771E-02  0.1330191E+00
          1   -1    0    0  502    0 -0.00000000000E+00  0.00000000000E+00  0.36736644639E+03  0.36736644639E+03  0.00000000000E+00 0. -1.
          2   -1    0    0  503    0  0.00000000000E+00 -0.00000000000E+00 -0.18019861168E+03  0.18019861168E+03  0.00000000000E+00 0. -1.
         25    2    1    2    0    0 -0.11365959445E+03 -0.22392087362E+02  0.31087467072E+02  0.17323751290E+03  0.12499958512E+03 0.  0.
          4    1    3    3  501    0  0.18004895137E+02 -0.33642749462E+02  0.94045379163E+01  0.39320084863E+02  0.12700000000E+01 0.  1.
         -4    1    3    3    0  501 -0.13166448958E+03  0.11250662099E+02  0.21682929155E+02  0.13391742803E+03  0.12700000000E+01 0.  1.
          2    1    1    2  502    0 -0.43773265685E+02  0.76957096810E+01  0.20425476681E+03  0.20903428547E+03  0.00000000000E+00 0. -1.
          1    1    1    2  503    0  0.15743286013E+03  0.14696377681E+02 -0.48174399176E+02  0.16529325970E+03  0.00000000000E+00 0. -1.
<mgrwt>
<rscale>  0 0.79599744E+02</rscale>
<asrwt>0</asrwt>
<pdfrwt beam="2">  1        2 0.27722863E-01 0.14256217E+03</pdfrwt>
<pdfrwt beam="1">  1        1 0.56517915E-01 0.44444603E+02</pdfrwt>
<totfact> 0.17589276E+03</totfact>
</mgrwt>
</event>
<event>
 7    1  0.4252091E-004  0.5857481E+02  0.7546771E-02  0.1411060E+00
          2   -1    0    0  503    0  0.00000000000E+00  0.00000000000E+00  0.12319481620E+04  0.12319481620E+04  0.00000000000E+00 0. -1.
          1   -1    0    0  502    0 -0.00000000000E+00 -0.00000000000E+00 -0.63724906668E+03  0.63724906668E+03  0.00000000000E+00 0. -1.
         25    2    1    2    0    0  0.13922357867E+02  0.47253967468E+02 -0.17145627659E+03  0.21782245405E+03  0.12499038851E+03 0.  0.
          4    1    3    3  501    0  0.68336122767E+02  0.35125917277E+02 -0.11625590402E+03  0.13935818547E+03  0.12700000000E+01 0. -1.
         -4    1    3    3    0  501 -0.54413764901E+02  0.12128050191E+02 -0.55200372571E+02  0.78464268582E+02  0.12700000000E+01 0. -1.
          2    1    1    2  502    0 -0.59460338514E+02 -0.15728219593E+02 -0.43983435162E+03  0.44411391063E+03  0.00000000000E+00 0. -1.
          1    1    1    2  503    0  0.45537980647E+02 -0.31525747875E+02  0.12059897236E+04  0.12072608640E+04  0.00000000000E+00 0. -1.
<mgrwt>
<rscale>  0 0.56957960E+02</rscale>
<asrwt>0</asrwt>
<pdfrwt beam="1">  1        2 0.18953049E+00 0.55385742E+02</pdfrwt>
<pdfrwt beam="2">  1        1 0.98038318E-01 0.58574808E+02</pdfrwt>
<totfact> 0.99586741E+01</totfact>
</mgrwt>
</event>
<event>
 7    1  0.4252091E-004  0.4635358E+02  0.7546771E-02  0.1561175E+00
          2   -1    0    0  503    0  0.00000000000E+00  0.00000000000E+00  0.18319830644E+03  0.18319830644E+03  0.00000000000E+00 0. -1.
         -2   -1    0    0    0  501 -0.00000000000E+00 -0.00000000000E+00 -0.11775432238E+03  0.11775432238E+03  0.00000000000E+00 0.  1.
         25    2    1    2    0    0  0.50395826049E+02  0.26208128870E+02  0.31225879891E+02  0.14080670489E+03  0.12499946906E+03 0.  0.
          4    1    3    3  502    0  0.23681592244E+02  0.49739986557E+02 -0.35230984648E+02  0.65404275496E+02  0.12700000000E+01 0. -1.
         -4    1    3    3    0  502  0.26714233804E+02 -0.23531857687E+02  0.66456864539E+02  0.75402429392E+02  0.12700000000E+01 0. -1.
          1    1    1    2  503    0 -0.45707414476E+02 -0.22734129321E+01  0.89057339047E+02  0.10012764744E+03  0.00000000000E+00 0. -1.
         -1    1    1    2    0  501 -0.46884115724E+01 -0.23934715938E+02 -0.54839234877E+02  0.60018276483E+02  0.00000000000E+00 0.  1.
<mgrwt>
<rscale>  0 0.33623573E+02</rscale>
<asrwt>0</asrwt>
<pdfrwt beam="1">  1        2 0.28184355E-01 0.46353584E+02</pdfrwt>
<pdfrwt beam="2">  1       -2 0.18116050E-01 0.24389584E+02</pdfrwt>
<totfact> 0.39818459E+03</totfact>
</mgrwt>
</event>
<event>
 7    1  0.4252091E-004  0.3457355E+02  0.7546771E-02  0.1626566E+00
         -1   -1    0    0    0  501 -0.00000000000E+00  0.00000000000E+00  0.26449099906E+03  0.26449099906E+03  0.00000000000E+00 0.  1.
          1   -1    0    0  503    0  0.00000000000E+00 -0.00000000000E+00 -0.31938222580E+03  0.31938222580E+03  0.00000000000E+00 0. -1.
         25    2    1    2    0    0 -0.17408870864E+02  0.37930174536E+02 -0.29069661110E+03  0.31917098448E+03  0.12499532273E+03 0.  0.
          4    1    3    3  502    0  0.15953093908E+02 -0.42092181880E+02 -0.10308441411E+03  0.11249116549E+03  0.12700000000E+01 0. -1.
         -4    1    3    3    0  502 -0.33361964772E+02  0.80022356416E+02 -0.18761219699E+03  0.20667981899E+03  0.12700000000E+01 0. -1.
          2    1    1    2  503    0  0.21690239999E+02 -0.36265783304E+01 -0.40562217825E+01  0.22362278881E+02  0.00000000000E+00 0. -1.
         -2    1    1    2    0  501 -0.42813691355E+01 -0.34303596206E+02  0.23986160615E+03  0.24233996150E+03  0.00000000000E+00 0.  1.
<mgrwt>
<rscale>  0 0.27573869E+02</rscale>
<asrwt>0</asrwt>
<pdfrwt beam="2">  1        1 0.49135727E-01 0.21991330E+02</pdfrwt>
<pdfrwt beam="1">  1       -1 0.40690923E-01 0.34573546E+02</pdfrwt>
<totfact> 0.48268922E+02</totfact>
</mgrwt>
</event>
<event>
 7    1  0.4252091E-004  0.5122260E+02  0.7546771E-02  0.1556528E+00
          1   -1    0    0  502    0 -0.00000000000E+00  0.00000000000E+00  0.18511491623E+04  0.18511491623E+04  0.00000000000E+00 0. -1.
          2   -1    0    0  503    0  0.00000000000E+00 -0.00000000000E+00 -0.57442791958E+02  0.57442791958E+02  0.00000000000E+00 0. -1.
         25    2    1    2    0    0  0.30613718633E+02  0.11592975151E+02  0.18827314119E+03  0.22834697279E+03  0.12499586972E+03 0.  0.
          4    1    3    3  501    0 -0.14418940538E+02 -0.47190330321E+02  0.11011872571E+03  0.12067551439E+03  0.12700000000E+01 0.  1.
         -4    1    3    3    0  501  0.45032659171E+02  0.58783305472E+02  0.78154415483E+02  0.10767145840E+03  0.12700000000E+01 0.  1.
          2    1    1    2  502    0  0.12777397722E+02  0.18801125347E+02  0.16239619015E+04  0.16241209936E+04  0.00000000000E+00 0. -1.
          3    1    1    2  503    0 -0.43391116355E+02 -0.30394100498E+02 -0.18528672321E+02  0.56123987934E+02  0.00000000000E+00 0. -1.
<mgrwt>
<rscale>  0 0.34123197E+02</rscale>
<asrwt>0</asrwt>
<pdfrwt beam="2">  1        2 0.88373540E-02 0.51222599E+02</pdfrwt>
<pdfrwt beam="1">  1        1 0.28479213E+00 0.22732008E+02</pdfrwt>
<totfact> 0.51741896E+02</totfact>
</mgrwt>
</event>
<event>
 7    1  0.4252091E-004  0.1270187E+03  0.7546771E-02  0.1305122E+00
          1   -1    0    0  502    0 -0.00000000000E+00  0.00000000000E+00  0.81245597218E+03  0.81245597218E+03  0.00000000000E+00 0. -1.
          2   -1    0    0  503    0  0.00000000000E+00 -0.00000000000E+00 -0.82310549230E+03  0.82310549230E+03  0.00000000000E+00 0. -1.
         25    2    1    2    0    0  0.10862244837E+03 -0.59396342578E+02 -0.56964746566E+03  0.59619653566E+03  0.12500124878E+03 0.  0.
          4    1    3    3  501    0 -0.16563937802E+02  0.60090073423E+01 -0.19513874843E+03  0.19593676594E+03  0.12700000000E+01 0.  1.
         -4    1    3    3    0  501  0.12518638617E+03 -0.65405349921E+02 -0.37450871722E+03  0.40025976972E+03  0.12700000000E+01 0.  1.
          2    1    1    2  502    0 -0.28035581125E+02 -0.55811714139E+02  0.77724580951E+03  0.77975123574E+03  0.00000000000E+00 0. -1.
          1    1    1    2  503    0 -0.80586867247E+02  0.11520805672E+03 -0.21824786398E+03  0.25961369308E+03  0.00000000000E+00 0. -1.
<mgrwt>
<rscale>  0 0.89068936E+02</rscale>
<asrwt>0</asrwt>
<pdfrwt beam="2">  1        2 0.12663161E+00 0.12701875E+03</pdfrwt>
<pdfrwt beam="1">  1        1 0.12499323E+00 0.62457516E+02</pdfrwt>
<totfact> 0.11699669E+02</totfact>
</mgrwt>
</event>
<event>
 7    1  0.4252091E-004  0.5473550E+02  0.7546771E-02  0.1515150E+00
         -1   -1    0    0    0  501 -0.00000000000E+00  0.00000000000E+00  0.84192145829E+02  0.84192145829E+02  0.00000000000E+00 0.  1.
          1   -1    0    0  503    0  0.00000000000E+00 -0.00000000000E+00 -0.46684481473E+03  0.46684481473E+03  0.00000000000E+00 0. -1.
         25    2    1    2    0    0  0.52172221029E+02  0.15372664003E+02 -0.16734652924E+03  0.21584569345E+03  0.12500497224E+03 0.  0.
          4    1    3    3  502    0  0.78746366174E+02  0.17269399139E+02 -0.48603998186E+02  0.94144484023E+02  0.12700000000E+01 0. -1.
         -4    1    3    3    0  502 -0.26574145145E+02 -0.18967351368E+01 -0.11874253106E+03  0.12170120943E+03  0.12700000000E+01 0. -1.
          2    1    1    2  503    0 -0.13750688196E+02  0.24266425533E+02 -0.26163836578E+03  0.26312083780E+03  0.00000000000E+00 0. -1.
         -2    1    1    2    0  501 -0.38421532833E+02 -0.39639089536E+02  0.46332226120E+02  0.72070429315E+02  0.00000000000E+00 0.  1.
<mgrwt>
<rscale>  0 0.39072497E+02</rscale>
<asrwt>0</asrwt>
<pdfrwt beam="2">  1        1 0.71822279E-01 0.27891591E+02</pdfrwt>
<pdfrwt beam="1">  1       -1 0.12952638E-01 0.54735496E+02</pdfrwt>
<totfact> 0.19287623E+03</totfact>
</mgrwt>
</event>
<event>
 7    1  0.4252091E-004  0.1372468E+03  0.7546771E-02  0.1254167E+00
          1   -1    0    0  503    0  0.00000000000E+00  0.00000000000E+00  0.23335882176E+04  0.23335882176E+04  0.00000000000E+00 0. -1.
         -1   -1    0    0    0  501 -0.00000000000E+00 -0.00000000000E+00 -0.16616361874E+03  0.16616361874E+03  0.00000000000E+00 0.  1.
         25    2    1    2    0    0 -0.82061282788E+02  0.90462598434E+02  0.21807564680E+03  0.27946432693E+03  0.12500314575E+03 0.  0.
          4    1    3    3  502    0  0.18477403869E+02  0.69590629951E+02  0.86206153406E+02  0.11232712947E+03  0.12700000000E+01 0.  1.
         -4    1    3    3    0  502 -0.10053868666E+03  0.20871968483E+02  0.13186949340E+03  0.16713719745E+03  0.12700000000E+01 0.  1.
          2    1    1    2  503    0  0.26599108187E+01 -0.14061365823E+03  0.20658587853E+04  0.20706404316E+04  0.00000000000E+00 0. -1.
         -2    1    1    2    0  501  0.79401371969E+02  0.50151059792E+02 -0.11650983324E+03  0.14964707786E+03  0.00000000000E+00 0.  1.
<mgrwt>
<rscale>  0 0.11353103E+03</rscale>
<asrwt>0</asrwt>
<pdfrwt beam="1">  1        1 0.35901355E+00 0.13724676E+03</pdfrwt>
<pdfrwt beam="2">  1       -1 0.25563635E-01 0.93913293E+02</pdfrwt>
<totfact> 0.29570723E+01</totfact>
</mgrwt>
</event>
<event>
 7    1  0.4252091E-004  0.1023669E+03  0.7546771E-02  0.1334399E+00
          2   -1    0    0  503    0  0.00000000000E+00  0.00000000000E+00  0.12683284688E+04  0.12683284688E+04  0.00000000000E+00 0. -1.
          1   -1    0    0  502    0 -0.00000000000E+00 -0.00000000000E+00 -0.24712579195E+03  0.24712579195E+03  0.00000000000E+00 0. -1.
         25    2    1    2    0    0 -0.25278951155E+02 -0.13004991312E+03  0.26140038965E+03  0.31860294113E+03  0.12500266041E+03 0.  0.
          4    1    3    3  501    0 -0.55335332425E+02 -0.13316287657E+03  0.24476005433E+03  0.28408352259E+03  0.12700000000E+01 0. -1.
         -4    1    3    3    0  501  0.30056381270E+02  0.31129634527E+01  0.16640335322E+02  0.34519418537E+02  0.12700000000E+01 0. -1.
          2    1    1    2  502    0 -0.25307685216E+02  0.98432580332E+02 -0.20573671494E+03  0.22947123497E+03  0.00000000000E+00 0. -1.
          1    1    1    2  503    0  0.50586636371E+02  0.31617332788E+02  0.96553900217E+03  0.96738008467E+03  0.00000000000E+00 0. -1.
<mgrwt>
<rscale>  0 0.78145068E+02</rscale>
<asrwt>0</asrwt>
<pdfrwt beam="1">  1        2 0.19512745E+00 0.59654535E+02</pdfrwt>
<pdfrwt beam="2">  1        1 0.38019353E-01 0.10236693E+03</pdfrwt>
<totfact> 0.30773899E+02</totfact>
</mgrwt>
</event>
<event>
 7    1  0.4252091E-004  0.1186020E+03  0.7546771E-02  0.1348470E+00
          1   -1    0    0  502    0 -0.00000000000E+00  0.00000000000E+00  0.23669809324E+04  0.23669809324E+04  0.00000000000E+00 0. -1.
          2   -1    0    0  503    0  0.00000000000E+00 -0.00000000000E+00 -0.64354818631E+03  0.64354818631E+03  0.00000000000E+00 0. -1.
         25    2    1    2    0    0 -0.10529751423E+02  0.11418338479E+03  0.21542386052E+03  0.27419109817E+03  0.12499839042E+03 0.  0.
          4    1    3    3  501    0 -0.13767120492E+01  0.19807725568E+02  0.16612998651E+03  0.16731714391E+03  0.12700000000E+01 0. -1.
         -4    1    3    3    0  501 -0.91530393738E+01  0.94375659227E+02  0.49293874007E+02  0.10687395426E+03  0.12700000000E+01 0. -1.
          2    1    1    2  502    0 -0.35062280756E+02 -0.11402490222E+03  0.21196478630E+04  0.21230021443E+04  0.00000000000E+00 0. -1.
          1    1    1    2  503    0  0.45592032179E+02 -0.15848257604E+00 -0.61163897734E+03  0.61333587626E+03  0.00000000000E+00 0. -1.
<mgrwt>
<rscale>  0 0.73534596E+02</rscale>
<asrwt>0</asrwt>
<pdfrwt beam="2">  1        2 0.99007414E-01 0.45592308E+02</pdfrwt>
<pdfrwt beam="1">  1        1 0.36415091E+00 0.11860195E+03</pdfrwt>
<totfact> 0.14478567E+01</totfact>
</mgrwt>
</event>
<event>
 7    1  0.4252091E-004  0.5978144E+02  0.7546771E-02  0.1467590E+00
         -1   -1    0    0    0  501 -0.00000000000E+00  0.00000000000E+00  0.41355280776E+02  0.41355280776E+02  0.00000000000E+00 0.  1.
          1   -1    0    0  503    0  0.00000000000E+00 -0.00000000000E+00 -0.71187954988E+03  0.71187954988E+03  0.00000000000E+00 0. -1.
         25    2    1    2    0    0 -0.83553395129E+02  0.12450008796E+02 -0.28518618309E+03  0.32263379008E+03  0.12500092367E+03 0.  0.
          4    1    3    3  502    0 -0.35009789107E+01 -0.43444024733E+02 -0.14770339761E+03  0.15400502168E+03  0.12700000000E+01 0. -1.
         -4    1    3    3    0  502 -0.80052416219E+02  0.55894033529E+02 -0.13748278548E+03  0.16862876839E+03  0.12700000000E+01 0. -1.
          2    1    1    2  503    0  0.56474816490E+02  0.10582845882E+02 -0.39047730366E+03  0.39468205710E+03  0.00000000000E+00 0. -1.
         -2    1    1    2    0  501  0.27078578639E+02 -0.23032854678E+02  0.51392176487E+01  0.35918983474E+02  0.00000000000E+00 0.  1.
<mgrwt>
<rscale>  0 0.46099847E+02</rscale>
<asrwt>0</asrwt>
<pdfrwt beam="2">  1        1 0.10951992E+00 0.59781437E+02</pdfrwt>
<pdfrwt beam="1">  1       -1 0.63623516E-02 0.35549428E+02</pdfrwt>
<totfact> 0.30005488E+03</totfact>
</mgrwt>
</event>
<event>
 7    1  0.4252091E-004  0.1607009E+03  0.7546771E-02  0.1326949E+00
          1   -1    0    0  502    0 -0.00000000000E+00  0.00000000000E+00  0.12516616924E+04  0.12516616924E+04  0.00000000000E+00 0. -1.
          2   -1    0    0  503    0  0.00000000000E+00 -0.00000000000E+00 -0.19728812308E+04  0.19728812308E+04  0.00000000000E+00 0. -1.
         25    2    1    2    0    0  0.10697543601E+03 -0.15167204395E+03 -0.92549839008E+02  0.24215441781E+03  0.12500054617E+03 0.  0.
          4    1    3    3  501    0  0.47641258101E+02 -0.39846340803E+02  0.27271307153E+02  0.67843624923E+02  0.12700000000E+01 0. -1.
         -4    1    3    3    0  501  0.59334177905E+02 -0.11182570314E+03 -0.11982114616E+03  0.17431079289E+03  0.12700000000E+01 0. -1.
          2    1    1    2  502    0 -0.40008644941E+02  0.67326816911E+01  0.11729782922E+04  0.11736797241E+04  0.00000000000E+00 0. -1.
          1    1    1    2  503    0 -0.66966791065E+02  0.14493936225E+03 -0.18016479917E+04  0.18087087813E+04  0.00000000000E+00 0. -1.
<mgrwt>
<rscale>  0 0.80745433E+02</rscale>
<asrwt>0</asrwt>
<pdfrwt beam="2">  1        2 0.30352019E+00 0.16070089E+03</pdfrwt>
<pdfrwt beam="1">  1        1 0.19256334E+00 0.40571180E+02</pdfrwt>
<totfact> 0.13716411E+01</totfact>
</mgrwt>
</event>
<event>
 7    1  0.4252091E-004  0.4395324E+02  0.7546771E-02  0.1568028E+00
         -3   -1    0    0    0  501 -0.00000000000E+00  0.00000000000E+00  0.32773067903E+03  0.32773067903E+03  0.00000000000E+00 0.  1.
          1   -1    0    0  503    0  0.00000000000E+00 -0.00000000000E+00 -0.24425775526E+04  0.24425775526E+04  0.00000000000E+00 0. -1.
         25    2    1    2    0    0 -0.40208732798E+02 -0.12836858554E+02 -0.12935586333E+04  0.13002701033E+04  0.12500750626E+03 0.  0.
          4    1    3    3  502    0 -0.29182194849E+02 -0.44300398582E+02 -0.22430778306E+03  0.23049885087E+03  0.12700000000E+01 0. -1.
         -4    1    3    3    0  502 -0.11026537949E+02  0.31463540028E+02 -0.10692508502E+04  0.10697712524E+04  0.12700000000E+01 0. -1.
          2    1    1    2  503    0 -0.21683619700E+01  0.24538915437E+02 -0.11440403767E+04  0.11443055727E+04  0.00000000000E+00 0. -1.
         -2    1    1    2    0  501  0.42377094768E+02 -0.11702056883E+02  0.32275213638E+03  0.32573255569E+03  0.00000000000E+00 0.  1.
<mgrwt>
<rscale>  0 0.32905431E+02</rscale>
<asrwt>0</asrwt>
<pdfrwt beam="2">  1        1 0.37578118E+00 0.24634532E+02</pdfrwt>
<pdfrwt beam="1">  1       -3 0.50420102E-01 0.43953237E+02</pdfrwt>
<totfact> 0.49084709E+00</totfact>
</mgrwt>
</event>
<event>
 7    1  0.4252091E-004  0.6079521E+02  0.7546771E-02  0.1419021E+00
          2   -1    0    0  503    0  0.00000000000E+00  0.00000000000E+00  0.21708958417E+03  0.21708958417E+03  0.00000000000E+00 0. -1.
         -2   -1    0    0    0  501 -0.00000000000E+00 -0.00000000000E+00 -0.15883651221E+03  0.15883651221E+03  0.00000000000E+00 0.  1.
         25    2    1    2    0    0 -0.29974301957E+02  0.91099398022E+02  0.10545735028E+03  0.18958962855E+03  0.12500166170E+03 0.  0.
          4    1    3    3  502    0  0.40521591303E+02 -0.21946091773E+01  0.26164964572E+02  0.48301490062E+02  0.12700000000E+01 0. -1.
         -4    1    3    3    0  502 -0.70495893260E+02  0.93294007199E+02  0.79292385711E+02  0.14128813849E+03  0.12700000000E+01 0. -1.
          1    1    1    2  503    0 -0.23372930863E+01 -0.52717578276E+02  0.52677245727E+02  0.74562042727E+02  0.00000000000E+00 0. -1.
         -1    1    1    2    0  501  0.32311595044E+02 -0.38381819746E+02 -0.99881524043E+02  0.11177442510E+03  0.00000000000E+00 0.  1.
<mgrwt>
<rscale>  0 0.55228629E+02</rscale>
<asrwt>0</asrwt>
<pdfrwt beam="1">  1        2 0.33398397E-01 0.60795212E+02</pdfrwt>
<pdfrwt beam="2">  1       -2 0.24436387E-01 0.50171738E+02</pdfrwt>
<totfact> 0.21364122E+03</totfact>
</mgrwt>
</event>
<event>
 7    1  0.4252091E-004  0.9240994E+02  0.7546771E-02  0.1404746E+00
          1   -1    0    0  502    0 -0.00000000000E+00  0.00000000000E+00  0.66276272971E+03  0.66276272971E+03  0.00000000000E+00 0. -1.
          2   -1    0    0  503    0  0.00000000000E+00 -0.00000000000E+00 -0.14825590008E+04  0.14825590008E+04  0.00000000000E+00 0. -1.
         25    2    1    2    0    0  0.92817173593E+02  0.11078381655E+02  0.21888560371E+03  0.26883833185E+03  0.12500153161E+03 0.  0.
          4    1    3    3  501    0  0.12238932414E+02 -0.12904683322E+02 -0.13073759410E+02  0.22110142545E+02  0.12700000000E+01 0. -1.
         -4    1    3    3    0  501  0.80578241179E+02  0.23983064976E+02  0.23195936312E+03  0.24672818930E+03  0.12700000000E+01 0. -1.
          2    1    1    2  502    0 -0.89851986351E+02  0.25687422734E+02  0.41345166897E+03  0.42388147602E+03  0.00000000000E+00 0. -1.
          1    1    1    2  503    0 -0.29651872424E+01 -0.36765804388E+02 -0.14521335437E+04  0.14526019226E+04  0.00000000000E+00 0. -1.
<mgrwt>
<rscale>  0 0.58382854E+02</rscale>
<asrwt>0</asrwt>
<pdfrwt beam="2">  1        2 0.22808600E+00 0.36885183E+02</pdfrwt>
<pdfrwt beam="1">  1        1 0.10196350E+00 0.92409942E+02</pdfrwt>
<totfact> 0.71636501E+01</totfact>
</mgrwt>
</event>
<event>
 7    1  0.4252091E-004  0.8953519E+02  0.7546771E-02  0.1338524E+00
         -1   -1    0    0    0  501 -0.00000000000E+00  0.00000000000E+00  0.44377462415E+03  0.44377462415E+03  0.00000000000E+00 0.  1.
          1   -1    0    0  503    0  0.00000000000E+00 -0.00000000000E+00 -0.24916538164E+04  0.24916538164E+04  0.00000000000E+00 0. -1.
         25    2    1    2    0    0  0.48398793126E+02  0.35831509947E+02 -0.10416898487E+04  0.10508895657E+04  0.12499919262E+03 0.  0.
          4    1    3    3  502    0  0.49810835977E+01 -0.42213071502E+02 -0.50804722191E+03  0.50982383937E+03  0.12700000000E+01 0.  1.
         -4    1    3    3    0  502  0.43417709528E+02  0.78044581449E+02 -0.53364262676E+03  0.54106572631E+03  0.12700000000E+01 0.  1.
          2    1    1    2  503    0  0.39808997570E+02 -0.52388394859E+02 -0.14400198813E+04  0.14415223060E+04  0.00000000000E+00 0. -1.
         -2    1    1    2    0  501 -0.88207790696E+02  0.16556884911E+02  0.43383053775E+03  0.44301656883E+03  0.00000000000E+00 0.  1.
<mgrwt>
<rscale>  0 0.76754052E+02</rscale>
<asrwt>0</asrwt>
<pdfrwt beam="2">  1        1 0.38333135E+00 0.65797418E+02</pdfrwt>
<pdfrwt beam="1">  1       -1 0.68273020E-01 0.89535193E+02</pdfrwt>
<totfact> 0.46244977E+00</totfact>
</mgrwt>
</event>
<event>
 7    1  0.4252091E-004  0.5733091E+02  0.7546771E-02  0.1449330E+00
          2   -1    0    0  503    0  0.00000000000E+00  0.00000000000E+00  0.18259654681E+03  0.18259654681E+03  0.00000000000E+00 0. -1.
          1   -1    0    0  502    0 -0.00000000000E+00 -0.00000000000E+00 -0.27497047919E+04  0.27497047919E+04  0.00000000000E+00 0. -1.
         25    2    1    2    0    0 -0.18277220487E+02 -0.97415460029E+02  0.93534212736E+01  0.15980205630E+03  0.12500152826E+03 0.  0.
          4    1    3    3  501    0  0.16350872764E+02 -0.11725563290E+03  0.15482761945E+02  0.11940503885E+03  0.12700000000E+01 0.  1.
         -4    1    3    3    0  501 -0.34628093251E+02  0.19840172867E+02 -0.61293406713E+01  0.40397017447E+02  0.12700000000E+01 0.  1.
          2    1    1    2  502    0  0.14868826979E+02  0.55213714754E+02 -0.26695878979E+04  0.26702002137E+04  0.00000000000E+00 0. -1.
          1    1    1    2  503    0  0.34083935085E+01  0.42201745276E+02  0.93126231593E+02  0.10229906872E+03  0.00000000000E+00 0. -1.
<mgrwt>
<rscale>  0 0.49268070E+02</rscale>
<asrwt>0</asrwt>
<pdfrwt beam="1">  1        2 0.28091777E-01 0.42339160E+02</pdfrwt>
<pdfrwt beam="2">  1        1 0.42303149E+00 0.57330914E+02</pdfrwt>
<totfact> 0.33772884E+01</totfact>
</mgrwt>
</event>
<event>
 7    1  0.4252091E-004  0.1767322E+03  0.7546771E-02  0.1179077E+00
          1   -1    0    0  502    0 -0.00000000000E+00  0.00000000000E+00  0.14571441239E+04  0.14571441239E+04  0.00000000000E+00 0. -1.
          2   -1    0    0  503    0  0.00000000000E+00 -0.00000000000E+00 -0.12332133715E+04  0.12332133715E+04  0.00000000000E+00 0. -1.
         25    2    1    2    0    0  0.30280803677E+03  0.12708211427E+03  0.69018452320E+02  0.35809760882E+03  0.12501111865E+03 0.  0.
          4    1    3    3  501    0  0.14591768328E+03  0.42914867701E+02  0.93247626045E+02  0.17841073070E+03  0.12700000000E+01 0. -1.
         -4    1    3    3    0  501  0.15689035348E+03  0.84167246569E+02 -0.24229173725E+02  0.17968687812E+03  0.12700000000E+01 0. -1.
          2    1    1    2  502    0 -0.13536375496E+03 -0.87672508988E+02  0.12315003305E+04  0.12420156517E+04  0.00000000000E+00 0. -1.
          1    1    1    2  503    0 -0.16744428180E+03 -0.39409605282E+02 -0.10765880304E+04  0.10902442349E+04  0.00000000000E+00 0. -1.
<mgrwt>
<rscale>  0 0.16882708E+03</rscale>
<asrwt>0</asrwt>
<pdfrwt beam="2">  1        2 0.18972513E+00 0.17673217E+03</pdfrwt>
<pdfrwt beam="1">  1        1 0.22417602E+00 0.16127559E+03</pdfrwt>
<totfact> 0.21672465E+01</totfact>
</mgrwt>
</event>
<event>
 7    1  0.4252091E-004  0.8619947E+02  0.7546771E-02  0.1316924E+00
          2   -1    0    0  503    0  0.00000000000E+00  0.00000000000E+00  0.63408600049E+03  0.63408600049E+03  0.00000000000E+00 0. -1.
          1   -1    0    0  502    0 -0.00000000000E+00 -0.00000000000E+00 -0.13670970723E+03  0.13670970723E+03  0.00000000000E+00 0. -1.
         25    2    1    2    0    0 -0.66072841021E+02 -0.34415951112E+01 -0.44839239483E+02  0.14836846604E+03  0.12500071768E+03 0.  0.
          4    1    3    3  501    0 -0.19195985559E+02  0.53175256762E+00 -0.84598356427E+02  0.86759803092E+02  0.12700000000E+01 0. -1.
         -4    1    3    3    0  501 -0.46876855462E+02 -0.39733476788E+01  0.39759116944E+02  0.61608662945E+02  0.12700000000E+01 0. -1.
          2    1    1    2  502    0  0.13838711073E+03  0.43568669455E+02  0.10920572937E+03  0.18159050829E+03  0.00000000000E+00 0. -1.
          1    1    1    2  503    0 -0.72314269708E+02 -0.40127074344E+02  0.43300980337E+03  0.44083673339E+03  0.00000000000E+00 0. -1.
<mgrwt>
<rscale>  0 0.84432367E+02</rscale>
<asrwt>0</asrwt>
<pdfrwt beam="1">  1        2 0.97551691E-01 0.82701485E+02</pdfrwt>
<pdfrwt beam="2">  1        1 0.21032263E-01 0.86199474E+02</pdfrwt>
<totfact> 0.15290295E+03</totfact>
</mgrwt>
</event>
<event>
 7    1  0.4252091E-004  0.1042324E+03  0.7546771E-02  0.1378050E+00
         -1   -1    0    0    0  501 -0.00000000000E+00  0.00000000000E+00  0.59364695552E+02  0.59364695552E+02  0.00000000000E+00 0.  1.
          1   -1    0    0  503    0  0.00000000000E+00 -0.00000000000E+00 -0.10428601698E+04  0.10428601698E+04  0.00000000000E+00 0. -1.
         25    2    1    2    0    0 -0.10078184768E+03 -0.45650240667E+02 -0.76195116933E+03  0.78002262366E+03  0.12499913473E+03 0.  0.
          4    1    3    3  502    0 -0.20448855180E+01  0.21894512609E+02 -0.24563557558E+02  0.32992915892E+02  0.12700000000E+01 0.  1.
         -4    1    3    3    0  502 -0.98736962162E+02 -0.67544753276E+02 -0.73738761177E+03  0.74702970777E+03  0.12700000000E+01 0.  1.
          2    1    1    2  503    0  0.10100573312E+03  0.51423778776E+01 -0.25198987920E+03  0.27152808583E+03  0.00000000000E+00 0. -1.
         -2    1    1    2    0  501 -0.22388544013E+00  0.40507862789E+02  0.30445574324E+02  0.50674155823E+02  0.00000000000E+00 0.  1.
<mgrwt>
<rscale>  0 0.64979198E+02</rscale>
<asrwt>0</asrwt>
<pdfrwt beam="2">  1        1 0.16044002E+00 0.10423240E+03</pdfrwt>
<pdfrwt beam="1">  1       -1 0.91330303E-02 0.40508481E+02</pdfrwt>
<totfact> 0.97293699E+02</totfact>
</mgrwt>
</event>
<event>
 7    1  0.4252091E-004  0.1851229E+03  0.7546771E-02  0.1272556E+00
         -1   -1    0    0    0  501 -0.00000000000E+00  0.00000000000E+00  0.29063338776E+03  0.29063338776E+03  0.00000000000E+00 0.  1.
          1   -1    0    0  503    0  0.00000000000E+00 -0.00000000000E+00 -0.65189259882E+03  0.65189259882E+03  0.00000000000E+00 0. -1.
         25    2    1    2    0    0  0.10724107405E+02  0.14449904619E+03 -0.34557647700E+02  0.19445807938E+03  0.12499893115E+03 0.  0.
          4    1    3    3  502    0 -0.45768008593E+02  0.85959986396E+02  0.15954422016E+02  0.98691369196E+02  0.12700000000E+01 0. -1.
         -4    1    3    3    0  502  0.56492115997E+02  0.58539059796E+02 -0.50512069716E+02  0.95766710180E+02  0.12700000000E+01 0. -1.
          2    1    1    2  503    0  0.14559067999E+02  0.56319741340E+02 -0.48663689807E+03  0.49010136737E+03  0.00000000000E+00 0. -1.
         -2    1    1    2    0  501 -0.25283175404E+02 -0.20081878753E+03  0.15993533472E+03  0.25796653984E+03  0.00000000000E+00 0.  1.
<mgrwt>
<rscale>  0 0.10377286E+03</rscale>
<asrwt>0</asrwt>
<pdfrwt beam="2">  1        1 0.10029117E+00 0.58171125E+02</pdfrwt>
<pdfrwt beam="1">  1       -1 0.44712829E-01 0.18512288E+03</pdfrwt>
<totfact> 0.16931427E+02</totfact>
</mgrwt>
</event>
<event>
 7    1  0.4252091E-004  0.5072054E+02  0.7546771E-02  0.1515313E+00
          2   -1    0    0  503    0  0.00000000000E+00  0.00000000000E+00  0.26200111144E+04  0.26200111144E+04  0.00000000000E+00 0. -1.
         -2   -1    0    0    0  501 -0.00000000000E+00 -0.00000000000E+00 -0.53818755145E+01  0.53818755145E+01  0.00000000000E+00 0.  1.
         25    2    1    2    0    0  0.23897986916E+02 -0.25523320932E+02  0.10857802388E+04  0.10935097978E+04  0.12498958810E+03 0.  0.
          4    1    3    3  502    0  0.50707245753E+02 -0.33801646457E+01  0.99487758300E+03  0.99617552085E+03  0.12700000000E+01 0.  1.
         -4    1    3    3    0  502 -0.26809258837E+02 -0.22143156286E+02  0.90902655814E+02  0.97334276921E+02  0.12700000000E+01 0.  1.
          1    1    1    2  503    0 -0.51754712453E+02  0.14210020170E+02  0.12946701591E+04  0.12957821174E+04  0.00000000000E+00 0. -1.
         -1    1    1    2    0  501  0.27856725537E+02  0.11313300762E+02  0.23417884101E+03  0.23610107477E+03  0.00000000000E+00 0.  1.
<mgrwt>
<rscale>  0 0.39051040E+02</rscale>
<asrwt>0</asrwt>
<pdfrwt beam="1">  1        2 0.40307761E+00 0.50720542E+02</pdfrwt>
<pdfrwt beam="2">  1       -2 0.82798294E-03 0.30066392E+02</pdfrwt>
<totfact> 0.83448879E+03</totfact>
</mgrwt>
</event>
<event>
 7    1  0.4760670E-004  0.4898925E+02  0.7546771E-02  0.1497472E+00
         -2   -1    0    0    0  501 -0.00000000000E+00  0.00000000000E+00  0.93293939525E+01  0.93293939525E+01  0.00000000000E+00 0.  1.
          2   -1    0    0  503    0  0.00000000000E+00 -0.00000000000E+00 -0.14429616154E+04  0.14429616154E+04  0.00000000000E+00 0. -1.
         25    2    1    2    0    0 -0.33840351221E+02 -0.39884984414E+01 -0.66290420388E+03  0.67544363341E+03  0.12498416262E+03 0.  0.
          4    1    3    3  502    0  0.20508903815E+02  0.47952748278E+02 -0.21273749082E+03  0.21904094161E+03  0.12700000000E+01 0.  1.
         -4    1    3    3    0  502 -0.54349255036E+02 -0.51941246720E+02 -0.45016671306E+03  0.45640269180E+03  0.12700000000E+01 0.  1.
          1    1    1    2  503    0 -0.14472662841E+02 -0.32033864478E+02 -0.36163779973E+03  0.36334215918E+03  0.00000000000E+00 0. -1.
         -1    1    1    2    0  501  0.48313014062E+02  0.36022362919E+02 -0.40909021788E+03  0.41350521680E+03  0.00000000000E+00 0.  1.
<mgrwt>
<rscale>  0 0.41497523E+02</rscale>
<asrwt>0</asrwt>
<pdfrwt beam="2">  1        2 0.22199401E+00 0.35151479E+02</pdfrwt>
<pdfrwt beam="1">  1       -2 0.14352919E-02 0.48989245E+02</pdfrwt>
<totfact> 0.16991125E+04</totfact>
</mgrwt>
</event>
<event>
 7    1  0.4252091E-004  0.9084951E+02  0.7546771E-02  0.1337675E+00
          1   -1    0    0  502    0 -0.00000000000E+00  0.00000000000E+00  0.46665232215E+03  0.46665232215E+03  0.00000000000E+00 0. -1.
          2   -1    0    0  503    0  0.00000000000E+00 -0.00000000000E+00 -0.78673568606E+03  0.78673568606E+03  0.00000000000E+00 0. -1.
         25    2    1    2    0    0 -0.11504282255E+03  0.50898946422E+02 -0.14003848034E+03  0.22596775421E+03  0.12500038480E+03 0.  0.
          4    1    3    3  501    0  0.12216788601E+02 -0.21139572645E+02 -0.46023626773E+02  0.52114475693E+02  0.12700000000E+01 0. -1.
         -4    1    3    3    0  501 -0.12725961115E+03  0.72038519067E+02 -0.94014853567E+02  0.17385327852E+03  0.12700000000E+01 0. -1.
          2    1    1    2  502    0  0.26189450907E+02 -0.59845663339E+02  0.41783351683E+03  0.42290925569E+03  0.00000000000E+00 0. -1.
          1    1    1    2  503    0  0.88853371646E+02  0.89467169168E+01 -0.59787840040E+03  0.60451099830E+03  0.00000000000E+00 0. -1.
<mgrwt>
<rscale>  0 0.77037450E+02</rscale>
<asrwt>0</asrwt>
<pdfrwt beam="2">  1        2 0.12103626E+00 0.90849511E+02</pdfrwt>
<pdfrwt beam="1">  1        1 0.71792665E-01 0.65325269E+02</pdfrwt>
<totfact> 0.26290632E+02</totfact>
</mgrwt>
</event>
<event>
 7    1  0.4252091E-004  0.1777125E+03  0.7546771E-02  0.1238822E+00
          2   -1    0    0  503    0  0.00000000000E+00  0.00000000000E+00  0.16065198952E+04  0.16065198952E+04  0.00000000000E+00 0. -1.
         -2   -1    0    0    0  501 -0.00000000000E+00 -0.00000000000E+00 -0.22419821510E+03  0.22419821510E+03  0.00000000000E+00 0.  1.
         25    2    1    2    0    0  0.10698848664E+03  0.12990863323E+03  0.34417423176E+03  0.40299340184E+03  0.12499996343E+03 0.  0.
          4    1    3    3  502    0  0.12847015125E+03  0.11373615248E+03  0.23764946546E+03  0.29312006665E+03  0.12700000000E+01 0. -1.
         -4    1    3    3    0  502 -0.21481664618E+02  0.16172480753E+02  0.10652476630E+03  0.10987333518E+03  0.12700000000E+01 0. -1.
          1    1    1    2  503    0  0.59703383717E+02 -0.59965386414E+02  0.11891657864E+04  0.11921726424E+04  0.00000000000E+00 0. -1.
         -1    1    1    2    0  501 -0.16669187035E+03 -0.69943246815E+02 -0.15101833807E+03  0.23555206611E+03  0.00000000000E+00 0.  1.
<mgrwt>
<rscale>  0 0.12262880E+03</rscale>
<asrwt>0</asrwt>
<pdfrwt beam="1">  1        2 0.24715690E+00 0.84618802E+02</pdfrwt>
<pdfrwt beam="2">  1       -2 0.34492034E-01 0.17771254E+03</pdfrwt>
<totfact> 0.10503680E+02</totfact>
</mgrwt>
</event>
<event>
 7    1  0.4252091E-004  0.1300198E+03  0.7546771E-02  0.1359842E+00
          1   -1    0    0  502    0 -0.00000000000E+00  0.00000000000E+00  0.26284483757E+04  0.26284483757E+04  0.00000000000E+00 0. -1.
          2   -1    0    0  503    0  0.00000000000E+00 -0.00000000000E+00 -0.74856937697E+02  0.74856937697E+02  0.00000000000E+00 0. -1.
         25    2    1    2    0    0  0.15296219239E+03  0.33613927520E+02  0.81223375973E+03  0.83658643005E+03  0.12500338423E+03 0.  0.
          4    1    3    3  501    0  0.42839559249E+02  0.71761742972E+02  0.35986732629E+03  0.36944699352E+03  0.12700000000E+01 0.  1.
         -4    1    3    3    0  501  0.11012263315E+03 -0.38147815452E+02  0.45236643344E+03  0.46713943653E+03  0.12700000000E+01 0.  1.
          2    1    1    2  502    0 -0.11704761021E+03 -0.45293764005E+02  0.17959536743E+04  0.18003336547E+04  0.00000000000E+00 0. -1.
          1    1    1    2  503    0 -0.35914582181E+02  0.11679836485E+02 -0.54595996041E+02  0.66385228608E+02  0.00000000000E+00 0. -1.
<mgrwt>
<rscale>  0 0.70073790E+02</rscale>
<asrwt>0</asrwt>
<pdfrwt beam="2">  1        2 0.11516454E-01 0.37766067E+02</pdfrwt>
<pdfrwt beam="1">  1        1 0.40437660E+00 0.13001979E+03</pdfrwt>
<totfact> 0.94139443E+01</totfact>
</mgrwt>
</event>
<event>
 7    1  0.4252091E-004  0.3570001E+02  0.7546771E-02  0.1612829E+00
          2   -1    0    0  503    0  0.00000000000E+00  0.00000000000E+00  0.17559657225E+04  0.17559657225E+04  0.00000000000E+00 0. -1.
         -2   -1    0    0    0  501 -0.00000000000E+00 -0.00000000000E+00 -0.43528347307E+02  0.43528347307E+02  0.00000000000E+00 0.  1.
         25    2    1    2    0    0 -0.30804474057E+02 -0.39581323117E+02  0.75727534111E+03  0.76915993858E+03  0.12500188840E+03 0.  0.
          4    1    3    3  502    0 -0.16799719578E+02  0.45421776704E+02  0.28577840391E+03  0.28985561478E+03  0.12700000000E+01 0.  1.
         -4    1    3    3    0  502 -0.14004754478E+02 -0.85003099821E+02  0.47149693719E+03  0.47930432380E+03  0.12700000000E+01 0.  1.
          1    1    1    2  503    0  0.83689943624E+01  0.34144206393E+02  0.98886141130E+03  0.98948610787E+03  0.00000000000E+00 0. -1.
         -1    1    1    2    0  501  0.22435479694E+02  0.54371167242E+01 -0.33699377220E+02  0.40848023360E+02  0.00000000000E+00 0.  1.
<mgrwt>
<rscale>  0 0.28707691E+02</rscale>
<asrwt>0</asrwt>
<pdfrwt beam="1">  1        2 0.27014852E+00 0.35700013E+02</pdfrwt>
<pdfrwt beam="2">  1       -2 0.66966702E-02 0.23084908E+02</pdfrwt>
<totfact> 0.12112867E+03</totfact>
</mgrwt>
</event>
<event>
 7    1  0.4252091E-004  0.7377750E+02  0.7546771E-02  0.1467921E+00
          1   -1    0    0  502    0 -0.00000000000E+00  0.00000000000E+00  0.86982627227E+02  0.86982627227E+02  0.00000000000E+00 0. -1.
          2   -1    0    0  503    0  0.00000000000E+00 -0.00000000000E+00 -0.36616204310E+03  0.36616204310E+03  0.00000000000E+00 0. -1.
         25    2    1    2    0    0  0.78798911773E+02  0.25884547135E+02 -0.49121121209E+02  0.15785039978E+03  0.12499834353E+03 0.  0.
          4    1    3    3  501    0 -0.14295952682E+02  0.27499667202E+02 -0.56485129960E+02  0.64442135020E+02  0.12700000000E+01 0. -1.
         -4    1    3    3    0  501  0.93094864455E+02 -0.16151200676E+01  0.73640087502E+01  0.93408264761E+02  0.12700000000E+01 0. -1.
          2    1    1    2  502    0 -0.56434877093E+02 -0.43930718191E+02 -0.86617106994E+01  0.72040464917E+02  0.00000000000E+00 0. -1.
          1    1    1    2  503    0 -0.22364034680E+02  0.18046171056E+02 -0.22139658396E+03  0.22325380562E+03  0.00000000000E+00 0. -1.
<mgrwt>
<rscale>  0 0.46045012E+02</rscale>
<asrwt>0</asrwt>
<pdfrwt beam="2">  1        2 0.56332623E-01 0.28736986E+02</pdfrwt>
<pdfrwt beam="1">  1        1 0.13381943E-01 0.73777505E+02</pdfrwt>
<totfact> 0.48385116E+03</totfact>
</mgrwt>
</event>
<event>
 7    1  0.4252091E-004  0.7923449E+02  0.7546771E-02  0.1468327E+00
         -1   -1    0    0    0  501 -0.00000000000E+00  0.00000000000E+00  0.17007435868E+02  0.17007435868E+02  0.00000000000E+00 0.  1.
          1   -1    0    0  503    0  0.00000000000E+00 -0.00000000000E+00 -0.11654533821E+04  0.11654533821E+04  0.00000000000E+00 0. -1.
         25    2    1    2    0    0 -0.68736724923E+02 -0.31981907504E+02 -0.44539192242E+03  0.46877090636E+03  0.12499847332E+03 0.  0.
          4    1    3    3  502    0 -0.43620128034E+02 -0.80107661528E+02 -0.30035707927E+03  0.31390435004E+03  0.12700000000E+01 0.  1.
         -4    1    3    3    0  502 -0.25116596889E+02  0.48125754024E+02 -0.14503484314E+03  0.15486655632E+03  0.12700000000E+01 0.  1.
          2    1    1    2  503    0  0.51398151921E+01 -0.26180316387E+02 -0.72115745836E+02  0.76892831030E+02  0.00000000000E+00 0. -1.
         -2    1    1    2    0  501  0.63596909731E+02  0.58162223891E+02 -0.63093827794E+03  0.63679708054E+03  0.00000000000E+00 0.  1.
<mgrwt>
<rscale>  0 0.45978067E+02</rscale>
<asrwt>0</asrwt>
<pdfrwt beam="2">  1        1 0.17930055E+00 0.26680080E+02</pdfrwt>
<pdfrwt beam="1">  1       -1 0.26165281E-02 0.79234494E+02</pdfrwt>
<totfact> 0.58321554E+03</totfact>
</mgrwt>
</event>
<event>
 7    1  0.4252091E-004  0.1358679E+03  0.7546771E-02  0.1362304E+00
          2   -1    0    0  503    0  0.00000000000E+00  0.00000000000E+00  0.79595337186E+03  0.79595337186E+03  0.00000000000E+00 0. -1.
          1   -1    0    0  502    0 -0.00000000000E+00 -0.00000000000E+00 -0.12000373009E+04  0.12000373009E+04  0.00000000000E+00 0. -1.
         25    2    1    2    0    0  0.27380751960E+02  0.15563453930E+03  0.13914314104E+03  0.24486246743E+03  0.12499999543E+03 0.  0.
          4    1    3    3  501    0 -0.38163115510E+02  0.11943881984E+03  0.73950525199E+02  0.14557591885E+03  0.12700000000E+01 0.  1.
         -4    1    3    3    0  501  0.65543867470E+02  0.36195719461E+02  0.65192615837E+02  0.99286548585E+02  0.12700000000E+01 0.  1.
          2    1    1    2  502    0 -0.47830701006E+02 -0.12673671366E+03 -0.11426546324E+04  0.11506561517E+04  0.00000000000E+00 0. -1.
          1    1    1    2  503    0  0.20449949046E+02 -0.28897825639E+02  0.59942756230E+03  0.60047205363E+03  0.00000000000E+00 0. -1.
<mgrwt>
<rscale>  0 0.69353886E+02</rscale>
<asrwt>0</asrwt>
<pdfrwt beam="1">  1        2 0.12245437E+00 0.35401762E+02</pdfrwt>
<pdfrwt beam="2">  1        1 0.18462112E+00 0.13586785E+03</pdfrwt>
<totfact> 0.63810378E+01</totfact>
</mgrwt>
</event>
<event>
 7    1  0.4252091E-004  0.5017580E+02  0.7546771E-02  0.1523277E+00
          1   -1    0    0  502    0 -0.00000000000E+00  0.00000000000E+00  0.15504188354E+04  0.15504188354E+04  0.00000000000E+00 0. -1.
          2   -1    0    0  503    0  0.00000000000E+00 -0.00000000000E+00 -0.14444464797E+03  0.14444464797E+03  0.00000000000E+00 0. -1.
         25    2    1    2    0    0  0.37571103808E+01  0.58294945941E+02  0.47621723547E+03  0.49580248321E+03  0.12499932161E+03 0.  0.
          4    1    3    3  501    0 -0.19397917815E+02  0.66317489772E+02  0.46261086003E+03  0.46774427776E+03  0.12700000000E+01 0.  1.
         -4    1    3    3    0  501  0.23155028196E+02 -0.80225438313E+01  0.13606375437E+02  0.28058205445E+02  0.12700000000E+01 0.  1.
          2    1    1    2  502    0 -0.25639717288E+02 -0.13150013093E+02  0.10595332926E+04  0.10599250521E+04  0.00000000000E+00 0. -1.
          1    1    1    2  503    0  0.21882606907E+02 -0.45144932847E+02 -0.12977634064E+03  0.13913594804E+03  0.00000000000E+00 0. -1.
<mgrwt>
<rscale>  0 0.38024039E+02</rscale>
<asrwt>0</asrwt>
<pdfrwt beam="2">  1        2 0.22222255E-01 0.50175798E+02</pdfrwt>
<pdfrwt beam="1">  1        1 0.23852596E+00 0.28815238E+02</pdfrwt>
<totfact> 0.26379313E+02</totfact>
</mgrwt>
</event>
<event>
 7    1  0.4252091E-004  0.8164809E+02  0.7546771E-02  0.1440789E+00
          1   -1    0    0  503    0  0.00000000000E+00  0.00000000000E+00  0.91700462643E+03  0.91700462643E+03  0.00000000000E+00 0. -1.
         -1   -1    0    0    0  501 -0.00000000000E+00 -0.00000000000E+00 -0.20142838732E+03  0.20142838732E+03  0.00000000000E+00 0.  1.
         25    2    1    2    0    0  0.33322773969E+02  0.52908547542E+02 -0.16640447403E+02  0.14075634330E+03  0.12500288805E+03 0.  0.
          4    1    3    3  502    0 -0.15796779270E+02  0.62107189681E+02  0.31443925461E+02  0.71394499745E+02  0.12700000000E+01 0.  1.
         -4    1    3    3    0  502  0.49119553239E+02 -0.91986421397E+01 -0.48084372864E+02  0.69361843555E+02  0.12700000000E+01 0.  1.
          2    1    1    2  503    0 -0.17488549564E+02 -0.80340638014E+02  0.85088786052E+03  0.85485122605E+03  0.00000000000E+00 0. -1.
         -2    1    1    2    0  501 -0.15834224405E+02  0.27432090472E+02 -0.11867117401E+03  0.12282544440E+03  0.00000000000E+00 0.  1.
<mgrwt>
<rscale>  0 0.50853923E+02</rscale>
<asrwt>0</asrwt>
<pdfrwt beam="1">  1        1 0.14107763E+00 0.81648088E+02</pdfrwt>
<pdfrwt beam="2">  1       -1 0.30988983E-01 0.31674000E+02</pdfrwt>
<totfact> 0.18609540E+02</totfact>
</mgrwt>
</event>
<event>
 7    1  0.4252091E-004  0.8869780E+02  0.7546771E-02  0.1388886E+00
          1   -1    0    0  502    0 -0.00000000000E+00  0.00000000000E+00  0.24589024764E+03  0.24589024764E+03  0.00000000000E+00 0. -1.
          2   -1    0    0  503    0  0.00000000000E+00 -0.00000000000E+00 -0.20210670737E+04  0.20210670737E+04  0.00000000000E+00 0. -1.
         25    2    1    2    0    0 -0.19274770016E+01  0.63379915604E+02 -0.10582717488E+04  0.10675133242E+04  0.12499949656E+03 0.  0.
          4    1    3    3  501    0 -0.55074325315E+02 -0.17050142393E+01 -0.48333101372E+03  0.48646332864E+03  0.12700000000E+01 0.  1.
         -4    1    3    3    0  501  0.53146848313E+02  0.65084929843E+02 -0.57494073505E+03  0.58104999552E+03  0.12700000000E+01 0.  1.
          2    1    1    2  502    0  0.43060022784E+02 -0.77829565668E+02  0.23255433382E+03  0.24898418631E+03  0.00000000000E+00 0. -1.
          1    1    1    2  503    0 -0.41132545782E+02  0.14449650064E+02 -0.94945941115E+03  0.95045981090E+03  0.00000000000E+00 0. -1.
<mgrwt>
<rscale>  0 0.62184709E+02</rscale>
<asrwt>0</asrwt>
<pdfrwt beam="2">  1        2 0.31093340E+00 0.43596774E+02</pdfrwt>
<pdfrwt beam="1">  1        1 0.37829268E-01 0.88697801E+02</pdfrwt>
<totfact> 0.13543246E+02</totfact>
</mgrwt>
</event>
<event>
 7    1  0.4252091E-004  0.5968050E+02  0.7546771E-02  0.1444253E+00
         -2   -1    0    0    0  501 -0.00000000000E+00  0.00000000000E+00  0.44164694783E+02  0.44164694783E+02  0.00000000000E+00 0.  1.
          2   -1    0    0  503    0  0.00000000000E+00 -0.00000000000E+00 -0.13125643423E+04  0.13125643423E+04  0.00000000000E+00 0. -1.
         25    2    1    2    0    0  0.35819351605E+01 -0.85703822999E+02 -0.52426892357E+03  0.54574837317E+03  0.12500162823E+03 0.  0.
          4    1    3    3  502    0  0.12743867694E+02  0.24177425788E+02 -0.36191493192E+02  0.45369495931E+02  0.12700000000E+01 0.  1.
         -4    1    3    3    0  502 -0.91619325334E+01 -0.10988124879E+03 -0.48807743038E+03  0.50037887724E+03  0.12700000000E+01 0.  1.
          1    1    1    2  503    0  0.24787317804E+02  0.34189316704E+02 -0.75062654018E+03  0.75181348972E+03  0.00000000000E+00 0. -1.
         -1    1    1    2    0  501 -0.28369252964E+02  0.51514506295E+02  0.64958162406E+01  0.59167174186E+02  0.00000000000E+00 0.  1.
<mgrwt>
<rscale>  0 0.50202294E+02</rscale>
<asrwt>0</asrwt>
<pdfrwt beam="2">  1        2 0.20193300E+00 0.42229380E+02</pdfrwt>
<pdfrwt beam="1">  1       -2 0.67945675E-02 0.59680495E+02</pdfrwt>
<totfact> 0.21334584E+03</totfact>
</mgrwt>
</event>
<event>
 7    1  0.4252091E-004  0.1588571E+03  0.7546771E-02  0.1196651E+00
          2   -1    0    0  503    0  0.00000000000E+00  0.00000000000E+00  0.22557630379E+04  0.22557630379E+04  0.00000000000E+00 0. -1.
          1   -1    0    0  502    0 -0.00000000000E+00 -0.00000000000E+00 -0.12091093648E+04  0.12091093648E+04  0.00000000000E+00 0. -1.
         25    2    1    2    0    0 -0.57640805787E+02  0.45015150348E+02 -0.15370347898E+03  0.21121037656E+03  0.12504494177E+03 0.  0.
          4    1    3    3  501    0 -0.36341143168E+02 -0.29492455327E+02 -0.11585867980E+03  0.12496131479E+03  0.12700000000E+01 0.  1.
         -4    1    3    3    0  501 -0.21299662619E+02  0.74507605675E+02 -0.37844799183E+02  0.86249061771E+02  0.12700000000E+01 0.  1.
          2    1    1    2  502    0  0.97486994386E+02  0.11089568983E+03 -0.10184144352E+04  0.10290624519E+04  0.00000000000E+00 0. -1.
          1    1    1    2  503    0 -0.39846188599E+02 -0.15591084018E+03  0.22187715874E+04  0.22245995742E+04  0.00000000000E+00 0. -1.
<mgrwt>
<rscale>  0 0.15315292E+03</rscale>
<asrwt>0</asrwt>
<pdfrwt beam="1">  1        2 0.34704047E+00 0.15885712E+03</pdfrwt>
<pdfrwt beam="2">  1        1 0.18601683E+00 0.14765354E+03</pdfrwt>
<totfact> 0.94100401E+00</totfact>
</mgrwt>
</event>
<event>
 7    1  0.4252091E-004  0.3622869E+02  0.7546771E-02  0.1588532E+00
          1   -1    0    0  502    0 -0.00000000000E+00  0.00000000000E+00  0.48517032477E+03  0.48517032477E+03  0.00000000000E+00 0. -1.
          2   -1    0    0  503    0  0.00000000000E+00 -0.00000000000E+00 -0.49492238605E+03  0.49492238605E+03  0.00000000000E+00 0. -1.
         25    2    1    2    0    0  0.59992365386E+02  0.45238470517E+01 -0.10956658634E+03  0.17677607970E+03  0.12500158565E+03 0.  0.
          4    1    3    3  501    0  0.10970876037E+02 -0.47032031835E+02 -0.26968334169E+01  0.48386547201E+02  0.12700000000E+01 0.  1.
         -4    1    3    3    0  501  0.49021489349E+02  0.51555878886E+02 -0.10686975292E+03  0.12838953250E+03  0.12700000000E+01 0.  1.
          2    1    1    2  502    0 -0.34442303819E+02 -0.10866406440E+02  0.45034908657E+03  0.45179492123E+03  0.00000000000E+00 0. -1.
          1    1    1    2  503    0 -0.25550061568E+02  0.63425593879E+01 -0.35053456151E+03  0.35152170988E+03  0.00000000000E+00 0. -1.
<mgrwt>
<rscale>  0 0.30882676E+02</rscale>
<asrwt>0</asrwt>
<pdfrwt beam="2">  1        2 0.76141905E-01 0.26325533E+02</pdfrwt>
<pdfrwt beam="1">  1        1 0.74641589E-01 0.36228694E+02</pdfrwt>
<totfact> 0.43463110E+02</totfact>
</mgrwt>
</event>
<event>
 7    1  0.4252091E-004  0.7017895E+02  0.7546771E-02  0.1480322E+00
          2   -1    0    0  503    0  0.00000000000E+00  0.00000000000E+00  0.30142662203E+03  0.30142662203E+03  0.00000000000E+00 0. -1.
          1   -1    0    0  502    0 -0.00000000000E+00 -0.00000000000E+00 -0.52480620034E+03  0.52480620034E+03  0.00000000000E+00 0. -1.
         25    2    1    2    0    0 -0.65464368568E+02 -0.23271736246E+02 -0.14315838120E+03  0.20235333544E+03  0.12500157197E+03 0.  0.
          4    1    3    3  501    0 -0.97637448515E+02  0.86076617303E+00 -0.12386922870E+03  0.15773081814E+03  0.12700000000E+01 0.  1.
         -4    1    3    3    0  501  0.32173079948E+02 -0.24132502419E+02 -0.19289152502E+02  0.44622517304E+02  0.12700000000E+01 0.  1.
          2    1    1    2  502    0 -0.47606843753E+01  0.27244092286E+02 -0.34694076326E+03  0.34804137382E+03  0.00000000000E+00 0. -1.
          1    1    1    2  503    0  0.70225052943E+02 -0.39723560405E+01  0.26671956615E+03  0.27583811311E+03  0.00000000000E+00 0. -1.
<mgrwt>
<rscale>  0 0.44056021E+02</rscale>
<asrwt>0</asrwt>
<pdfrwt beam="1">  1        2 0.46373326E-01 0.70178952E+02</pdfrwt>
<pdfrwt beam="2">  1        1 0.80739416E-01 0.27656910E+02</pdfrwt>
<totfact> 0.65933413E+02</totfact>
</mgrwt>
</event>
<event>
 7    1  0.4252091E-004  0.6995020E+02  0.7546771E-02  0.1362078E+00
          1   -1    0    0  502    0 -0.00000000000E+00  0.00000000000E+00  0.10579337435E+04  0.10579337435E+04  0.00000000000E+00 0. -1.
          2   -1    0    0  503    0  0.00000000000E+00 -0.00000000000E+00 -0.52921469361E+03  0.52921469361E+03  0.00000000000E+00 0. -1.
         25    2    1    2    0    0  0.20196808706E+02 -0.14015334012E+01  0.16485870410E+03  0.20786927692E+03  0.12498547352E+03 0.  0.
          4    1    3    3  501    0  0.27520879521E+02 -0.22124804373E+02  0.17850394143E+03  0.18196751299E+03  0.12700000000E+01 0.  1.
         -4    1    3    3    0  501 -0.73240708144E+01  0.20723270972E+02 -0.13645237326E+02  0.25901763931E+02  0.12700000000E+01 0.  1.
          2    1    1    2  502    0 -0.25284272613E+02  0.70106650542E+02  0.86762780626E+03  0.87082274149E+03  0.00000000000E+00 0. -1.
          1    1    1    2  503    0  0.50874639066E+01 -0.68705117141E+02 -0.50376746051E+03  0.50845641866E+03  0.00000000000E+00 0. -1.
<mgrwt>
<rscale>  0 0.69419695E+02</rscale>
<asrwt>0</asrwt>
<pdfrwt beam="2">  1        2 0.81417646E-01 0.68893217E+02</pdfrwt>
<pdfrwt beam="1">  1        1 0.16275904E+00 0.69950195E+02</pdfrwt>
<totfact> 0.12984588E+02</totfact>
</mgrwt>
</event>
<event>
 7    1  0.4252091E-004  0.1670260E+03  0.7546771E-02  0.1280160E+00
         -2   -1    0    0    0  501 -0.00000000000E+00  0.00000000000E+00  0.10396824230E+03  0.10396824230E+03  0.00000000000E+00 0.  1.
          2   -1    0    0  503    0  0.00000000000E+00 -0.00000000000E+00 -0.20002187099E+04  0.20002187099E+04  0.00000000000E+00 0. -1.
         25    2    1    2    0    0  0.19705841723E+02  0.11919400012E+03 -0.15058579668E+04  0.15158579918E+04  0.12498682110E+03 0.  0.
          4    1    3    3  502    0 -0.30824881226E+02  0.11092373488E+03 -0.81335078910E+03  0.82145929131E+03  0.12700000000E+01 0.  1.
         -4    1    3    3    0  502  0.50530722949E+02  0.82702652411E+01 -0.69250717766E+03  0.69439870051E+03  0.12700000000E+01 0.  1.
          1    1    1    2  503    0  0.47723731005E+02  0.36279768434E+02 -0.41302956102E+03  0.41735739406E+03  0.00000000000E+00 0. -1.
         -1    1    1    2    0  501 -0.67429572728E+02 -0.15547376856E+03  0.22637060194E+02  0.17097156630E+03  0.00000000000E+00 0.  1.
<mgrwt>
<rscale>  0 0.10006444E+03</rscale>
<asrwt>0</asrwt>
<pdfrwt beam="2">  1        2 0.30772592E+00 0.59948112E+02</pdfrwt>
<pdfrwt beam="1">  1       -2 0.15995116E-01 0.16702599E+03</pdfrwt>
<totfact> 0.26455709E+02</totfact>
</mgrwt>
</event>
<event>
 7    1  0.4252091E-004  0.1474843E+03  0.7546771E-02  0.1270557E+00
          2   -1    0    0  503    0  0.00000000000E+00  0.00000000000E+00  0.41952144943E+02  0.41952144943E+02  0.00000000000E+00 0. -1.
          1   -1    0    0  502    0 -0.00000000000E+00 -0.00000000000E+00 -0.35740964073E+04  0.35740964073E+04  0.00000000000E+00 0. -1.
         25    2    1    2    0    0 -0.97408334472E+02 -0.19344019435E+03 -0.64929482684E+03  0.69578469105E+03  0.12500028685E+03 0.  0.
          4    1    3    3  501    0 -0.15088124220E+01  0.16618861492E+02 -0.24389023644E+02  0.29578716106E+02  0.12700000000E+01 0. -1.
         -4    1    3    3    0  501 -0.95899522050E+02 -0.21005905584E+03 -0.62490580320E+03  0.66620597494E+03  0.12700000000E+01 0. -1.
          2    1    1    2  502    0  0.62830879259E+02  0.12751996713E+03 -0.28178709578E+04  0.28214545532E+04  0.00000000000E+00 0. -1.
          1    1    1    2  503    0  0.34577455213E+02  0.65920227226E+02 -0.64978477733E+02  0.98809307938E+02  0.00000000000E+00 0. -1.
<mgrwt>
<rscale>  0 0.10477831E+03</rscale>
<asrwt>0</asrwt>
<pdfrwt beam="1">  1        2 0.64541749E-02 0.74438409E+02</pdfrwt>
<pdfrwt beam="2">  1        1 0.54986110E+00 0.14748425E+03</pdfrwt>
<totfact> 0.42628928E+01</totfact>
</mgrwt>
</event>
<event>
 7    1  0.4252091E-004  0.1576686E+03  0.7546771E-02  0.1264672E+00
          2   -1    0    0  503    0  0.00000000000E+00  0.00000000000E+00  0.94438382085E+03  0.94438382085E+03  0.00000000000E+00 0. -1.
          1   -1    0    0  502    0 -0.00000000000E+00 -0.00000000000E+00 -0.17441188269E+04  0.17441188269E+04  0.00000000000E+00 0. -1.
         25    2    1    2    0    0  0.10272756062E+03  0.17318677847E+03  0.11372566925E+03  0.26287746030E+03  0.12499767734E+03 0.  0.
          4    1    3    3  501    0  0.18454890714E+02  0.14520056330E+03  0.86351556738E+02  0.16994702358E+03  0.12700000000E+01 0.  1.
         -4    1    3    3    0  501  0.84272669905E+02  0.27986215172E+02  0.27374112513E+02  0.92930436717E+02  0.12700000000E+01 0.  1.
          2    1    1    2  502    0  0.13773447441E+02 -0.72425856123E+02 -0.16608719167E+04  0.16625073642E+04  0.00000000000E+00 0. -1.
          1    1    1    2  503    0 -0.11650100806E+03 -0.10076092235E+03  0.74741124139E+03  0.76311782321E+03  0.00000000000E+00 0. -1.
<mgrwt>
<rscale>  0 0.10781438E+03</rscale>
<asrwt>0</asrwt>
<pdfrwt beam="1">  1        2 0.14528982E+00 0.15766857E+03</pdfrwt>
<pdfrwt beam="2">  1        1 0.26832597E+00 0.73723894E+02</pdfrwt>
<totfact> 0.22799370E+01</totfact>
</mgrwt>
</event>
<event>
 7    1  0.4252091E-004  0.1357777E+03  0.7546771E-02  0.1231113E+00
          2   -1    0    0  503    0  0.00000000000E+00  0.00000000000E+00  0.17605614881E+04  0.17605614881E+04  0.00000000000E+00 0. -1.
          1   -1    0    0  502    0 -0.00000000000E+00 -0.00000000000E+00 -0.10932282015E+04  0.10932282015E+04  0.00000000000E+00 0. -1.
         25    2    1    2    0    0 -0.19764200067E+03  0.95263497508E+02 -0.33938646950E+03  0.42301725949E+03  0.12499172674E+03 0.  0.
          4    1    3    3  501    0 -0.67155525961E+02 -0.27391137645E+02 -0.11435544224E+03  0.13542126553E+03  0.12700000000E+01 0. -1.
         -4    1    3    3    0  501 -0.13048647471E+03  0.12265463515E+03 -0.22503102726E+03  0.28759599395E+03  0.12700000000E+01 0. -1.
          2    1    1    2  502    0  0.12695658788E+03  0.15243391071E+01 -0.70425333322E+03  0.71560677482E+03  0.00000000000E+00 0. -1.
          1    1    1    2  503    0  0.70685412794E+02 -0.96787836615E+02  0.17109730893E+04  0.17151656554E+04  0.00000000000E+00 0. -1.
<mgrwt>
<rscale>  0 0.12756613E+03</rscale>
<asrwt>0</asrwt>
<pdfrwt beam="1">  1        2 0.27085561E+00 0.11985121E+03</pdfrwt>
<pdfrwt beam="2">  1        1 0.16818895E+00 0.13577766E+03</pdfrwt>
<totfact> 0.21081113E+01</totfact>
</mgrwt>
</event>
<event>
 7    1  0.4252091E-004  0.9060312E+02  0.7546771E-02  0.1351142E+00
          1   -1    0    0  502    0 -0.00000000000E+00  0.00000000000E+00  0.22080102006E+04  0.22080102006E+04  0.00000000000E+00 0. -1.
          2   -1    0    0  503    0  0.00000000000E+00 -0.00000000000E+00 -0.26714155434E+04  0.26714155434E+04  0.00000000000E+00 0. -1.
         25    2    1    2    0    0 -0.83198271593E+02 -0.49683679435E+02  0.34488246431E+02  0.16187087007E+03  0.12498927569E+03 0.  0.
          4    1    3    3  501    0 -0.17168336527E+02 -0.54029312500E+02 -0.34413244288E+02  0.66331008366E+02  0.12700000000E+01 0. -1.
         -4    1    3    3    0  501 -0.66029935065E+02  0.43456330651E+01  0.68901490719E+02  0.95539861706E+02  0.12700000000E+01 0. -1.
          2    1    1    2  502    0  0.90415160117E+02 -0.82040709943E+01  0.21085274761E+04  0.21104810649E+04  0.00000000000E+00 0. -1.
          1    1    1    2  503    0 -0.72168885242E+01  0.57887750429E+02 -0.26064210654E+04  0.26070738089E+04  0.00000000000E+00 0. -1.
<mgrwt>
<rscale>  0 0.72700845E+02</rscale>
<asrwt>0</asrwt>
<pdfrwt beam="2">  1        2 0.41098700E+00 0.58335882E+02</pdfrwt>
<pdfrwt beam="1">  1        1 0.33969388E+00 0.90603120E+02</pdfrwt>
<totfact> 0.15676531E+00</totfact>
</mgrwt>
</event>
<event>
 7    1  0.4252091E-004  0.1822774E+03  0.7546771E-02  0.1295035E+00
         -2   -1    0    0    0  501 -0.00000000000E+00  0.00000000000E+00  0.13351715398E+03  0.13351715398E+03  0.00000000000E+00 0.  1.
          2   -1    0    0  503    0  0.00000000000E+00 -0.00000000000E+00 -0.30806591924E+04  0.30806591924E+04  0.00000000000E+00 0. -1.
         25    2    1    2    0    0 -0.78481949256E+02  0.12849845505E+03 -0.69651318113E+03  0.72348173175E+03  0.12499574144E+03 0.  0.
          4    1    3    3  502    0 -0.30060020575E+02  0.29561092427E+02 -0.46700395021E+03  0.46890485755E+03  0.12700000000E+01 0. -1.
         -4    1    3    3    0  502 -0.48421928681E+02  0.98937362621E+02 -0.22950923092E+03  0.25457687420E+03  0.12700000000E+01 0. -1.
          1    1    1    2  503    0  0.13938306758E+02  0.45684580573E+02 -0.22983977522E+04  0.22988939916E+04  0.00000000000E+00 0. -1.
         -1    1    1    2    0  501  0.64543642498E+02 -0.17418303562E+03  0.47768894880E+02  0.19180062305E+03  0.00000000000E+00 0.  1.
<mgrwt>
<rscale>  0 0.93307103E+02</rscale>
<asrwt>0</asrwt>
<pdfrwt beam="2">  1        2 0.47394760E+00 0.47763556E+02</pdfrwt>
<pdfrwt beam="1">  1       -2 0.20541099E-01 0.18227737E+03</pdfrwt>
<totfact> 0.49563521E+01</totfact>
</mgrwt>
</event>
<event>
 7    1  0.4252091E-004  0.5081147E+02  0.7546771E-02  0.1554908E+00
          2   -1    0    0  503    0  0.00000000000E+00  0.00000000000E+00  0.12740850118E+04  0.12740850118E+04  0.00000000000E+00 0. -1.
          1   -1    0    0  502    0 -0.00000000000E+00 -0.00000000000E+00 -0.17761722579E+03  0.17761722579E+03  0.00000000000E+00 0. -1.
         25    2    1    2    0    0 -0.21324591678E+02  0.33526735659E+02  0.18414419183E+03  0.22608191448E+03  0.12500067382E+03 0.  0.
          4    1    3    3  501    0 -0.52673829778E+02 -0.23571208955E+02  0.12667866863E+03  0.13920931083E+03  0.12700000000E+01 0.  1.
         -4    1    3    3    0  501  0.31349238100E+02  0.57097944614E+02  0.57465523198E+02  0.86872603650E+02  0.12700000000E+01 0.  1.
          2    1    1    2  502    0  0.58805247322E+01 -0.50777194445E+02 -0.15234912795E+03  0.16069586440E+03  0.00000000000E+00 0. -1.
          3    1    1    2  503    0  0.15444066946E+02  0.17250458787E+02  0.10646727221E+04  0.10649244587E+04  0.00000000000E+00 0. -1.
<mgrwt>
<rscale>  0 0.34299819E+02</rscale>
<asrwt>0</asrwt>
<pdfrwt beam="1">  1        2 0.19601307E+00 0.23153780E+02</pdfrwt>
<pdfrwt beam="2">  1        1 0.27325728E-01 0.50811470E+02</pdfrwt>
<totfact> 0.48381112E+02</totfact>
</mgrwt>
</event>
<event>
 7    1  0.4252091E-004  0.1700946E+03  0.7546771E-02  0.1308901E+00
          2   -1    0    0  503    0  0.00000000000E+00  0.00000000000E+00  0.18731172096E+04  0.18731172096E+04  0.00000000000E+00 0. -1.
          1   -1    0    0  502    0 -0.00000000000E+00 -0.00000000000E+00 -0.12579764918E+04  0.12579764918E+04  0.00000000000E+00 0. -1.
         25    2    1    2    0    0 -0.15832516346E+03  0.12026049778E+03 -0.59738287806E+03  0.64188851660E+03  0.12500048012E+03 0.  0.
          4    1    3    3  501    0 -0.57954411876E+02 -0.19186328366E+02 -0.19560253334E+03  0.20491167122E+03  0.12700000000E+01 0. -1.
         -4    1    3    3    0  501 -0.10037075158E+03  0.13944682615E+03 -0.40178034472E+03  0.43697684538E+03  0.12700000000E+01 0. -1.
          2    1    1    2  502    0  0.13501944532E+03 -0.81694651656E+02 -0.62830734985E+03  0.64782280957E+03  0.00000000000E+00 0. -1.
          1    1    1    2  503    0  0.23305718143E+02 -0.38565846128E+02  0.18408309458E+04  0.18413823753E+04  0.00000000000E+00 0. -1.
<mgrwt>
<rscale>  0 0.87547744E+02</rscale>
<asrwt>0</asrwt>
<pdfrwt beam="1">  1        2 0.28817188E+00 0.45060859E+02</pdfrwt>
<pdfrwt beam="2">  1        1 0.19353485E+00 0.17009457E+03</pdfrwt>
<totfact> 0.15505233E+01</totfact>
</mgrwt>
</event>
<event>
 7    1  0.4252091E-004  0.4006959E+02  0.7546771E-02  0.1511344E+00
          2   -1    0    0  503    0  0.00000000000E+00  0.00000000000E+00  0.12082428073E+04  0.12082428073E+04  0.00000000000E+00 0. -1.
          1   -1    0    0  502    0 -0.00000000000E+00 -0.00000000000E+00 -0.46952077228E+02  0.46952077228E+02  0.00000000000E+00 0. -1.
         25    2    1    2    0    0  0.15215052326E+02 -0.54458632773E+01  0.57720824682E+03  0.59080835442E+03  0.12499598478E+03 0.  0.
          4    1    3    3  501    0  0.63072246153E+02 -0.28170667065E+02  0.39710981354E+03  0.40307506947E+03  0.12700000000E+01 0. -1.
         -4    1    3    3    0  501 -0.47857193827E+02  0.22724803788E+02  0.18009843328E+03  0.18773328495E+03  0.12700000000E+01 0. -1.
          2    1    1    2  502    0 -0.93863074091E+01 -0.37947684062E+02 -0.29669064886E+02  0.49075277928E+02  0.00000000000E+00 0. -1.
          1    1    1    2  503    0 -0.58287449170E+01  0.43393547339E+02  0.61375154816E+03  0.61531125220E+03  0.00000000000E+00 0. -1.
<mgrwt>
<rscale>  0 0.39577420E+02</rscale>
<asrwt>0</asrwt>
<pdfrwt beam="1">  1        2 0.18588349E+00 0.40069588E+02</pdfrwt>
<pdfrwt beam="2">  1        1 0.72233974E-02 0.39091297E+02</pdfrwt>
<totfact> 0.26093500E+03</totfact>
</mgrwt>
</event>
<event>
 7    1  0.4252091E-004  0.1000618E+03  0.7546771E-02  0.1354034E+00
          2   -1    0    0  503    0  0.00000000000E+00  0.00000000000E+00  0.27152206750E+02  0.27152206750E+02  0.00000000000E+00 0. -1.
          1   -1    0    0  502    0 -0.00000000000E+00 -0.00000000000E+00 -0.11945721501E+04  0.11945721501E+04  0.00000000000E+00 0. -1.
         25    2    1    2    0    0  0.32103000367E-01  0.66709013683E+02 -0.38018396789E+03  0.40572822746E+03  0.12500180630E+03 0.  0.
          4    1    3    3  501    0 -0.55952115169E+02  0.41041067190E+02 -0.12259990640E+03  0.14088065281E+03  0.12700000000E+01 0.  1.
         -4    1    3    3    0  501  0.55984218169E+02  0.25667946494E+02 -0.25758406149E+03  0.26484757465E+03  0.12700000000E+01 0.  1.
          2    1    1    2  502    0 -0.31737088107E+02 -0.10734270730E+03 -0.73176725074E+03  0.74027900742E+03  0.00000000000E+00 0. -1.
          1    1    1    2  503    0  0.31704985106E+02  0.40633693614E+02 -0.55468724709E+02  0.75717121962E+02  0.00000000000E+00 0. -1.
<mgrwt>
<rscale>  0 0.71813079E+02</rscale>
<asrwt>0</asrwt>
<pdfrwt beam="1">  1        2 0.41772627E-02 0.51539336E+02</pdfrwt>
<pdfrwt beam="2">  1        1 0.18378033E+00 0.10006179E+03</pdfrwt>
<totfact> 0.28824011E+03</totfact>
</mgrwt>
</event>
<event>
 7    1  0.4252091E-004  0.5007964E+02  0.7546771E-02  0.1556193E+00
          2   -1    0    0  503    0  0.00000000000E+00  0.00000000000E+00  0.52657306610E+03  0.52657306610E+03  0.00000000000E+00 0. -1.
          1   -1    0    0  502    0 -0.00000000000E+00 -0.00000000000E+00 -0.96140567350E+03  0.96140567350E+03  0.00000000000E+00 0. -1.
         25    2    1    2    0    0  0.51340564605E+02 -0.23591674410E+02 -0.71667046818E+01  0.13734859705E+03  0.12498341803E+03 0.  0.
          4    1    3    3  501    0  0.72695141410E+02 -0.16114632062E+02  0.40353830961E+02  0.84701295884E+02  0.12700000000E+01 0.  1.
         -4    1    3    3    0  501 -0.21354576805E+02 -0.74770423481E+01 -0.47520535643E+02  0.52647301171E+02  0.12700000000E+01 0.  1.
          2    1    1    2  502    0 -0.50062641929E+02  0.32632992233E+00 -0.88814851491E+03  0.88955840682E+03  0.00000000000E+00 0. -1.
          1    1    1    2  503    0 -0.12779226765E+01  0.23265344487E+02  0.46048261220E+03  0.46107173571E+03  0.00000000000E+00 0. -1.
<mgrwt>
<rscale>  0 0.34159573E+02</rscale>
<asrwt>0</asrwt>
<pdfrwt beam="1">  1        2 0.81011240E-01 0.23300415E+02</pdfrwt>
<pdfrwt beam="2">  1        1 0.14790857E+00 0.50079642E+02</pdfrwt>
<totfact> 0.15839772E+02</totfact>
</mgrwt>
</event>
<event>
 7    1  0.4252091E-004  0.7146261E+02  0.7546771E-02  0.1383115E+00
         -2   -1    0    0    0  501 -0.00000000000E+00  0.00000000000E+00  0.49414830962E+03  0.49414830962E+03  0.00000000000E+00 0.  1.
          2   -1    0    0  503    0  0.00000000000E+00 -0.00000000000E+00 -0.51508230376E+03  0.51508230376E+03  0.00000000000E+00 0. -1.
         25    2    1    2    0    0  0.12068263866E+02  0.15174623638E+02 -0.60211257236E+01  0.12664046364E+03  0.12500256349E+03 0.  0.
          4    1    3    3  502    0 -0.27487028097E+02  0.50054420330E+02 -0.34461519747E+02  0.66709751547E+02  0.12700000000E+01 0.  1.
         -4    1    3    3    0  502  0.39555291963E+02 -0.34879796692E+02  0.28440394023E+02  0.59930712091E+02  0.12700000000E+01 0.  1.
          1    1    1    2  503    0 -0.20980269395E+02 -0.71164960110E+02 -0.44380656584E+03  0.44996543326E+03  0.00000000000E+00 0. -1.
         -1    1    1    2    0  501  0.89120055287E+01  0.55990336472E+02  0.42889369742E+03  0.43262471648E+03  0.00000000000E+00 0.  1.
<mgrwt>
<rscale>  0 0.63652058E+02</rscale>
<asrwt>0</asrwt>
<pdfrwt beam="2">  1        2 0.79243432E-01 0.71462611E+02</pdfrwt>
<pdfrwt beam="1">  1       -2 0.76022817E-01 0.56695164E+02</pdfrwt>
<totfact> 0.10171553E+02</totfact>
</mgrwt>
</event>
<event>
 7    1  0.4252091E-004  0.4556922E+02  0.7546771E-02  0.1571991E+00
          2   -1    0    0  503    0  0.00000000000E+00  0.00000000000E+00  0.69331454202E+03  0.69331454202E+03  0.00000000000E+00 0. -1.
          1   -1    0    0  502    0 -0.00000000000E+00 -0.00000000000E+00 -0.46782452064E+02  0.46782452064E+02  0.00000000000E+00 0. -1.
         25    2    1    2    0    0 -0.19907082569E+02  0.35135344283E+02  0.21272955626E+03  0.25001890965E+03  0.12499922688E+03 0.  0.
          4    1    3    3  501    0 -0.16095725717E+01  0.61318887186E+02  0.20901695397E+03  0.21783548058E+03  0.12700000000E+01 0.  1.
         -4    1    3    3    0  501 -0.18297509997E+02 -0.26183542903E+02  0.37126022823E+01  0.32183429070E+02  0.12700000000E+01 0.  1.
          2    1    1    2  502    0 -0.33723876465E+00 -0.46424333880E+02 -0.84756760532E+01  0.47192897673E+02  0.00000000000E+00 0. -1.
          1    1    1    2  503    0  0.20244321333E+02  0.11288989597E+02  0.44227820975E+03  0.44288518676E+03  0.00000000000E+00 0. -1.
<mgrwt>
<rscale>  0 0.32500102E+02</rscale>
<asrwt>0</asrwt>
<pdfrwt beam="1">  1        2 0.10666377E+00 0.23179168E+02</pdfrwt>
<pdfrwt beam="2">  1        1 0.71973009E-02 0.45569222E+02</pdfrwt>
<totfact> 0.54163001E+03</totfact>
</mgrwt>
</event>
<event>
 7    1  0.4252091E-004  0.6835043E+02  0.7546771E-02  0.1371257E+00
         -2   -1    0    0    0  501  0.00000000000E+00  0.00000000000E+00  0.40034682620E+03  0.40034682620E+03  0.00000000000E+00 0.  1.
         -1   -1    0    0    0  502 -0.00000000000E+00 -0.00000000000E+00 -0.24072549713E+03  0.24072549713E+03  0.00000000000E+00 0.  1.
         25    2    1    2    0    0 -0.86503397115E+02 -0.44083905728E+02  0.10958056522E+03  0.19251106420E+03  0.12500552431E+03 0.  0.
          4    1    3    3  503    0 -0.71378600438E+02  0.65905192195E+00  0.12402477623E+03  0.14310519546E+03  0.12700000000E+01 0.  1.
         -4    1    3    3    0  503 -0.15124796677E+02 -0.44742957650E+02 -0.14444211009E+02  0.49405868735E+02  0.12700000000E+01 0.  1.
         -2    1    1    2    0  502  0.62471507451E+02 -0.19084662843E+02 -0.18909434057E+03  0.20005894940E+03  0.00000000000E+00 0.  1.
         -1    1    1    2    0  501  0.24031889664E+02  0.63168568571E+02  0.23913510442E+03  0.24850230973E+03  0.00000000000E+00 0.  1.
<mgrwt>
<rscale>  0 0.66818864E+02</rscale>
<asrwt>0</asrwt>
<pdfrwt beam="1">  1       -2 0.61591819E-01 0.68350431E+02</pdfrwt>
<pdfrwt beam="2">  1       -1 0.37034692E-01 0.65321617E+02</pdfrwt>
<totfact> 0.13262526E+02</totfact>
</mgrwt>
</event>
<event>
 7    1  0.4252091E-004  0.7467843E+02  0.7546771E-02  0.1398400E+00
          1   -1    0    0  502    0 -0.00000000000E+00  0.00000000000E+00  0.18663190043E+04  0.18663190043E+04  0.00000000000E+00 0. -1.
          2   -1    0    0  503    0  0.00000000000E+00 -0.00000000000E+00 -0.94578328083E+03  0.94578328083E+03  0.00000000000E+00 0. -1.
         25    2    1    2    0    0 -0.10254812552E+03 -0.17047070755E+02 -0.47902942553E+03  0.50586552798E+03  0.12499608474E+03 0.  0.
          4    1    3    3  501    0 -0.58545079444E+02 -0.71585785090E+02 -0.27345323440E+03  0.28866994173E+03  0.12700000000E+01 0. -1.
         -4    1    3    3    0  501 -0.44003046080E+02  0.54538714335E+02 -0.20557619113E+03  0.21719558625E+03  0.12700000000E+01 0. -1.
          2    1    1    2  502    0  0.71942477297E+02 -0.19916584111E+02  0.18508764390E+04  0.18523811657E+04  0.00000000000E+00 0. -1.
          1    1    1    2  503    0  0.30605648227E+02  0.36963654866E+02 -0.45131128999E+03  0.45385559152E+03  0.00000000000E+00 0. -1.
<mgrwt>
<rscale>  0 0.59864848E+02</rscale>
<asrwt>0</asrwt>
<pdfrwt beam="2">  1        2 0.14550512E+00 0.47989764E+02</pdfrwt>
<pdfrwt beam="1">  1        1 0.28712600E+00 0.74678426E+02</pdfrwt>
<totfact> 0.20183857E+01</totfact>
</mgrwt>
</event>
<event>
 7    1  0.4252091E-004  0.8731631E+02  0.7546771E-02  0.1407049E+00
          1   -1    0    0  502    0 -0.00000000000E+00  0.00000000000E+00  0.50635570532E+02  0.50635570532E+02  0.00000000000E+00 0. -1.
          2   -1    0    0  503    0  0.00000000000E+00 -0.00000000000E+00 -0.19392179142E+04  0.19392179142E+04  0.00000000000E+00 0. -1.
         25    2    1    2    0    0  0.41368913311E+02  0.42505845102E+02 -0.70732530599E+03  0.72072986115E+03  0.12499724154E+03 0.  0.
          4    1    3    3  501    0  0.72051820209E+02  0.43893492804E+02 -0.28347980465E+03  0.29577105343E+03  0.12700000000E+01 0. -1.
         -4    1    3    3    0  501 -0.30682906898E+02 -0.13876477020E+01 -0.42384550135E+03  0.42495880771E+03  0.12700000000E+01 0. -1.
          2    1    1    2  502    0  0.12232678502E+02  0.36333658479E+02  0.33330360646E+02  0.50800453763E+02  0.00000000000E+00 0. -1.
          1    1    1    2  503    0 -0.53601591813E+02 -0.78839503580E+02 -0.12145873983E+04  0.12183231698E+04  0.00000000000E+00 0. -1.
<mgrwt>
<rscale>  0 0.57857580E+02</rscale>
<asrwt>0</asrwt>
<pdfrwt beam="2">  1        2 0.29834126E+00 0.87316311E+02</pdfrwt>
<pdfrwt beam="1">  1        1 0.77900866E-02 0.38337621E+02</pdfrwt>
<totfact> 0.94940057E+02</totfact>
</mgrwt>
</event>
<event>
 7    1  0.4252091E-004  0.1164407E+03  0.7546771E-02  0.1377983E+00
          2   -1    0    0  503    0  0.00000000000E+00  0.00000000000E+00  0.21867957141E+04  0.21867957141E+04  0.00000000000E+00 0. -1.
          1   -1    0    0  502    0 -0.00000000000E+00 -0.00000000000E+00 -0.43183574820E+02  0.43183574820E+02  0.00000000000E+00 0. -1.
         25    2    1    2    0    0  0.99286580953E+02  0.36997138474E+02  0.14490186760E+04  0.14582547563E+04  0.12500079008E+03 0.  0.
          4    1    3    3  501    0  0.67033445046E+02  0.12517193503E+02  0.26803482099E+03  0.27657628432E+03  0.12700000000E+01 0. -1.
         -4    1    3    3    0  501  0.32253135906E+02  0.24479944972E+02  0.11809838550E+04  0.11816784720E+04  0.12700000000E+01 0. -1.
          2    1    1    2  502    0  0.31071140445E+02 -0.18732696067E+02 -0.22472363834E+02  0.42677122757E+02  0.00000000000E+00 0. -1.
          1    1    1    2  503    0 -0.13035772140E+03 -0.18264442407E+02  0.71706582709E+03  0.72904740982E+03  0.00000000000E+00 0. -1.
<mgrwt>
<rscale>  0 0.64997030E+02</rscale>
<asrwt>0</asrwt>
<pdfrwt beam="1">  1        2 0.33643002E+00 0.11644067E+03</pdfrwt>
<pdfrwt beam="2">  1        1 0.66436286E-02 0.36281258E+02</pdfrwt>
<totfact> 0.84110681E+02</totfact>
</mgrwt>
</event>
<event>
 7    1  0.4252091E-004  0.6858367E+02  0.7546771E-02  0.1422838E+00
          1   -1    0    0  502    0 -0.00000000000E+00  0.00000000000E+00  0.25533456952E+04  0.25533456952E+04  0.00000000000E+00 0. -1.
          2   -1    0    0  503    0  0.00000000000E+00 -0.00000000000E+00 -0.10795933971E+04  0.10795933971E+04  0.00000000000E+00 0. -1.
         25    2    1    2    0    0  0.28685903245E+02 -0.53909885539E+02  0.78037392987E+02  0.15950489903E+03  0.12499128492E+03 0.  0.
          4    1    3    3  501    0  0.61102484932E+02 -0.63677958663E+02  0.17275646959E+02  0.89935849149E+02  0.12700000000E+01 0. -1.
         -4    1    3    3    0  501 -0.32416581686E+02  0.97680731238E+01  0.60761746028E+02  0.69569049879E+02  0.12700000000E+01 0. -1.
          2    1    1    2  502    0  0.34291060257E+02  0.26257062521E+02  0.24332442516E+04  0.24336275184E+04  0.00000000000E+00 0. -1.
          1    1    1    2  503    0 -0.62976963502E+02  0.27652823019E+02 -0.10375293465E+04  0.10398066750E+04  0.00000000000E+00 0. -1.
<mgrwt>
<rscale>  0 0.54424962E+02</rscale>
<asrwt>0</asrwt>
<pdfrwt beam="2">  1        2 0.16609129E+00 0.68583674E+02</pdfrwt>
<pdfrwt beam="1">  1        1 0.39282241E+00 0.43189236E+02</pdfrwt>
<totfact> 0.67206407E+00</totfact>
</mgrwt>
</event>
<event>
 7    1  0.4252091E-004  0.1038740E+03  0.7546771E-02  0.1392505E+00
          2   -1    0    0  503    0  0.00000000000E+00  0.00000000000E+00  0.17206300606E+04  0.17206300606E+04  0.00000000000E+00 0. -1.
          1   -1    0    0  502    0 -0.00000000000E+00 -0.00000000000E+00 -0.19666487489E+03  0.19666487489E+03  0.00000000000E+00 0. -1.
         25    2    1    2    0    0  0.83101234527E+02 -0.11111035888E+03  0.45805077796E+03  0.49465782663E+03  0.12499809287E+03 0.  0.
          4    1    3    3  501    0 -0.21762641120E+02 -0.90136675685E+01  0.16925799030E+03  0.17089394060E+03  0.12700000000E+01 0.  1.
         -4    1    3    3    0  501  0.10486387565E+03 -0.10209669131E+03  0.28879278766E+03  0.32376388603E+03  0.12700000000E+01 0.  1.
          2    1    1    2  502    0 -0.64165415605E+02  0.80303379199E+02 -0.16326375075E+03  0.19292715096E+03  0.00000000000E+00 0. -1.
          1    1    1    2  503    0 -0.18935818923E+02  0.30806979683E+02  0.12291781585E+04  0.12297099579E+04  0.00000000000E+00 0. -1.
<mgrwt>
<rscale>  0 0.61287944E+02</rscale>
<asrwt>0</asrwt>
<pdfrwt beam="1">  1        2 0.26471231E+00 0.36161239E+02</pdfrwt>
<pdfrwt beam="2">  1        1 0.30256136E-01 0.10387399E+03</pdfrwt>
<totfact> 0.25413583E+02</totfact>
</mgrwt>
</event>
<event>
 7    1  0.4252091E-004  0.1196502E+03  0.7546771E-02  0.1252392E+00
          2   -1    0    0  503    0  0.00000000000E+00  0.00000000000E+00  0.68075219822E+03  0.68075219822E+03  0.00000000000E+00 0. -1.
          1   -1    0    0  502    0 -0.00000000000E+00 -0.00000000000E+00 -0.30757617909E+03  0.30757617909E+03  0.00000000000E+00 0. -1.
         25    2    1    2    0    0 -0.71218486744E+02  0.19635718221E+03  0.14605251175E+03  0.28387394436E+03  0.12499945694E+03 0.  0.
          4    1    3    3  501    0  0.17910569714E+02  0.30271167457E+02  0.74245308342E+02  0.82165143446E+02  0.12700000000E+01 0. -1.
         -4    1    3    3    0  501 -0.89129056458E+02  0.16608601476E+03  0.71807203408E+02  0.20170880091E+03  0.12700000000E+01 0. -1.
          2    1    1    2  502    0  0.74830089367E+02 -0.86774612034E+02 -0.21786383998E+03  0.24615854309E+03  0.00000000000E+00 0. -1.
          1    1    1    2  503    0 -0.36116026232E+01 -0.10958257018E+03  0.44498734736E+03  0.45829588987E+03  0.00000000000E+00 0. -1.
<mgrwt>
<rscale>  0 0.11453689E+03</rscale>
<asrwt>0</asrwt>
<pdfrwt beam="1">  1        2 0.10473111E+00 0.10964207E+03</pdfrwt>
<pdfrwt beam="2">  1        1 0.47319412E-01 0.11965023E+03</pdfrwt>
<totfact> 0.51683608E+02</totfact>
</mgrwt>
</event>
<event>
 7    1  0.4252091E-004  0.1143652E+03  0.7546771E-02  0.1456792E+00
          1   -1    0    0  502    0 -0.00000000000E+00  0.00000000000E+00  0.89365557112E+03  0.89365557112E+03  0.00000000000E+00 0. -1.
          2   -1    0    0  503    0  0.00000000000E+00 -0.00000000000E+00 -0.22061185783E+03  0.22061185783E+03  0.00000000000E+00 0. -1.
         25    2    1    2    0    0 -0.95887076649E+02  0.62485849916E+02  0.17716138206E+02  0.17040420512E+03  0.12499967464E+03 0.  0.
          4    1    3    3  501    0 -0.37962380771E+02 -0.20085839027E+02 -0.36060069137E+02  0.56093892443E+02  0.12700000000E+01 0. -1.
         -4    1    3    3    0  501 -0.57924695878E+02  0.82571688943E+02  0.53776207344E+02  0.11431031267E+03  0.12700000000E+01 0. -1.
          2    1    1    2  502    0  0.10533791691E+03 -0.44753131035E+02  0.79477607772E+03  0.80297442873E+03  0.00000000000E+00 0. -1.
          1    1    1    2  503    0 -0.94508402589E+01 -0.17732718881E+02 -0.13944850263E+03  0.14088879510E+03  0.00000000000E+00 0. -1.
<mgrwt>
<rscale>  0 0.47937982E+02</rscale>
<asrwt>0</asrwt>
<pdfrwt beam="2">  1        2 0.33940286E-01 0.20093972E+02</pdfrwt>
<pdfrwt beam="1">  1        1 0.13748547E+00 0.11436515E+03</pdfrwt>
<totfact> 0.39920559E+02</totfact>
</mgrwt>
</event>
<event>
 7    1  0.4252091E-004  0.5127212E+02  0.7546771E-02  0.1451634E+00
          1   -1    0    0  503    0  0.00000000000E+00  0.00000000000E+00  0.29910532396E+02  0.29910532396E+02  0.00000000000E+00 0. -1.
         -1   -1    0    0    0  501 -0.00000000000E+00 -0.00000000000E+00 -0.18384987907E+04  0.18384987907E+04  0.00000000000E+00 0.  1.
         25    2    1    2    0    0  0.43293926124E+02  0.86674405668E+02 -0.21048663196E+03  0.26327392844E+03  0.12498688941E+03 0.  0.
          4    1    3    3  502    0  0.54873704418E+02  0.14248708084E+02 -0.17059293699E+03  0.17977127738E+03  0.12700000000E+01 0.  1.
         -4    1    3    3    0  502 -0.11579778294E+02  0.72425697584E+02 -0.39893694972E+02  0.83502651062E+02  0.12700000000E+01 0.  1.
          2    1    1    2  503    0 -0.18257417314E+02 -0.42815953266E+02 -0.17338763213E+03  0.17952662787E+03  0.00000000000E+00 0. -1.
         -2    1    1    2    0  501 -0.25036508810E+02 -0.43858452401E+02 -0.14247139943E+04  0.14256087668E+04  0.00000000000E+00 0.  1.
<mgrwt>
<rscale>  0 0.48851991E+02</rscale>
<asrwt>0</asrwt>
<pdfrwt beam="1">  1        1 0.46016197E-02 0.46546097E+02</pdfrwt>
<pdfrwt beam="2">  1       -1 0.28284601E+00 0.51272119E+02</pdfrwt>
<totfact> 0.95613391E+01</totfact>
</mgrwt>
</event>
<event>
 7    1  0.4252091E-004  0.4961970E+02  0.7546771E-02  0.1552222E+00
         -2   -1    0    0    0  501 -0.00000000000E+00  0.00000000000E+00  0.11293123593E+03  0.11293123593E+03  0.00000000000E+00 0.  1.
          2   -1    0    0  503    0  0.00000000000E+00 -0.00000000000E+00 -0.16154891897E+03  0.16154891897E+03  0.00000000000E+00 0. -1.
         25    2    1    2    0    0  0.65239571320E+02  0.17196410615E+02 -0.37027543929E+01  0.14209704423E+03  0.12500376548E+03 0.  0.
          4    1    3    3  502    0  0.68620201578E+02  0.23172703994E+02  0.49950867483E+02  0.87990955997E+02  0.12700000000E+01 0. -1.
         -4    1    3    3    0  502 -0.33806302578E+01 -0.59762933786E+01 -0.53653621876E+02  0.54106088233E+02  0.12700000000E+01 0. -1.
          1    1    1    2  503    0 -0.23757932807E+02  0.41663734118E+01 -0.73708396549E+02  0.77554663048E+02  0.00000000000E+00 0. -1.
         -1    1    1    2    0  501 -0.41481638513E+02 -0.21362784027E+02  0.28793467898E+02  0.54828447622E+02  0.00000000000E+00 0.  1.
<mgrwt>
<rscale>  0 0.34595542E+02</rscale>
<asrwt>0</asrwt>
<pdfrwt beam="2">  1        2 0.24853680E-01 0.24120490E+02</pdfrwt>
<pdfrwt beam="1">  1       -2 0.17374036E-01 0.49619702E+02</pdfrwt>
<totfact> 0.49456833E+03</totfact>
</mgrwt>
</event>
<event>
 7    1  0.4252091E-004  0.7626954E+02  0.7546771E-02  0.1456762E+00
          2   -1    0    0  503    0  0.00000000000E+00  0.00000000000E+00  0.17185422009E+04  0.17185422009E+04  0.00000000000E+00 0. -1.
          3   -1    0    0  502    0 -0.00000000000E+00 -0.00000000000E+00 -0.50256625745E+02  0.50256625745E+02  0.00000000000E+00 0. -1.
         25    2    1    2    0    0  0.12269160580E+02 -0.62503918580E+02  0.83483916882E+03  0.84655496435E+03  0.12506637329E+03 0.  0.
          4    1    3    3  501    0  0.67150765275E+02 -0.40965841255E+02  0.55686379258E+03  0.56239338706E+03  0.12700000000E+01 0. -1.
         -4    1    3    3    0  501 -0.54881604695E+02 -0.21538077325E+02  0.27797537624E+03  0.28416157729E+03  0.12700000000E+01 0. -1.
          2    1    1    2  502    0 -0.42355788328E+02  0.64250380366E+02 -0.10580319095E+02  0.77679259357E+02  0.00000000000E+00 0. -1.
          1    1    1    2  503    0  0.30086627748E+02 -0.17464617863E+01  0.84402672545E+03  0.84456460296E+03  0.00000000000E+00 0. -1.
<mgrwt>
<rscale>  0 0.47943259E+02</rscale>
<asrwt>0</asrwt>
<pdfrwt beam="1">  1        2 0.26439106E+00 0.30137274E+02</pdfrwt>
<pdfrwt beam="2">  1        3 0.77317899E-02 0.76269541E+02</pdfrwt>
<totfact> 0.80033605E+02</totfact>
</mgrwt>
</event>
<event>
 7    1  0.4252091E-004  0.3683418E+02  0.7546771E-02  0.1537346E+00
          1   -1    0    0  502    0 -0.00000000000E+00  0.00000000000E+00  0.84152839682E+02  0.84152839682E+02  0.00000000000E+00 0. -1.
          2   -1    0    0  503    0  0.00000000000E+00 -0.00000000000E+00 -0.11920801408E+04  0.11920801408E+04  0.00000000000E+00 0. -1.
         25    2    1    2    0    0 -0.17084180876E+01 -0.41625833641E+02 -0.20786005362E+03  0.24610320379E+03  0.12500142521E+03 0.  0.
          4    1    3    3  501    0 -0.13183004742E+02  0.22706627872E+02 -0.16692558089E+03  0.16898267668E+03  0.12700000000E+01 0.  1.
         -4    1    3    3    0  501  0.11474586654E+02 -0.64332461513E+02 -0.40934472725E+02  0.77120527102E+02  0.12700000000E+01 0.  1.
          2    1    1    2  502    0 -0.29021798769E+02  0.20917933017E+02  0.59726490397E+02  0.69620962221E+02  0.00000000000E+00 0. -1.
          1    1    1    2  503    0  0.30730216856E+02  0.20707900624E+02 -0.95979373786E+03  0.96050881444E+03  0.00000000000E+00 0. -1.
<mgrwt>
<rscale>  0 0.36300541E+02</rscale>
<asrwt>0</asrwt>
<pdfrwt beam="2">  1        2 0.18339693E+00 0.36834175E+02</pdfrwt>
<pdfrwt beam="1">  1        1 0.12946592E-01 0.35774638E+02</pdfrwt>
<totfact> 0.12649559E+03</totfact>
</mgrwt>
</event>
<event>
 7    1  0.4252091E-004  0.5544715E+02  0.7546771E-02  0.1444853E+00
         -2   -1    0    0    0  501 -0.00000000000E+00  0.00000000000E+00  0.31031976644E+02  0.31031976644E+02  0.00000000000E+00 0.  1.
          2   -1    0    0  503    0  0.00000000000E+00 -0.00000000000E+00 -0.10376234794E+04  0.10376234794E+04  0.00000000000E+00 0. -1.
         25    2    1    2    0    0  0.45622464452E+01 -0.14884144219E+02 -0.35236019509E+03  0.37419867048E+03  0.12499834426E+03 0.  0.
          4    1    3    3  502    0 -0.18645781503E+02  0.74750618395E+01 -0.33849522100E+03  0.33909315719E+03  0.12700000000E+01 0. -1.
         -4    1    3    3    0  502  0.23208027949E+02 -0.22359206059E+02 -0.13864974092E+02  0.35105513291E+02  0.12700000000E+01 0. -1.
          1    1    1    2  503    0  0.19348474968E+02 -0.40906682726E+02 -0.62579196206E+03  0.62742593184E+03  0.00000000000E+00 0. -1.
         -1    1    1    2    0  501 -0.23910721414E+02  0.55790826945E+02 -0.28439345592E+02  0.67030853698E+02  0.00000000000E+00 0.  1.
<mgrwt>
<rscale>  0 0.50090720E+02</rscale>
<asrwt>0</asrwt>
<pdfrwt beam="2">  1        2 0.15963442E+00 0.45251742E+02</pdfrwt>
<pdfrwt beam="1">  1       -2 0.47741492E-02 0.55447151E+02</pdfrwt>
<totfact> 0.49561655E+03</totfact>
</mgrwt>
</event>
<event>
 7    1  0.4252091E-004  0.9953216E+02  0.7546771E-02  0.1361533E+00
         -1   -1    0    0    0  501 -0.00000000000E+00  0.00000000000E+00  0.30994757306E+03  0.30994757306E+03  0.00000000000E+00 0.  1.
          1   -1    0    0  503    0  0.00000000000E+00 -0.00000000000E+00 -0.14321618408E+03  0.14321618408E+03  0.00000000000E+00 0. -1.
         25    2    1    2    0    0  0.10731167718E+03  0.62453767038E+02  0.41529179757E+02  0.18101825624E+03  0.12500666881E+03 0.  0.
          4    1    3    3  502    0  0.33549402534E+02  0.15591034273E+02 -0.44838661361E+02  0.58144313675E+02  0.12700000000E+01 0.  1.
         -4    1    3    3    0  502  0.73762274646E+02  0.46862732766E+02  0.86367841118E+02  0.12287394257E+03  0.12700000000E+01 0.  1.
          2    1    1    2  503    0 -0.12157015551E+02 -0.47095193554E+02 -0.51516724172E+02  0.70850004605E+02  0.00000000000E+00 0. -1.
         -2    1    1    2    0  501 -0.95154661629E+02 -0.15358573484E+02  0.17671893339E+03  0.20129549630E+03  0.00000000000E+00 0.  1.
<mgrwt>
<rscale>  0 0.69578322E+02</rscale>
<asrwt>0</asrwt>
<pdfrwt beam="2">  1        1 0.22033259E-01 0.48638979E+02</pdfrwt>
<pdfrwt beam="1">  1       -1 0.47684242E-01 0.99532164E+02</pdfrwt>
<totfact> 0.96786271E+02</totfact>
</mgrwt>
</event>
<event>
 7    1  0.4252091E-004  0.2286696E+03  0.7546771E-02  0.1248311E+00
          1   -1    0    0  502    0 -0.00000000000E+00  0.00000000000E+00  0.34170016660E+03  0.34170016660E+03  0.00000000000E+00 0. -1.
          2   -1    0    0  503    0  0.00000000000E+00 -0.00000000000E+00 -0.14987958509E+04  0.14987958509E+04  0.00000000000E+00 0. -1.
         25    2    1    2    0    0  0.10778490119E+03 -0.14567040587E+03 -0.42048939484E+03  0.47462956124E+03  0.12499774862E+03 0.  0.
          4    1    3    3  501    0  0.60830109270E+01 -0.10903314554E+03 -0.24916921336E+03  0.27205172235E+03  0.12700000000E+01 0. -1.
         -4    1    3    3    0  501  0.10170189026E+03 -0.36637260338E+02 -0.17132018148E+03  0.20257783889E+03  0.12700000000E+01 0. -1.
          2    1    1    2  502    0 -0.16389194488E+03  0.16622951308E+03  0.27032297819E+03  0.35716569425E+03  0.00000000000E+00 0. -1.
          1    1    1    2  503    0  0.56107043697E+02 -0.20559107204E+02 -0.10069292676E+04  0.10087007620E+04  0.00000000000E+00 0. -1.
<mgrwt>
<rscale>  0 0.11689392E+03</rscale>
<asrwt>0</asrwt>
<pdfrwt beam="2">  1        2 0.23058398E+00 0.59755144E+02</pdfrwt>
<pdfrwt beam="1">  1        1 0.52569257E-01 0.22866965E+03</pdfrwt>
<totfact> 0.15687649E+02</totfact>
</mgrwt>
</event>
<event>
 7    1  0.4252091E-004  0.2435930E+02  0.7546771E-02  0.1706062E+00
          2   -1    0    0  503    0  0.00000000000E+00  0.00000000000E+00  0.22995638639E+02  0.22995638639E+02  0.00000000000E+00 0. -1.
          1   -1    0    0  502    0 -0.00000000000E+00 -0.00000000000E+00 -0.10741712448E+04  0.10741712448E+04  0.00000000000E+00 0. -1.
         25    2    1    2    0    0  0.23847711561E+02  0.46127163056E+01 -0.90887447665E+03  0.91775161848E+03  0.12500091368E+03 0.  0.
          4    1    3    3  501    0  0.55653264705E+02  0.42470500813E+02 -0.67990127969E+03  0.68349717801E+03  0.12700000000E+01 0. -1.
         -4    1    3    3    0  501 -0.31805553144E+02 -0.37857784507E+02 -0.22897319695E+03  0.23425444047E+03  0.12700000000E+01 0. -1.
          2    1    1    2  502    0 -0.45344669330E+01 -0.19581391523E+02 -0.15185472875E+03  0.15317914652E+03  0.00000000000E+00 0. -1.
          1    1    1    2  503    0 -0.19313244628E+02  0.14968675218E+02  0.95535991893E+01  0.26236118488E+02  0.00000000000E+00 0. -1.
<mgrwt>
<rscale>  0 0.22127160E+02</rscale>
<asrwt>0</asrwt>
<pdfrwt beam="1">  1        2 0.35377908E-02 0.24359300E+02</pdfrwt>
<pdfrwt beam="2">  1        1 0.16525710E+00 0.20099559E+02</pdfrwt>
<totfact> 0.43991665E+03</totfact>
</mgrwt>
</event>
<event>
 7    1  0.4252091E-004  0.6529464E+02  0.7546771E-02  0.1537795E+00
          1   -1    0    0  503    0  0.00000000000E+00  0.00000000000E+00  0.78469824999E+03  0.78469824999E+03  0.00000000000E+00 0. -1.
         -1   -1    0    0    0  501 -0.00000000000E+00 -0.00000000000E+00 -0.72618916358E+02  0.72618916358E+02  0.00000000000E+00 0.  1.
         25    2    1    2    0    0  0.61673216457E+02 -0.47373526130E+02  0.11650546792E+03  0.18773826478E+03  0.12499718157E+03 0.  0.
          4    1    3    3  502    0 -0.32822637115E+02 -0.35623361841E+02  0.20821607941E+02  0.52739943812E+02  0.12700000000E+01 0.  1.
         -4    1    3    3    0  502  0.94495853572E+02 -0.11750164289E+02  0.95683859978E+02  0.13499832097E+03  0.12700000000E+01 0.  1.
          2    1    1    2  503    0 -0.58677766000E+02  0.27475599619E+02  0.62804509957E+03  0.63137836191E+03  0.00000000000E+00 0. -1.
         -2    1    1    2    0  501 -0.29954504568E+01  0.19897926511E+02 -0.32471233850E+02  0.38200539664E+02  0.00000000000E+00 0.  1.
<mgrwt>
<rscale>  0 0.36247309E+02</rscale>
<asrwt>0</asrwt>
<pdfrwt beam="1">  1        1 0.12072280E+00 0.65294641E+02</pdfrwt>
<pdfrwt beam="2">  1       -1 0.11172142E-01 0.20122132E+02</pdfrwt>
<totfact> 0.10893152E+03</totfact>
</mgrwt>
</event>
<event>
 7    1  0.4252091E-004  0.6252238E+02  0.7546771E-02  0.1416142E+00
          2   -1    0    0  503    0  0.00000000000E+00  0.00000000000E+00  0.13995273281E+04  0.13995273281E+04  0.00000000000E+00 0. -1.
          1   -1    0    0  502    0 -0.00000000000E+00 -0.00000000000E+00 -0.85945666730E+02  0.85945666730E+02  0.00000000000E+00 0. -1.
         25    2    1    2    0    0 -0.54149337873E+02  0.55897251635E+01  0.90296024867E+03  0.91318976908E+03  0.12495978498E+03 0.  0.
          4    1    3    3  501    0  0.37236697195E+02 -0.18700827782E+02  0.26539355268E+03  0.26864780528E+03  0.12700000000E+01 0.  1.
         -4    1    3    3    0  501 -0.91386035068E+02  0.24290552946E+02  0.63756669598E+03  0.64454196379E+03  0.12700000000E+01 0.  1.
          2    1    1    2  502    0  0.45405461311E+02  0.43519544137E+02 -0.67098367230E+02  0.91966284712E+02  0.00000000000E+00 0. -1.
          1    1    1    2  503    0  0.87438765619E+01 -0.49109269300E+02  0.47771977993E+03  0.48031694103E+03  0.00000000000E+00 0. -1.
<mgrwt>
<rscale>  0 0.55845480E+02</rscale>
<asrwt>0</asrwt>
<pdfrwt beam="1">  1        2 0.21531188E+00 0.49881617E+02</pdfrwt>
<pdfrwt beam="2">  1        1 0.13222411E-01 0.62522385E+02</pdfrwt>
<totfact> 0.97881902E+02</totfact>
</mgrwt>
</event>
<event>
 7    1  0.4252091E-004  0.3498173E+02  0.7546771E-02  0.1572639E+00
         -1   -1    0    0    0  501 -0.00000000000E+00  0.00000000000E+00  0.24229595952E+03  0.24229595952E+03  0.00000000000E+00 0.  1.
          1   -1    0    0  503    0  0.00000000000E+00 -0.00000000000E+00 -0.17903544643E+04  0.17903544643E+04  0.00000000000E+00 0. -1.
         25    2    1    2    0    0  0.43109733485E+02  0.44192318550E+02 -0.12959646981E+03  0.19034749040E+03  0.12500204788E+03 0.  0.
          4    1    3    3  502    0  0.92058314970E+01  0.24353897004E+02  0.21770036353E+02  0.33961846470E+02  0.12700000000E+01 0.  1.
         -4    1    3    3    0  502  0.33903901988E+02  0.19838421546E+02 -0.15136650616E+03  0.15638564393E+03  0.12700000000E+01 0.  1.
          2    1    1    2  503    0 -0.26905074348E+02 -0.13434461337E+02 -0.16288169399E+04  0.16290945312E+04  0.00000000000E+00 0. -1.
         -2    1    1    2    0  501 -0.16204659136E+02 -0.30757857213E+02  0.21035490494E+03  0.21320840225E+03  0.00000000000E+00 0.  1.
<mgrwt>
<rscale>  0 0.32434476E+02</rscale>
<asrwt>0</asrwt>
<pdfrwt beam="2">  1        1 0.27543916E+00 0.30072708E+02</pdfrwt>
<pdfrwt beam="1">  1       -1 0.37276300E-01 0.34981726E+02</pdfrwt>
<totfact> 0.41318495E+01</totfact>
</mgrwt>
</event>
<event>
 7    1  0.4252091E-004  0.9248369E+02  0.7546771E-02  0.1386679E+00
          2   -1    0    0  503    0  0.00000000000E+00  0.00000000000E+00  0.81226572726E+03  0.81226572726E+03  0.00000000000E+00 0. -1.
          1   -1    0    0  502    0 -0.00000000000E+00 -0.00000000000E+00 -0.10806656850E+03  0.10806656850E+03  0.00000000000E+00 0. -1.
         25    2    1    2    0    0  0.11787496202E+03  0.40378255834E+02  0.38567859157E+02  0.18067620128E+03  0.12502599624E+03 0.  0.
          4    1    3    3  501    0 -0.35745830211E+01 -0.33760264963E+02  0.11208462718E+02  0.35773952404E+02  0.12700000000E+01 0.  1.
         -4    1    3    3    0  501  0.12144954504E+03  0.74138520797E+02  0.27359396438E+02  0.14490224888E+03  0.12700000000E+01 0.  1.
          2    1    1    2  502    0 -0.26902580462E+02 -0.32982297708E+02 -0.20667107438E+02  0.47315009537E+02  0.00000000000E+00 0. -1.
          1    1    1    2  503    0 -0.90972381557E+02 -0.73959581256E+01  0.68629840704E+03  0.69234108495E+03  0.00000000000E+00 0. -1.
<mgrwt>
<rscale>  0 0.62740358E+02</rscale>
<asrwt>0</asrwt>
<pdfrwt beam="1">  1        2 0.12496395E+00 0.92483685E+02</pdfrwt>
<pdfrwt beam="2">  1        1 0.16625626E-01 0.42562669E+02</pdfrwt>
<totfact> 0.14792526E+03</totfact>
</mgrwt>
</event>
<event>
 7    1  0.4252091E-004  0.1826086E+03  0.7546771E-02  0.1335835E+00
          2   -1    0    0  503    0  0.00000000000E+00  0.00000000000E+00  0.79358949829E+03  0.79358949829E+03  0.00000000000E+00 0. -1.
          1   -1    0    0  502    0 -0.00000000000E+00 -0.00000000000E+00 -0.23116501048E+04  0.23116501048E+04  0.00000000000E+00 0. -1.
         25    2    1    2    0    0 -0.12624078188E+03 -0.12200511611E+03 -0.55973642200E+03  0.59979283330E+03  0.12499838957E+03 0.  0.
          4    1    3    3  501    0 -0.36256818368E-01  0.80586203036E+01  0.29226987012E+01  0.86658954213E+01  0.12700000000E+01 0.  1.
         -4    1    3    3    0  501 -0.12620452506E+03 -0.13006373641E+03 -0.56265912070E+03  0.59112693788E+03  0.12700000000E+01 0.  1.
          2    1    1    2  502    0 -0.25829795694E+02  0.20578309003E+02 -0.17209264538E+04  0.17212433020E+04  0.00000000000E+00 0. -1.
          1    1    1    2  503    0  0.15207057757E+03  0.10142680711E+03  0.76260226931E+03  0.78420346781E+03  0.00000000000E+00 0. -1.
<mgrwt>
<rscale>  0 0.77657151E+02</rscale>
<asrwt>0</asrwt>
<pdfrwt beam="1">  1        2 0.12209069E+00 0.18260858E+03</pdfrwt>
<pdfrwt beam="2">  1        1 0.35563848E+00 0.33024917E+02</pdfrwt>
<totfact> 0.14222712E+01</totfact>
</mgrwt>
</event>
<event>
 7    1  0.4252091E-004  0.7039571E+02  0.7546771E-02  0.1486837E+00
          2   -1    0    0  503    0  0.00000000000E+00  0.00000000000E+00  0.16423523078E+03  0.16423523078E+03  0.00000000000E+00 0. -1.
         -2   -1    0    0    0  501 -0.00000000000E+00 -0.00000000000E+00 -0.14298513192E+03  0.14298513192E+03  0.00000000000E+00 0.  1.
         25    2    1    2    0    0  0.48684946489E+02  0.15651850867E+02 -0.37076365892E+02  0.14005055803E+03  0.12499718976E+03 0.  0.
          4    1    3    3  502    0 -0.14680442743E+02 -0.61104530970E+01  0.36921609730E+02  0.40220283455E+02  0.12700000000E+01 0.  1.
         -4    1    3    3    0  502  0.63365389232E+02  0.21762303964E+02 -0.73997975622E+02  0.99830274579E+02  0.12700000000E+01 0.  1.
          1    1    1    2  503    0 -0.73042084371E+02 -0.56317098491E+01  0.96274294995E+02  0.12097769266E+03  0.00000000000E+00 0. -1.
         -1    1    1    2    0  501  0.24357137882E+02 -0.10020141018E+02 -0.37947830236E+02  0.46192112004E+02  0.00000000000E+00 0.  1.
<mgrwt>
<rscale>  0 0.43058794E+02</rscale>
<asrwt>0</asrwt>
<pdfrwt beam="1">  1        2 0.25266959E-01 0.70395713E+02</pdfrwt>
<pdfrwt beam="2">  1       -2 0.21997713E-01 0.26337680E+02</pdfrwt>
<totfact> 0.33295427E+03</totfact>
</mgrwt>
</event>
<event>
 7    1  0.4252091E-004  0.8646698E+02  0.7546771E-02  0.1408644E+00
          1   -1    0    0  502    0 -0.00000000000E+00  0.00000000000E+00  0.46579128221E+02  0.46579128221E+02  0.00000000000E+00 0. -1.
          2   -1    0    0  503    0  0.00000000000E+00 -0.00000000000E+00 -0.30020284148E+04  0.30020284148E+04  0.00000000000E+00 0. -1.
         25    2    1    2    0    0 -0.31551485870E+02 -0.66427652516E+02 -0.70253309829E+03  0.71734688484E+03  0.12500267882E+03 0.  0.
          4    1    3    3  501    0 -0.20317318717E+01  0.29829779440E+02 -0.60835983229E+02  0.67798034125E+02  0.12700000000E+01 0.  1.
         -4    1    3    3    0  501 -0.29519753999E+02 -0.96257431956E+02 -0.64169711506E+03  0.64954885071E+03  0.12700000000E+01 0.  1.
          2    1    1    2  502    0  0.68161969216E+02  0.55405234229E+02 -0.10439178017E+02  0.88457732647E+02  0.00000000000E+00 0. -1.
          1    1    1    2  503    0 -0.36610483346E+02  0.11022418287E+02 -0.22424770103E+04  0.22428029256E+04  0.00000000000E+00 0. -1.
<mgrwt>
<rscale>  0 0.57497465E+02</rscale>
<asrwt>0</asrwt>
<pdfrwt beam="2">  1        2 0.46185062E+00 0.38233770E+02</pdfrwt>
<pdfrwt beam="1">  1        1 0.71660182E-02 0.86466976E+02</pdfrwt>
<totfact> 0.36184925E+02</totfact>
</mgrwt>
</event>
<event>
 7    1  0.4252091E-004  0.1714524E+03  0.7546771E-02  0.1353834E+00
         -2   -1    0    0    0  501 -0.00000000000E+00  0.00000000000E+00  0.32272240488E+03  0.32272240488E+03  0.00000000000E+00 0.  1.
          2   -1    0    0  503    0  0.00000000000E+00 -0.00000000000E+00 -0.48518552910E+03  0.48518552910E+03  0.00000000000E+00 0. -1.
         25    2    1    2    0    0  0.17814900859E+03  0.95667972747E+01  0.42908258199E+02  0.22202435057E+03  0.12500040301E+03 0.  0.
          4    1    3    3  502    0  0.12422896344E+03  0.60456757925E+02  0.51335422725E+02  0.14739332910E+03  0.12700000000E+01 0.  1.
         -4    1    3    3    0  502  0.53920045146E+02 -0.50889960650E+02 -0.84271645264E+01  0.74631021469E+02  0.12700000000E+01 0.  1.
          1    1    1    2  503    0 -0.99716053615E+01 -0.28432100406E+02 -0.35723455993E+03  0.35850292614E+03  0.00000000000E+00 0. -1.
         -1    1    1    2    0  501 -0.16817740322E+03  0.18865303132E+02  0.15186317751E+03  0.22738065727E+03  0.00000000000E+00 0.  1.
<mgrwt>
<rscale>  0 0.71873939E+02</rscale>
<asrwt>0</asrwt>
<pdfrwt beam="2">  1        2 0.74643927E-01 0.30130006E+02</pdfrwt>
<pdfrwt beam="1">  1       -2 0.49649601E-01 0.17145244E+03</pdfrwt>
<totfact> 0.26021110E+02</totfact>
</mgrwt>
</event>
<event>
 7    1  0.4252091E-004  0.8663367E+02  0.7546771E-02  0.1315194E+00
          1   -1    0    0  502    0 -0.00000000000E+00  0.00000000000E+00  0.30954198809E+04  0.30954198809E+04  0.00000000000E+00 0. -1.
          2   -1    0    0  503    0  0.00000000000E+00 -0.00000000000E+00 -0.13468183930E+04  0.13468183930E+04  0.00000000000E+00 0. -1.
         25    2    1    2    0    0 -0.23125497107E+00  0.65049408244E+02  0.14675731656E+04  0.14743224933E+04  0.12499735480E+03 0.  0.
          4    1    3    3  501    0 -0.35039968133E+02  0.71319394284E+02  0.13264683067E+04  0.13288468824E+04  0.12700000000E+01 0.  1.
         -4    1    3    3    0  501  0.34808713162E+02 -0.62699860400E+01  0.14110485896E+03  0.14547561087E+03  0.12700000000E+01 0.  1.
          2    1    1    2  502    0  0.83743816990E+02 -0.68309324537E+02  0.16213716584E+04  0.16249693060E+04  0.00000000000E+00 0. -1.
          1    1    1    2  503    0 -0.83512562019E+02  0.32599162932E+01 -0.13403433361E+04  0.13429464746E+04  0.00000000000E+00 0. -1.
<mgrwt>
<rscale>  0 0.85091183E+02</rscale>
<asrwt>0</asrwt>
<pdfrwt beam="2">  1        2 0.20720283E+00 0.83576163E+02</pdfrwt>
<pdfrwt beam="1">  1        1 0.47621844E+00 0.86633666E+02</pdfrwt>
<totfact> 0.18584320E+00</totfact>
</mgrwt>
</event>
<event>
 7    1  0.4252091E-004  0.9393539E+02  0.7546771E-02  0.1384829E+00
          2   -1    0    0  503    0  0.00000000000E+00  0.00000000000E+00  0.24674856565E+04  0.24674856565E+04  0.00000000000E+00 0. -1.
          1   -1    0    0  502    0 -0.00000000000E+00 -0.00000000000E+00 -0.16860021815E+03  0.16860021815E+03  0.00000000000E+00 0. -1.
         25    2    1    2    0    0 -0.11747721570E+03  0.42613212430E+02  0.39271754850E+02  0.18106334087E+03  0.12499952239E+03 0.  0.
          4    1    3    3  501    0 -0.47314555314E+02  0.68256701068E+02  0.61229603170E+02  0.10319070496E+03  0.12700000000E+01 0.  1.
         -4    1    3    3    0  501 -0.70162660382E+02 -0.25643488639E+02 -0.21957848320E+02  0.77872635914E+02  0.12700000000E+01 0.  1.
          2    1    1    2  502    0  0.41000610781E+02  0.11326171558E+02 -0.92099627049E+02  0.10144788588E+03  0.00000000000E+00 0. -1.
          1    1    1    2  503    0  0.76476604914E+02 -0.53939383988E+02  0.23517133105E+04  0.23535746479E+04  0.00000000000E+00 0. -1.
<mgrwt>
<rscale>  0 0.63211223E+02</rscale>
<asrwt>0</asrwt>
<pdfrwt beam="1">  1        2 0.37961315E+00 0.93935387E+02</pdfrwt>
<pdfrwt beam="2">  1        1 0.25938497E-01 0.42536246E+02</pdfrwt>
<totfact> 0.11380465E+02</totfact>
</mgrwt>
</event>
<event>
 7    1  0.4252091E-004  0.1686198E+03  0.7546771E-02  0.1191323E+00
          1   -1    0    0  503    0  0.00000000000E+00  0.00000000000E+00  0.93798033582E+03  0.93798033582E+03  0.00000000000E+00 0. -1.
         -1   -1    0    0    0  501 -0.00000000000E+00 -0.00000000000E+00 -0.16515875419E+03  0.16515875419E+03  0.00000000000E+00 0.  1.
         25    2    1    2    0    0  0.47053008322E+02  0.24391834371E+03  0.21989411859E+03  0.35452614761E+03  0.12500088782E+03 0.  0.
          4    1    3    3  502    0  0.32524766480E+02  0.17496497786E+03  0.22136399965E+03  0.28403210585E+03  0.12700000000E+01 0. -1.
         -4    1    3    3    0  502  0.14528241842E+02  0.68953365851E+02 -0.14698810594E+01  0.70494041759E+02  0.12700000000E+01 0. -1.
          2    1    1    2  503    0 -0.10871657777E+03 -0.99653183016E+02  0.57187173030E+03  0.59058219334E+03  0.00000000000E+00 0. -1.
         -2    1    1    2    0  501  0.61663569444E+02 -0.14426516069E+03 -0.18944267262E+02  0.15803074906E+03  0.00000000000E+00 0.  1.
<mgrwt>
<rscale>  0 0.15769550E+03</rscale>
<asrwt>0</asrwt>
<pdfrwt beam="1">  1        1 0.14430466E+00 0.14747899E+03</pdfrwt>
<pdfrwt beam="2">  1       -1 0.25409040E-01 0.16861976E+03</pdfrwt>
<totfact> 0.25016825E+02</totfact>
</mgrwt>
</event>
<event>
 7    1  0.4252091E-004  0.8167294E+02  0.7546771E-02  0.1407065E+00
          2   -1    0    0  503    0  0.00000000000E+00  0.00000000000E+00  0.13369701888E+03  0.13369701888E+03  0.00000000000E+00 0. -1.
          1   -1    0    0  502    0 -0.00000000000E+00 -0.00000000000E+00 -0.37441505972E+03  0.37441505972E+03  0.00000000000E+00 0. -1.
         25    2    1    2    0    0  0.44461882440E+02  0.74643409878E+02 -0.10242569686E+03  0.18347512630E+03  0.12499440374E+03 0.  0.
          4    1    3    3  501    0  0.86039428399E+02  0.30837640873E+02 -0.55048987688E+02  0.10670401717E+03  0.12700000000E+01 0. -1.
         -4    1    3    3    0  501 -0.41577545959E+02  0.43805769005E+02 -0.47376709173E+02  0.76771109137E+02  0.12700000000E+01 0. -1.
          2    1    1    2  502    0 -0.70267690427E+02 -0.42807362813E+02 -0.21909521631E+03  0.23403575034E+03  0.00000000000E+00 0. -1.
          1    1    1    2  503    0  0.25805807986E+02 -0.31836047065E+02  0.80802872336E+02  0.90601201958E+02  0.00000000000E+00 0. -1.
<mgrwt>
<rscale>  0 0.57853865E+02</rscale>
<asrwt>0</asrwt>
<pdfrwt beam="1">  1        2 0.20568772E-01 0.40981381E+02</pdfrwt>
<pdfrwt beam="2">  1        1 0.57602317E-01 0.81672936E+02</pdfrwt>
<totfact> 0.22710126E+03</totfact>
</mgrwt>
</event>
<event>
 7    1  0.4252091E-004  0.6932816E+02  0.7546771E-02  0.1363146E+00
          2   -1    0    0  503    0  0.00000000000E+00  0.00000000000E+00  0.21764905071E+04  0.21764905071E+04  0.00000000000E+00 0. -1.
          1   -1    0    0  502    0 -0.00000000000E+00 -0.00000000000E+00 -0.57296062701E+03  0.57296062701E+03  0.00000000000E+00 0. -1.
         25    2    1    2    0    0  0.20104194129E+02 -0.12315366300E+03  0.73345677640E+02  0.19122159566E+03  0.12496042128E+03 0.  0.
          4    1    3    3  501    0 -0.25858250674E+02 -0.48664345767E+02 -0.24161729487E+02  0.60185295120E+02  0.12700000000E+01 0.  1.
         -4    1    3    3    0  501  0.45962444803E+02 -0.74489317231E+02  0.97507407128E+02  0.13103630054E+03  0.12700000000E+01 0.  1.
          2    1    1    2  502    0  0.18783238289E+02  0.66282225071E+02 -0.51113057137E+03  0.51575246426E+03  0.00000000000E+00 0. -1.
          1    1    1    2  503    0 -0.38887432418E+02  0.56871437928E+02  0.20413147739E+04  0.20424770742E+04  0.00000000000E+00 0. -1.
<mgrwt>
<rscale>  0 0.69109867E+02</rscale>
<asrwt>0</asrwt>
<pdfrwt beam="1">  1        2 0.33484469E+00 0.69328162E+02</pdfrwt>
<pdfrwt beam="2">  1        1 0.88147790E-01 0.68892259E+02</pdfrwt>
<totfact> 0.37654314E+01</totfact>
</mgrwt>
</event>
<event>
 7    1  0.4252091E-004  0.6350198E+02  0.7546771E-02  0.1447334E+00
          2   -1    0    0  503    0  0.00000000000E+00  0.00000000000E+00  0.88229209570E+02  0.88229209570E+02  0.00000000000E+00 0. -1.
          1   -1    0    0  502    0 -0.00000000000E+00 -0.00000000000E+00 -0.86285479182E+03  0.86285479182E+03  0.00000000000E+00 0. -1.
         25    2    1    2    0    0  0.43047599388E+02  0.28236050970E+02 -0.53412178959E+02  0.14529473025E+03  0.12492928956E+03 0.  0.
          4    1    3    3  501    0 -0.39539238219E+02 -0.14116745396E+02 -0.21136438738E+02  0.47021227143E+02  0.12700000000E+01 0.  1.
         -4    1    3    3    0  501  0.82586837607E+02  0.42352796366E+02 -0.32275740221E+02  0.98273503106E+02  0.12700000000E+01 0.  1.
          2    1    1    2  502    0 -0.16077113932E+02  0.35303865117E+02 -0.73447598311E+03  0.73549969833E+03  0.00000000000E+00 0. -1.
          1    1    1    2  503    0 -0.26970485456E+02 -0.63539916087E+02  0.13262579816E+02  0.70289572808E+02  0.00000000000E+00 0. -1.
<mgrwt>
<rscale>  0 0.49632477E+02</rscale>
<asrwt>0</asrwt>
<pdfrwt beam="1">  1        2 0.13573724E-01 0.63501976E+02</pdfrwt>
<pdfrwt beam="2">  1        1 0.13274690E+00 0.38792222E+02</pdfrwt>
<totfact> 0.12648545E+03</totfact>
</mgrwt>
</event>
<event>
 7    1  0.4252091E-004  0.1304341E+03  0.7546771E-02  0.1335086E+00
         -2   -1    0    0    0  501 -0.00000000000E+00  0.00000000000E+00  0.58342192049E+03  0.58342192049E+03  0.00000000000E+00 0.  1.
          2   -1    0    0  503    0  0.00000000000E+00 -0.00000000000E+00 -0.11599466937E+04  0.11599466937E+04  0.00000000000E+00 0. -1.
         25    2    1    2    0    0 -0.13822212229E+03  0.49859251395E+02 -0.48485614789E+03  0.52182349371E+03  0.12499189731E+03 0.  0.
          4    1    3    3  502    0  0.97601239875E+01  0.28620134211E+02 -0.17719230912E+03  0.17975844741E+03  0.12700000000E+01 0.  1.
         -4    1    3    3    0  502 -0.14798224628E+03  0.21239117184E+02 -0.30766383877E+03  0.34206504630E+03  0.12700000000E+01 0.  1.
          1    1    1    2  503    0  0.10047591303E+03 -0.77080577940E+02 -0.64952300283E+03  0.66175294167E+03  0.00000000000E+00 0. -1.
         -1    1    1    2    0  501  0.37746209256E+02  0.27221326545E+02  0.55785437752E+03  0.55979217881E+03  0.00000000000E+00 0.  1.
<mgrwt>
<rscale>  0 0.77911045E+02</rscale>
<asrwt>0</asrwt>
<pdfrwt beam="2">  1        2 0.17845334E+00 0.13043412E+03</pdfrwt>
<pdfrwt beam="1">  1       -2 0.89757219E-01 0.46537909E+02</pdfrwt>
<totfact> 0.25600425E+01</totfact>
</mgrwt>
</event>
<event>
 7    1  0.4252091E-004  0.1807562E+03  0.7546771E-02  0.1327874E+00
          2   -1    0    0  503    0  0.00000000000E+00  0.00000000000E+00  0.43230085537E+03  0.43230085537E+03  0.00000000000E+00 0. -1.
          1   -1    0    0  502    0 -0.00000000000E+00 -0.00000000000E+00 -0.10578695573E+04  0.10578695573E+04  0.00000000000E+00 0. -1.
         25    2    1    2    0    0  0.11146522085E+03  0.18052964232E+03 -0.15730488403E+03  0.29220763501E+03  0.12500011282E+03 0.  0.
          4    1    3    3  501    0  0.45959189880E+02  0.15103723408E+03 -0.54986075114E+02  0.16718126262E+03  0.12700000000E+01 0. -1.
         -4    1    3    3    0  501  0.65506030966E+02  0.29492408240E+02 -0.10231880892E+03  0.12502637240E+03  0.12700000000E+01 0. -1.
          2    1    1    2  502    0 -0.93356831067E+02 -0.14967477115E+03 -0.82286522972E+03  0.84156118097E+03  0.00000000000E+00 0. -1.
          1    1    1    2  503    0 -0.18108389779E+02 -0.30854871167E+02  0.35460141182E+03  0.35640159669E+03  0.00000000000E+00 0. -1.
<mgrwt>
<rscale>  0 0.80416227E+02</rscale>
<asrwt>0</asrwt>
<pdfrwt beam="1">  1        2 0.66507825E-01 0.35776205E+02</pdfrwt>
<pdfrwt beam="2">  1        1 0.16274916E+00 0.18075616E+03</pdfrwt>
<totfact> 0.15149037E+02</totfact>
</mgrwt>
</event>
<event>
 7    1  0.4252091E-004  0.3552686E+02  0.7546771E-02  0.1549809E+00
          1   -1    0    0  503    0  0.00000000000E+00  0.00000000000E+00  0.24999135803E+03  0.24999135803E+03  0.00000000000E+00 0. -1.
         -1   -1    0    0    0  501 -0.00000000000E+00 -0.00000000000E+00 -0.47831850713E+02  0.47831850713E+02  0.00000000000E+00 0.  1.
         25    2    1    2    0    0  0.70605033533E+01 -0.45224982732E+01  0.99294871184E+02  0.15985781022E+03  0.12499897738E+03 0.  0.
          4    1    3    3  502    0  0.60579073397E+02 -0.27699249227E+02  0.47217265050E+02  0.81658775157E+02  0.12700000000E+01 0. -1.
         -4    1    3    3    0  502 -0.53518570043E+02  0.23176750954E+02  0.52077606134E+02  0.78199035064E+02  0.12700000000E+01 0. -1.
          2    1    1    2  503    0  0.32237468510E+02  0.14929946323E+02  0.87619621862E+02  0.94548166605E+02  0.00000000000E+00 0. -1.
         -2    1    1    2    0  501 -0.39297971863E+02 -0.10407448049E+02  0.15245014276E+02  0.43417231921E+02  0.00000000000E+00 0.  1.
<mgrwt>
<rscale>  0 0.34864337E+02</rscale>
<asrwt>0</asrwt>
<pdfrwt beam="1">  1        1 0.38460208E-01 0.35526858E+02</pdfrwt>
<pdfrwt beam="2">  1       -1 0.73587464E-02 0.34214171E+02</pdfrwt>
<totfact> 0.89155330E+03</totfact>
</mgrwt>
</event>
<event>
 7    1  0.4252091E-004  0.1894634E+03  0.7546771E-02  0.1322391E+00
          1   -1    0    0  502    0 -0.00000000000E+00  0.00000000000E+00  0.19513291139E+03  0.19513291139E+03  0.00000000000E+00 0. -1.
          2   -1    0    0  503    0  0.00000000000E+00 -0.00000000000E+00 -0.88777621954E+03  0.88777621954E+03  0.00000000000E+00 0. -1.
         25    2    1    2    0    0 -0.22237876466E+02 -0.18264179298E+03 -0.84940810477E+02  0.23810052544E+03  0.12499748494E+03 0.  0.
          4    1    3    3  501    0 -0.23669472664E+02 -0.14243504746E+03 -0.32036673354E+00  0.14439425963E+03  0.12700000000E+01 0. -1.
         -4    1    3    3    0  501  0.14315961975E+01 -0.40206745522E+02 -0.84620443744E+02  0.93706265812E+02  0.12700000000E+01 0. -1.
          2    1    1    2  502    0  0.58033210477E+02  0.18425599527E+03  0.39031562847E+02  0.19708269384E+03  0.00000000000E+00 0. -1.
          1    1    1    2  503    0 -0.35795334011E+02 -0.16142022924E+01 -0.64673406052E+03  0.64772591165E+03  0.00000000000E+00 0. -1.
<mgrwt>
<rscale>  0 0.82394156E+02</rscale>
<asrwt>0</asrwt>
<pdfrwt beam="2">  1        2 0.13658095E+00 0.35831712E+02</pdfrwt>
<pdfrwt beam="1">  1        1 0.30020449E-01 0.18946337E+03</pdfrwt>
<totfact> 0.69274853E+02</totfact>
</mgrwt>
</event>
<event>
 7    1  0.4252091E-004  0.7443225E+02  0.7546771E-02  0.1508612E+00
          1   -1    0    0  502    0 -0.00000000000E+00  0.00000000000E+00  0.47815178204E+03  0.47815178204E+03  0.00000000000E+00 0. -1.
          2   -1    0    0  503    0  0.00000000000E+00 -0.00000000000E+00 -0.16838095029E+03  0.16838095029E+03  0.00000000000E+00 0. -1.
         25    2    1    2    0    0 -0.67975002215E+02 -0.24781413010E+02  0.70799915395E+02  0.16085170069E+03  0.12500368890E+03 0.  0.
          4    1    3    3  501    0 -0.88967423501E+01  0.19905327272E+02  0.82949005333E+02  0.85776013336E+02  0.12700000000E+01 0. -1.
         -4    1    3    3    0  501 -0.59078259864E+02 -0.44686740281E+02 -0.12149089937E+02  0.75075687355E+02  0.12700000000E+01 0. -1.
          2    1    1    2  502    0 -0.68020173674E+01  0.20329929816E+02  0.35059581267E+03  0.35125061901E+03  0.00000000000E+00 0. -1.
          1    1    1    2  503    0  0.74777019582E+02  0.44514831942E+01 -0.11162489632E+03  0.13443041263E+03  0.00000000000E+00 0. -1.
<mgrwt>
<rscale>  0 0.39945633E+02</rscale>
<asrwt>0</asrwt>
<pdfrwt beam="2">  1        2 0.25904762E-01 0.74432249E+02</pdfrwt>
<pdfrwt beam="1">  1        1 0.73561812E-01 0.21437665E+02</pdfrwt>
<totfact> 0.13694073E+03</totfact>
</mgrwt>
</event>
<event>
 7    1  0.4252091E-004  0.8334242E+02  0.7546771E-02  0.1346556E+00
          2   -1    0    0  503    0  0.00000000000E+00  0.00000000000E+00  0.76088598674E+03  0.76088598674E+03  0.00000000000E+00 0. -1.
          1   -1    0    0  502    0 -0.00000000000E+00 -0.00000000000E+00 -0.78292273241E+03  0.78292273241E+03  0.00000000000E+00 0. -1.
         25    2    1    2    0    0  0.73984549964E+02 -0.12629497832E+03 -0.42243998730E+02  0.19706255903E+03  0.12499984624E+03 0.  0.
          4    1    3    3  501    0  0.95292926205E+02 -0.11613094143E+03 -0.65510928883E+02  0.16389152524E+03  0.12700000000E+01 0. -1.
         -4    1    3    3    0  501 -0.21308376241E+02 -0.10164036889E+02  0.23266930153E+02  0.33171033789E+02  0.12700000000E+01 0. -1.
          2    1    1    2  502    0 -0.23420052336E+02  0.61654901595E+02 -0.65915429391E+03  0.66244562714E+03  0.00000000000E+00 0. -1.
          1    1    1    2  503    0 -0.50564497629E+02  0.64640076729E+02  0.67936154697E+03  0.68430053298E+03  0.00000000000E+00 0. -1.
<mgrwt>
<rscale>  0 0.74139735E+02</rscale>
<asrwt>0</asrwt>
<pdfrwt beam="1">  1        2 0.11705938E+00 0.83342424E+02</pdfrwt>
<pdfrwt beam="2">  1        1 0.12044965E+00 0.65953209E+02</pdfrwt>
<totfact> 0.13769740E+02</totfact>
</mgrwt>
</event>
<event>
 7    1  0.4252091E-004  0.1664981E+03  0.7546771E-02  0.1227484E+00
          1   -1    0    0  502    0 -0.00000000000E+00  0.00000000000E+00  0.30162438057E+04  0.30162438057E+04  0.00000000000E+00 0. -1.
          2   -1    0    0  503    0  0.00000000000E+00 -0.00000000000E+00 -0.14105394351E+03  0.14105394351E+03  0.00000000000E+00 0. -1.
         25    2    1    2    0    0 -0.13160643951E+03  0.43310746346E+02  0.34396002969E+03  0.39131718081E+03  0.12499823319E+03 0.  0.
          4    1    3    3  501    0 -0.25543980093E+02  0.34463831514E+02  0.14834220945E+02  0.45408342985E+02  0.12700000000E+01 0.  1.
         -4    1    3    3    0  501 -0.10606245942E+03  0.88469148317E+01  0.32912580875E+03  0.34590883782E+03  0.12700000000E+01 0.  1.
          2    1    1    2  502    0 -0.36265328928E+02 -0.94771440340E+02  0.25813823803E+04  0.25833760457E+04  0.00000000000E+00 0. -1.
          1    1    1    2  503    0  0.16787176844E+03  0.51460693994E+02 -0.50152547815E+02  0.18260452272E+03  0.00000000000E+00 0. -1.
<mgrwt>
<rscale>  0 0.12998111E+03</rscale>
<asrwt>0</asrwt>
<pdfrwt beam="2">  1        2 0.21700609E-01 0.16649813E+03</pdfrwt>
<pdfrwt beam="1">  1        1 0.46403746E+00 0.10147315E+03</pdfrwt>
<totfact> 0.28085692E+01</totfact>
</mgrwt>
</event>
<event>
 7    1  0.4252091E-004  0.1300043E+03  0.7546771E-02  0.1321280E+00
         -2   -1    0    0    0  501  0.00000000000E+00  0.00000000000E+00  0.60035420815E+03  0.60035420815E+03  0.00000000000E+00 0.  1.
         -1   -1    0    0    0  502 -0.00000000000E+00 -0.00000000000E+00 -0.18020359109E+03  0.18020359109E+03  0.00000000000E+00 0.  1.
         25    2    1    2    0    0  0.40768700771E+02  0.91310931552E+02 -0.71596377197E+02  0.17536669138E+03  0.12501064768E+03 0.  0.
          4    1    3    3  503    0 -0.15593117589E+01  0.77003657567E+02  0.14477524200E+02  0.78378608937E+02  0.12700000000E+01 0. -1.
         -4    1    3    3    0  503  0.42328012530E+02  0.14307273984E+02 -0.86073901397E+02  0.96988082439E+02  0.12700000000E+01 0. -1.
         -2    1    1    2    0  502  0.52680172870E+02  0.24995368125E+01 -0.34183073062E+02  0.62848474777E+02  0.00000000000E+00 0.  1.
         -1    1    1    2    0  501 -0.93448873641E+02 -0.93810468364E+02  0.52593006732E+03  0.54234263309E+03  0.00000000000E+00 0.  1.
<mgrwt>
<rscale>  0 0.82803104E+02</rscale>
<asrwt>0</asrwt>
<pdfrwt beam="1">  1       -2 0.92362185E-01 0.13000431E+03</pdfrwt>
<pdfrwt beam="2">  1       -1 0.27723630E-01 0.52739438E+02</pdfrwt>
<totfact> 0.88579508E+01</totfact>
</mgrwt>
</event>
<event>
 7    1  0.4252091E-004  0.6636523E+02  0.7546771E-02  0.1376610E+00
          2   -1    0    0  503    0  0.00000000000E+00  0.00000000000E+00  0.50601364362E+03  0.50601364362E+03  0.00000000000E+00 0. -1.
          1   -1    0    0  502    0 -0.00000000000E+00 -0.00000000000E+00 -0.19841255618E+04  0.19841255618E+04  0.00000000000E+00 0. -1.
         25    2    1    2    0    0 -0.81591164441E+02 -0.82250888780E+02 -0.19740401349E+03  0.26083950146E+03  0.12508626687E+03 0.  0.
          4    1    3    3  501    0 -0.10422972821E+03 -0.97705124645E+02 -0.16096502892E+03  0.21522425760E+03  0.12700000000E+01 0.  1.
         -4    1    3    3    0  501  0.22638563768E+02  0.15454235865E+02 -0.36438984569E+02  0.45615243856E+02  0.12700000000E+01 0.  1.
          2    1    1    2  502    0  0.62238037838E+02  0.20852407339E+02 -0.17522020167E+04  0.17534310091E+04  0.00000000000E+00 0. -1.
          1    1    1    2  503    0  0.19353126603E+02  0.61398481442E+02  0.47149411206E+03  0.47586869485E+03  0.00000000000E+00 0. -1.
<mgrwt>
<rscale>  0 0.65363237E+02</rscale>
<asrwt>0</asrwt>
<pdfrwt beam="1">  1        2 0.77848253E-01 0.64376370E+02</pdfrwt>
<pdfrwt beam="2">  1        1 0.30525009E+00 0.66365233E+02</pdfrwt>
<totfact> 0.35150662E+01</totfact>
</mgrwt>
</event>
<event>
 7    1  0.4252091E-004  0.5160179E+02  0.7546771E-02  0.1448555E+00
         -2   -1    0    0    0  501 -0.00000000000E+00  0.00000000000E+00  0.54602098859E+03  0.54602098859E+03  0.00000000000E+00 0.  1.
          2   -1    0    0  503    0  0.00000000000E+00 -0.00000000000E+00 -0.61525197633E+03  0.61525197633E+03  0.00000000000E+00 0. -1.
         25    2    1    2    0    0 -0.22719846275E+02 -0.38674601750E+02 -0.16512691738E+03  0.21189601698E+03  0.12498442677E+03 0.  0.
          4    1    3    3  502    0 -0.49582259280E+02  0.19500695390E+02 -0.12599672433E+03  0.13680447726E+03  0.12700000000E+01 0.  1.
         -4    1    3    3    0  502  0.26862413006E+02 -0.58175297140E+02 -0.39130193045E+02  0.75091539720E+02  0.12700000000E+01 0.  1.
          1    1    1    2  503    0  0.46758358413E+02 -0.72002800584E+01 -0.42413900813E+03  0.42676935964E+03  0.00000000000E+00 0. -1.
         -3    1    1    2    0  501 -0.24038512138E+02  0.45874881808E+02  0.52003493777E+03  0.52260758830E+03  0.00000000000E+00 0.  1.
<mgrwt>
<rscale>  0 0.49409054E+02</rscale>
<asrwt>0</asrwt>
<pdfrwt beam="2">  1        2 0.94654150E-01 0.47309493E+02</pdfrwt>
<pdfrwt beam="1">  1       -2 0.84003229E-01 0.51601791E+02</pdfrwt>
<totfact> 0.68320334E+01</totfact>
</mgrwt>
</event>
<event>
 7    1  0.4252091E-004  0.4022208E+02  0.7546771E-02  0.1536075E+00
          2   -1    0    0  503    0  0.00000000000E+00  0.00000000000E+00  0.14409066724E+04  0.14409066724E+04  0.00000000000E+00 0. -1.
          1   -1    0    0  502    0 -0.00000000000E+00 -0.00000000000E+00 -0.26250015538E+02  0.26250015538E+02  0.00000000000E+00 0. -1.
         25    2    1    2    0    0 -0.65942533178E+01  0.42477633082E+02  0.30617043423E+03  0.33348216831E+03  0.12498875267E+03 0.  0.
          4    1    3    3  501    0  0.12446420188E+02 -0.29060120946E+02  0.20867599436E+03  0.21106086214E+03  0.12700000000E+01 0. -1.
         -4    1    3    3    0  501 -0.19040673506E+02  0.71537754028E+02  0.97494439868E+02  0.12242130617E+03  0.12700000000E+01 0. -1.
          2    1    1    2  502    0 -0.24986016912E+02 -0.32783846521E+02  0.22070543287E+02  0.46756716254E+02  0.00000000000E+00 0. -1.
          1    1    1    2  503    0  0.31580270230E+02 -0.96937865612E+01  0.10864156794E+04  0.10869178034E+04  0.00000000000E+00 0. -1.
<mgrwt>
<rscale>  0 0.36451603E+02</rscale>
<asrwt>0</asrwt>
<pdfrwt beam="1">  1        2 0.22167789E+00 0.33034572E+02</pdfrwt>
<pdfrwt beam="2">  1        1 0.40384651E-02 0.40222084E+02</pdfrwt>
<totfact> 0.43475054E+03</totfact>
</mgrwt>
</event>
<event>
 7    1  0.4252091E-004  0.1679032E+03  0.7546771E-02  0.1353411E+00
          2   -1    0    0  503    0  0.00000000000E+00  0.00000000000E+00  0.12698547660E+04  0.12698547660E+04  0.00000000000E+00 0. -1.
          1   -1    0    0  502    0 -0.00000000000E+00 -0.00000000000E+00 -0.18802396930E+04  0.18802396930E+04  0.00000000000E+00 0. -1.
         25    2    1    2    0    0 -0.10137641483E+03  0.10049545199E+03  0.32090009866E+03  0.37279785710E+03  0.12499942231E+03 0.  0.
          4    1    3    3  501    0 -0.88570125317E+02  0.86033831890E+02  0.32930331678E+03  0.35169414932E+03  0.12700000000E+01 0. -1.
         -4    1    3    3    0  501 -0.12806289516E+02  0.14461620098E+02 -0.84032181132E+01  0.21103707771E+02  0.12700000000E+01 0. -1.
          2    1    1    2  502    0  0.13203227375E+03 -0.10418859991E+03 -0.18502171426E+04  0.18578458656E+04  0.00000000000E+00 0. -1.
          1    1    1    2  503    0 -0.30655858921E+02  0.36931479228E+01  0.91893211690E+03  0.91945073631E+03  0.00000000000E+00 0. -1.
<mgrwt>
<rscale>  0 0.72003005E+02</rscale>
<asrwt>0</asrwt>
<pdfrwt beam="1">  1        2 0.19536227E+00 0.30877517E+02</pdfrwt>
<pdfrwt beam="2">  1        1 0.28926765E+00 0.16790316E+03</pdfrwt>
<totfact> 0.12408166E+01</totfact>
</mgrwt>
</event>
<event>
 7    1  0.4252091E-004  0.1392649E+03  0.7546771E-02  0.1354133E+00
          2   -1    0    0  503    0  0.00000000000E+00  0.00000000000E+00  0.13683098602E+04  0.13683098602E+04  0.00000000000E+00 0. -1.
          1   -1    0    0  502    0 -0.00000000000E+00 -0.00000000000E+00 -0.60746914175E+03  0.60746914175E+03  0.00000000000E+00 0. -1.
         25    2    1    2    0    0  0.31322297869E+01  0.17334660620E+03  0.21322356523E+02  0.21480363779E+03  0.12500841241E+03 0.  0.
          4    1    3    3  501    0  0.38470343276E+02  0.10386708769E+03 -0.37712371449E+02  0.11701356792E+03  0.12700000000E+01 0. -1.
         -4    1    3    3    0  501 -0.35338113490E+02  0.69479518516E+02  0.59034727972E+02  0.97790069869E+02  0.12700000000E+01 0. -1.
          2    1    1    2  502    0  0.88381501105E+01 -0.35928866723E+02 -0.50624666017E+03  0.50759696344E+03  0.00000000000E+00 0. -1.
          3    1    1    2  503    0 -0.11970379897E+02 -0.13741773948E+03  0.12457650221E+04  0.12533784008E+04  0.00000000000E+00 0. -1.
<mgrwt>
<rscale>  0 0.71782978E+02</rscale>
<asrwt>0</asrwt>
<pdfrwt beam="1">  1        2 0.21050921E+00 0.13926494E+03</pdfrwt>
<pdfrwt beam="2">  1        1 0.93456792E-01 0.36999951E+02</pdfrwt>
<totfact> 0.85588864E+01</totfact>
</mgrwt>
</event>
<event>
 7    1  0.4252091E-004  0.5419046E+02  0.7546771E-02  0.1504239E+00
         -2   -1    0    0    0  501 -0.00000000000E+00  0.00000000000E+00  0.31555881451E+03  0.31555881451E+03  0.00000000000E+00 0.  1.
          2   -1    0    0  503    0  0.00000000000E+00 -0.00000000000E+00 -0.10932958499E+04  0.10932958499E+04  0.00000000000E+00 0. -1.
         25    2    1    2    0    0 -0.38824709635E+02 -0.73986725175E+02 -0.41047627915E+03  0.43714333830E+03  0.12498851505E+03 0.  0.
          4    1    3    3  502    0 -0.19464191614E+01  0.25931945799E+02 -0.19550305618E+03  0.19722908568E+03  0.12700000000E+01 0. -1.
         -4    1    3    3    0  502 -0.36878290473E+02 -0.99918670974E+02 -0.21497322297E+03  0.23991425262E+03  0.12700000000E+01 0. -1.
          1    1    1    2  503    0  0.89150697581E+01  0.28995955880E+02 -0.66672401188E+03  0.66741377866E+03  0.00000000000E+00 0. -1.
         -1    1    1    2    0  501  0.29909639876E+02  0.44990769294E+02  0.29946325567E+03  0.30429754743E+03  0.00000000000E+00 0.  1.
<mgrwt>
<rscale>  0 0.40544987E+02</rscale>
<asrwt>0</asrwt>
<pdfrwt beam="2">  1        2 0.16819936E+00 0.30335523E+02</pdfrwt>
<pdfrwt beam="1">  1       -2 0.48547510E-01 0.54190461E+02</pdfrwt>
<totfact> 0.10772196E+02</totfact>
</mgrwt>
</event>
<event>
 7    1  0.4252091E-004  0.1659565E+03  0.7546771E-02  0.1237917E+00
          2   -1    0    0  503    0  0.00000000000E+00  0.00000000000E+00  0.45137689050E+03  0.45137689050E+03  0.00000000000E+00 0. -1.
          1   -1    0    0  502    0 -0.00000000000E+00 -0.00000000000E+00 -0.14906166263E+04  0.14906166263E+04  0.00000000000E+00 0. -1.
         25    2    1    2    0    0 -0.20544940341E+03  0.36672483463E+01  0.38247368251E+02  0.24353944556E+03  0.12500277714E+03 0.  0.
          4    1    3    3  501    0 -0.11119561470E+03  0.35851337543E+02  0.73320661148E+02  0.13793953524E+03  0.12700000000E+01 0.  1.
         -4    1    3    3    0  501 -0.94253788715E+02 -0.32184089196E+02 -0.35073292897E+02  0.10559991032E+03  0.12700000000E+01 0.  1.
          2    1    1    2  502    0  0.58685727359E+02 -0.70138472338E+02 -0.13654362782E+04  0.13684953963E+04  0.00000000000E+00 0. -1.
          1    1    1    2  503    0  0.14676367605E+03  0.66471223992E+02  0.28794917419E+03  0.32995867490E+03  0.00000000000E+00 0. -1.
<mgrwt>
<rscale>  0 0.12319503E+03</rscale>
<asrwt>0</asrwt>
<pdfrwt beam="1">  1        2 0.69442598E-01 0.16595655E+03</pdfrwt>
<pdfrwt beam="2">  1        1 0.22932564E+00 0.91451735E+02</pdfrwt>
<totfact> 0.77190203E+01</totfact>
</mgrwt>
</event>
<event>
 7    1  0.4252091E-004  0.6099380E+02  0.7546771E-02  0.1439809E+00
          2   -1    0    0  503    0  0.00000000000E+00  0.00000000000E+00  0.22466159306E+04  0.22466159306E+04  0.00000000000E+00 0. -1.
          1   -1    0    0  502    0 -0.00000000000E+00 -0.00000000000E+00 -0.17669890570E+04  0.17669890570E+04  0.00000000000E+00 0. -1.
         25    2    1    2    0    0  0.17782975557E+02 -0.55919855833E+01  0.43607111615E+02  0.13370547983E+03  0.12501228192E+03 0.  0.
          4    1    3    3  501    0  0.66761998225E+02 -0.22127740718E+02  0.42084021647E+02  0.81972428866E+02  0.12700000000E+01 0. -1.
         -4    1    3    3    0  501 -0.48979022667E+02  0.16535755135E+02  0.15230899685E+01  0.51733050967E+02  0.12700000000E+01 0. -1.
          2    1    1    2  502    0 -0.56645742583E+02  0.23310344323E+02 -0.17211836616E+04  0.17222732969E+04  0.00000000000E+00 0. -1.
          1    1    1    2  503    0  0.38862767025E+02 -0.17718358739E+02  0.21572034236E+04  0.21576262108E+04  0.00000000000E+00 0. -1.
<mgrwt>
<rscale>  0 0.51040419E+02</rscale>
<asrwt>0</asrwt>
<pdfrwt beam="1">  1        2 0.34563322E+00 0.42711297E+02</pdfrwt>
<pdfrwt beam="2">  1        1 0.27184447E+00 0.60993801E+02</pdfrwt>
<totfact> 0.53365621E+00</totfact>
</mgrwt>
</event>
<event>
 7    1  0.4252091E-004  0.7176108E+02  0.7546771E-02  0.1466425E+00
          2   -1    0    0  503    0  0.00000000000E+00  0.00000000000E+00  0.79243290068E+03  0.79243290068E+03  0.00000000000E+00 0. -1.
         -2   -1    0    0    0  501 -0.00000000000E+00 -0.00000000000E+00 -0.56025005996E+02  0.56025005996E+02  0.00000000000E+00 0.  1.
         25    2    1    2    0    0  0.82427795075E+02  0.21386038283E+02  0.23884715617E+03  0.28270858455E+03  0.12499790292E+03 0.  0.
          4    1    3    3  502    0  0.65945955481E+01 -0.46502386354E+02  0.10059171688E+03  0.11102372284E+03  0.12700000000E+01 0. -1.
         -4    1    3    3    0  502  0.75833199526E+02  0.67888424637E+02  0.13825543929E+03  0.17168486172E+03  0.12700000000E+01 0. -1.
          1    1    1    2  503    0 -0.70515476609E+02  0.59993680153E+01  0.52223641544E+03  0.52700977075E+03  0.00000000000E+00 0. -1.
         -1    1    1    2    0  501 -0.11912318466E+02 -0.27385406298E+02 -0.24675676920E+02  0.38739551376E+02  0.00000000000E+00 0.  1.
<mgrwt>
<rscale>  0 0.46293406E+02</rscale>
<asrwt>0</asrwt>
<pdfrwt beam="1">  1        2 0.12191275E+00 0.71761085E+02</pdfrwt>
<pdfrwt beam="2">  1       -2 0.86192323E-02 0.29864089E+02</pdfrwt>
<totfact> 0.26709481E+03</totfact>
</mgrwt>
</event>
<event>
 7    1  0.4252091E-004  0.4408231E+02  0.7546771E-02  0.1498711E+00
         -1   -1    0    0    0  502 -0.00000000000E+00  0.00000000000E+00  0.23643331760E+03  0.23643331760E+03  0.00000000000E+00 0.  1.
         -2   -1    0    0    0  501  0.00000000000E+00 -0.00000000000E+00 -0.24391517141E+03  0.24391517141E+03  0.00000000000E+00 0.  1.
         25    2    1    2    0    0  0.35288880810E+02 -0.70975992831E+02 -0.24396731113E+02  0.15001620846E+03  0.12500706238E+03 0.  0.
          4    1    3    3  503    0 -0.18755496751E+02 -0.34328827352E+02 -0.62987184037E+02  0.74156829076E+02  0.12700000000E+01 0. -1.
         -4    1    3    3    0  503  0.54044377561E+02 -0.36647165479E+02  0.38590452924E+02  0.75859379383E+02  0.12700000000E+01 0. -1.
         -2    1    1    2    0  502 -0.24767008535E+02  0.29779007920E+02  0.16850124964E+03  0.17289553249E+03  0.00000000000E+00 0.  1.
         -1    1    1    2    0  501 -0.10521872274E+02  0.41196984911E+02 -0.15158637234E+03  0.15743674806E+03  0.00000000000E+00 0.  1.
<mgrwt>
<rscale>  0 0.41320829E+02</rscale>
<asrwt>0</asrwt>
<pdfrwt beam="2">  1       -2 0.37525411E-01 0.44082309E+02</pdfrwt>
<pdfrwt beam="1">  1       -1 0.36374356E-01 0.38732338E+02</pdfrwt>
<totfact> 0.35086515E+02</totfact>
</mgrwt>
</event>
<event>
 7    1  0.4252091E-004  0.5580694E+02  0.7546771E-02  0.1419400E+00
          2   -1    0    0  503    0  0.00000000000E+00  0.00000000000E+00  0.19560846872E+04  0.19560846872E+04  0.00000000000E+00 0. -1.
          1   -1    0    0  502    0 -0.00000000000E+00 -0.00000000000E+00 -0.63435910849E+03  0.63435910849E+03  0.00000000000E+00 0. -1.
         25    2    1    2    0    0 -0.54464892993E+02  0.13278415481E+02  0.41870930743E+03  0.44054718822E+03  0.12498639938E+03 0.  0.
          4    1    3    3  501    0 -0.38576067565E+02  0.47087387438E+00  0.24307753847E+02  0.45615945765E+02  0.12700000000E+01 0. -1.
         -4    1    3    3    0  501 -0.15888825428E+02  0.12807541606E+02  0.39440155358E+03  0.39493124245E+03  0.12700000000E+01 0. -1.
          2    1    1    2  502    0  0.17301169782E+02 -0.53137930099E+02 -0.62170006819E+03  0.62420665238E+03  0.00000000000E+00 0. -1.
          1    1    1    2  503    0  0.37163723211E+02  0.39859514618E+02  0.15247163395E+04  0.15256899551E+04  0.00000000000E+00 0. -1.
<mgrwt>
<rscale>  0 0.55148080E+02</rscale>
<asrwt>0</asrwt>
<pdfrwt beam="1">  1        2 0.30093610E+00 0.54497002E+02</pdfrwt>
<pdfrwt beam="2">  1        1 0.97593710E-01 0.55806937E+02</pdfrwt>
<totfact> 0.43849549E+01</totfact>
</mgrwt>
</event>
<event>
 7    1  0.4252091E-004  0.9328783E+02  0.7546771E-02  0.1456421E+00
         -2   -1    0    0    0  501 -0.00000000000E+00  0.00000000000E+00  0.55258917151E+02  0.55258917151E+02  0.00000000000E+00 0.  1.
          2   -1    0    0  503    0  0.00000000000E+00 -0.00000000000E+00 -0.39305643694E+03  0.39305643694E+03  0.00000000000E+00 0. -1.
         25    2    1    2    0    0 -0.72438459079E+02 -0.43112246178E+02 -0.98430976567E+02  0.18005508805E+03  0.12500072584E+03 0.  0.
          4    1    3    3  502    0 -0.91681355026E+02 -0.45121081039E+02 -0.26520013819E+02  0.10557607137E+03  0.12700000000E+01 0.  1.
         -4    1    3    3    0  502  0.19242895947E+02  0.20088348605E+01 -0.71910962748E+02  0.74479016677E+02  0.12700000000E+01 0.  1.
          3    1    1    2  503    0  0.68667272813E+02  0.67523329168E+02 -0.19484450048E+03  0.21734528683E+03  0.00000000000E+00 0. -1.
         -3    1    1    2    0  501  0.37711862662E+01 -0.24411082990E+02 -0.44522042733E+02  0.50914979208E+02  0.00000000000E+00 0.  1.
<mgrwt>
<rscale>  0 0.48002827E+02</rscale>
<asrwt>0</asrwt>
<pdfrwt beam="2">  1        2 0.60470221E-01 0.93287832E+02</pdfrwt>
<pdfrwt beam="1">  1       -2 0.85013719E-02 0.24700664E+02</pdfrwt>
<totfact> 0.57745225E+03</totfact>
</mgrwt>
</event>
<event>
 7    1  0.4252091E-004  0.1096043E+03  0.7546771E-02  0.1439250E+00
          1   -1    0    0  502    0 -0.00000000000E+00  0.00000000000E+00  0.30704019438E+03  0.30704019438E+03  0.00000000000E+00 0. -1.
          2   -1    0    0  503    0  0.00000000000E+00 -0.00000000000E+00 -0.13736015503E+04  0.13736015503E+04  0.00000000000E+00 0. -1.
         25    2    1    2    0    0  0.75768601973E+02 -0.10409794355E+03  0.37520006789E+02  0.18333380515E+03  0.12500508112E+03 0.  0.
          4    1    3    3  501    0  0.83029930732E+02 -0.21275670251E+02 -0.11996135348E+02  0.86557170155E+02  0.12700000000E+01 0. -1.
         -4    1    3    3    0  501 -0.72613287583E+01 -0.82822273297E+02  0.49516142137E+02  0.96776634998E+02  0.12700000000E+01 0. -1.
          2    1    1    2  502    0 -0.67237949474E+02  0.81806448483E+02  0.18223656079E+03  0.21076859574E+03  0.00000000000E+00 0. -1.
          1    1    1    2  503    0 -0.85306524990E+01  0.22291495066E+02 -0.12863179235E+04  0.12865393438E+04  0.00000000000E+00 0. -1.
<mgrwt>
<rscale>  0 0.51147219E+02</rscale>
<asrwt>0</asrwt>
<pdfrwt beam="2">  1        2 0.21132331E+00 0.23868028E+02</pdfrwt>
<pdfrwt beam="1">  1        1 0.47236954E-01 0.10960428E+03</pdfrwt>
<totfact> 0.22424638E+02</totfact>
</mgrwt>
</event>
<event>
 7    1  0.4252091E-004  0.3351391E+02  0.7546771E-02  0.1564547E+00
          1   -1    0    0  502    0 -0.00000000000E+00  0.00000000000E+00  0.25174680225E+04  0.25174680225E+04  0.00000000000E+00 0. -1.
          2   -1    0    0  503    0  0.00000000000E+00 -0.00000000000E+00 -0.12491174032E+04  0.12491174032E+04  0.00000000000E+00 0. -1.
         25    2    1    2    0    0  0.31824671574E+01  0.14669669101E+02  0.18326507746E+04  0.18369700267E+04  0.12499875914E+03 0.  0.
          4    1    3    3  501    0  0.93499007252E+01 -0.55063440429E+02  0.79974860814E+03  0.80169748174E+03  0.12700000000E+01 0. -1.
         -4    1    3    3    0  501 -0.61674335678E+01  0.69733109531E+02  0.10329021665E+04  0.10352725449E+04  0.12700000000E+01 0. -1.
          2    1    1    2  502    0  0.27449062994E+02 -0.28267140258E+02  0.68186360349E+03  0.68300106592E+03  0.00000000000E+00 0. -1.
          1    1    1    2  503    0 -0.30631530151E+02  0.13597471157E+02 -0.12461637588E+04  0.12466143331E+04  0.00000000000E+00 0. -1.
<mgrwt>
<rscale>  0 0.33267480E+02</rscale>
<asrwt>0</asrwt>
<pdfrwt beam="2">  1        2 0.19217191E+00 0.33513905E+02</pdfrwt>
<pdfrwt beam="1">  1        1 0.38730277E+00 0.33022866E+02</pdfrwt>
<totfact> 0.63128303E+00</totfact>
</mgrwt>
</event>
<event>
 7    1  0.4252091E-004  0.5497767E+02  0.7546771E-02  0.1423257E+00
          1   -1    0    0  502    0 -0.00000000000E+00  0.00000000000E+00  0.43968905801E+03  0.43968905801E+03  0.00000000000E+00 0. -1.
          2   -1    0    0  503    0  0.00000000000E+00 -0.00000000000E+00 -0.20392919950E+03  0.20392919950E+03  0.00000000000E+00 0. -1.
         25    2    1    2    0    0 -0.32258635707E+01  0.56548819353E+01  0.66387174803E+02  0.14168564908E+03  0.12500072916E+03 0.  0.
          4    1    3    3  501    0 -0.63389580770E+02  0.12135594968E+02  0.36972316588E+02  0.74391375235E+02  0.12700000000E+01 0. -1.
         -4    1    3    3    0  501  0.60163717199E+02 -0.64807130330E+01  0.29414858215E+02  0.67294273846E+02  0.12700000000E+01 0. -1.
          2    1    1    2  502    0  0.55306746680E+02 -0.18763503570E+02  0.32867372855E+03  0.33382229574E+03  0.00000000000E+00 0. -1.
          1    1    1    2  503    0 -0.52080883110E+02  0.13108621634E+02 -0.15930104484E+03  0.16811031270E+03  0.00000000000E+00 0. -1.
<mgrwt>
<rscale>  0 0.54337740E+02</rscale>
<asrwt>0</asrwt>
<pdfrwt beam="2">  1        2 0.31373723E-01 0.53705254E+02</pdfrwt>
<pdfrwt beam="1">  1        1 0.67644470E-01 0.54977675E+02</pdfrwt>
<totfact> 0.12077921E+03</totfact>
</mgrwt>
</event>
<event>
 7    1  0.4252091E-004  0.8305136E+02  0.7546771E-02  0.1328879E+00
          2   -1    0    0  503    0  0.00000000000E+00  0.00000000000E+00  0.30348043291E+03  0.30348043291E+03  0.00000000000E+00 0. -1.
          1   -1    0    0  502    0 -0.00000000000E+00 -0.00000000000E+00 -0.82472505659E+03  0.82472505659E+03  0.00000000000E+00 0. -1.
         25    2    1    2    0    0 -0.17963048055E+02  0.37693638183E+01 -0.21704559208E+02  0.12819240052E+03  0.12500129784E+03 0.  0.
          4    1    3    3  501    0 -0.29679798187E+02 -0.33580244853E+02  0.36653534771E+02  0.57910428905E+02  0.12700000000E+01 0.  1.
         -4    1    3    3    0  501  0.11716750132E+02  0.37349608671E+02 -0.58358093979E+02  0.70281971617E+02  0.12700000000E+01 0.  1.
          2    1    1    2  502    0 -0.62853932871E+02 -0.44785811853E+02 -0.73949600847E+03  0.74351242919E+03  0.00000000000E+00 0. -1.
          1    1    1    2  503    0  0.80816980925E+02  0.41016448034E+02  0.23995594399E+03  0.25650065979E+03  0.00000000000E+00 0. -1.
<mgrwt>
<rscale>  0 0.80060646E+02</rscale>
<asrwt>0</asrwt>
<pdfrwt beam="1">  1        2 0.46689298E-01 0.83051365E+02</pdfrwt>
<pdfrwt beam="2">  1        1 0.12688078E+00 0.77177625E+02</pdfrwt>
<totfact> 0.34335198E+02</totfact>
</mgrwt>
</event>
<event>
 7    1  0.4252091E-004  0.9248572E+02  0.7546771E-02  0.1316646E+00
          1   -1    0    0  502    0 -0.00000000000E+00  0.00000000000E+00  0.18793098833E+04  0.18793098833E+04  0.00000000000E+00 0. -1.
          2   -1    0    0  503    0  0.00000000000E+00 -0.00000000000E+00 -0.50039689154E+02  0.50039689154E+02  0.00000000000E+00 0. -1.
         25    2    1    2    0    0 -0.57064523374E+02 -0.62174206921E+02  0.24589467107E+03  0.28846558722E+03  0.12500485558E+03 0.  0.
          4    1    3    3  501    0 -0.65506134388E+02 -0.84069766030E+02  0.24227988596E+03  0.26468837383E+03  0.12700000000E+01 0.  1.
         -4    1    3    3    0  501  0.84416110133E+01  0.21895559108E+02  0.36147851110E+01  0.23777213390E+02  0.12700000000E+01 0.  1.
          2    1    1    2  502    0 -0.46100928051E+02  0.62014563020E+02  0.15153293798E+04  0.15172983329E+04  0.00000000000E+00 0. -1.
          3    1    1    2  503    0  0.10316545143E+03  0.15964390122E+00  0.68046143234E+02  0.12358565233E+03  0.00000000000E+00 0. -1.
<mgrwt>
<rscale>  0 0.84537801E+02</rscale>
<asrwt>0</asrwt>
<pdfrwt beam="2">  1        2 0.76984152E-02 0.92485717E+02</pdfrwt>
<pdfrwt beam="1">  1        1 0.28912454E+00 0.77272903E+02</pdfrwt>
<totfact> 0.52544745E+02</totfact>
</mgrwt>
</event>
<event>
 7    1  0.4252091E-004  0.1199449E+03  0.7546771E-02  0.1345128E+00
          1   -1    0    0  502    0 -0.00000000000E+00  0.00000000000E+00  0.10675134986E+04  0.10675134986E+04  0.00000000000E+00 0. -1.
          2   -1    0    0  503    0  0.00000000000E+00 -0.00000000000E+00 -0.19774910145E+03  0.19774910145E+03  0.00000000000E+00 0. -1.
         25    2    1    2    0    0 -0.49369061054E+02  0.57521991591E+02 -0.17971281854E+02  0.14728610686E+03  0.12499658634E+03 0.  0.
          4    1    3    3  501    0 -0.59974670960E+02 -0.93242400819E+01  0.26553492082E+02  0.66261628803E+02  0.12700000000E+01 0. -1.
         -4    1    3    3    0  501  0.10605609906E+02  0.66846231673E+02 -0.44524773936E+02  0.81024478057E+02  0.12700000000E+01 0. -1.
          2    1    1    2  502    0  0.74632967248E+02 -0.96431454490E+02  0.99430135673E+03  0.10017506143E+04  0.00000000000E+00 0. -1.
          1    1    1    2  503    0 -0.25263906194E+02  0.38909462899E+02 -0.10656567772E+03  0.11622587891E+03  0.00000000000E+00 0. -1.
<mgrwt>
<rscale>  0 0.74595415E+02</rscale>
<asrwt>0</asrwt>
<pdfrwt beam="2">  1        2 0.30422939E-01 0.46391931E+02</pdfrwt>
<pdfrwt beam="1">  1        1 0.16423284E+00 0.11994491E+03</pdfrwt>
<totfact> 0.34094766E+02</totfact>
</mgrwt>
</event>
<event>
 7    1  0.4252091E-004  0.7627516E+02  0.7546771E-02  0.1453737E+00
         -2   -1    0    0    0  501  0.00000000000E+00  0.00000000000E+00  0.77048571862E+02  0.77048571862E+02  0.00000000000E+00 0.  1.
         -1   -1    0    0    0  502 -0.00000000000E+00 -0.00000000000E+00 -0.38809506641E+03  0.38809506641E+03  0.00000000000E+00 0.  1.
         25    2    1    2    0    0  0.49054451897E+02  0.30241729679E+02 -0.11719114001E+03  0.18078133822E+03  0.12500890963E+03 0.  0.
          4    1    3    3  503    0  0.15673624750E+02  0.25319656229E+02  0.22323762916E+02  0.37238565965E+02  0.12700000000E+01 0.  1.
         -4    1    3    3    0  503  0.33380827147E+02  0.49220734505E+01 -0.13951490293E+03  0.14354277226E+03  0.12700000000E+01 0.  1.
         -2    1    1    2    0  502 -0.78256033180E+02 -0.20420263482E+02 -0.22588088914E+03  0.23992325849E+03  0.00000000000E+00 0.  1.
         -1    1    1    2    0  501  0.29201581283E+02 -0.98214661974E+01  0.32025534602E+02  0.44439041554E+02  0.00000000000E+00 0.  1.
<mgrwt>
<rscale>  0 0.48476387E+02</rscale>
<asrwt>0</asrwt>
<pdfrwt beam="1">  1       -2 0.11853627E-01 0.30808985E+02</pdfrwt>
<pdfrwt beam="2">  1       -1 0.59706932E-01 0.76275156E+02</pdfrwt>
<totfact> 0.97278110E+02</totfact>
</mgrwt>
</event>
<event>
 7    1  0.4252091E-004  0.5776239E+02  0.7546771E-02  0.1414227E+00
          2   -1    0    0  503    0  0.00000000000E+00  0.00000000000E+00  0.11576847209E+04  0.11576847209E+04  0.00000000000E+00 0. -1.
          1   -1    0    0  502    0 -0.00000000000E+00 -0.00000000000E+00 -0.34340938105E+02  0.34340938105E+02  0.00000000000E+00 0. -1.
         25    2    1    2    0    0 -0.60960969263E+02  0.27272853610E+02  0.76930028126E+03  0.78224515124E+03  0.12499802232E+03 0.  0.
          4    1    3    3  501    0 -0.69421659911E+02 -0.11033561115E+01  0.19178404161E+03  0.20396890884E+03  0.12700000000E+01 0. -1.
         -4    1    3    3    0  501  0.84606906485E+01  0.28376209721E+02  0.57751623965E+03  0.57827624240E+03  0.12700000000E+01 0. -1.
          2    1    1    2  502    0  0.51910947806E+02  0.26773709581E+02  0.74502820004E+01  0.58881955884E+02  0.00000000000E+00 0. -1.
          3    1    1    2  503    0  0.90500214565E+01 -0.54046563191E+02  0.34659321950E+03  0.35089855184E+03  0.00000000000E+00 0. -1.
<mgrwt>
<rscale>  0 0.56261204E+02</rscale>
<asrwt>0</asrwt>
<pdfrwt beam="1">  1        2 0.17810531E+00 0.54799032E+02</pdfrwt>
<pdfrwt beam="2">  1        1 0.52832221E-02 0.57762390E+02</pdfrwt>
<totfact> 0.42570456E+03</totfact>
</mgrwt>
</event>
<event>
 7    1  0.4252091E-004  0.2002487E+03  0.7546771E-02  0.1191695E+00
          2   -1    0    0  503    0  0.00000000000E+00  0.00000000000E+00  0.13842090791E+04  0.13842090791E+04  0.00000000000E+00 0. -1.
          1   -1    0    0  502    0 -0.00000000000E+00 -0.00000000000E+00 -0.14819821904E+03  0.14819821904E+03  0.00000000000E+00 0. -1.
         25    2    1    2    0    0  0.11036498580E+03 -0.98280252326E+02  0.83193536848E+03  0.85415499149E+03  0.12499941631E+03 0.  0.
          4    1    3    3  501    0  0.11251329719E+03 -0.86521334524E+02  0.82991522088E+03  0.84196559913E+03  0.12700000000E+01 0.  1.
         -4    1    3    3    0  501 -0.21483113857E+01 -0.11758917803E+02  0.20201475926E+01  0.12189392356E+02  0.12700000000E+01 0.  1.
          2    1    1    2  502    0 -0.20703251472E+03  0.21134085550E+02 -0.44607733486E+02  0.21283552714E+03  0.00000000000E+00 0. -1.
          1    1    1    2  503    0  0.96667528922E+02  0.77146166776E+02  0.44868322511E+03  0.46541677955E+03  0.00000000000E+00 0. -1.
<mgrwt>
<rscale>  0 0.15737303E+03</rscale>
<asrwt>0</asrwt>
<pdfrwt beam="1">  1        2 0.21295523E+00 0.12367757E+03</pdfrwt>
<pdfrwt beam="2">  1        1 0.22799727E-01 0.20024867E+03</pdfrwt>
<totfact> 0.48562459E+02</totfact>
</mgrwt>
</event>
<event>
 7    1  0.4252091E-004  0.3263413E+02  0.7546771E-02  0.1598906E+00
          2   -1    0    0  503    0  0.00000000000E+00  0.00000000000E+00  0.18160500760E+03  0.18160500760E+03  0.00000000000E+00 0. -1.
         -2   -1    0    0    0  501 -0.00000000000E+00 -0.00000000000E+00 -0.67179798907E+02  0.67179798907E+02  0.00000000000E+00 0.  1.
         25    2    1    2    0    0  0.37545093321E+02  0.26933458499E+02  0.58327671867E+02  0.14547279941E+03  0.12500069137E+03 0.  0.
          4    1    3    3  502    0  0.64271665745E+02  0.55235592954E+02  0.63878388056E+02  0.10613142375E+03  0.12700000000E+01 0.  1.
         -4    1    3    3    0  502 -0.26726572425E+02 -0.28302134455E+02 -0.55507161890E+01  0.39341375656E+02  0.12700000000E+01 0.  1.
          1    1    1    2  503    0 -0.27249202434E+02  0.32545291476E+01  0.64697789616E+02  0.70277414398E+02  0.00000000000E+00 0. -1.
         -1    1    1    2    0  501 -0.10295890887E+02 -0.30187987647E+02 -0.86002527862E+01  0.33034592707E+02  0.00000000000E+00 0.  1.
<mgrwt>
<rscale>  0 0.29926145E+02</rscale>
<asrwt>0</asrwt>
<pdfrwt beam="1">  1        2 0.27939232E-01 0.27442868E+02</pdfrwt>
<pdfrwt beam="2">  1       -2 0.10335354E-01 0.32634131E+02</pdfrwt>
<totfact> 0.96253883E+03</totfact>
</mgrwt>
</event>
<event>
 7    1  0.4252091E-004  0.1267505E+03  0.7546771E-02  0.1360696E+00
          2   -1    0    0  503    0  0.00000000000E+00  0.00000000000E+00  0.13462850985E+04  0.13462850985E+04  0.00000000000E+00 0. -1.
          1   -1    0    0  502    0 -0.00000000000E+00 -0.00000000000E+00 -0.45225134549E+02  0.45225134549E+02  0.00000000000E+00 0. -1.
         25    2    1    2    0    0 -0.28606911189E+02  0.14964110134E+03  0.33913952054E+03  0.39223859334E+03  0.12499874052E+03 0.  0.
          4    1    3    3  501    0 -0.37881699899E+02  0.16223391001E+03  0.24177731786E+03  0.29362007607E+03  0.12700000000E+01 0.  1.
         -4    1    3    3    0  501  0.92747887101E+01 -0.12592808667E+02  0.97362202685E+02  0.98618517265E+02  0.12700000000E+01 0.  1.
          2    1    1    2  502    0  0.16986596138E+02 -0.11297490331E+03  0.16093098075E+03  0.19735919992E+03  0.00000000000E+00 0. -1.
          1    1    1    2  503    0  0.11620315051E+02 -0.36666198027E+02  0.80098946270E+03  0.80191243983E+03  0.00000000000E+00 0. -1.
<mgrwt>
<rscale>  0 0.69823140E+02</rscale>
<asrwt>0</asrwt>
<pdfrwt beam="1">  1        2 0.20712075E+00 0.38463513E+02</pdfrwt>
<pdfrwt beam="2">  1        1 0.69577140E-02 0.12675054E+03</pdfrwt>
<totfact> 0.25823530E+03</totfact>
</mgrwt>
</event>
<event>
 7    1  0.4252091E-004  0.4397249E+02  0.7546771E-02  0.1519014E+00
          1   -1    0    0  503    0  0.00000000000E+00  0.00000000000E+00  0.23884449332E+04  0.23884449332E+04  0.00000000000E+00 0. -1.
         -1   -1    0    0    0  501 -0.00000000000E+00 -0.00000000000E+00 -0.59706931145E+02  0.59706931145E+02  0.00000000000E+00 0.  1.
         25    2    1    2    0    0 -0.28027889362E+01  0.48990179493E+02  0.11765829456E+04  0.11842201013E+04  0.12498770827E+03 0.  0.
          4    1    3    3  502    0 -0.44174886907E+01  0.80641114313E+02  0.46736865845E+03  0.47429693160E+03  0.12700000000E+01 0. -1.
         -4    1    3    3    0  502  0.16146997545E+01 -0.31650934820E+02  0.70921428716E+03  0.70992316974E+03  0.12700000000E+01 0. -1.
          2    1    1    2  503    0  0.30454782325E+02 -0.14728996137E+02  0.11990965490E+04  0.11995736622E+04  0.00000000000E+00 0. -1.
         -2    1    1    2    0  501 -0.27651993389E+02 -0.34261183356E+02 -0.46941492549E+02  0.64358100858E+02  0.00000000000E+00 0.  1.
<mgrwt>
<rscale>  0 0.38569010E+02</rscale>
<asrwt>0</asrwt>
<pdfrwt beam="1">  1        1 0.36745299E+00 0.33829530E+02</pdfrwt>
<pdfrwt beam="2">  1       -1 0.91856836E-02 0.43972486E+02</pdfrwt>
<totfact> 0.15636845E+02</totfact>
</mgrwt>
</event>
<event>
 7    1  0.4252091E-004  0.1685369E+03  0.7546771E-02  0.1202318E+00
          2   -1    0    0  503    0  0.00000000000E+00  0.00000000000E+00  0.15570676376E+04  0.15570676376E+04  0.00000000000E+00 0. -1.
          1   -1    0    0  502    0 -0.00000000000E+00 -0.00000000000E+00 -0.13441564798E+04  0.13441564798E+04  0.00000000000E+00 0. -1.
         25    2    1    2    0    0  0.23186373189E+03 -0.13261289012E+03 -0.12606196383E+03  0.32072351583E+03  0.12499994436E+03 0.  0.
          4    1    3    3  501    0  0.10273872229E+03  0.56847929566E+01 -0.23699685367E+02  0.10559758480E+03  0.12700000000E+01 0. -1.
         -4    1    3    3    0  501  0.12912500959E+03 -0.13829768308E+03 -0.10236227846E+03  0.21512593102E+03  0.12700000000E+01 0. -1.
          2    1    1    2  502    0 -0.13085933316E+03 -0.21225605785E+00 -0.11121463084E+04  0.11198185663E+04  0.00000000000E+00 0. -1.
          1    1    1    2  503    0 -0.10100439872E+03  0.13282514618E+03  0.14511194300E+04  0.14606820353E+04  0.00000000000E+00 0. -1.
<mgrwt>
<rscale>  0 0.14850808E+03</rscale>
<asrwt>0</asrwt>
<pdfrwt beam="1">  1        2 0.23954887E+00 0.16853687E+03</pdfrwt>
<pdfrwt beam="2">  1        1 0.20679330E+00 0.13085951E+03</pdfrwt>
<totfact> 0.17620308E+01</totfact>
</mgrwt>
</event>
<event>
 7    1  0.4252091E-004  0.5943237E+02  0.7546771E-02  0.1461922E+00
          1   -1    0    0  502    0 -0.00000000000E+00  0.00000000000E+00  0.22549122607E+04  0.22549122607E+04  0.00000000000E+00 0. -1.
          2   -1    0    0  503    0  0.00000000000E+00 -0.00000000000E+00 -0.59766468886E+03  0.59766468886E+03  0.00000000000E+00 0. -1.
         25    2    1    2    0    0  0.83134889204E+02 -0.14889108671E+02  0.24354148861E+03  0.28646693425E+03  0.12497100617E+03 0.  0.
          4    1    3    3  501    0  0.70756874085E+02 -0.33859735456E+02  0.53224132801E+02  0.94802099807E+02  0.12700000000E+01 0.  1.
         -4    1    3    3    0  501  0.12378015119E+02  0.18970626785E+02  0.19031735581E+03  0.19166483444E+03  0.12700000000E+01 0.  1.
          2    1    1    2  502    0 -0.33129771042E+02 -0.17030974612E+02  0.19882061352E+04  0.19885550714E+04  0.00000000000E+00 0. -1.
          1    1    1    2  503    0 -0.50005118162E+02  0.31920083283E+02 -0.57450005197E+03  0.57755494394E+03  0.00000000000E+00 0. -1.
<mgrwt>
<rscale>  0 0.47052249E+02</rscale>
<asrwt>0</asrwt>
<pdfrwt beam="2">  1        2 0.91948415E-01 0.59432367E+02</pdfrwt>
<pdfrwt beam="1">  1        1 0.34690957E+00 0.37250984E+02</pdfrwt>
<totfact> 0.21758072E+01</totfact>
</mgrwt>
</event>
<event>
 7    1  0.4252091E-004  0.1059029E+03  0.7546771E-02  0.1395607E+00
         -1   -1    0    0    0  501 -0.00000000000E+00  0.00000000000E+00  0.13944518184E+03  0.13944518184E+03  0.00000000000E+00 0.  1.
          1   -1    0    0  503    0  0.00000000000E+00 -0.00000000000E+00 -0.46305346302E+03  0.46305346302E+03  0.00000000000E+00 0. -1.
         25    2    1    2    0    0 -0.11204470355E+03 -0.18454381985E+02 -0.71779788281E+02  0.18349445903E+03  0.12499319454E+03 0.  0.
          4    1    3    3  502    0 -0.56358167462E+02  0.29756346196E+02  0.19065405758E+02  0.66534094833E+02  0.12700000000E+01 0. -1.
         -4    1    3    3    0  502 -0.55686536090E+02 -0.48210728180E+02 -0.90845194038E+02  0.11696036420E+03  0.12700000000E+01 0. -1.
          2    1    1    2  503    0  0.81489044908E+01  0.33627127238E+02 -0.30105693577E+03  0.30303872179E+03  0.00000000000E+00 0. -1.
         -2    1    1    2    0  501  0.10389579906E+03 -0.15172745253E+02  0.49228442867E+02  0.11596546403E+03  0.00000000000E+00 0.  1.
<mgrwt>
<rscale>  0 0.60533320E+02</rscale>
<asrwt>0</asrwt>
<pdfrwt beam="2">  1        1 0.71238995E-01 0.34600409E+02</pdfrwt>
<pdfrwt beam="1">  1       -1 0.21453105E-01 0.10590287E+03</pdfrwt>
<totfact> 0.91382286E+02</totfact>
</mgrwt>
</event>
<event>
 7    1  0.4252091E-004  0.3090848E+02  0.7546771E-02  0.1625784E+00
          1   -1    0    0  502    0 -0.00000000000E+00  0.00000000000E+00  0.11927280610E+04  0.11927280610E+04  0.00000000000E+00 0. -1.
          2   -1    0    0  503    0  0.00000000000E+00 -0.00000000000E+00 -0.97652964389E+03  0.97652964389E+03  0.00000000000E+00 0. -1.
         25    2    1    2    0    0 -0.23187424322E+02  0.13484029542E+02  0.59576195859E+03  0.60932412895E+03  0.12499642843E+03 0.  0.
          4    1    3    3  501    0 -0.73533582430E+02  0.12666318031E+02  0.29038244697E+03  0.29981861477E+03  0.12700000000E+01 0.  1.
         -4    1    3    3    0  501  0.50346158108E+02  0.81771151092E+00  0.30537951162E+03  0.30950551417E+03  0.12700000000E+01 0.  1.
          2    1    1    2  502    0  0.59230510821E+01 -0.31164180339E+02  0.58960115050E+03  0.59045389773E+03  0.00000000000E+00 0. -1.
          1    1    1    2  503    0  0.17264373240E+02  0.17680150797E+02 -0.96916469197E+03  0.96947967822E+03  0.00000000000E+00 0. -1.
<mgrwt>
<rscale>  0 0.27636707E+02</rscale>
<asrwt>0</asrwt>
<pdfrwt beam="2">  1        2 0.15023533E+00 0.24711259E+02</pdfrwt>
<pdfrwt beam="1">  1        1 0.18349662E+00 0.30908485E+02</pdfrwt>
<totfact> 0.57855971E+01</totfact>
</mgrwt>
</event>
<event>
 7    1  0.4252091E-004  0.8830348E+02  0.7546771E-02  0.1445400E+00
          2   -1    0    0  503    0  0.00000000000E+00  0.00000000000E+00  0.18166251806E+04  0.18166251806E+04  0.00000000000E+00 0. -1.
         -2   -1    0    0    0  501 -0.00000000000E+00 -0.00000000000E+00 -0.83246741138E+02  0.83246741138E+02  0.00000000000E+00 0.  1.
         25    2    1    2    0    0  0.72322143968E+01  0.66237220526E+02  0.13327961511E+03  0.19448736372E+03  0.12498881764E+03 0.  0.
          4    1    3    3  502    0  0.18200536917E+02 -0.21368443463E+02  0.93520259775E+02  0.97649996460E+02  0.12700000000E+01 0. -1.
         -4    1    3    3    0  502 -0.10968322520E+02  0.87605663989E+02  0.39759355333E+02  0.96837367263E+02  0.12700000000E+01 0. -1.
          1    1    1    2  503    0  0.10040233373E+02 -0.88653871019E+02  0.16476423069E+04  0.16500562072E+04  0.00000000000E+00 0. -1.
         -1    1    1    2    0  501 -0.17272447770E+02  0.22416650492E+02 -0.47543482596E+02  0.55328350857E+02  0.00000000000E+00 0.  1.
<mgrwt>
<rscale>  0 0.49989161E+02</rscale>
<asrwt>0</asrwt>
<pdfrwt beam="1">  1        2 0.27948077E+00 0.88303479E+02</pdfrwt>
<pdfrwt beam="2">  1       -2 0.12807192E-01 0.28299181E+02</pdfrwt>
<totfact> 0.40125745E+02</totfact>
</mgrwt>
</event>
<event>
 7    1  0.4252091E-004  0.4168682E+02  0.7546771E-02  0.1511942E+00
         -2   -1    0    0    0  501 -0.00000000000E+00  0.00000000000E+00  0.68220067955E+03  0.68220067955E+03  0.00000000000E+00 0.  1.
          2   -1    0    0  503    0  0.00000000000E+00 -0.00000000000E+00 -0.13119875033E+04  0.13119875033E+04  0.00000000000E+00 0. -1.
         25    2    1    2    0    0  0.22165725771E+02  0.57018203948E+02 -0.15027918167E+03  0.20482030715E+03  0.12500052319E+03 0.  0.
          4    1    3    3  502    0 -0.61931683955E+01 -0.38360953993E+02 -0.32869433333E+02  0.50911007392E+02  0.12700000000E+01 0. -1.
         -4    1    3    3    0  502  0.28358894167E+02  0.95379157941E+02 -0.11740974833E+03  0.15390929976E+03  0.12700000000E+01 0. -1.
          3    1    1    2  503    0 -0.35300687662E+02 -0.21975835288E+02 -0.11335216282E+04  0.11342840727E+04  0.00000000000E+00 0. -1.
         -1    1    1    2    0  501  0.13134961891E+02 -0.35042368660E+02  0.65401398618E+03  0.65508380299E+03  0.00000000000E+00 0.  1.
<mgrwt>
<rscale>  0 0.39497513E+02</rscale>
<asrwt>0</asrwt>
<pdfrwt beam="2">  1        2 0.20184423E+00 0.41686818E+02</pdfrwt>
<pdfrwt beam="1">  1       -2 0.10495395E+00 0.37423186E+02</pdfrwt>
<totfact> 0.16251623E+01</totfact>
</mgrwt>
</event>
<event>
 7    1  0.4252091E-004  0.6245093E+02  0.7546771E-02  0.1469320E+00
         -2   -1    0    0    0  501 -0.00000000000E+00  0.00000000000E+00  0.37007174882E+02  0.37007174882E+02  0.00000000000E+00 0.  1.
          2   -1    0    0  503    0  0.00000000000E+00 -0.00000000000E+00 -0.11174237030E+04  0.11174237030E+04  0.00000000000E+00 0. -1.
         25    2    1    2    0    0 -0.29269268127E+02 -0.61403761913E+02 -0.44843625235E+03  0.47047563699E+03  0.12500056218E+03 0.  0.
          4    1    3    3  502    0 -0.38225744739E+02 -0.48964168191E+02 -0.78004422701E+02  0.99724621776E+02  0.12700000000E+01 0. -1.
         -4    1    3    3    0  502  0.89564766117E+01 -0.12439593722E+02 -0.37043182965E+03  0.37075101521E+03  0.12700000000E+01 0. -1.
          1    1    1    2  503    0  0.51345864199E+02  0.36061120507E+02 -0.64490192425E+03  0.64794698400E+03  0.00000000000E+00 0. -1.
         -1    1    1    2    0  501 -0.22076596072E+02  0.25342641406E+02  0.12921648450E+02  0.36008256917E+02  0.00000000000E+00 0.  1.
<mgrwt>
<rscale>  0 0.45814515E+02</rscale>
<asrwt>0</asrwt>
<pdfrwt beam="2">  1        2 0.17191131E+00 0.62450932E+02</pdfrwt>
<pdfrwt beam="1">  1       -2 0.56934126E-02 0.33609903E+02</pdfrwt>
<totfact> 0.32075606E+03</totfact>
</mgrwt>
</event>
