<event>
 5    0  0.1487509E+000  0.1250042E+03  0.7546771E-02  0.1235063E+00
         21   -1    0    0  503  502  0.00000000000E+00  0.00000000000E+00  0.25426875803E+03  0.25426875803E+03  0.00000000000E+00 0. -1.
         21   -1    0    0  502  503 -0.00000000000E+00 -0.00000000000E+00 -0.15363708114E+02  0.15363708114E+02  0.00000000000E+00 0. -1.
         25    2    1    2    0    0  0.00000000000E+00  0.00000000000E+00  0.23890504991E+03  0.26963246614E+03  0.12500417562E+03 0.  0.
          4    1    3    3  501    0  0.42057772596E+02 -0.35760007704E+02  0.56327032495E+02  0.78884545232E+02  0.15500000000E+01 0.  1.
         -4    1    3    3    0  501 -0.42057772596E+02  0.35760007704E+02  0.18257801742E+03  0.19074792091E+03  0.15500000000E+01 0.  1.
<mgrwt>
<rscale>  2 0.12500418E+03</rscale>
<asrwt>0</asrwt>
<pdfrwt beam="1">  1       21 0.39118267E-01 0.12500418E+03</pdfrwt>
<pdfrwt beam="2">  1       21 0.23636476E-02 0.12500418E+03</pdfrwt>
<totfact> 0.58071392E+06</totfact>
</mgrwt>
</event>
<event>
 5    0  0.1222151E+000  0.1249976E+03  0.7546771E-02  0.1235073E+00
         21   -1    0    0  503  502  0.00000000000E+00  0.00000000000E+00  0.90065078107E+03  0.90065078107E+03  0.00000000000E+00 0. -1.
         21   -1    0    0  502  503 -0.00000000000E+00 -0.00000000000E+00 -0.43369732341E+01  0.43369732341E+01  0.00000000000E+00 0. -1.
         25    2    1    2    0    0  0.00000000000E+00  0.00000000000E+00  0.89631380784E+03  0.90498775431E+03  0.12499757327E+03 0.  0.
          4    1    3    3  501    0 -0.92754832397E+01 -0.61141205263E+02  0.51267631117E+03  0.51639489163E+03  0.15500000000E+01 0. -1.
         -4    1    3    3    0  501  0.92754832397E+01  0.61141205263E+02  0.38363749667E+03  0.38859286267E+03  0.15500000000E+01 0. -1.
<mgrwt>
<rscale>  2 0.12499757E+03</rscale>
<asrwt>0</asrwt>
<pdfrwt beam="1">  1       21 0.13856151E+00 0.12499757E+03</pdfrwt>
<pdfrwt beam="2">  1       21 0.66722737E-03 0.12499757E+03</pdfrwt>
<totfact> 0.26157806E+06</totfact>
</mgrwt>
</event>
<event>
 5    0  0.1525232E+000  0.1249959E+03  0.7546771E-02  0.1235076E+00
         21   -1    0    0  503  502  0.00000000000E+00  0.00000000000E+00  0.92875413628E+02  0.92875413628E+02  0.00000000000E+00 0. -1.
         21   -1    0    0  502  503 -0.00000000000E+00 -0.00000000000E+00 -0.42056282470E+02  0.42056282470E+02  0.00000000000E+00 0. -1.
         25    2    1    2    0    0  0.00000000000E+00  0.00000000000E+00  0.50819131158E+02  0.13493169610E+03  0.12499591401E+03 0.  0.
          4    1    3    3  501    0  0.22549702912E+02  0.24467077215E+02 -0.31675548001E+02  0.45965963603E+02  0.15500000000E+01 0.  1.
         -4    1    3    3    0  501 -0.22549702912E+02 -0.24467077215E+02  0.82494679159E+02  0.88965732495E+02  0.15500000000E+01 0.  1.
<mgrwt>
<rscale>  2 0.12499591E+03</rscale>
<asrwt>0</asrwt>
<pdfrwt beam="1">  1       21 0.14288525E-01 0.12499591E+03</pdfrwt>
<pdfrwt beam="2">  1       21 0.64701973E-02 0.12499591E+03</pdfrwt>
<totfact> 0.72713094E+06</totfact>
</mgrwt>
</event>
<event>
 5    0  0.1600297E+000  0.1249950E+03  0.7546771E-02  0.1235077E+00
         21   -1    0    0  503  502  0.00000000000E+00  0.00000000000E+00  0.11410733964E+03  0.11410733964E+03  0.00000000000E+00 0.  1.
         21   -1    0    0  502  503 -0.00000000000E+00 -0.00000000000E+00 -0.34230370297E+02  0.34230370297E+02  0.00000000000E+00 0.  1.
         25    2    1    2    0    0  0.00000000000E+00  0.00000000000E+00  0.79876969347E+02  0.14833770994E+03  0.12499498373E+03 0.  0.
          4    1    3    3  501    0 -0.87886186208E+01 -0.57237214791E+02  0.67775166743E+02  0.89158366412E+02  0.15500000000E+01 0. -1.
         -4    1    3    3    0  501  0.87886186208E+01  0.57237214791E+02  0.12101802605E+02  0.59179343529E+02  0.15500000000E+01 0. -1.
<mgrwt>
<rscale>  2 0.12499498E+03</rscale>
<asrwt>0</asrwt>
<pdfrwt beam="1">  1       21 0.17554975E-01 0.12499498E+03</pdfrwt>
<pdfrwt beam="2">  1       21 0.52662109E-02 0.12499498E+03</pdfrwt>
<totfact> 0.70977708E+06</totfact>
</mgrwt>
</event>
<event>
 5    0  0.1222151E+000  0.1250064E+03  0.7546771E-02  0.1235059E+00
         21   -1    0    0  503  502  0.00000000000E+00  0.00000000000E+00  0.66899654386E+03  0.66899654386E+03  0.00000000000E+00 0.  1.
         21   -1    0    0  502  503 -0.00000000000E+00 -0.00000000000E+00 -0.58395639330E+01  0.58395639330E+01  0.00000000000E+00 0.  1.
         25    2    1    2    0    0  0.00000000000E+00  0.00000000000E+00  0.66315697992E+03  0.67483610779E+03  0.12500636926E+03 0.  0.
          4    1    3    3  501    0  0.19395981241E+02  0.51702601889E+02  0.17373765367E+03  0.18230890800E+03  0.15500000000E+01 0. -1.
         -4    1    3    3    0  501 -0.19395981241E+02 -0.51702601889E+02  0.48941932625E+03  0.49252719979E+03  0.15500000000E+01 0. -1.
<mgrwt>
<rscale>  2 0.12500637E+03</rscale>
<asrwt>0</asrwt>
<pdfrwt beam="1">  1       21 0.10292248E+00 0.12500637E+03</pdfrwt>
<pdfrwt beam="2">  1       21 0.89839498E-03 0.12500637E+03</pdfrwt>
<totfact> 0.33897713E+06</totfact>
</mgrwt>
</event>
<event>
 5    0  0.1464351E+000  0.1250057E+03  0.7546771E-02  0.1235060E+00
         21   -1    0    0  503  502  0.00000000000E+00  0.00000000000E+00  0.19871128303E+03  0.19871128303E+03  0.00000000000E+00 0.  1.
         21   -1    0    0  502  503 -0.00000000000E+00 -0.00000000000E+00 -0.19659714728E+02  0.19659714728E+02  0.00000000000E+00 0.  1.
         25    2    1    2    0    0  0.00000000000E+00  0.00000000000E+00  0.17905156830E+03  0.21837099776E+03  0.12500571407E+03 0.  0.
          4    1    3    3  501    0  0.40082893980E+02  0.34651627469E+02  0.14737999097E+03  0.15662259708E+03  0.15500000000E+01 0. -1.
         -4    1    3    3    0  501 -0.40082893980E+02 -0.34651627469E+02  0.31671577331E+02  0.61748400681E+02  0.15500000000E+01 0. -1.
<mgrwt>
<rscale>  2 0.12500571E+03</rscale>
<asrwt>0</asrwt>
<pdfrwt beam="1">  1       21 0.30570965E-01 0.12500571E+03</pdfrwt>
<pdfrwt beam="2">  1       21 0.30245716E-02 0.12500571E+03</pdfrwt>
<totfact> 0.62980334E+06</totfact>
</mgrwt>
</event>
<event>
 5    0  0.1600963E+000  0.1249977E+03  0.7546771E-02  0.1235073E+00
         21   -1    0    0  503  502  0.00000000000E+00  0.00000000000E+00  0.20257891944E+02  0.20257891944E+02  0.00000000000E+00 0. -1.
         21   -1    0    0  502  503 -0.00000000000E+00 -0.00000000000E+00 -0.19281887061E+03  0.19281887061E+03  0.00000000000E+00 0. -1.
         25    2    1    2    0    0  0.00000000000E+00  0.00000000000E+00 -0.17256097867E+03  0.21307676256E+03  0.12499766151E+03 0.  0.
          4    1    3    3  501    0 -0.29429780949E+02  0.53929827787E+02 -0.66907203484E+02  0.90848856404E+02  0.15500000000E+01 0.  1.
         -4    1    3    3    0  501  0.29429780949E+02 -0.53929827787E+02 -0.10565377519E+03  0.12222790615E+03  0.15500000000E+01 0.  1.
<mgrwt>
<rscale>  2 0.12499766E+03</rscale>
<asrwt>0</asrwt>
<pdfrwt beam="1">  1       21 0.31165987E-02 0.12499766E+03</pdfrwt>
<pdfrwt beam="2">  1       21 0.29664443E-01 0.12499766E+03</pdfrwt>
<totfact> 0.63541029E+06</totfact>
</mgrwt>
</event>
<event>
 5    0  0.1441626E+000  0.1249993E+03  0.7546771E-02  0.1235070E+00
         21   -1    0    0  503  502  0.00000000000E+00  0.00000000000E+00  0.14461281204E+02  0.14461281204E+02  0.00000000000E+00 0. -1.
         21   -1    0    0  502  503 -0.00000000000E+00 -0.00000000000E+00 -0.27011473839E+03  0.27011473839E+03  0.00000000000E+00 0. -1.
         25    2    1    2    0    0  0.00000000000E+00  0.00000000000E+00 -0.25565345718E+03  0.28457601959E+03  0.12499928302E+03 0.  0.
          4    1    3    3  501    0 -0.46076942217E+02 -0.12975587013E+02 -0.36411039059E+02  0.60163250642E+02  0.15500000000E+01 0. -1.
         -4    1    3    3    0  501  0.46076942217E+02  0.12975587013E+02 -0.21924241812E+03  0.22441276895E+03  0.15500000000E+01 0. -1.
<mgrwt>
<rscale>  2 0.12499928E+03</rscale>
<asrwt>0</asrwt>
<pdfrwt beam="1">  1       21 0.22248126E-02 0.12499928E+03</pdfrwt>
<pdfrwt beam="2">  1       21 0.41556111E-01 0.12499928E+03</pdfrwt>
<totfact> 0.56763855E+06</totfact>
</mgrwt>
</event>
<event>
 5    0  0.1586359E+000  0.1249946E+03  0.7546771E-02  0.1235078E+00
         21   -1    0    0  503  502  0.00000000000E+00  0.00000000000E+00  0.10005331789E+03  0.10005331789E+03  0.00000000000E+00 0.  1.
         21   -1    0    0  502  503 -0.00000000000E+00 -0.00000000000E+00 -0.39038289574E+02  0.39038289574E+02  0.00000000000E+00 0.  1.
         25    2    1    2    0    0  0.00000000000E+00  0.00000000000E+00  0.61015028314E+02  0.13909160746E+03  0.12499456623E+03 0.  0.
          4    1    3    3  501    0 -0.39511400582E+02  0.34049657408E+02  0.68781008739E+02  0.86335158590E+02  0.15500000000E+01 0. -1.
         -4    1    3    3    0  501  0.39511400582E+02 -0.34049657408E+02 -0.77659804256E+01  0.52756448872E+02  0.15500000000E+01 0. -1.
<mgrwt>
<rscale>  2 0.12499457E+03</rscale>
<asrwt>0</asrwt>
<pdfrwt beam="1">  1       21 0.15392818E-01 0.12499457E+03</pdfrwt>
<pdfrwt beam="2">  1       21 0.60058908E-02 0.12499457E+03</pdfrwt>
<totfact> 0.72168111E+06</totfact>
</mgrwt>
</event>
<event>
 5    0  0.1569966E+000  0.1250006E+03  0.7546771E-02  0.1235068E+00
         21   -1    0    0  503  502  0.00000000000E+00  0.00000000000E+00  0.55296235867E+02  0.55296235867E+02  0.00000000000E+00 0. -1.
         21   -1    0    0  502  503 -0.00000000000E+00 -0.00000000000E+00 -0.70642953200E+02  0.70642953200E+02  0.00000000000E+00 0. -1.
         25    2    1    2    0    0  0.00000000000E+00  0.00000000000E+00 -0.15346717333E+02  0.12593918907E+03  0.12500063044E+03 0.  0.
          4    1    3    3  501    0  0.34920487481E+02 -0.15409197456E+02  0.42165254401E+02  0.56896353054E+02  0.15500000000E+01 0. -1.
         -4    1    3    3    0  501 -0.34920487481E+02  0.15409197456E+02 -0.57511971733E+02  0.69042836013E+02  0.15500000000E+01 0. -1.
<mgrwt>
<rscale>  2 0.12500063E+03</rscale>
<asrwt>0</asrwt>
<pdfrwt beam="1">  1       21 0.85071132E-02 0.12500063E+03</pdfrwt>
<pdfrwt beam="2">  1       21 0.10868147E-01 0.12500063E+03</pdfrwt>
<totfact> 0.73913239E+06</totfact>
</mgrwt>
</event>
<event>
 5    0  0.1222151E+000  0.1250039E+03  0.7546771E-02  0.1235063E+00
         21   -1    0    0  503  502  0.00000000000E+00  0.00000000000E+00  0.13471577564E+04  0.13471577564E+04  0.00000000000E+00 0. -1.
         21   -1    0    0  502  503 -0.00000000000E+00 -0.00000000000E+00 -0.28998059657E+01  0.28998059657E+01  0.00000000000E+00 0. -1.
         25    2    1    2    0    0  0.00000000000E+00  0.00000000000E+00  0.13442579505E+04  0.13500575624E+04  0.12500393752E+03 0.  0.
          4    1    3    3  501    0  0.18069244440E+02 -0.47560039784E+02  0.28038989481E+03  0.28497254357E+03  0.15500000000E+01 0.  1.
         -4    1    3    3    0  501 -0.18069244440E+02  0.47560039784E+02  0.10638680557E+04  0.10650850188E+04  0.15500000000E+01 0.  1.
<mgrwt>
<rscale>  2 0.12500394E+03</rscale>
<asrwt>0</asrwt>
<pdfrwt beam="1">  1       21 0.20725454E+00 0.12500394E+03</pdfrwt>
<pdfrwt beam="2">  1       21 0.44612507E-03 0.12500394E+03</pdfrwt>
<totfact> 0.16375265E+06</totfact>
</mgrwt>
</event>
<event>
 5    0  0.1479049E+000  0.1249982E+03  0.7546771E-02  0.1235072E+00
         21   -1    0    0  503  502  0.00000000000E+00  0.00000000000E+00  0.17192902589E+02  0.17192902589E+02  0.00000000000E+00 0.  1.
         21   -1    0    0  502  503 -0.00000000000E+00 -0.00000000000E+00 -0.22719486968E+03  0.22719486968E+03  0.00000000000E+00 0.  1.
         25    2    1    2    0    0  0.00000000000E+00  0.00000000000E+00 -0.21000196709E+03  0.24438777227E+03  0.12499822820E+03 0.  0.
          4    1    3    3  501    0  0.19109657249E+02 -0.35460219127E+02 -0.11621666607E+02  0.41953209358E+02  0.15500000000E+01 0.  1.
         -4    1    3    3    0  501 -0.19109657249E+02  0.35460219127E+02 -0.19838030049E+03  0.20243456291E+03  0.15500000000E+01 0.  1.
<mgrwt>
<rscale>  2 0.12499823E+03</rscale>
<asrwt>0</asrwt>
<pdfrwt beam="1">  1       21 0.26450620E-02 0.12499823E+03</pdfrwt>
<pdfrwt beam="2">  1       21 0.34953056E-01 0.12499823E+03</pdfrwt>
<totfact> 0.60413333E+06</totfact>
</mgrwt>
</event>
<event>
 5    0  0.1505231E+000  0.1250014E+03  0.7546771E-02  0.1235067E+00
         21   -1    0    0  503  502  0.00000000000E+00  0.00000000000E+00  0.19308431864E+02  0.19308431864E+02  0.00000000000E+00 0. -1.
         21   -1    0    0  502  503 -0.00000000000E+00 -0.00000000000E+00 -0.20231240714E+03  0.20231240714E+03  0.00000000000E+00 0. -1.
         25    2    1    2    0    0  0.00000000000E+00  0.00000000000E+00 -0.18300397527E+03  0.22162083900E+03  0.12500136525E+03 0.  0.
          4    1    3    3  501    0  0.38486047523E+02 -0.49194284955E+02 -0.88599925544E+02  0.10841403430E+03  0.15500000000E+01 0.  1.
         -4    1    3    3    0  501 -0.38486047523E+02  0.49194284955E+02 -0.94404049731E+02  0.11320680471E+03  0.15500000000E+01 0.  1.
<mgrwt>
<rscale>  2 0.12500137E+03</rscale>
<asrwt>0</asrwt>
<pdfrwt beam="1">  1       21 0.29705278E-02 0.12500137E+03</pdfrwt>
<pdfrwt beam="2">  1       21 0.31124987E-01 0.12500137E+03</pdfrwt>
<totfact> 0.62655084E+06</totfact>
</mgrwt>
</event>
<event>
 5    0  0.1222151E+000  0.1249953E+03  0.7546771E-02  0.1235077E+00
         21   -1    0    0  503  502  0.00000000000E+00  0.00000000000E+00  0.14209774585E+04  0.14209774585E+04  0.00000000000E+00 0. -1.
         21   -1    0    0  502  503 -0.00000000000E+00 -0.00000000000E+00 -0.27487827363E+01  0.27487827363E+01  0.00000000000E+00 0. -1.
         25    2    1    2    0    0  0.00000000000E+00  0.00000000000E+00  0.14182286757E+04  0.14237262412E+04  0.12499533282E+03 0.  0.
          4    1    3    3  501    0 -0.60655768737E+02 -0.12031473032E+02  0.60744273378E+03  0.61058411046E+03  0.15500000000E+01 0. -1.
         -4    1    3    3    0  501  0.60655768737E+02  0.12031473032E+02  0.81078594193E+03  0.81314213072E+03  0.15500000000E+01 0. -1.
<mgrwt>
<rscale>  2 0.12499533E+03</rscale>
<asrwt>0</asrwt>
<pdfrwt beam="1">  1       21 0.21861133E+00 0.12499533E+03</pdfrwt>
<pdfrwt beam="2">  1       21 0.42289079E-03 0.12499533E+03</pdfrwt>
<totfact> 0.15164924E+06</totfact>
</mgrwt>
</event>
<event>
 5    0  0.1222151E+000  0.1249394E+03  0.7546771E-02  0.1235164E+00
         21   -1    0    0  503  502  0.00000000000E+00  0.00000000000E+00  0.51705165292E+01  0.51705165292E+01  0.00000000000E+00 0.  1.
         21   -1    0    0  502  503 -0.00000000000E+00 -0.00000000000E+00 -0.75475281242E+03  0.75475281242E+03  0.00000000000E+00 0.  1.
         25    2    1    2    0    0  0.00000000000E+00  0.00000000000E+00 -0.74958229589E+03  0.75992332894E+03  0.12493937557E+03 0.  0.
          4    1    3    3  501    0 -0.28744489712E+02  0.55418289753E+02 -0.36493313802E+03  0.37023780230E+03  0.15500000000E+01 0. -1.
         -4    1    3    3    0  501  0.28744489712E+02 -0.55418289753E+02 -0.38464915787E+03  0.38968552664E+03  0.15500000000E+01 0. -1.
<mgrwt>
<rscale>  2 0.12493938E+03</rscale>
<asrwt>0</asrwt>
<pdfrwt beam="1">  1       21 0.79546409E-03 0.12493938E+03</pdfrwt>
<pdfrwt beam="2">  1       21 0.11611582E+00 0.12493938E+03</pdfrwt>
<totfact> 0.30769069E+06</totfact>
</mgrwt>
</event>
<event>
 5    0  0.1247298E+000  0.1250021E+03  0.7546771E-02  0.1235066E+00
         21   -1    0    0  503  502  0.00000000000E+00  0.00000000000E+00  0.58151266440E+01  0.58151266440E+01  0.00000000000E+00 0. -1.
         21   -1    0    0  502  503 -0.00000000000E+00 -0.00000000000E+00 -0.67176152863E+03  0.67176152863E+03  0.00000000000E+00 0. -1.
         25    2    1    2    0    0  0.00000000000E+00  0.00000000000E+00 -0.66594640199E+03  0.67757665528E+03  0.12500205380E+03 0.  0.
          4    1    3    3  501    0  0.29791504466E+02  0.46338072398E+02 -0.17316191975E+03  0.18172012449E+03  0.15500000000E+01 0. -1.
         -4    1    3    3    0  501 -0.29791504466E+02 -0.46338072398E+02 -0.49278448224E+03  0.49585653079E+03  0.15500000000E+01 0. -1.
<mgrwt>
<rscale>  2 0.12500205E+03</rscale>
<asrwt>0</asrwt>
<pdfrwt beam="1">  1       21 0.89463472E-03 0.12500205E+03</pdfrwt>
<pdfrwt beam="2">  1       21 0.10334794E+00 0.12500205E+03</pdfrwt>
<totfact> 0.33790971E+06</totfact>
</mgrwt>
</event>
<event>
 5    0  0.1518708E+000  0.1249958E+03  0.7546771E-02  0.1235076E+00
         21   -1    0    0  503  502  0.00000000000E+00  0.00000000000E+00  0.29035394535E+03  0.29035394535E+03  0.00000000000E+00 0. -1.
         21   -1    0    0  502  503 -0.00000000000E+00 -0.00000000000E+00 -0.13452500602E+02  0.13452500602E+02  0.00000000000E+00 0. -1.
         25    2    1    2    0    0  0.00000000000E+00  0.00000000000E+00  0.27690144474E+03  0.30380644595E+03  0.12499578592E+03 0.  0.
          4    1    3    3  501    0  0.57533175646E+02  0.24244455791E+02  0.13263560399E+03  0.14660308960E+03  0.15500000000E+01 0.  1.
         -4    1    3    3    0  501 -0.57533175646E+02 -0.24244455791E+02  0.14426584076E+03  0.15720335634E+03  0.15500000000E+01 0.  1.
<mgrwt>
<rscale>  2 0.12499579E+03</rscale>
<asrwt>0</asrwt>
<pdfrwt beam="1">  1       21 0.44669833E-01 0.12499579E+03</pdfrwt>
<pdfrwt beam="2">  1       21 0.20696157E-02 0.12499579E+03</pdfrwt>
<totfact> 0.55147159E+06</totfact>
</mgrwt>
</event>
<event>
 5    0  0.1520135E+000  0.1249850E+03  0.7546771E-02  0.1235093E+00
         21   -1    0    0  503  502  0.00000000000E+00  0.00000000000E+00  0.25447057064E+02  0.25447057064E+02  0.00000000000E+00 0. -1.
         21   -1    0    0  502  503 -0.00000000000E+00 -0.00000000000E+00 -0.15346808164E+03  0.15346808164E+03  0.00000000000E+00 0. -1.
         25    2    1    2    0    0  0.00000000000E+00  0.00000000000E+00 -0.12802102457E+03  0.17891513870E+03  0.12498497559E+03 0.  0.
          4    1    3    3  501    0  0.27310507550E+02  0.50489701689E+02 -0.99302980783E+02  0.11471075927E+03  0.15500000000E+01 0. -1.
         -4    1    3    3    0  501 -0.27310507550E+02 -0.50489701689E+02 -0.28718043790E+02  0.64204379433E+02  0.15500000000E+01 0. -1.
<mgrwt>
<rscale>  2 0.12498498E+03</rscale>
<asrwt>0</asrwt>
<pdfrwt beam="1">  1       21 0.39149318E-02 0.12498498E+03</pdfrwt>
<pdfrwt beam="2">  1       21 0.23610474E-01 0.12498498E+03</pdfrwt>
<totfact> 0.67301852E+06</totfact>
</mgrwt>
</event>
<event>
 5    0  0.1539589E+000  0.1249995E+03  0.7546771E-02  0.1235070E+00
         21   -1    0    0  503  502  0.00000000000E+00  0.00000000000E+00  0.18321652324E+02  0.18321652324E+02  0.00000000000E+00 0. -1.
         21   -1    0    0  502  503 -0.00000000000E+00 -0.00000000000E+00 -0.21320247582E+03  0.21320247582E+03  0.00000000000E+00 0. -1.
         25    2    1    2    0    0  0.00000000000E+00  0.00000000000E+00 -0.19488082350E+03  0.23152412815E+03  0.12499954618E+03 0.  0.
          4    1    3    3  501    0  0.53181523777E+02  0.24510069222E+02 -0.13779971985E+03  0.14973370782E+03  0.15500000000E+01 0. -1.
         -4    1    3    3    0  501 -0.53181523777E+02 -0.24510069222E+02 -0.57081103646E+02  0.81790420332E+02  0.15500000000E+01 0. -1.
<mgrwt>
<rscale>  2 0.12499955E+03</rscale>
<asrwt>0</asrwt>
<pdfrwt beam="1">  1       21 0.28187157E-02 0.12499955E+03</pdfrwt>
<pdfrwt beam="2">  1       21 0.32800381E-01 0.12499955E+03</pdfrwt>
<totfact> 0.61663334E+06</totfact>
</mgrwt>
</event>
<event>
 5    0  0.1414520E+000  0.1250006E+03  0.7546771E-02  0.1235068E+00
         21   -1    0    0  503  502  0.00000000000E+00  0.00000000000E+00  0.94811747731E+01  0.94811747731E+01  0.00000000000E+00 0. -1.
         21   -1    0    0  502  503 -0.00000000000E+00 -0.00000000000E+00 -0.41200445810E+03  0.41200445810E+03  0.00000000000E+00 0. -1.
         25    2    1    2    0    0  0.00000000000E+00  0.00000000000E+00 -0.40252328333E+03  0.42148563288E+03  0.12500058039E+03 0.  0.
          4    1    3    3  501    0 -0.57973909330E+02 -0.11727924967E+02 -0.13337347546E+03  0.14590889227E+03  0.15500000000E+01 0.  1.
         -4    1    3    3    0  501  0.57973909330E+02  0.11727924967E+02 -0.26914980787E+03  0.27557674061E+03  0.15500000000E+01 0.  1.
<mgrwt>
<rscale>  2 0.12500058E+03</rscale>
<asrwt>0</asrwt>
<pdfrwt beam="1">  1       21 0.14586423E-02 0.12500058E+03</pdfrwt>
<pdfrwt beam="2">  1       21 0.63385300E-01 0.12500058E+03</pdfrwt>
<totfact> 0.46647461E+06</totfact>
</mgrwt>
</event>
<event>
 5    0  0.1386271E+000  0.1250004E+03  0.7546771E-02  0.1235069E+00
         21   -1    0    0  503  502  0.00000000000E+00  0.00000000000E+00  0.18023405155E+03  0.18023405155E+03  0.00000000000E+00 0.  1.
         21   -1    0    0  502  503 -0.00000000000E+00 -0.00000000000E+00 -0.21673355860E+02  0.21673355860E+02  0.00000000000E+00 0.  1.
         25    2    1    2    0    0  0.00000000000E+00  0.00000000000E+00  0.15856069569E+03  0.20190740741E+03  0.12500042780E+03 0.  0.
          4    1    3    3  501    0  0.15620612036E+02 -0.27526481721E+02  0.16629686416E+03  0.16928898442E+03  0.15500000000E+01 0. -1.
         -4    1    3    3    0  501 -0.15620612036E+02  0.27526481721E+02 -0.77361684640E+01  0.32618422997E+02  0.15500000000E+01 0. -1.
<mgrwt>
<rscale>  2 0.12500043E+03</rscale>
<asrwt>0</asrwt>
<pdfrwt beam="1">  1       21 0.27728315E-01 0.12500043E+03</pdfrwt>
<pdfrwt beam="2">  1       21 0.33343626E-02 0.12500043E+03</pdfrwt>
<totfact> 0.64720456E+06</totfact>
</mgrwt>
</event>
<event>
 5    0  0.1451093E+000  0.1249992E+03  0.7546771E-02  0.1235070E+00
         21   -1    0    0  503  502  0.00000000000E+00  0.00000000000E+00  0.24872613007E+03  0.24872613007E+03  0.00000000000E+00 0.  1.
         21   -1    0    0  502  503 -0.00000000000E+00 -0.00000000000E+00 -0.15704828964E+02  0.15704828964E+02  0.00000000000E+00 0.  1.
         25    2    1    2    0    0  0.00000000000E+00  0.00000000000E+00  0.23302130110E+03  0.26443095903E+03  0.12499922130E+03 0.  0.
          4    1    3    3  501    0 -0.37602337758E+02 -0.39948514911E+02  0.17976183981E+03  0.18795356128E+03  0.15500000000E+01 0.  1.
         -4    1    3    3    0  501  0.37602337758E+02  0.39948514911E+02  0.53259461295E+02  0.76477397745E+02  0.15500000000E+01 0.  1.
<mgrwt>
<rscale>  2 0.12499922E+03</rscale>
<asrwt>0</asrwt>
<pdfrwt beam="1">  1       21 0.38265556E-01 0.12499922E+03</pdfrwt>
<pdfrwt beam="2">  1       21 0.24161277E-02 0.12499922E+03</pdfrwt>
<totfact> 0.58546665E+06</totfact>
</mgrwt>
</event>
<event>
 5    0  0.1238634E+000  0.1250044E+03  0.7546771E-02  0.1235062E+00
         21   -1    0    0  503  502  0.00000000000E+00  0.00000000000E+00  0.64927172954E+03  0.64927172954E+03  0.00000000000E+00 0. -1.
         21   -1    0    0  502  503 -0.00000000000E+00 -0.00000000000E+00 -0.60167751658E+01  0.60167751658E+01  0.00000000000E+00 0. -1.
         25    2    1    2    0    0  0.00000000000E+00  0.00000000000E+00  0.64325495438E+03  0.65528850471E+03  0.12500435221E+03 0.  0.
          4    1    3    3  501    0 -0.26724494248E+02  0.55866819904E+02  0.27814014881E+03  0.28495551414E+03  0.15500000000E+01 0. -1.
         -4    1    3    3    0  501  0.26724494248E+02 -0.55866819904E+02  0.36511480557E+03  0.37033299057E+03  0.15500000000E+01 0. -1.
<mgrwt>
<rscale>  2 0.12500435E+03</rscale>
<asrwt>0</asrwt>
<pdfrwt beam="1">  1       21 0.99887903E-01 0.12500435E+03</pdfrwt>
<pdfrwt beam="2">  1       21 0.92565823E-03 0.12500435E+03</pdfrwt>
<totfact> 0.34701809E+06</totfact>
</mgrwt>
</event>
<event>
 5    0  0.1222151E+000  0.1250096E+03  0.7546771E-02  0.1235054E+00
         21   -1    0    0  503  502  0.00000000000E+00  0.00000000000E+00  0.37242364610E+01  0.37242364610E+01  0.00000000000E+00 0. -1.
         21   -1    0    0  502  503 -0.00000000000E+00 -0.00000000000E+00 -0.10490331744E+04  0.10490331744E+04  0.00000000000E+00 0. -1.
         25    2    1    2    0    0  0.00000000000E+00  0.00000000000E+00 -0.10453089380E+04  0.10527574109E+04  0.12500956119E+03 0.  0.
          4    1    3    3  501    0 -0.53616961254E+02 -0.23108965293E+02 -0.33516829252E+03  0.34021903183E+03  0.15500000000E+01 0.  1.
         -4    1    3    3    0  501  0.53616961254E+02  0.23108965293E+02 -0.71014064547E+03  0.71253837908E+03  0.15500000000E+01 0.  1.
<mgrwt>
<rscale>  2 0.12500956E+03</rscale>
<asrwt>0</asrwt>
<pdfrwt beam="1">  1       21 0.57295935E-03 0.12500956E+03</pdfrwt>
<pdfrwt beam="2">  1       21 0.16138975E+00 0.12500956E+03</pdfrwt>
<totfact> 0.22328524E+06</totfact>
</mgrwt>
</event>
<event>
 5    0  0.1723435E+000  0.1250108E+03  0.7546771E-02  0.1235052E+00
         21   -1    0    0  503  502  0.00000000000E+00  0.00000000000E+00  0.58958912762E+02  0.58958912762E+02  0.00000000000E+00 0. -1.
         21   -1    0    0  502  503 -0.00000000000E+00 -0.00000000000E+00 -0.66265258377E+02  0.66265258377E+02  0.00000000000E+00 0. -1.
         25    2    1    2    0    0  0.00000000000E+00  0.00000000000E+00 -0.73063456142E+01  0.12522417114E+03  0.12501084093E+03 0.  0.
          4    1    3    3  501    0 -0.48624920095E+02 -0.21721191649E+01  0.35598183682E+02  0.60321920869E+02  0.15500000000E+01 0. -1.
         -4    1    3    3    0  501  0.48624920095E+02  0.21721191649E+01 -0.42904529296E+02  0.64902250269E+02  0.15500000000E+01 0. -1.
<mgrwt>
<rscale>  2 0.12501084E+03</rscale>
<asrwt>0</asrwt>
<pdfrwt beam="1">  1       21 0.90706020E-02 0.12501084E+03</pdfrwt>
<pdfrwt beam="2">  1       21 0.10194655E-01 0.12501084E+03</pdfrwt>
<totfact> 0.73992799E+06</totfact>
</mgrwt>
</event>
<event>
 5    0  0.1405264E+000  0.1250021E+03  0.7546771E-02  0.1235066E+00
         21   -1    0    0  503  502  0.00000000000E+00  0.00000000000E+00  0.17976546989E+03  0.17976546989E+03  0.00000000000E+00 0. -1.
         21   -1    0    0  502  503 -0.00000000000E+00 -0.00000000000E+00 -0.21730425311E+02  0.21730425311E+02  0.00000000000E+00 0. -1.
         25    2    1    2    0    0  0.00000000000E+00  0.00000000000E+00  0.15803504458E+03  0.20149589520E+03  0.12500208185E+03 0.  0.
          4    1    3    3  501    0  0.49829235564E+02 -0.14948134964E+01  0.13973421161E+03  0.14836859364E+03  0.15500000000E+01 0. -1.
         -4    1    3    3    0  501 -0.49829235564E+02  0.14948134964E+01  0.18300832976E+02  0.53127301568E+02  0.15500000000E+01 0. -1.
<mgrwt>
<rscale>  2 0.12500208E+03</rscale>
<asrwt>0</asrwt>
<pdfrwt beam="1">  1       21 0.27656225E-01 0.12500208E+03</pdfrwt>
<pdfrwt beam="2">  1       21 0.33431425E-02 0.12500208E+03</pdfrwt>
<totfact> 0.64762109E+06</totfact>
</mgrwt>
</event>
<event>
 5    0  0.1503629E+000  0.1250023E+03  0.7546771E-02  0.1235066E+00
         21   -1    0    0  503  502  0.00000000000E+00  0.00000000000E+00  0.53823252984E+02  0.53823252984E+02  0.00000000000E+00 0.  1.
         21   -1    0    0  502  503 -0.00000000000E+00 -0.00000000000E+00 -0.72578172768E+02  0.72578172768E+02  0.00000000000E+00 0.  1.
         25    2    1    2    0    0  0.00000000000E+00  0.00000000000E+00 -0.18754919784E+02  0.12640142575E+03  0.12500229364E+03 0.  0.
          4    1    3    3  501    0  0.33155556964E+02 -0.89957680078E+01  0.43396500833E+02  0.55370331263E+02  0.15500000000E+01 0. -1.
         -4    1    3    3    0  501 -0.33155556964E+02  0.89957680078E+01 -0.62151420617E+02  0.71031094489E+02  0.15500000000E+01 0. -1.
<mgrwt>
<rscale>  2 0.12500229E+03</rscale>
<asrwt>0</asrwt>
<pdfrwt beam="1">  1       21 0.82805005E-02 0.12500229E+03</pdfrwt>
<pdfrwt beam="2">  1       21 0.11165873E-01 0.12500229E+03</pdfrwt>
<totfact> 0.73846549E+06</totfact>
</mgrwt>
</event>
<event>
 5    0  0.1222151E+000  0.1249971E+03  0.7546771E-02  0.1235074E+00
         21   -1    0    0  503  502  0.00000000000E+00  0.00000000000E+00  0.35703633336E+01  0.35703633336E+01  0.00000000000E+00 0. -1.
         21   -1    0    0  502  503 -0.00000000000E+00 -0.00000000000E+00 -0.10940260538E+04  0.10940260538E+04  0.00000000000E+00 0. -1.
         25    2    1    2    0    0  0.00000000000E+00  0.00000000000E+00 -0.10904556905E+04  0.10975964172E+04  0.12499712811E+03 0.  0.
          4    1    3    3  501    0 -0.59018326636E+02 -0.18693438609E+02 -0.61924914770E+03  0.62233794433E+03  0.15500000000E+01 0.  1.
         -4    1    3    3    0  501  0.59018326636E+02  0.18693438609E+02 -0.47120654281E+03  0.47525847285E+03  0.15500000000E+01 0.  1.
<mgrwt>
<rscale>  2 0.12499713E+03</rscale>
<asrwt>0</asrwt>
<pdfrwt beam="1">  1       21 0.54928571E-03 0.12499713E+03</pdfrwt>
<pdfrwt beam="2">  1       21 0.16831199E+00 0.12499713E+03</pdfrwt>
<totfact> 0.21306410E+06</totfact>
</mgrwt>
</event>
<event>
 5    0  0.1222151E+000  0.1250056E+03  0.7546771E-02  0.1235060E+00
         21   -1    0    0  503  502  0.00000000000E+00  0.00000000000E+00  0.88065617361E+03  0.88065617361E+03  0.00000000000E+00 0.  1.
         21   -1    0    0  502  503 -0.00000000000E+00 -0.00000000000E+00 -0.44360139610E+01  0.44360139610E+01  0.00000000000E+00 0.  1.
         25    2    1    2    0    0  0.00000000000E+00  0.00000000000E+00  0.87622015965E+03  0.88509218757E+03  0.12500564917E+03 0.  0.
          4    1    3    3  501    0  0.55242803225E+02 -0.17407354143E+02  0.60407260365E+03  0.60684503481E+03  0.15500000000E+01 0.  1.
         -4    1    3    3    0  501 -0.55242803225E+02  0.17407354143E+02  0.27214755599E+03  0.27824715276E+03  0.15500000000E+01 0.  1.
<mgrwt>
<rscale>  2 0.12500565E+03</rscale>
<asrwt>0</asrwt>
<pdfrwt beam="1">  1       21 0.13548543E+00 0.12500565E+03</pdfrwt>
<pdfrwt beam="2">  1       21 0.68246439E-03 0.12500565E+03</pdfrwt>
<totfact> 0.26725016E+06</totfact>
</mgrwt>
</event>
<event>
 5    0  0.1222151E+000  0.1249950E+03  0.7546771E-02  0.1235077E+00
         21   -1    0    0  503  502  0.00000000000E+00  0.00000000000E+00  0.12599970444E+04  0.12599970444E+04  0.00000000000E+00 0. -1.
         21   -1    0    0  502  503 -0.00000000000E+00 -0.00000000000E+00 -0.30999558877E+01  0.30999558877E+01  0.00000000000E+00 0. -1.
         25    2    1    2    0    0  0.00000000000E+00  0.00000000000E+00  0.12568970885E+04  0.12630970003E+04  0.12499496400E+03 0.  0.
          4    1    3    3  501    0 -0.57557156638E+02 -0.19869566802E+02  0.48700962362E+03  0.49080383247E+03  0.15500000000E+01 0.  1.
         -4    1    3    3    0  501  0.57557156638E+02  0.19869566802E+02  0.76988746488E+03  0.77229316781E+03  0.15500000000E+01 0.  1.
<mgrwt>
<rscale>  2 0.12499496E+03</rscale>
<asrwt>0</asrwt>
<pdfrwt beam="1">  1       21 0.19384529E+00 0.12499496E+03</pdfrwt>
<pdfrwt beam="2">  1       21 0.47691730E-03 0.12499496E+03</pdfrwt>
<totfact> 0.17930507E+06</totfact>
</mgrwt>
</event>
<event>
 5    0  0.1245808E+000  0.1249732E+03  0.7546771E-02  0.1235111E+00
         21   -1    0    0  503  502  0.00000000000E+00  0.00000000000E+00  0.77844960232E+03  0.77844960232E+03  0.00000000000E+00 0. -1.
         21   -1    0    0  502  503 -0.00000000000E+00 -0.00000000000E+00 -0.50158338639E+01  0.50158338639E+01  0.00000000000E+00 0. -1.
         25    2    1    2    0    0  0.00000000000E+00  0.00000000000E+00  0.77343376846E+03  0.78346543619E+03  0.12497317915E+03 0.  0.
          4    1    3    3  501    0 -0.52336429358E+02  0.19796087936E+02  0.21262354585E+03  0.21986850999E+03  0.15500000000E+01 0.  1.
         -4    1    3    3    0  501  0.52336429358E+02 -0.19796087936E+02  0.56081022261E+03  0.56359692619E+03  0.15500000000E+01 0.  1.
<mgrwt>
<rscale>  2 0.12497318E+03</rscale>
<asrwt>0</asrwt>
<pdfrwt beam="1">  1       21 0.11976138E+00 0.12497318E+03</pdfrwt>
<pdfrwt beam="2">  1       21 0.77166737E-03 0.12497318E+03</pdfrwt>
<totfact> 0.29937916E+06</totfact>
</mgrwt>
</event>
<event>
 5    0  0.1551007E+000  0.1250097E+03  0.7546771E-02  0.1235054E+00
         21   -1    0    0  503  502  0.00000000000E+00  0.00000000000E+00  0.24695728463E+02  0.24695728463E+02  0.00000000000E+00 0.  1.
         21   -1    0    0  502  503 -0.00000000000E+00 -0.00000000000E+00 -0.15819956722E+03  0.15819956722E+03  0.00000000000E+00 0.  1.
         25    2    1    2    0    0  0.00000000000E+00  0.00000000000E+00 -0.13350383875E+03  0.18289529568E+03  0.12500965651E+03 0.  0.
          4    1    3    3  501    0 -0.52391444408E+02  0.25147314927E+02 -0.10034476079E+03  0.11596863547E+03  0.15500000000E+01 0.  1.
         -4    1    3    3    0  501  0.52391444408E+02 -0.25147314927E+02 -0.33159077963E+02  0.66926660207E+02  0.15500000000E+01 0.  1.
<mgrwt>
<rscale>  2 0.12500966E+03</rscale>
<asrwt>0</asrwt>
<pdfrwt beam="1">  1       21 0.37993429E-02 0.12500966E+03</pdfrwt>
<pdfrwt beam="2">  1       21 0.24338394E-01 0.12500966E+03</pdfrwt>
<totfact> 0.66804581E+06</totfact>
</mgrwt>
</event>
<event>
 5    0  0.1222151E+000  0.1250005E+03  0.7546771E-02  0.1235069E+00
         21   -1    0    0  503  502  0.00000000000E+00  0.00000000000E+00  0.72010976446E+03  0.72010976446E+03  0.00000000000E+00 0.  1.
         21   -1    0    0  502  503 -0.00000000000E+00 -0.00000000000E+00 -0.54245600145E+01  0.54245600145E+01  0.00000000000E+00 0.  1.
         25    2    1    2    0    0  0.00000000000E+00  0.00000000000E+00  0.71468520445E+03  0.72553432448E+03  0.12500045815E+03 0.  0.
          4    1    3    3  501    0 -0.27066789029E+02  0.28390440286E+02  0.75059619649E+02  0.84705236968E+02  0.15500000000E+01 0. -1.
         -4    1    3    3    0  501  0.27066789029E+02 -0.28390440286E+02  0.63962558480E+03  0.64082908751E+03  0.15500000000E+01 0. -1.
<mgrwt>
<rscale>  2 0.12500046E+03</rscale>
<asrwt>0</asrwt>
<pdfrwt beam="1">  1       21 0.11078604E+00 0.12500046E+03</pdfrwt>
<pdfrwt beam="2">  1       21 0.83454827E-03 0.12500046E+03</pdfrwt>
<totfact> 0.31948303E+06</totfact>
</mgrwt>
</event>
<event>
 5    0  0.1527786E+000  0.1250086E+03  0.7546771E-02  0.1235056E+00
         21   -1    0    0  503  502  0.00000000000E+00  0.00000000000E+00  0.29823625877E+02  0.29823625877E+02  0.00000000000E+00 0.  1.
         21   -1    0    0  502  503 -0.00000000000E+00 -0.00000000000E+00 -0.13099639080E+03  0.13099639080E+03  0.00000000000E+00 0.  1.
         25    2    1    2    0    0  0.00000000000E+00  0.00000000000E+00 -0.10117276492E+03  0.16082001668E+03  0.12500859731E+03 0.  0.
          4    1    3    3  501    0 -0.34464849921E+02  0.34594528006E+02 -0.43415337123E+00  0.48858962711E+02  0.15500000000E+01 0.  1.
         -4    1    3    3    0  501  0.34464849921E+02 -0.34594528006E+02 -0.10073861155E+03  0.11196105397E+03  0.15500000000E+01 0.  1.
<mgrwt>
<rscale>  2 0.12500860E+03</rscale>
<asrwt>0</asrwt>
<pdfrwt beam="1">  1       21 0.45882500E-02 0.12500860E+03</pdfrwt>
<pdfrwt beam="2">  1       21 0.20153291E-01 0.12500860E+03</pdfrwt>
<totfact> 0.69404267E+06</totfact>
</mgrwt>
</event>
<event>
 5    0  0.1429435E+000  0.1249979E+03  0.7546771E-02  0.1235073E+00
         21   -1    0    0  503  502  0.00000000000E+00  0.00000000000E+00  0.15313907744E+03  0.15313907744E+03  0.00000000000E+00 0.  1.
         21   -1    0    0  502  503 -0.00000000000E+00 -0.00000000000E+00 -0.25507016941E+02  0.25507016941E+02  0.00000000000E+00 0.  1.
         25    2    1    2    0    0  0.00000000000E+00  0.00000000000E+00  0.12763206050E+03  0.17864609438E+03  0.12499793667E+03 0.  0.
          4    1    3    3  501    0 -0.31476537640E+02 -0.79869582875E+01  0.14010270605E+03  0.14382536170E+03  0.15500000000E+01 0. -1.
         -4    1    3    3    0  501  0.31476537640E+02  0.79869582875E+01 -0.12470645549E+02  0.34820732687E+02  0.15500000000E+01 0. -1.
<mgrwt>
<rscale>  2 0.12499794E+03</rscale>
<asrwt>0</asrwt>
<pdfrwt beam="1">  1       21 0.23559857E-01 0.12499794E+03</pdfrwt>
<pdfrwt beam="2">  1       21 0.39241566E-02 0.12499794E+03</pdfrwt>
<totfact> 0.67310716E+06</totfact>
</mgrwt>
</event>
<event>
 5    0  0.1454256E+000  0.1249996E+03  0.7546771E-02  0.1235070E+00
         21   -1    0    0  503  502  0.00000000000E+00  0.00000000000E+00  0.10049847612E+02  0.10049847612E+02  0.00000000000E+00 0. -1.
         21   -1    0    0  502  503 -0.00000000000E+00 -0.00000000000E+00 -0.38868470015E+03  0.38868470015E+03  0.00000000000E+00 0. -1.
         25    2    1    2    0    0  0.00000000000E+00  0.00000000000E+00 -0.37863485254E+03  0.39873454777E+03  0.12499955209E+03 0.  0.
          4    1    3    3  501    0  0.46151916469E+00 -0.39794752914E+02 -0.35672608087E+02  0.53467493182E+02  0.15500000000E+01 0.  1.
         -4    1    3    3    0  501 -0.46151916469E+00  0.39794752914E+02 -0.34296224445E+03  0.34526705458E+03  0.15500000000E+01 0.  1.
<mgrwt>
<rscale>  2 0.12499955E+03</rscale>
<asrwt>0</asrwt>
<pdfrwt beam="1">  1       21 0.15461303E-02 0.12499955E+03</pdfrwt>
<pdfrwt beam="2">  1       21 0.59797650E-01 0.12499955E+03</pdfrwt>
<totfact> 0.48125937E+06</totfact>
</mgrwt>
</event>
<event>
 5    0  0.1376121E+000  0.1250051E+03  0.7546771E-02  0.1235061E+00
         21   -1    0    0  503  502  0.00000000000E+00  0.00000000000E+00  0.16696009075E+03  0.16696009075E+03  0.00000000000E+00 0.  1.
         21   -1    0    0  502  503 -0.00000000000E+00 -0.00000000000E+00 -0.23398222753E+02  0.23398222753E+02  0.00000000000E+00 0.  1.
         25    2    1    2    0    0  0.00000000000E+00  0.00000000000E+00  0.14356186800E+03  0.19035831350E+03  0.12500511020E+03 0.  0.
          4    1    3    3  501    0 -0.61925153396E+02 -0.70247392001E+01  0.64954538605E+02  0.90030917852E+02  0.15500000000E+01 0.  1.
         -4    1    3    3    0  501  0.61925153396E+02  0.70247392001E+01  0.78607329393E+02  0.10032739565E+03  0.15500000000E+01 0.  1.
<mgrwt>
<rscale>  2 0.12500511E+03</rscale>
<asrwt>0</asrwt>
<pdfrwt beam="1">  1       21 0.25686167E-01 0.12500511E+03</pdfrwt>
<pdfrwt beam="2">  1       21 0.35997267E-02 0.12500511E+03</pdfrwt>
<totfact> 0.65974120E+06</totfact>
</mgrwt>
</event>
<event>
 5    0  0.1480422E+000  0.1250371E+03  0.7546771E-02  0.1235011E+00
         21   -1    0    0  503  502  0.00000000000E+00  0.00000000000E+00  0.17352825833E+03  0.17352825833E+03  0.00000000000E+00 0.  1.
         21   -1    0    0  502  503 -0.00000000000E+00 -0.00000000000E+00 -0.22524099509E+02  0.22524099509E+02  0.00000000000E+00 0.  1.
         25    2    1    2    0    0  0.00000000000E+00  0.00000000000E+00  0.15100415882E+03  0.19605235784E+03  0.12503707863E+03 0.  0.
          4    1    3    3  501    0 -0.80783471309E+01  0.41129699368E+02  0.14819248001E+03  0.15401404317E+03  0.15500000000E+01 0.  1.
         -4    1    3    3    0  501  0.80783471309E+01 -0.41129699368E+02  0.28116788124E+01  0.42038314669E+02  0.15500000000E+01 0.  1.
<mgrwt>
<rscale>  2 0.12503708E+03</rscale>
<asrwt>0</asrwt>
<pdfrwt beam="1">  1       21 0.26696654E-01 0.12503708E+03</pdfrwt>
<pdfrwt beam="2">  1       21 0.34652462E-02 0.12503708E+03</pdfrwt>
<totfact> 0.65294689E+06</totfact>
</mgrwt>
</event>
<event>
 5    0  0.1362428E+000  0.1250055E+03  0.7546771E-02  0.1235061E+00
         21   -1    0    0  503  502  0.00000000000E+00  0.00000000000E+00  0.30450460506E+03  0.30450460506E+03  0.00000000000E+00 0.  1.
         21   -1    0    0  502  503 -0.00000000000E+00 -0.00000000000E+00 -0.12829335337E+02  0.12829335337E+02  0.00000000000E+00 0.  1.
         25    2    1    2    0    0  0.00000000000E+00  0.00000000000E+00  0.29167526972E+03  0.31733394040E+03  0.12500546692E+03 0.  0.
          4    1    3    3  501    0  0.26740989354E+02 -0.17367756422E+02  0.94276261061E+01  0.33286665630E+02  0.15500000000E+01 0.  1.
         -4    1    3    3    0  501 -0.26740989354E+02  0.17367756422E+02  0.28224764362E+03  0.28404727477E+03  0.15500000000E+01 0.  1.
<mgrwt>
<rscale>  2 0.12500547E+03</rscale>
<asrwt>0</asrwt>
<pdfrwt beam="1">  1       21 0.46846857E-01 0.12500547E+03</pdfrwt>
<pdfrwt beam="2">  1       21 0.19737441E-02 0.12500547E+03</pdfrwt>
<totfact> 0.54037882E+06</totfact>
</mgrwt>
</event>
<event>
 5    0  0.1556135E+000  0.1250032E+03  0.7546771E-02  0.1235064E+00
         21   -1    0    0  503  502  0.00000000000E+00  0.00000000000E+00  0.13495445842E+03  0.13495445842E+03  0.00000000000E+00 0.  1.
         21   -1    0    0  502  503 -0.00000000000E+00 -0.00000000000E+00 -0.28946448536E+02  0.28946448536E+02  0.00000000000E+00 0.  1.
         25    2    1    2    0    0  0.00000000000E+00  0.00000000000E+00  0.10600800989E+03  0.16390090696E+03  0.12500323652E+03 0.  0.
          4    1    3    3  501    0 -0.10606420885E+02 -0.58471945040E+02  0.78312885524E+02  0.98319759254E+02  0.15500000000E+01 0.  1.
         -4    1    3    3    0  501  0.10606420885E+02  0.58471945040E+02  0.27695124364E+02  0.65581147704E+02  0.15500000000E+01 0.  1.
<mgrwt>
<rscale>  2 0.12500324E+03</rscale>
<asrwt>0</asrwt>
<pdfrwt beam="1">  1       21 0.20762224E-01 0.12500324E+03</pdfrwt>
<pdfrwt beam="2">  1       21 0.44532999E-02 0.12500324E+03</pdfrwt>
<totfact> 0.69040282E+06</totfact>
</mgrwt>
</event>
<event>
 5    0  0.1480043E+000  0.1249907E+03  0.7546771E-02  0.1235084E+00
         21   -1    0    0  503  502  0.00000000000E+00  0.00000000000E+00  0.88629790611E+02  0.88629790611E+02  0.00000000000E+00 0.  1.
         21   -1    0    0  502  503 -0.00000000000E+00 -0.00000000000E+00 -0.44067238915E+02  0.44067238915E+02  0.00000000000E+00 0.  1.
         25    2    1    2    0    0  0.00000000000E+00  0.00000000000E+00  0.44562551696E+02  0.13269702953E+03  0.12499072218E+03 0.  0.
          4    1    3    3  501    0 -0.47480319138E+02 -0.36591167579E+02  0.35897118283E+01  0.60071480598E+02  0.15500000000E+01 0. -1.
         -4    1    3    3    0  501  0.47480319138E+02  0.36591167579E+02  0.40972839868E+02  0.72625548928E+02  0.15500000000E+01 0. -1.
<mgrwt>
<rscale>  2 0.12499072E+03</rscale>
<asrwt>0</asrwt>
<pdfrwt beam="1">  1       21 0.13635352E-01 0.12499072E+03</pdfrwt>
<pdfrwt beam="2">  1       21 0.67795752E-02 0.12499072E+03</pdfrwt>
<totfact> 0.73020163E+06</totfact>
</mgrwt>
</event>
<event>
 5    0  0.1492959E+000  0.1250008E+03  0.7546771E-02  0.1235068E+00
         21   -1    0    0  503  502  0.00000000000E+00  0.00000000000E+00  0.23147263983E+03  0.23147263983E+03  0.00000000000E+00 0. -1.
         21   -1    0    0  502  503 -0.00000000000E+00 -0.00000000000E+00 -0.16875857945E+02  0.16875857945E+02  0.00000000000E+00 0. -1.
         25    2    1    2    0    0  0.00000000000E+00  0.00000000000E+00  0.21459678188E+03  0.24834849777E+03  0.12500079020E+03 0.  0.
          4    1    3    3  501    0  0.14857270130E+02 -0.50839005337E+02  0.17314895109E+03  0.18107541165E+03  0.15500000000E+01 0.  1.
         -4    1    3    3    0  501 -0.14857270130E+02  0.50839005337E+02  0.41447830789E+02  0.67273086122E+02  0.15500000000E+01 0.  1.
<mgrwt>
<rscale>  2 0.12500079E+03</rscale>
<asrwt>0</asrwt>
<pdfrwt beam="1">  1       21 0.35611173E-01 0.12500079E+03</pdfrwt>
<pdfrwt beam="2">  1       21 0.25962860E-02 0.12500079E+03</pdfrwt>
<totfact> 0.60032830E+06</totfact>
</mgrwt>
</event>
<event>
 5    0  0.1414447E+000  0.1250147E+03  0.7546771E-02  0.1235046E+00
         21   -1    0    0  503  502  0.00000000000E+00  0.00000000000E+00  0.34024701102E+03  0.34024701102E+03  0.00000000000E+00 0. -1.
         21   -1    0    0  502  503 -0.00000000000E+00 -0.00000000000E+00 -0.11483337487E+02  0.11483337487E+02  0.00000000000E+00 0. -1.
         25    2    1    2    0    0  0.00000000000E+00  0.00000000000E+00  0.32876367353E+03  0.35173034851E+03  0.12501473924E+03 0.  0.
          4    1    3    3  501    0 -0.40640828380E+02 -0.40122925973E+02  0.93024926867E+02  0.10916760343E+03  0.15500000000E+01 0. -1.
         -4    1    3    3    0  501  0.40640828380E+02  0.40122925973E+02  0.23573874667E+03  0.24256274508E+03  0.15500000000E+01 0. -1.
<mgrwt>
<rscale>  2 0.12501474E+03</rscale>
<asrwt>0</asrwt>
<pdfrwt beam="1">  1       21 0.52345686E-01 0.12501474E+03</pdfrwt>
<pdfrwt beam="2">  1       21 0.17666676E-02 0.12501474E+03</pdfrwt>
<totfact> 0.51391921E+06</totfact>
</mgrwt>
</event>
<event>
 5    0  0.1222151E+000  0.1249929E+03  0.7546771E-02  0.1235080E+00
         21   -1    0    0  503  502  0.00000000000E+00  0.00000000000E+00  0.80449743661E+03  0.80449743661E+03  0.00000000000E+00 0.  1.
         21   -1    0    0  502  503 -0.00000000000E+00 -0.00000000000E+00 -0.48549653822E+01  0.48549653822E+01  0.00000000000E+00 0.  1.
         25    2    1    2    0    0  0.00000000000E+00  0.00000000000E+00  0.79964247123E+03  0.80935240199E+03  0.12499291508E+03 0.  0.
          4    1    3    3  501    0 -0.95590199099E+01  0.49319715072E+02  0.64032847609E+03  0.64229803748E+03  0.15500000000E+01 0.  1.
         -4    1    3    3    0  501  0.95590199099E+01 -0.49319715072E+02  0.15931399514E+03  0.16705436451E+03  0.15500000000E+01 0.  1.
<mgrwt>
<rscale>  2 0.12499292E+03</rscale>
<asrwt>0</asrwt>
<pdfrwt beam="1">  1       21 0.12376873E+00 0.12499292E+03</pdfrwt>
<pdfrwt beam="2">  1       21 0.74691839E-03 0.12499292E+03</pdfrwt>
<totfact> 0.29060400E+06</totfact>
</mgrwt>
</event>
<event>
 5    0  0.1580281E+000  0.1249982E+03  0.7546771E-02  0.1235072E+00
         21   -1    0    0  503  502  0.00000000000E+00  0.00000000000E+00  0.16879911882E+02  0.16879911882E+02  0.00000000000E+00 0.  1.
         21   -1    0    0  502  503 -0.00000000000E+00 -0.00000000000E+00 -0.23140736994E+03  0.23140736994E+03  0.00000000000E+00 0.  1.
         25    2    1    2    0    0  0.00000000000E+00  0.00000000000E+00 -0.21452745805E+03  0.24828728182E+03  0.12499817620E+03 0.  0.
          4    1    3    3  501    0 -0.60999282635E+02  0.61863407003E+01 -0.83382307402E+02  0.10350939562E+03  0.15500000000E+01 0. -1.
         -4    1    3    3    0  501  0.60999282635E+02 -0.61863407003E+01 -0.13114515065E+03  0.14477788620E+03  0.15500000000E+01 0. -1.
<mgrwt>
<rscale>  2 0.12499818E+03</rscale>
<asrwt>0</asrwt>
<pdfrwt beam="1">  1       21 0.25969096E-02 0.12499818E+03</pdfrwt>
<pdfrwt beam="2">  1       21 0.35601133E-01 0.12499818E+03</pdfrwt>
<totfact> 0.60042576E+06</totfact>
</mgrwt>
</event>
<event>
 5    0  0.1386977E+000  0.1250048E+03  0.7546771E-02  0.1235062E+00
         21   -1    0    0  503  502  0.00000000000E+00  0.00000000000E+00  0.28707246989E+03  0.28707246989E+03  0.00000000000E+00 0.  1.
         21   -1    0    0  502  503 -0.00000000000E+00 -0.00000000000E+00 -0.13608239962E+02  0.13608239962E+02  0.00000000000E+00 0.  1.
         25    2    1    2    0    0  0.00000000000E+00  0.00000000000E+00  0.27346422992E+03  0.30068070985E+03  0.12500481681E+03 0.  0.
          4    1    3    3  501    0 -0.31484173415E+02 -0.35710863856E+02  0.39393165124E+02  0.61812158444E+02  0.15500000000E+01 0.  1.
         -4    1    3    3    0  501  0.31484173415E+02  0.35710863856E+02  0.23407106480E+03  0.23886855140E+03  0.15500000000E+01 0.  1.
<mgrwt>
<rscale>  2 0.12500482E+03</rscale>
<asrwt>0</asrwt>
<pdfrwt beam="1">  1       21 0.44164991E-01 0.12500482E+03</pdfrwt>
<pdfrwt beam="2">  1       21 0.20935756E-02 0.12500482E+03</pdfrwt>
<totfact> 0.55392949E+06</totfact>
</mgrwt>
</event>
<event>
 5    0  0.1222151E+000  0.1250072E+03  0.7546771E-02  0.1235058E+00
         21   -1    0    0  503  502  0.00000000000E+00  0.00000000000E+00  0.41439694913E+01  0.41439694913E+01  0.00000000000E+00 0.  1.
         21   -1    0    0  502  503 -0.00000000000E+00 -0.00000000000E+00 -0.94274404873E+03  0.94274404873E+03  0.00000000000E+00 0.  1.
         25    2    1    2    0    0  0.00000000000E+00  0.00000000000E+00 -0.93860007924E+03  0.94688801822E+03  0.12500724101E+03 0.  0.
          4    1    3    3  501    0  0.16477388758E+02 -0.45932210576E+02 -0.17369123746E+03  0.18042261715E+03  0.15500000000E+01 0.  1.
         -4    1    3    3    0  501 -0.16477388758E+02  0.45932210576E+02 -0.76490884178E+03  0.76646540108E+03  0.15500000000E+01 0.  1.
<mgrwt>
<rscale>  2 0.12500724E+03</rscale>
<asrwt>0</asrwt>
<pdfrwt beam="1">  1       21 0.63753345E-03 0.12500724E+03</pdfrwt>
<pdfrwt beam="2">  1       21 0.14503762E+00 0.12500724E+03</pdfrwt>
<totfact> 0.24990419E+06</totfact>
</mgrwt>
</event>
<event>
 5    0  0.1505476E+000  0.1250104E+03  0.7546771E-02  0.1235053E+00
         21   -1    0    0  503  502  0.00000000000E+00  0.00000000000E+00  0.23771316896E+02  0.23771316896E+02  0.00000000000E+00 0. -1.
         21   -1    0    0  502  503 -0.00000000000E+00 -0.00000000000E+00 -0.16435351607E+03  0.16435351607E+03  0.00000000000E+00 0. -1.
         25    2    1    2    0    0  0.00000000000E+00  0.00000000000E+00 -0.14058219918E+03  0.18812483297E+03  0.12501039179E+03 0.  0.
          4    1    3    3  501    0 -0.49267024505E+02 -0.19078008971E+02 -0.12050264141E+03  0.13158457059E+03  0.15500000000E+01 0. -1.
         -4    1    3    3    0  501  0.49267024505E+02  0.19078008971E+02 -0.20079557763E+02  0.56540262378E+02  0.15500000000E+01 0. -1.
<mgrwt>
<rscale>  2 0.12501039E+03</rscale>
<asrwt>0</asrwt>
<pdfrwt beam="1">  1       21 0.36571257E-02 0.12501039E+03</pdfrwt>
<pdfrwt beam="2">  1       21 0.25285156E-01 0.12501039E+03</pdfrwt>
<totfact> 0.66214038E+06</totfact>
</mgrwt>
</event>
<event>
 5    0  0.1245507E+000  0.1249908E+03  0.7546771E-02  0.1235084E+00
         21   -1    0    0  503  502  0.00000000000E+00  0.00000000000E+00  0.67814415668E+03  0.67814415668E+03  0.00000000000E+00 0.  1.
         21   -1    0    0  502  503 -0.00000000000E+00 -0.00000000000E+00 -0.57593581846E+01  0.57593581846E+01  0.00000000000E+00 0.  1.
         25    2    1    2    0    0  0.00000000000E+00  0.00000000000E+00  0.67238479850E+03  0.68390351487E+03  0.12499080125E+03 0.  0.
          4    1    3    3  501    0  0.56365112792E+02 -0.20924539065E+02  0.42911517724E+03  0.43330947384E+03  0.15500000000E+01 0.  1.
         -4    1    3    3    0  501 -0.56365112792E+02  0.20924539065E+02  0.24326962125E+03  0.25059404103E+03  0.15500000000E+01 0.  1.
<mgrwt>
<rscale>  2 0.12499080E+03</rscale>
<asrwt>0</asrwt>
<pdfrwt beam="1">  1       21 0.10432981E+00 0.12499080E+03</pdfrwt>
<pdfrwt beam="2">  1       21 0.88605564E-03 0.12499080E+03</pdfrwt>
<totfact> 0.33547673E+06</totfact>
</mgrwt>
</event>
<event>
 5    0  0.1591789E+000  0.1250012E+03  0.7546771E-02  0.1235067E+00
         21   -1    0    0  503  502  0.00000000000E+00  0.00000000000E+00  0.23371198526E+02  0.23371198526E+02  0.00000000000E+00 0. -1.
         21   -1    0    0  502  503 -0.00000000000E+00 -0.00000000000E+00 -0.16714258731E+03  0.16714258731E+03  0.00000000000E+00 0. -1.
         25    2    1    2    0    0  0.00000000000E+00  0.00000000000E+00 -0.14377138878E+03  0.19051378584E+03  0.12500116144E+03 0.  0.
          4    1    3    3  501    0  0.16854760883E+02 -0.59405091037E+02 -0.86414438756E+02  0.10622102208E+03  0.15500000000E+01 0.  1.
         -4    1    3    3    0  501 -0.16854760883E+02  0.59405091037E+02 -0.57356950028E+02  0.84292763758E+02  0.15500000000E+01 0.  1.
<mgrwt>
<rscale>  2 0.12500116E+03</rscale>
<asrwt>0</asrwt>
<pdfrwt beam="1">  1       21 0.35955691E-02 0.12500116E+03</pdfrwt>
<pdfrwt beam="2">  1       21 0.25714243E-01 0.12500116E+03</pdfrwt>
<totfact> 0.65963466E+06</totfact>
</mgrwt>
</event>
<event>
 5    0  0.1222151E+000  0.1249988E+03  0.7546771E-02  0.1235071E+00
         21   -1    0    0  503  502  0.00000000000E+00  0.00000000000E+00  0.11232532547E+04  0.11232532547E+04  0.00000000000E+00 0.  1.
         21   -1    0    0  502  503 -0.00000000000E+00 -0.00000000000E+00 -0.34775563807E+01  0.34775563807E+01  0.00000000000E+00 0.  1.
         25    2    1    2    0    0  0.00000000000E+00  0.00000000000E+00  0.11197756983E+04  0.11267308111E+04  0.12499882436E+03 0.  0.
          4    1    3    3  501    0  0.32210711497E+02 -0.52622420392E+02  0.64872194134E+03  0.65165114037E+03  0.15500000000E+01 0. -1.
         -4    1    3    3    0  501 -0.32210711497E+02  0.52622420392E+02  0.47105375700E+03  0.47507967074E+03  0.15500000000E+01 0. -1.
<mgrwt>
<rscale>  2 0.12499882E+03</rscale>
<asrwt>0</asrwt>
<pdfrwt beam="1">  1       21 0.17280790E+00 0.12499882E+03</pdfrwt>
<pdfrwt beam="2">  1       21 0.53500957E-03 0.12499882E+03</pdfrwt>
<totfact> 0.20667157E+06</totfact>
</mgrwt>
</event>
<event>
 5    0  0.1378970E+000  0.1249972E+03  0.7546771E-02  0.1235074E+00
         21   -1    0    0  503  502  0.00000000000E+00  0.00000000000E+00  0.41512479346E+03  0.41512479346E+03  0.00000000000E+00 0. -1.
         21   -1    0    0  502  503 -0.00000000000E+00 -0.00000000000E+00 -0.94094063799E+01  0.94094063799E+01  0.00000000000E+00 0. -1.
         25    2    1    2    0    0  0.00000000000E+00  0.00000000000E+00  0.40571538708E+03  0.42453419984E+03  0.12499724605E+03 0.  0.
          4    1    3    3  501    0 -0.30964390452E+02  0.33127289010E+02  0.56875359436E+02  0.72755891611E+02  0.15500000000E+01 0. -1.
         -4    1    3    3    0  501  0.30964390452E+02 -0.33127289010E+02  0.34884002764E+03  0.35177830823E+03  0.15500000000E+01 0. -1.
<mgrwt>
<rscale>  2 0.12499725E+03</rscale>
<asrwt>0</asrwt>
<pdfrwt beam="1">  1       21 0.63865338E-01 0.12499725E+03</pdfrwt>
<pdfrwt beam="2">  1       21 0.14476013E-02 0.12499725E+03</pdfrwt>
<totfact> 0.46458690E+06</totfact>
</mgrwt>
</event>
<event>
 5    0  0.1349822E+000  0.1250134E+03  0.7546771E-02  0.1235048E+00
         21   -1    0    0  503  502  0.00000000000E+00  0.00000000000E+00  0.13776258745E+02  0.13776258745E+02  0.00000000000E+00 0.  1.
         21   -1    0    0  502  503 -0.00000000000E+00 -0.00000000000E+00 -0.28361007008E+03  0.28361007008E+03  0.00000000000E+00 0.  1.
         25    2    1    2    0    0  0.00000000000E+00  0.00000000000E+00 -0.26983381134E+03  0.29738632883E+03  0.12501337062E+03 0.  0.
          4    1    3    3  501    0  0.32301169484E+02  0.83419868346E+01 -0.92267809614E+01  0.34648092029E+02  0.15500000000E+01 0. -1.
         -4    1    3    3    0  501 -0.32301169484E+02 -0.83419868346E+01 -0.26060703038E+03  0.26273823680E+03  0.15500000000E+01 0. -1.
<mgrwt>
<rscale>  2 0.12501337E+03</rscale>
<asrwt>0</asrwt>
<pdfrwt beam="1">  1       21 0.21194245E-02 0.12501337E+03</pdfrwt>
<pdfrwt beam="2">  1       21 0.43632317E-01 0.12501337E+03</pdfrwt>
<totfact> 0.55655380E+06</totfact>
</mgrwt>
</event>
<event>
 5    0  0.1577118E+000  0.1249988E+03  0.7546771E-02  0.1235071E+00
         21   -1    0    0  503  502  0.00000000000E+00  0.00000000000E+00  0.45627679459E+02  0.45627679459E+02  0.00000000000E+00 0. -1.
         21   -1    0    0  502  503 -0.00000000000E+00 -0.00000000000E+00 -0.85609762140E+02  0.85609762140E+02  0.00000000000E+00 0. -1.
         25    2    1    2    0    0  0.00000000000E+00  0.00000000000E+00 -0.39982082681E+02  0.13123744160E+03  0.12499879656E+03 0.  0.
          4    1    3    3  501    0  0.55755579172E+02  0.21780401495E+02 -0.11891034447E+01  0.59890625019E+02  0.15500000000E+01 0. -1.
         -4    1    3    3    0  501 -0.55755579172E+02 -0.21780401495E+02 -0.38792979236E+02  0.71346816580E+02  0.15500000000E+01 0. -1.
<mgrwt>
<rscale>  2 0.12499880E+03</rscale>
<asrwt>0</asrwt>
<pdfrwt beam="1">  1       21 0.70196430E-02 0.12499880E+03</pdfrwt>
<pdfrwt beam="2">  1       21 0.13170733E-01 0.12499880E+03</pdfrwt>
<totfact> 0.73200939E+06</totfact>
</mgrwt>
</event>
<event>
 5    0  0.1222151E+000  0.1249975E+03  0.7546771E-02  0.1235073E+00
         21   -1    0    0  503  502  0.00000000000E+00  0.00000000000E+00  0.44241137061E+01  0.44241137061E+01  0.00000000000E+00 0. -1.
         21   -1    0    0  502  503 -0.00000000000E+00 -0.00000000000E+00 -0.88290935991E+03  0.88290935991E+03  0.00000000000E+00 0. -1.
         25    2    1    2    0    0  0.00000000000E+00  0.00000000000E+00 -0.87848524621E+03  0.88733347362E+03  0.12499746238E+03 0.  0.
          4    1    3    3  501    0 -0.25129755386E+02 -0.62446879688E+01 -0.84288909335E+03  0.84328816363E+03  0.15500000000E+01 0.  1.
         -4    1    3    3    0  501  0.25129755386E+02  0.62446879688E+01 -0.35596152855E+02  0.44045309985E+02  0.15500000000E+01 0.  1.
<mgrwt>
<rscale>  2 0.12499746E+03</rscale>
<asrwt>0</asrwt>
<pdfrwt beam="1">  1       21 0.68063305E-03 0.12499746E+03</pdfrwt>
<pdfrwt beam="2">  1       21 0.13583218E+00 0.12499746E+03</pdfrwt>
<totfact> 0.26665681E+06</totfact>
</mgrwt>
</event>
<event>
 5    0  0.1326363E+000  0.1250048E+03  0.7546771E-02  0.1235062E+00
         21   -1    0    0  503  502  0.00000000000E+00  0.00000000000E+00  0.37450995843E+03  0.37450995843E+03  0.00000000000E+00 0.  1.
         21   -1    0    0  502  503 -0.00000000000E+00 -0.00000000000E+00 -0.10431090329E+02  0.10431090329E+02  0.00000000000E+00 0.  1.
         25    2    1    2    0    0  0.00000000000E+00  0.00000000000E+00  0.36407886810E+03  0.38494104876E+03  0.12500475520E+03 0.  0.
          4    1    3    3  501    0 -0.18557046146E+02 -0.41239253527E+02  0.31481544509E+03  0.31805063584E+03  0.15500000000E+01 0. -1.
         -4    1    3    3    0  501  0.18557046146E+02  0.41239253527E+02  0.49263423010E+02  0.66890412915E+02  0.15500000000E+01 0. -1.
<mgrwt>
<rscale>  2 0.12500476E+03</rscale>
<asrwt>0</asrwt>
<pdfrwt beam="1">  1       21 0.57616906E-01 0.12500476E+03</pdfrwt>
<pdfrwt beam="2">  1       21 0.16047834E-02 0.12500476E+03</pdfrwt>
<totfact> 0.49050671E+06</totfact>
</mgrwt>
</event>
<event>
 5    0  0.1222151E+000  0.1250015E+03  0.7546771E-02  0.1235067E+00
         21   -1    0    0  503  502  0.00000000000E+00  0.00000000000E+00  0.12190007132E+04  0.12190007132E+04  0.00000000000E+00 0. -1.
         21   -1    0    0  502  503 -0.00000000000E+00 -0.00000000000E+00 -0.32045461032E+01  0.32045461032E+01  0.00000000000E+00 0. -1.
         25    2    1    2    0    0  0.00000000000E+00  0.00000000000E+00  0.12157961671E+04  0.12222052593E+04  0.12500150375E+03 0.  0.
          4    1    3    3  501    0  0.33751059146E+02 -0.52007829616E+02  0.53216602795E+03  0.53576770352E+03  0.15500000000E+01 0.  1.
         -4    1    3    3    0  501 -0.33751059146E+02  0.52007829616E+02  0.68363013912E+03  0.68643755575E+03  0.15500000000E+01 0.  1.
<mgrwt>
<rscale>  2 0.12500150E+03</rscale>
<asrwt>0</asrwt>
<pdfrwt beam="1">  1       21 0.18753820E+00 0.12500150E+03</pdfrwt>
<pdfrwt beam="2">  1       21 0.49300806E-03 0.12500150E+03</pdfrwt>
<totfact> 0.18705762E+06</totfact>
</mgrwt>
</event>
<event>
 5    0  0.1222151E+000  0.1250026E+03  0.7546771E-02  0.1235065E+00
         21   -1    0    0  503  502  0.00000000000E+00  0.00000000000E+00  0.16018190636E+04  0.16018190636E+04  0.00000000000E+00 0.  1.
         21   -1    0    0  502  503 -0.00000000000E+00 -0.00000000000E+00 -0.24387367190E+01  0.24387367190E+01  0.00000000000E+00 0.  1.
         25    2    1    2    0    0  0.00000000000E+00  0.00000000000E+00  0.15993803269E+04  0.16042578003E+04  0.12500263945E+03 0.  0.
          4    1    3    3  501    0  0.17091658198E+02  0.22539267599E+02  0.84689120531E+02  0.89301696513E+02  0.15500000000E+01 0. -1.
         -4    1    3    3    0  501 -0.17091658198E+02 -0.22539267599E+02  0.15146912063E+04  0.15149561038E+04  0.15500000000E+01 0. -1.
<mgrwt>
<rscale>  2 0.12500264E+03</rscale>
<asrwt>0</asrwt>
<pdfrwt beam="1">  1       21 0.24643286E+00 0.12500264E+03</pdfrwt>
<pdfrwt beam="2">  1       21 0.37519154E-03 0.12500264E+03</pdfrwt>
<totfact> 0.12515295E+06</totfact>
</mgrwt>
</event>
<event>
 5    0  0.1478866E+000  0.1250306E+03  0.7546771E-02  0.1235022E+00
         21   -1    0    0  503  502  0.00000000000E+00  0.00000000000E+00  0.28190040801E+02  0.28190040801E+02  0.00000000000E+00 0.  1.
         21   -1    0    0  502  503 -0.00000000000E+00 -0.00000000000E+00 -0.13863621034E+03  0.13863621034E+03  0.00000000000E+00 0.  1.
         25    2    1    2    0    0  0.00000000000E+00  0.00000000000E+00 -0.11044616954E+03  0.16682625114E+03  0.12503056308E+03 0.  0.
          4    1    3    3  501    0  0.20610971848E+02  0.26847680174E+02 -0.12532249682E+03  0.12982195809E+03  0.15500000000E+01 0. -1.
         -4    1    3    3    0  501 -0.20610971848E+02 -0.26847680174E+02  0.14876327282E+02  0.37004293057E+02  0.15500000000E+01 0. -1.
<mgrwt>
<rscale>  2 0.12503056E+03</rscale>
<asrwt>0</asrwt>
<pdfrwt beam="1">  1       21 0.43369294E-02 0.12503056E+03</pdfrwt>
<pdfrwt beam="2">  1       21 0.21328648E-01 0.12503056E+03</pdfrwt>
<totfact> 0.68641557E+06</totfact>
</mgrwt>
</event>
<event>
 5    0  0.1222151E+000  0.1249934E+03  0.7546771E-02  0.1235080E+00
         21   -1    0    0  503  502  0.00000000000E+00  0.00000000000E+00  0.27195451886E+01  0.27195451886E+01  0.00000000000E+00 0. -1.
         21   -1    0    0  502  503 -0.00000000000E+00 -0.00000000000E+00 -0.14362102650E+04  0.14362102650E+04  0.00000000000E+00 0. -1.
         25    2    1    2    0    0  0.00000000000E+00  0.00000000000E+00 -0.14334907198E+04  0.14389298102E+04  0.12499341928E+03 0.  0.
          4    1    3    3  501    0 -0.47291921013E+02  0.38166629226E+02 -0.54983308539E+03  0.55318355151E+03  0.15500000000E+01 0. -1.
         -4    1    3    3    0  501  0.47291921013E+02 -0.38166629226E+02 -0.88365763446E+03  0.88574625871E+03  0.15500000000E+01 0. -1.
<mgrwt>
<rscale>  2 0.12499342E+03</rscale>
<asrwt>0</asrwt>
<pdfrwt beam="1">  1       21 0.41839131E-03 0.12499342E+03</pdfrwt>
<pdfrwt beam="2">  1       21 0.22095556E+00 0.12499342E+03</pdfrwt>
<totfact> 0.14925588E+06</totfact>
</mgrwt>
</event>
<event>
 5    0  0.1308197E+000  0.1249862E+03  0.7546771E-02  0.1235091E+00
         21   -1    0    0  503  502  0.00000000000E+00  0.00000000000E+00  0.76828821331E+01  0.76828821331E+01  0.00000000000E+00 0. -1.
         21   -1    0    0  502  503 -0.00000000000E+00 -0.00000000000E+00 -0.50832339040E+03  0.50832339040E+03  0.00000000000E+00 0. -1.
         25    2    1    2    0    0  0.00000000000E+00  0.00000000000E+00 -0.50064050827E+03  0.51600627254E+03  0.12498621834E+03 0.  0.
          4    1    3    3  501    0  0.61402034501E+02  0.38441410619E+01 -0.20547340948E+03  0.21449175221E+03  0.15500000000E+01 0. -1.
         -4    1    3    3    0  501 -0.61402034501E+02 -0.38441410619E+01 -0.29516709879E+03  0.30151452033E+03  0.15500000000E+01 0. -1.
<mgrwt>
<rscale>  2 0.12498622E+03</rscale>
<asrwt>0</asrwt>
<pdfrwt beam="1">  1       21 0.11819815E-02 0.12498622E+03</pdfrwt>
<pdfrwt beam="2">  1       21 0.78203625E-01 0.12498622E+03</pdfrwt>
<totfact> 0.41203231E+06</totfact>
</mgrwt>
</event>
<event>
 5    0  0.1527424E+000  0.1249991E+03  0.7546771E-02  0.1235071E+00
         21   -1    0    0  503  502  0.00000000000E+00  0.00000000000E+00  0.67172630210E+02  0.67172630210E+02  0.00000000000E+00 0.  1.
         21   -1    0    0  502  503 -0.00000000000E+00 -0.00000000000E+00 -0.58151527848E+02  0.58151527848E+02  0.00000000000E+00 0.  1.
         25    2    1    2    0    0  0.00000000000E+00  0.00000000000E+00  0.90211023617E+01  0.12532415806E+03  0.12499905722E+03 0.  0.
          4    1    3    3  501    0 -0.50856447401E+02  0.18314354834E+01 -0.31833641349E+02  0.60045945906E+02  0.15500000000E+01 0. -1.
         -4    1    3    3    0  501  0.50856447401E+02 -0.18314354834E+01  0.40854743711E+02  0.65278212153E+02  0.15500000000E+01 0. -1.
<mgrwt>
<rscale>  2 0.12499906E+03</rscale>
<asrwt>0</asrwt>
<pdfrwt beam="1">  1       21 0.10334251E-01 0.12499906E+03</pdfrwt>
<pdfrwt beam="2">  1       21 0.89463889E-02 0.12499906E+03</pdfrwt>
<totfact> 0.74001594E+06</totfact>
</mgrwt>
</event>
<event>
 5    0  0.1445222E+000  0.1250008E+03  0.7546771E-02  0.1235068E+00
         21   -1    0    0  503  502  0.00000000000E+00  0.00000000000E+00  0.40920669252E+03  0.40920669252E+03  0.00000000000E+00 0.  1.
         21   -1    0    0  502  503 -0.00000000000E+00 -0.00000000000E+00 -0.95460246635E+01  0.95460246635E+01  0.00000000000E+00 0.  1.
         25    2    1    2    0    0  0.00000000000E+00  0.00000000000E+00  0.39966066786E+03  0.41875271719E+03  0.12500075487E+03 0.  0.
          4    1    3    3  501    0  0.49762692292E+02 -0.36766656267E+02  0.22899307781E+03  0.23720949547E+03  0.15500000000E+01 0. -1.
         -4    1    3    3    0  501 -0.49762692292E+02  0.36766656267E+02  0.17066759005E+03  0.18154322172E+03  0.15500000000E+01 0. -1.
<mgrwt>
<rscale>  2 0.12500075E+03</rscale>
<asrwt>0</asrwt>
<pdfrwt beam="1">  1       21 0.62954862E-01 0.12500075E+03</pdfrwt>
<pdfrwt beam="2">  1       21 0.14686195E-02 0.12500075E+03</pdfrwt>
<totfact> 0.46821002E+06</totfact>
</mgrwt>
</event>
<event>
 5    0  0.1561236E+000  0.1249998E+03  0.7546771E-02  0.1235070E+00
         21   -1    0    0  503  502  0.00000000000E+00  0.00000000000E+00  0.14623699881E+03  0.14623699881E+03  0.00000000000E+00 0.  1.
         21   -1    0    0  502  503 -0.00000000000E+00 -0.00000000000E+00 -0.26711698342E+02  0.26711698342E+02  0.00000000000E+00 0.  1.
         25    2    1    2    0    0  0.00000000000E+00  0.00000000000E+00  0.11952530047E+03  0.17294869715E+03  0.12499981758E+03 0.  0.
          4    1    3    3  501    0  0.15843587324E+02 -0.44846645196E+02  0.11582108397E+03  0.12521647990E+03  0.15500000000E+01 0. -1.
         -4    1    3    3    0  501 -0.15843587324E+02  0.44846645196E+02  0.37042164985E+01  0.47732217260E+02  0.15500000000E+01 0. -1.
<mgrwt>
<rscale>  2 0.12499982E+03</rscale>
<asrwt>0</asrwt>
<pdfrwt beam="1">  1       21 0.22497999E-01 0.12499982E+03</pdfrwt>
<pdfrwt beam="2">  1       21 0.41094921E-02 0.12499982E+03</pdfrwt>
<totfact> 0.67970107E+06</totfact>
</mgrwt>
</event>
<event>
 5    0  0.1488919E+000  0.1250011E+03  0.7546771E-02  0.1235067E+00
         21   -1    0    0  503  502  0.00000000000E+00  0.00000000000E+00  0.26893066689E+02  0.26893066689E+02  0.00000000000E+00 0.  1.
         21   -1    0    0  502  503 -0.00000000000E+00 -0.00000000000E+00 -0.14525386390E+03  0.14525386390E+03  0.00000000000E+00 0.  1.
         25    2    1    2    0    0  0.00000000000E+00  0.00000000000E+00 -0.11836079721E+03  0.17214693059E+03  0.12500114957E+03 0.  0.
          4    1    3    3  501    0  0.20714038086E+02 -0.39238892087E+02  0.14015747121E+01  0.44419916003E+02  0.15500000000E+01 0.  1.
         -4    1    3    3    0  501 -0.20714038086E+02  0.39238892087E+02 -0.11976237192E+03  0.12772701458E+03  0.15500000000E+01 0.  1.
<mgrwt>
<rscale>  2 0.12500115E+03</rscale>
<asrwt>0</asrwt>
<pdfrwt beam="1">  1       21 0.41373949E-02 0.12500115E+03</pdfrwt>
<pdfrwt beam="2">  1       21 0.22346748E-01 0.12500115E+03</pdfrwt>
<totfact> 0.68062050E+06</totfact>
</mgrwt>
</event>
<event>
 5    0  0.1590137E+000  0.1249967E+03  0.7546771E-02  0.1235074E+00
         21   -1    0    0  503  502  0.00000000000E+00  0.00000000000E+00  0.87040445217E+02  0.87040445217E+02  0.00000000000E+00 0. -1.
         21   -1    0    0  502  503 -0.00000000000E+00 -0.00000000000E+00 -0.44876216139E+02  0.44876216139E+02  0.00000000000E+00 0. -1.
         25    2    1    2    0    0  0.00000000000E+00  0.00000000000E+00  0.42164229077E+02  0.13191666136E+03  0.12499673328E+03 0.  0.
          4    1    3    3  501    0 -0.52994162712E+02  0.25110180378E+02 -0.16691967161E+01  0.58686379662E+02  0.15500000000E+01 0.  1.
         -4    1    3    3    0  501  0.52994162712E+02 -0.25110180378E+02  0.43833425793E+02  0.73230281694E+02  0.15500000000E+01 0.  1.
<mgrwt>
<rscale>  2 0.12499673E+03</rscale>
<asrwt>0</asrwt>
<pdfrwt beam="1">  1       21 0.13390838E-01 0.12499673E+03</pdfrwt>
<pdfrwt beam="2">  1       21 0.69040333E-02 0.12499673E+03</pdfrwt>
<totfact> 0.73113502E+06</totfact>
</mgrwt>
</event>
<event>
 5    0  0.1585741E+000  0.1250010E+03  0.7546771E-02  0.1235068E+00
         21   -1    0    0  503  502  0.00000000000E+00  0.00000000000E+00  0.21740097837E+03  0.21740097837E+03  0.00000000000E+00 0. -1.
         21   -1    0    0  502  503 -0.00000000000E+00 -0.00000000000E+00 -0.17968237396E+02  0.17968237396E+02  0.00000000000E+00 0. -1.
         25    2    1    2    0    0  0.00000000000E+00  0.00000000000E+00  0.19943274097E+03  0.23536921576E+03  0.12500099823E+03 0.  0.
          4    1    3    3  501    0  0.50551079663E+02 -0.24372481859E+02  0.47996175998E+02  0.73861119255E+02  0.15500000000E+01 0.  1.
         -4    1    3    3    0  501 -0.50551079663E+02  0.24372481859E+02  0.15143656497E+03  0.16150809651E+03  0.15500000000E+01 0.  1.
<mgrwt>
<rscale>  2 0.12500100E+03</rscale>
<asrwt>0</asrwt>
<pdfrwt beam="1">  1       21 0.33446303E-01 0.12500100E+03</pdfrwt>
<pdfrwt beam="2">  1       21 0.27643444E-02 0.12500100E+03</pdfrwt>
<totfact> 0.61282130E+06</totfact>
</mgrwt>
</event>
<event>
 5    0  0.1721993E+000  0.1249974E+03  0.7546771E-02  0.1235073E+00
         21   -1    0    0  503  502  0.00000000000E+00  0.00000000000E+00  0.42351719607E+02  0.42351719607E+02  0.00000000000E+00 0.  1.
         21   -1    0    0  502  503 -0.00000000000E+00 -0.00000000000E+00 -0.92229717798E+02  0.92229717798E+02  0.00000000000E+00 0.  1.
         25    2    1    2    0    0  0.00000000000E+00  0.00000000000E+00 -0.49877998191E+02  0.13458143740E+03  0.12499739433E+03 0.  0.
          4    1    3    3  501    0 -0.10969617699E+02  0.60303868576E+02 -0.11894101406E+02  0.62456074372E+02  0.15500000000E+01 0. -1.
         -4    1    3    3    0  501  0.10969617699E+02 -0.60303868576E+02 -0.37983896784E+02  0.72125363033E+02  0.15500000000E+01 0. -1.
<mgrwt>
<rscale>  2 0.12499739E+03</rscale>
<asrwt>0</asrwt>
<pdfrwt beam="1">  1       21 0.65156493E-02 0.12499739E+03</pdfrwt>
<pdfrwt beam="2">  1       21 0.14189187E-01 0.12499739E+03</pdfrwt>
<totfact> 0.72756775E+06</totfact>
</mgrwt>
</event>
<event>
 5    0  0.1546174E+000  0.1250036E+03  0.7546771E-02  0.1235064E+00
         21   -1    0    0  503  502  0.00000000000E+00  0.00000000000E+00  0.15111498750E+02  0.15111498750E+02  0.00000000000E+00 0. -1.
         21   -1    0    0  502  503 -0.00000000000E+00 -0.00000000000E+00 -0.25850989037E+03  0.25850989037E+03  0.00000000000E+00 0. -1.
         25    2    1    2    0    0  0.00000000000E+00  0.00000000000E+00 -0.24339839162E+03  0.27362138912E+03  0.12500355011E+03 0.  0.
          4    1    3    3  501    0 -0.17540205637E+02  0.59102279972E+02 -0.99448522020E+02  0.11701773089E+03  0.15500000000E+01 0.  1.
         -4    1    3    3    0  501  0.17540205637E+02 -0.59102279972E+02 -0.14394986960E+03  0.15660365822E+03  0.15500000000E+01 0.  1.
<mgrwt>
<rscale>  2 0.12500355E+03</rscale>
<asrwt>0</asrwt>
<pdfrwt beam="1">  1       21 0.23248463E-02 0.12500355E+03</pdfrwt>
<pdfrwt beam="2">  1       21 0.39770747E-01 0.12500355E+03</pdfrwt>
<totfact> 0.57716989E+06</totfact>
</mgrwt>
</event>
<event>
 5    0  0.1396280E+000  0.1250016E+03  0.7546771E-02  0.1235067E+00
         21   -1    0    0  503  502  0.00000000000E+00  0.00000000000E+00  0.14915430580E+02  0.14915430580E+02  0.00000000000E+00 0.  1.
         21   -1    0    0  502  503 -0.00000000000E+00 -0.00000000000E+00 -0.26190004733E+03  0.26190004733E+03  0.00000000000E+00 0.  1.
         25    2    1    2    0    0  0.00000000000E+00  0.00000000000E+00 -0.24698461675E+03  0.27681547791E+03  0.12500163159E+03 0.  0.
          4    1    3    3  501    0  0.61799791466E+02  0.80840890016E+01 -0.13324181046E+03  0.14710659154E+03  0.15500000000E+01 0. -1.
         -4    1    3    3    0  501 -0.61799791466E+02 -0.80840890016E+01 -0.11374280629E+03  0.12970888637E+03  0.15500000000E+01 0. -1.
<mgrwt>
<rscale>  2 0.12500163E+03</rscale>
<asrwt>0</asrwt>
<pdfrwt beam="1">  1       21 0.22946814E-02 0.12500163E+03</pdfrwt>
<pdfrwt beam="2">  1       21 0.40292319E-01 0.12500163E+03</pdfrwt>
<totfact> 0.57437306E+06</totfact>
</mgrwt>
</event>
<event>
 5    0  0.1228172E+000  0.1249980E+03  0.7546771E-02  0.1235072E+00
         21   -1    0    0  503  502  0.00000000000E+00  0.00000000000E+00  0.75343661872E+03  0.75343661872E+03  0.00000000000E+00 0.  1.
         21   -1    0    0  502  503 -0.00000000000E+00 -0.00000000000E+00 -0.51844105010E+01  0.51844105010E+01  0.00000000000E+00 0.  1.
         25    2    1    2    0    0  0.00000000000E+00  0.00000000000E+00  0.74825220822E+03  0.75862102922E+03  0.12499799547E+03 0.  0.
          4    1    3    3  501    0 -0.13549196142E+02  0.45871308304E+02  0.61809684607E+03  0.61994666808E+03  0.15500000000E+01 0. -1.
         -4    1    3    3    0  501  0.13549196142E+02 -0.45871308304E+02  0.13015536214E+03  0.13867436113E+03  0.15500000000E+01 0. -1.
<mgrwt>
<rscale>  2 0.12499800E+03</rscale>
<asrwt>0</asrwt>
<pdfrwt beam="1">  1       21 0.11591324E+00 0.12499800E+03</pdfrwt>
<pdfrwt beam="2">  1       21 0.79760222E-03 0.12499800E+03</pdfrwt>
<totfact> 0.30769491E+06</totfact>
</mgrwt>
</event>
<event>
 5    0  0.1259083E+000  0.1250016E+03  0.7546771E-02  0.1235067E+00
         21   -1    0    0  503  502  0.00000000000E+00  0.00000000000E+00  0.46551786215E+03  0.46551786215E+03  0.00000000000E+00 0. -1.
         21   -1    0    0  502  503 -0.00000000000E+00 -0.00000000000E+00 -0.83914026436E+01  0.83914026436E+01  0.00000000000E+00 0. -1.
         25    2    1    2    0    0  0.00000000000E+00  0.00000000000E+00  0.45712645950E+03  0.47390926479E+03  0.12500156510E+03 0.  0.
          4    1    3    3  501    0  0.57111060143E+02  0.29028153090E+01  0.13311419209E+03  0.14488578317E+03  0.15500000000E+01 0. -1.
         -4    1    3    3    0  501 -0.57111060143E+02 -0.29028153090E+01  0.32401226741E+03  0.32902348162E+03  0.15500000000E+01 0. -1.
<mgrwt>
<rscale>  2 0.12500157E+03</rscale>
<asrwt>0</asrwt>
<pdfrwt beam="1">  1       21 0.71618112E-01 0.12500157E+03</pdfrwt>
<pdfrwt beam="2">  1       21 0.12909854E-02 0.12500157E+03</pdfrwt>
<totfact> 0.43493628E+06</totfact>
</mgrwt>
</event>
<event>
 5    0  0.1330821E+000  0.1249952E+03  0.7546771E-02  0.1235077E+00
         21   -1    0    0  503  502  0.00000000000E+00  0.00000000000E+00  0.33337395271E+03  0.33337395271E+03  0.00000000000E+00 0.  1.
         21   -1    0    0  502  503 -0.00000000000E+00 -0.00000000000E+00 -0.11716429503E+02  0.11716429503E+02  0.00000000000E+00 0.  1.
         25    2    1    2    0    0  0.00000000000E+00  0.00000000000E+00  0.32165752321E+03  0.34509038221E+03  0.12499523855E+03 0.  0.
          4    1    3    3  501    0 -0.24676089918E+01 -0.28364152450E+02  0.72875971832E+01  0.29430015478E+02  0.15500000000E+01 0.  1.
         -4    1    3    3    0  501  0.24676089918E+01  0.28364152450E+02  0.31436992602E+03  0.31566036673E+03  0.15500000000E+01 0.  1.
<mgrwt>
<rscale>  2 0.12499524E+03</rscale>
<asrwt>0</asrwt>
<pdfrwt beam="1">  1       21 0.51288293E-01 0.12499524E+03</pdfrwt>
<pdfrwt beam="2">  1       21 0.18025279E-02 0.12499524E+03</pdfrwt>
<totfact> 0.51909273E+06</totfact>
</mgrwt>
</event>
<event>
 5    0  0.1477120E+000  0.1250075E+03  0.7546771E-02  0.1235057E+00
         21   -1    0    0  503  502  0.00000000000E+00  0.00000000000E+00  0.19230522386E+02  0.19230522386E+02  0.00000000000E+00 0. -1.
         21   -1    0    0  502  503 -0.00000000000E+00 -0.00000000000E+00 -0.20315213436E+03  0.20315213436E+03  0.00000000000E+00 0. -1.
         25    2    1    2    0    0  0.00000000000E+00  0.00000000000E+00 -0.18392161197E+03  0.22238265674E+03  0.12500754645E+03 0.  0.
          4    1    3    3  501    0 -0.73235632338E+01 -0.50355504240E+02 -0.15647107374E+03  0.16454455568E+03  0.15500000000E+01 0.  1.
         -4    1    3    3    0  501  0.73235632338E+01  0.50355504240E+02 -0.27450538232E+02  0.57838101066E+02  0.15500000000E+01 0.  1.
<mgrwt>
<rscale>  2 0.12500755E+03</rscale>
<asrwt>0</asrwt>
<pdfrwt beam="1">  1       21 0.29585420E-02 0.12500755E+03</pdfrwt>
<pdfrwt beam="2">  1       21 0.31254173E-01 0.12500755E+03</pdfrwt>
<totfact> 0.62567892E+06</totfact>
</mgrwt>
</event>
<event>
 5    0  0.1406312E+000  0.1249804E+03  0.7546771E-02  0.1235100E+00
         21   -1    0    0  503  502  0.00000000000E+00  0.00000000000E+00  0.27751764926E+03  0.27751764926E+03  0.00000000000E+00 0.  1.
         21   -1    0    0  502  503 -0.00000000000E+00 -0.00000000000E+00 -0.14071264577E+02  0.14071264577E+02  0.00000000000E+00 0.  1.
         25    2    1    2    0    0  0.00000000000E+00  0.00000000000E+00  0.26344638469E+03  0.29158891384E+03  0.12498038674E+03 0.  0.
          4    1    3    3  501    0 -0.45029392434E+02 -0.70493833584E+01  0.23139999604E+03  0.23585101368E+03  0.15500000000E+01 0.  1.
         -4    1    3    3    0  501  0.45029392434E+02  0.70493833584E+01  0.32046388650E+02  0.55737900160E+02  0.15500000000E+01 0.  1.
<mgrwt>
<rscale>  2 0.12498039E+03</rscale>
<asrwt>0</asrwt>
<pdfrwt beam="1">  1       21 0.42695019E-01 0.12498039E+03</pdfrwt>
<pdfrwt beam="2">  1       21 0.21648101E-02 0.12498039E+03</pdfrwt>
<totfact> 0.56190193E+06</totfact>
</mgrwt>
</event>
<event>
 5    0  0.1222151E+000  0.1250501E+03  0.7546771E-02  0.1234991E+00
         21   -1    0    0  503  502  0.00000000000E+00  0.00000000000E+00  0.43066718781E+01  0.43066718781E+01  0.00000000000E+00 0. -1.
         21   -1    0    0  502  503 -0.00000000000E+00 -0.00000000000E+00 -0.90775018591E+03  0.90775018591E+03  0.00000000000E+00 0. -1.
         25    2    1    2    0    0  0.00000000000E+00  0.00000000000E+00 -0.90344351403E+03  0.91205685779E+03  0.12505010513E+03 0.  0.
          4    1    3    3  501    0  0.45434671866E+02  0.39523922635E+01 -0.76347640411E+03  0.76483890653E+03  0.15500000000E+01 0. -1.
         -4    1    3    3    0  501 -0.45434671866E+02 -0.39523922635E+01 -0.13996710992E+03  0.14721795126E+03  0.15500000000E+01 0. -1.
<mgrwt>
<rscale>  2 0.12505011E+03</rscale>
<asrwt>0</asrwt>
<pdfrwt beam="1">  1       21 0.66256485E-03 0.12505011E+03</pdfrwt>
<pdfrwt beam="2">  1       21 0.13965389E+00 0.12505011E+03</pdfrwt>
<totfact> 0.25923236E+06</totfact>
</mgrwt>
</event>
<event>
 5    0  0.1262907E+000  0.1250285E+03  0.7546771E-02  0.1235025E+00
         21   -1    0    0  503  502  0.00000000000E+00  0.00000000000E+00  0.11227575645E+02  0.11227575645E+02  0.00000000000E+00 0.  1.
         21   -1    0    0  502  503 -0.00000000000E+00 -0.00000000000E+00 -0.34807437680E+03  0.34807437680E+03  0.00000000000E+00 0.  1.
         25    2    1    2    0    0  0.00000000000E+00  0.00000000000E+00 -0.33684680116E+03  0.35930195245E+03  0.12502849908E+03 0.  0.
          4    1    3    3  501    0  0.32247419242E+02 -0.87126840870E+01 -0.16634922815E+02  0.37348762615E+02  0.15500000000E+01 0.  1.
         -4    1    3    3    0  501 -0.32247419242E+02  0.87126840870E+01 -0.32021187834E+03  0.32195318983E+03  0.15500000000E+01 0.  1.
<mgrwt>
<rscale>  2 0.12502850E+03</rscale>
<asrwt>0</asrwt>
<pdfrwt beam="1">  1       21 0.17273192E-02 0.12502850E+03</pdfrwt>
<pdfrwt beam="2">  1       21 0.53549909E-01 0.12502850E+03</pdfrwt>
<totfact> 0.50822430E+06</totfact>
</mgrwt>
</event>
<event>
 5    0  0.1588928E+000  0.1250030E+03  0.7546771E-02  0.1235065E+00
         21   -1    0    0  503  502  0.00000000000E+00  0.00000000000E+00  0.37454596106E+02  0.37454596106E+02  0.00000000000E+00 0. -1.
         21   -1    0    0  502  503 -0.00000000000E+00 -0.00000000000E+00 -0.10429787524E+03  0.10429787524E+03  0.00000000000E+00 0. -1.
         25    2    1    2    0    0  0.00000000000E+00  0.00000000000E+00 -0.66843279135E+02  0.14175247135E+03  0.12500295663E+03 0.  0.
          4    1    3    3  501    0  0.57983167415E+02  0.17131725689E+02 -0.15545919031E+02  0.62446952104E+02  0.15500000000E+01 0. -1.
         -4    1    3    3    0  501 -0.57983167415E+02 -0.17131725689E+02 -0.51297360104E+02  0.79305519242E+02  0.15500000000E+01 0. -1.
<mgrwt>
<rscale>  2 0.12500296E+03</rscale>
<asrwt>0</asrwt>
<pdfrwt beam="1">  1       21 0.57622456E-02 0.12500296E+03</pdfrwt>
<pdfrwt beam="2">  1       21 0.16045827E-01 0.12500296E+03</pdfrwt>
<totfact> 0.71805937E+06</totfact>
</mgrwt>
</event>
<event>
 5    0  0.1483180E+000  0.1250036E+03  0.7546771E-02  0.1235064E+00
         21   -1    0    0  503  502  0.00000000000E+00  0.00000000000E+00  0.91431990028E+02  0.91431990028E+02  0.00000000000E+00 0. -1.
         21   -1    0    0  502  503 -0.00000000000E+00 -0.00000000000E+00 -0.42725471401E+02  0.42725471401E+02  0.00000000000E+00 0. -1.
         25    2    1    2    0    0  0.00000000000E+00  0.00000000000E+00  0.48706518628E+02  0.13415746143E+03  0.12500359795E+03 0.  0.
          4    1    3    3  501    0 -0.29024600852E+02 -0.27749114092E+02  0.75729783392E+02  0.85731227567E+02  0.15500000000E+01 0. -1.
         -4    1    3    3    0  501  0.29024600852E+02  0.27749114092E+02 -0.27023264764E+02  0.48426233862E+02  0.15500000000E+01 0. -1.
<mgrwt>
<rscale>  2 0.12500360E+03</rscale>
<asrwt>0</asrwt>
<pdfrwt beam="1">  1       21 0.14066460E-01 0.12500360E+03</pdfrwt>
<pdfrwt beam="2">  1       21 0.65731495E-02 0.12500360E+03</pdfrwt>
<totfact> 0.72801543E+06</totfact>
</mgrwt>
</event>
<event>
 5    0  0.1566542E+000  0.1250053E+03  0.7546771E-02  0.1235061E+00
         21   -1    0    0  503  502  0.00000000000E+00  0.00000000000E+00  0.62715883172E+02  0.62715883172E+02  0.00000000000E+00 0.  1.
         21   -1    0    0  502  503 -0.00000000000E+00 -0.00000000000E+00 -0.62290128713E+02  0.62290128713E+02  0.00000000000E+00 0.  1.
         25    2    1    2    0    0  0.00000000000E+00  0.00000000000E+00  0.42575445920E+00  0.12500601188E+03  0.12500528685E+03 0.  0.
          4    1    3    3  501    0 -0.55664439512E+02 -0.26468566546E+02  0.10462965651E+02  0.62537916430E+02  0.15500000000E+01 0. -1.
         -4    1    3    3    0  501  0.55664439512E+02  0.26468566546E+02 -0.10037211192E+02  0.62468095455E+02  0.15500000000E+01 0. -1.
<mgrwt>
<rscale>  2 0.12500529E+03</rscale>
<asrwt>0</asrwt>
<pdfrwt beam="1">  1       21 0.96485974E-02 0.12500529E+03</pdfrwt>
<pdfrwt beam="2">  1       21 0.95830967E-02 0.12500529E+03</pdfrwt>
<totfact> 0.74032762E+06</totfact>
</mgrwt>
</event>
<event>
 5    0  0.1403413E+000  0.1250000E+03  0.7546771E-02  0.1235069E+00
         21   -1    0    0  503  502  0.00000000000E+00  0.00000000000E+00  0.16380991130E+02  0.16380991130E+02  0.00000000000E+00 0.  1.
         21   -1    0    0  502  503 -0.00000000000E+00 -0.00000000000E+00 -0.23846236261E+03  0.23846236261E+03  0.00000000000E+00 0.  1.
         25    2    1    2    0    0  0.00000000000E+00  0.00000000000E+00 -0.22208137148E+03  0.25484335374E+03  0.12499999755E+03 0.  0.
          4    1    3    3  501    0  0.45355166533E+01 -0.39721192118E+02 -0.20893245647E+03  0.21272874249E+03  0.15500000000E+01 0.  1.
         -4    1    3    3    0  501 -0.45355166533E+01  0.39721192118E+02 -0.13148915007E+02  0.42114611247E+02  0.15500000000E+01 0.  1.
<mgrwt>
<rscale>  2 0.12500000E+03</rscale>
<asrwt>0</asrwt>
<pdfrwt beam="1">  1       21 0.25201527E-02 0.12500000E+03</pdfrwt>
<pdfrwt beam="2">  1       21 0.36686515E-01 0.12500000E+03</pdfrwt>
<totfact> 0.59425173E+06</totfact>
</mgrwt>
</event>
<event>
 5    0  0.1438508E+000  0.1249940E+03  0.7546771E-02  0.1235079E+00
         21   -1    0    0  503  502  0.00000000000E+00  0.00000000000E+00  0.10682697737E+02  0.10682697737E+02  0.00000000000E+00 0.  1.
         21   -1    0    0  502  503 -0.00000000000E+00 -0.00000000000E+00 -0.36562630092E+03  0.36562630092E+03  0.00000000000E+00 0.  1.
         25    2    1    2    0    0  0.00000000000E+00  0.00000000000E+00 -0.35494360319E+03  0.37630899866E+03  0.12499400398E+03 0.  0.
          4    1    3    3  501    0  0.21362316593E+02 -0.58711597531E+02 -0.17828245032E+03  0.18891912251E+03  0.15500000000E+01 0. -1.
         -4    1    3    3    0  501 -0.21362316593E+02  0.58711597531E+02 -0.17666115286E+03  0.18738987615E+03  0.15500000000E+01 0. -1.
<mgrwt>
<rscale>  2 0.12499400E+03</rscale>
<asrwt>0</asrwt>
<pdfrwt beam="1">  1       21 0.16434921E-02 0.12499400E+03</pdfrwt>
<pdfrwt beam="2">  1       21 0.56250194E-01 0.12499400E+03</pdfrwt>
<totfact> 0.49659670E+06</totfact>
</mgrwt>
</event>
<event>
 5    0  0.1499223E+000  0.1250068E+03  0.7546771E-02  0.1235059E+00
         21   -1    0    0  503  502  0.00000000000E+00  0.00000000000E+00  0.22138617891E+02  0.22138617891E+02  0.00000000000E+00 0. -1.
         21   -1    0    0  502  503 -0.00000000000E+00 -0.00000000000E+00 -0.17646420967E+03  0.17646420967E+03  0.00000000000E+00 0. -1.
         25    2    1    2    0    0  0.00000000000E+00  0.00000000000E+00 -0.15432559178E+03  0.19860282756E+03  0.12500677917E+03 0.  0.
          4    1    3    3  501    0 -0.27864173515E+02 -0.55277641959E+02 -0.90666246732E+02  0.10979435624E+03  0.15500000000E+01 0. -1.
         -4    1    3    3    0  501  0.27864173515E+02  0.55277641959E+02 -0.63659345049E+02  0.88808471320E+02  0.15500000000E+01 0. -1.
<mgrwt>
<rscale>  2 0.12500678E+03</rscale>
<asrwt>0</asrwt>
<pdfrwt beam="1">  1       21 0.34059411E-02 0.12500678E+03</pdfrwt>
<pdfrwt beam="2">  1       21 0.27148341E-01 0.12500678E+03</pdfrwt>
<totfact> 0.65067674E+06</totfact>
</mgrwt>
</event>
<event>
 5    0  0.1222151E+000  0.1249979E+03  0.7546771E-02  0.1235073E+00
         21   -1    0    0  503  502  0.00000000000E+00  0.00000000000E+00  0.27990740919E+01  0.27990740919E+01  0.00000000000E+00 0.  1.
         21   -1    0    0  502  503 -0.00000000000E+00 -0.00000000000E+00 -0.13955039405E+04  0.13955039405E+04  0.00000000000E+00 0.  1.
         25    2    1    2    0    0  0.00000000000E+00  0.00000000000E+00 -0.13927048664E+04  0.13983030146E+04  0.12499790278E+03 0.  0.
          4    1    3    3  501    0 -0.51411767543E+02  0.35132840505E+02 -0.75364503553E+03  0.75621473696E+03  0.15500000000E+01 0. -1.
         -4    1    3    3    0  501  0.51411767543E+02 -0.35132840505E+02 -0.63905983085E+03  0.64208827760E+03  0.15500000000E+01 0. -1.
<mgrwt>
<rscale>  2 0.12499790E+03</rscale>
<asrwt>0</asrwt>
<pdfrwt beam="1">  1       21 0.43062687E-03 0.12499790E+03</pdfrwt>
<pdfrwt beam="2">  1       21 0.21469287E+00 0.12499790E+03</pdfrwt>
<totfact> 0.15573234E+06</totfact>
</mgrwt>
</event>
<event>
 5    0  0.1222151E+000  0.1250076E+03  0.7546771E-02  0.1235057E+00
         21   -1    0    0  503  502  0.00000000000E+00  0.00000000000E+00  0.89330793042E+03  0.89330793042E+03  0.00000000000E+00 0.  1.
         21   -1    0    0  502  503 -0.00000000000E+00 -0.00000000000E+00 -0.43733220709E+01  0.43733220709E+01  0.00000000000E+00 0.  1.
         25    2    1    2    0    0  0.00000000000E+00  0.00000000000E+00  0.88893460835E+03  0.89768125249E+03  0.12500757238E+03 0.  0.
          4    1    3    3  501    0  0.18958139924E+02 -0.56697398924E+02  0.57497910064E+03  0.57808076840E+03  0.15500000000E+01 0. -1.
         -4    1    3    3    0  501 -0.18958139924E+02  0.56697398924E+02  0.31395550770E+03  0.31960048409E+03  0.15500000000E+01 0. -1.
<mgrwt>
<rscale>  2 0.12500757E+03</rscale>
<asrwt>0</asrwt>
<pdfrwt beam="1">  1       21 0.13743184E+00 0.12500757E+03</pdfrwt>
<pdfrwt beam="2">  1       21 0.67281949E-03 0.12500757E+03</pdfrwt>
<totfact> 0.26360977E+06</totfact>
</mgrwt>
</event>
<event>
 5    0  0.1424860E+000  0.1250004E+03  0.7546771E-02  0.1235069E+00
         21   -1    0    0  503  502  0.00000000000E+00  0.00000000000E+00  0.47858341932E+02  0.47858341932E+02  0.00000000000E+00 0. -1.
         21   -1    0    0  502  503 -0.00000000000E+00 -0.00000000000E+00 -0.81621596793E+02  0.81621596793E+02  0.00000000000E+00 0. -1.
         25    2    1    2    0    0  0.00000000000E+00  0.00000000000E+00 -0.33763254861E+02  0.12947993872E+03  0.12500038861E+03 0.  0.
          4    1    3    3  501    0 -0.13890999957E+02  0.20876536279E+02  0.42397557072E+02  0.49282298977E+02  0.15500000000E+01 0.  1.
         -4    1    3    3    0  501  0.13890999957E+02 -0.20876536279E+02 -0.76160811932E+02  0.80197639747E+02  0.15500000000E+01 0.  1.
<mgrwt>
<rscale>  2 0.12500039E+03</rscale>
<asrwt>0</asrwt>
<pdfrwt beam="1">  1       21 0.73628219E-02 0.12500039E+03</pdfrwt>
<pdfrwt beam="2">  1       21 0.12557169E-01 0.12500039E+03</pdfrwt>
<totfact> 0.73433775E+06</totfact>
</mgrwt>
</event>
<event>
 5    0  0.1404369E+000  0.1249862E+03  0.7546771E-02  0.1235091E+00
         21   -1    0    0  503  502  0.00000000000E+00  0.00000000000E+00  0.48880191028E+03  0.48880191028E+03  0.00000000000E+00 0. -1.
         21   -1    0    0  502  503 -0.00000000000E+00 -0.00000000000E+00 -0.79897126492E+01  0.79897126492E+01  0.00000000000E+00 0. -1.
         25    2    1    2    0    0  0.00000000000E+00  0.00000000000E+00  0.48081219763E+03  0.49679162293E+03  0.12498618813E+03 0.  0.
          4    1    3    3  501    0 -0.42369160423E+02  0.42312755145E+02  0.31122727089E+03  0.31693900305E+03  0.15500000000E+01 0. -1.
         -4    1    3    3    0  501  0.42369160423E+02 -0.42312755145E+02  0.16958492674E+03  0.17985261989E+03  0.15500000000E+01 0. -1.
<mgrwt>
<rscale>  2 0.12498619E+03</rscale>
<asrwt>0</asrwt>
<pdfrwt beam="1">  1       21 0.75200270E-01 0.12498619E+03</pdfrwt>
<pdfrwt beam="2">  1       21 0.12291869E-02 0.12498619E+03</pdfrwt>
<totfact> 0.42233136E+06</totfact>
</mgrwt>
</event>
<event>
 5    0  0.1222151E+000  0.1250020E+03  0.7546771E-02  0.1235066E+00
         21   -1    0    0  503  502  0.00000000000E+00  0.00000000000E+00  0.18141469739E+01  0.18141469739E+01  0.00000000000E+00 0. -1.
         21   -1    0    0  502  503 -0.00000000000E+00 -0.00000000000E+00 -0.21532840997E+04  0.21532840997E+04  0.00000000000E+00 0. -1.
         25    2    1    2    0    0  0.00000000000E+00  0.00000000000E+00 -0.21514699527E+04  0.21550982467E+04  0.12500198132E+03 0.  0.
          4    1    3    3  501    0 -0.36949186518E+02 -0.18843261566E+02 -0.18813781475E+04  0.18818359246E+04  0.15500000000E+01 0. -1.
         -4    1    3    3    0  501  0.36949186518E+02  0.18843261566E+02 -0.27009180522E+03  0.27326232203E+03  0.15500000000E+01 0. -1.
<mgrwt>
<rscale>  2 0.12500198E+03</rscale>
<asrwt>0</asrwt>
<pdfrwt beam="1">  1       21 0.27909748E-03 0.12500198E+03</pdfrwt>
<pdfrwt beam="2">  1       21 0.33127691E+00 0.12500198E+03</pdfrwt>
<totfact> 0.65317657E+05</totfact>
</mgrwt>
</event>
<event>
 5    0  0.1405700E+000  0.1249989E+03  0.7546771E-02  0.1235071E+00
         21   -1    0    0  503  502  0.00000000000E+00  0.00000000000E+00  0.44378247662E+03  0.44378247662E+03  0.00000000000E+00 0. -1.
         21   -1    0    0  502  503 -0.00000000000E+00 -0.00000000000E+00 -0.88020163997E+01  0.88020163997E+01  0.00000000000E+00 0. -1.
         25    2    1    2    0    0  0.00000000000E+00  0.00000000000E+00  0.43498046022E+03  0.45258449302E+03  0.12499889019E+03 0.  0.
          4    1    3    3  501    0 -0.48558786998E+02 -0.38450789277E+02  0.18777413086E+03  0.19773200477E+03  0.15500000000E+01 0.  1.
         -4    1    3    3    0  501  0.48558786998E+02  0.38450789277E+02  0.24720632936E+03  0.25485248825E+03  0.15500000000E+01 0.  1.
<mgrwt>
<rscale>  2 0.12499889E+03</rscale>
<asrwt>0</asrwt>
<pdfrwt beam="1">  1       21 0.68274210E-01 0.12499889E+03</pdfrwt>
<pdfrwt beam="2">  1       21 0.13541567E-02 0.12499889E+03</pdfrwt>
<totfact> 0.44739266E+06</totfact>
</mgrwt>
</event>
<event>
 5    0  0.1494600E+000  0.1249859E+03  0.7546771E-02  0.1235091E+00
         21   -1    0    0  503  502  0.00000000000E+00  0.00000000000E+00  0.26088997013E+02  0.26088997013E+02  0.00000000000E+00 0.  1.
         21   -1    0    0  502  503 -0.00000000000E+00 -0.00000000000E+00 -0.14969403748E+03  0.14969403748E+03  0.00000000000E+00 0.  1.
         25    2    1    2    0    0  0.00000000000E+00  0.00000000000E+00 -0.12360504047E+03  0.17578303449E+03  0.12498587595E+03 0.  0.
          4    1    3    3  501    0 -0.51207718309E+02 -0.13427148666E+02 -0.15147283314E+02  0.55085038146E+02  0.15500000000E+01 0.  1.
         -4    1    3    3    0  501  0.51207718309E+02  0.13427148666E+02 -0.10845775715E+03  0.12069799635E+03  0.15500000000E+01 0.  1.
<mgrwt>
<rscale>  2 0.12498588E+03</rscale>
<asrwt>0</asrwt>
<pdfrwt beam="1">  1       21 0.40136919E-02 0.12498588E+03</pdfrwt>
<pdfrwt beam="2">  1       21 0.23029852E-01 0.12498588E+03</pdfrwt>
<totfact> 0.67662863E+06</totfact>
</mgrwt>
</event>
<event>
 5    0  0.1501242E+000  0.1250024E+03  0.7546771E-02  0.1235066E+00
         21   -1    0    0  503  502  0.00000000000E+00  0.00000000000E+00  0.12522837933E+02  0.12522837933E+02  0.00000000000E+00 0. -1.
         21   -1    0    0  502  503 -0.00000000000E+00 -0.00000000000E+00 -0.31194213708E+03  0.31194213708E+03  0.00000000000E+00 0. -1.
         25    2    1    2    0    0  0.00000000000E+00  0.00000000000E+00 -0.29941929915E+03  0.32446497501E+03  0.12500241321E+03 0.  0.
          4    1    3    3  501    0 -0.54834769998E+02  0.29510270729E+02 -0.16301869065E+03  0.17451419449E+03  0.15500000000E+01 0.  1.
         -4    1    3    3    0  501  0.54834769998E+02 -0.29510270729E+02 -0.13640060850E+03  0.14995078052E+03  0.15500000000E+01 0.  1.
<mgrwt>
<rscale>  2 0.12500241E+03</rscale>
<asrwt>0</asrwt>
<pdfrwt beam="1">  1       21 0.19265904E-02 0.12500241E+03</pdfrwt>
<pdfrwt beam="2">  1       21 0.47991100E-01 0.12500241E+03</pdfrwt>
<totfact> 0.53478164E+06</totfact>
</mgrwt>
</event>
<event>
 5    0  0.1410973E+000  0.1250039E+03  0.7546771E-02  0.1235063E+00
         21   -1    0    0  503  502  0.00000000000E+00  0.00000000000E+00  0.15469066258E+03  0.15469066258E+03  0.00000000000E+00 0.  1.
         21   -1    0    0  502  503 -0.00000000000E+00 -0.00000000000E+00 -0.25253598699E+02  0.25253598699E+02  0.00000000000E+00 0.  1.
         25    2    1    2    0    0  0.00000000000E+00  0.00000000000E+00  0.12943706389E+03  0.17994426128E+03  0.12500393458E+03 0.  0.
          4    1    3    3  501    0  0.21085580422E+02 -0.26271856421E+02  0.14047118584E+03  0.14446234351E+03  0.15500000000E+01 0.  1.
         -4    1    3    3    0  501 -0.21085580422E+02  0.26271856421E+02 -0.11034121954E+02  0.35481917773E+02  0.15500000000E+01 0.  1.
<mgrwt>
<rscale>  2 0.12500393E+03</rscale>
<asrwt>0</asrwt>
<pdfrwt beam="1">  1       21 0.23798563E-01 0.12500393E+03</pdfrwt>
<pdfrwt beam="2">  1       21 0.38851691E-02 0.12500393E+03</pdfrwt>
<totfact> 0.67151230E+06</totfact>
</mgrwt>
</event>
<event>
 5    0  0.1593817E+000  0.1250014E+03  0.7546771E-02  0.1235067E+00
         21   -1    0    0  503  502  0.00000000000E+00  0.00000000000E+00  0.38402254816E+02  0.38402254816E+02  0.00000000000E+00 0. -1.
         21   -1    0    0  502  503 -0.00000000000E+00 -0.00000000000E+00 -0.10172151571E+03  0.10172151571E+03  0.00000000000E+00 0. -1.
         25    2    1    2    0    0  0.00000000000E+00  0.00000000000E+00 -0.63319260898E+02  0.14012377053E+03  0.12500136906E+03 0.  0.
          4    1    3    3  501    0  0.37266650003E+02  0.42154098624E+02 -0.62115628682E+02  0.83824370322E+02  0.15500000000E+01 0.  1.
         -4    1    3    3    0  501 -0.37266650003E+02 -0.42154098624E+02 -0.12036322156E+01  0.56299400208E+02  0.15500000000E+01 0.  1.
<mgrwt>
<rscale>  2 0.12500137E+03</rscale>
<asrwt>0</asrwt>
<pdfrwt beam="1">  1       21 0.59080393E-02 0.12500137E+03</pdfrwt>
<pdfrwt beam="2">  1       21 0.15649464E-01 0.12500137E+03</pdfrwt>
<totfact> 0.72020642E+06</totfact>
</mgrwt>
</event>
<event>
 5    0  0.1321342E+000  0.1249838E+03  0.7546771E-02  0.1235095E+00
         21   -1    0    0  503  502  0.00000000000E+00  0.00000000000E+00  0.56170074284E+03  0.56170074284E+03  0.00000000000E+00 0. -1.
         21   -1    0    0  502  503 -0.00000000000E+00 -0.00000000000E+00 -0.69525208916E+01  0.69525208916E+01  0.00000000000E+00 0. -1.
         25    2    1    2    0    0  0.00000000000E+00  0.00000000000E+00  0.55474822195E+03  0.56865326374E+03  0.12498377734E+03 0.  0.
          4    1    3    3  501    0 -0.50771503066E+02  0.28692755040E+01  0.11226808210E+03  0.12325787206E+03  0.15500000000E+01 0. -1.
         -4    1    3    3    0  501  0.50771503066E+02 -0.28692755040E+01  0.44248013985E+03  0.44539539168E+03  0.15500000000E+01 0. -1.
<mgrwt>
<rscale>  2 0.12498378E+03</rscale>
<asrwt>0</asrwt>
<pdfrwt beam="1">  1       21 0.86415463E-01 0.12498378E+03</pdfrwt>
<pdfrwt beam="2">  1       21 0.10696190E-02 0.12498378E+03</pdfrwt>
<totfact> 0.38565296E+06</totfact>
</mgrwt>
</event>
<event>
 5    0  0.1554555E+000  0.1249982E+03  0.7546771E-02  0.1235072E+00
         21   -1    0    0  503  502  0.00000000000E+00  0.00000000000E+00  0.10831542655E+03  0.10831542655E+03  0.00000000000E+00 0.  1.
         21   -1    0    0  502  503 -0.00000000000E+00 -0.00000000000E+00 -0.36062627607E+02  0.36062627607E+02  0.00000000000E+00 0.  1.
         25    2    1    2    0    0  0.00000000000E+00  0.00000000000E+00  0.72252798941E+02  0.14437805416E+03  0.12499822226E+03 0.  0.
          4    1    3    3  501    0  0.55300264408E+02 -0.11281181778E+02  0.51688891444E+01  0.56696597966E+02  0.15500000000E+01 0. -1.
         -4    1    3    3    0  501 -0.55300264408E+02  0.11281181778E+02  0.67083909797E+02  0.87681456190E+02  0.15500000000E+01 0. -1.
<mgrwt>
<rscale>  2 0.12499822E+03</rscale>
<asrwt>0</asrwt>
<pdfrwt beam="1">  1       21 0.16663912E-01 0.12499822E+03</pdfrwt>
<pdfrwt beam="2">  1       21 0.55480966E-02 0.12499822E+03</pdfrwt>
<totfact> 0.71476024E+06</totfact>
</mgrwt>
</event>
<event>
 5    0  0.1609510E+000  0.1249940E+03  0.7546771E-02  0.1235079E+00
         21   -1    0    0  503  502  0.00000000000E+00  0.00000000000E+00  0.72621914909E+02  0.72621914909E+02  0.00000000000E+00 0. -1.
         21   -1    0    0  502  503 -0.00000000000E+00 -0.00000000000E+00 -0.53783721654E+02  0.53783721654E+02  0.00000000000E+00 0. -1.
         25    2    1    2    0    0  0.00000000000E+00  0.00000000000E+00  0.18838193255E+02  0.12640563656E+03  0.12499402958E+03 0.  0.
          4    1    3    3  501    0  0.55597658403E+02 -0.17738656286E+02  0.31980569760E+02  0.66565147704E+02  0.15500000000E+01 0.  1.
         -4    1    3    3    0  501 -0.55597658403E+02  0.17738656286E+02 -0.13142376505E+02  0.59840488859E+02  0.15500000000E+01 0.  1.
<mgrwt>
<rscale>  2 0.12499403E+03</rscale>
<asrwt>0</asrwt>
<pdfrwt beam="1">  1       21 0.11172602E-01 0.12499403E+03</pdfrwt>
<pdfrwt beam="2">  1       21 0.82744188E-02 0.12499403E+03</pdfrwt>
<totfact> 0.73861548E+06</totfact>
</mgrwt>
</event>
<event>
 5    0  0.1469073E+000  0.1250163E+03  0.7546771E-02  0.1235044E+00
         21   -1    0    0  503  502  0.00000000000E+00  0.00000000000E+00  0.29082801974E+02  0.29082801974E+02  0.00000000000E+00 0.  1.
         21   -1    0    0  502  503 -0.00000000000E+00 -0.00000000000E+00 -0.13434982283E+03  0.13434982283E+03  0.00000000000E+00 0.  1.
         25    2    1    2    0    0  0.00000000000E+00  0.00000000000E+00 -0.10526702086E+03  0.16343262480E+03  0.12501630762E+03 0.  0.
          4    1    3    3  501    0 -0.29427168411E+02  0.31804625221E+02 -0.11149605923E+03  0.11962970429E+03  0.15500000000E+01 0.  1.
         -4    1    3    3    0  501  0.29427168411E+02 -0.31804625221E+02  0.62290383709E+01  0.43802920510E+02  0.15500000000E+01 0.  1.
<mgrwt>
<rscale>  2 0.12501631E+03</rscale>
<asrwt>0</asrwt>
<pdfrwt beam="1">  1       21 0.44742773E-02 0.12501631E+03</pdfrwt>
<pdfrwt beam="2">  1       21 0.20669203E-01 0.12501631E+03</pdfrwt>
<totfact> 0.69073847E+06</totfact>
</mgrwt>
</event>
<event>
 5    0  0.1547761E+000  0.1249962E+03  0.7546771E-02  0.1235075E+00
         21   -1    0    0  503  502  0.00000000000E+00  0.00000000000E+00  0.15382657774E+02  0.15382657774E+02  0.00000000000E+00 0. -1.
         21   -1    0    0  502  503 -0.00000000000E+00 -0.00000000000E+00 -0.25392297370E+03  0.25392297370E+03  0.00000000000E+00 0. -1.
         25    2    1    2    0    0  0.00000000000E+00  0.00000000000E+00 -0.23854031593E+03  0.26930563147E+03  0.12499616323E+03 0.  0.
          4    1    3    3  501    0  0.54825169906E+02  0.18835943624E+02 -0.69064237134E+02  0.90182389514E+02  0.15500000000E+01 0.  1.
         -4    1    3    3    0  501 -0.54825169906E+02 -0.18835943624E+02 -0.16947607879E+03  0.17912324196E+03  0.15500000000E+01 0.  1.
<mgrwt>
<rscale>  2 0.12499616E+03</rscale>
<asrwt>0</asrwt>
<pdfrwt beam="1">  1       21 0.23665628E-02 0.12499616E+03</pdfrwt>
<pdfrwt beam="2">  1       21 0.39065072E-01 0.12499616E+03</pdfrwt>
<totfact> 0.58112330E+06</totfact>
</mgrwt>
</event>
<event>
 5    0  0.1222151E+000  0.1249963E+03  0.7546771E-02  0.1235075E+00
         21   -1    0    0  503  502  0.00000000000E+00  0.00000000000E+00  0.67124094825E+03  0.67124094825E+03  0.00000000000E+00 0.  1.
         21   -1    0    0  502  503 -0.00000000000E+00 -0.00000000000E+00 -0.58190979764E+01  0.58190979764E+01  0.00000000000E+00 0.  1.
         25    2    1    2    0    0  0.00000000000E+00  0.00000000000E+00  0.66542185027E+03  0.67706004623E+03  0.12499626944E+03 0.  0.
          4    1    3    3  501    0 -0.46860439227E+02 -0.28867268747E+01  0.55600409338E+03  0.55798493556E+03  0.15500000000E+01 0. -1.
         -4    1    3    3    0  501  0.46860439227E+02  0.28867268747E+01  0.10941775690E+03  0.11907511067E+03  0.15500000000E+01 0. -1.
<mgrwt>
<rscale>  2 0.12499627E+03</rscale>
<asrwt>0</asrwt>
<pdfrwt beam="1">  1       21 0.10326778E+00 0.12499627E+03</pdfrwt>
<pdfrwt beam="2">  1       21 0.89524637E-03 0.12499627E+03</pdfrwt>
<totfact> 0.33816601E+06</totfact>
</mgrwt>
</event>
<event>
 5    0  0.1463915E+000  0.1249495E+03  0.7546771E-02  0.1235148E+00
         21   -1    0    0  503  502  0.00000000000E+00  0.00000000000E+00  0.20283829568E+02  0.20283829568E+02  0.00000000000E+00 0. -1.
         21   -1    0    0  502  503 -0.00000000000E+00 -0.00000000000E+00 -0.19242388486E+03  0.19242388486E+03  0.00000000000E+00 0. -1.
         25    2    1    2    0    0  0.00000000000E+00  0.00000000000E+00 -0.17214005529E+03  0.21270771443E+03  0.12494948236E+03 0.  0.
          4    1    3    3  501    0  0.15736273494E+02  0.56916065274E+02 -0.51448151965E+02  0.78335072799E+02  0.15500000000E+01 0. -1.
         -4    1    3    3    0  501 -0.15736273494E+02 -0.56916065274E+02 -0.12069190333E+03  0.13437264163E+03  0.15500000000E+01 0. -1.
<mgrwt>
<rscale>  2 0.12494948E+03</rscale>
<asrwt>0</asrwt>
<pdfrwt beam="1">  1       21 0.31205890E-02 0.12494948E+03</pdfrwt>
<pdfrwt beam="2">  1       21 0.29603677E-01 0.12494948E+03</pdfrwt>
<totfact> 0.63657060E+06</totfact>
</mgrwt>
</event>
<event>
 5    0  0.1222151E+000  0.1249401E+03  0.7546771E-02  0.1235163E+00
         21   -1    0    0  503  502  0.00000000000E+00  0.00000000000E+00  0.38765648639E+03  0.38765648639E+03  0.00000000000E+00 0.  1.
         21   -1    0    0  502  503 -0.00000000000E+00 -0.00000000000E+00 -0.10066923620E+02  0.10066923620E+02  0.00000000000E+00 0.  1.
         25    2    1    2    0    0  0.00000000000E+00  0.00000000000E+00  0.37758956277E+03  0.39772341001E+03  0.12494011749E+03 0.  0.
          4    1    3    3  501    0 -0.22294336139E+02 -0.10355129210E+02  0.60427222302E+01  0.25361055120E+02  0.15500000000E+01 0. -1.
         -4    1    3    3    0  501  0.22294336139E+02  0.10355129210E+02  0.37154684054E+03  0.37236235489E+03  0.15500000000E+01 0. -1.
<mgrwt>
<rscale>  2 0.12494012E+03</rscale>
<asrwt>0</asrwt>
<pdfrwt beam="1">  1       21 0.59639448E-01 0.12494012E+03</pdfrwt>
<pdfrwt beam="2">  1       21 0.15487578E-02 0.12494012E+03</pdfrwt>
<totfact> 0.48264933E+06</totfact>
</mgrwt>
</event>
<event>
 5    0  0.1252284E+000  0.1250053E+03  0.7546771E-02  0.1235061E+00
         21   -1    0    0  503  502  0.00000000000E+00  0.00000000000E+00  0.67437659903E+01  0.67437659903E+01  0.00000000000E+00 0.  1.
         21   -1    0    0  502  503 -0.00000000000E+00 -0.00000000000E+00 -0.57928789973E+03  0.57928789973E+03  0.00000000000E+00 0.  1.
         25    2    1    2    0    0  0.00000000000E+00  0.00000000000E+00 -0.57254413373E+03  0.58603166572E+03  0.12500531248E+03 0.  0.
          4    1    3    3  501    0 -0.36171544640E+02 -0.39477144413E+02 -0.43726481821E+03  0.44053348263E+03  0.15500000000E+01 0.  1.
         -4    1    3    3    0  501  0.36171544640E+02  0.39477144413E+02 -0.13527931552E+03  0.14549818309E+03  0.15500000000E+01 0.  1.
<mgrwt>
<rscale>  2 0.12500531E+03</rscale>
<asrwt>0</asrwt>
<pdfrwt beam="1">  1       21 0.10375024E-02 0.12500531E+03</pdfrwt>
<pdfrwt beam="2">  1       21 0.89121219E-01 0.12500531E+03</pdfrwt>
<totfact> 0.37727065E+06</totfact>
</mgrwt>
</event>
<event>
 5    0  0.1557954E+000  0.1249990E+03  0.7546771E-02  0.1235071E+00
         21   -1    0    0  503  502  0.00000000000E+00  0.00000000000E+00  0.23730815208E+02  0.23730815208E+02  0.00000000000E+00 0. -1.
         21   -1    0    0  502  503 -0.00000000000E+00 -0.00000000000E+00 -0.16460392719E+03  0.16460392719E+03  0.00000000000E+00 0. -1.
         25    2    1    2    0    0  0.00000000000E+00  0.00000000000E+00 -0.14087311198E+03  0.18833474240E+03  0.12499896605E+03 0.  0.
          4    1    3    3  501    0  0.21138261319E+02  0.58235202776E+02 -0.82641487116E+02  0.10329657703E+03  0.15500000000E+01 0.  1.
         -4    1    3    3    0  501 -0.21138261319E+02 -0.58235202776E+02 -0.58231624864E+02  0.85038165362E+02  0.15500000000E+01 0.  1.
<mgrwt>
<rscale>  2 0.12499897E+03</rscale>
<asrwt>0</asrwt>
<pdfrwt beam="1">  1       21 0.36508945E-02 0.12499897E+03</pdfrwt>
<pdfrwt beam="2">  1       21 0.25323682E-01 0.12499897E+03</pdfrwt>
<totfact> 0.66209756E+06</totfact>
</mgrwt>
</event>
<event>
 5    0  0.1576247E+000  0.1249963E+03  0.7546771E-02  0.1235075E+00
         21   -1    0    0  503  502  0.00000000000E+00  0.00000000000E+00  0.20532887204E+03  0.20532887204E+03  0.00000000000E+00 0. -1.
         21   -1    0    0  502  503 -0.00000000000E+00 -0.00000000000E+00 -0.19023242906E+02  0.19023242906E+02  0.00000000000E+00 0. -1.
         25    2    1    2    0    0  0.00000000000E+00  0.00000000000E+00  0.18630562914E+03  0.22435211495E+03  0.12499633608E+03 0.  0.
          4    1    3    3  501    0  0.28257338378E+02  0.54137450214E+02  0.11684766356E+03  0.13185264376E+03  0.15500000000E+01 0.  1.
         -4    1    3    3    0  501 -0.28257338378E+02 -0.54137450214E+02  0.69457965579E+02  0.92499471189E+02  0.15500000000E+01 0.  1.
<mgrwt>
<rscale>  2 0.12499634E+03</rscale>
<asrwt>0</asrwt>
<pdfrwt beam="1">  1       21 0.31589056E-01 0.12499634E+03</pdfrwt>
<pdfrwt beam="2">  1       21 0.29266529E-02 0.12499634E+03</pdfrwt>
<totfact> 0.62386216E+06</totfact>
</mgrwt>
</event>
<event>
 5    0  0.1222151E+000  0.1250018E+03  0.7546771E-02  0.1235066E+00
         21   -1    0    0  503  502  0.00000000000E+00  0.00000000000E+00  0.10770297833E+04  0.10770297833E+04  0.00000000000E+00 0.  1.
         21   -1    0    0  502  503 -0.00000000000E+00 -0.00000000000E+00 -0.36269793436E+01  0.36269793436E+01  0.00000000000E+00 0.  1.
         25    2    1    2    0    0  0.00000000000E+00  0.00000000000E+00  0.10734028039E+04  0.10806567626E+04  0.12500183641E+03 0.  0.
          4    1    3    3  501    0 -0.35361038464E+02  0.30215011561E+02  0.89738168996E+03  0.89858758613E+03  0.15500000000E+01 0.  1.
         -4    1    3    3    0  501  0.35361038464E+02 -0.30215011561E+02  0.17602111397E+03  0.18206917649E+03  0.15500000000E+01 0.  1.
<mgrwt>
<rscale>  2 0.12500184E+03</rscale>
<asrwt>0</asrwt>
<pdfrwt beam="1">  1       21 0.16569663E+00 0.12500184E+03</pdfrwt>
<pdfrwt beam="2">  1       21 0.55799768E-03 0.12500184E+03</pdfrwt>
<totfact> 0.21685857E+06</totfact>
</mgrwt>
</event>
<event>
 5    0  0.1500250E+000  0.1249913E+03  0.7546771E-02  0.1235083E+00
         21   -1    0    0  503  502  0.00000000000E+00  0.00000000000E+00  0.16220471254E+03  0.16220471254E+03  0.00000000000E+00 0. -1.
         21   -1    0    0  502  503 -0.00000000000E+00 -0.00000000000E+00 -0.24078877237E+02  0.24078877237E+02  0.00000000000E+00 0. -1.
         25    2    1    2    0    0  0.00000000000E+00  0.00000000000E+00  0.13812583530E+03  0.18628358977E+03  0.12499131746E+03 0.  0.
          4    1    3    3  501    0  0.29243693487E+02  0.49129377159E+02  0.10660182806E+03  0.12097620243E+03  0.15500000000E+01 0.  1.
         -4    1    3    3    0  501 -0.29243693487E+02 -0.49129377159E+02  0.31524007237E+02  0.65307387340E+02  0.15500000000E+01 0.  1.
<mgrwt>
<rscale>  2 0.12499132E+03</rscale>
<asrwt>0</asrwt>
<pdfrwt beam="1">  1       21 0.24954570E-01 0.12499132E+03</pdfrwt>
<pdfrwt beam="2">  1       21 0.37044428E-02 0.12499132E+03</pdfrwt>
<totfact> 0.66452536E+06</totfact>
</mgrwt>
</event>
<event>
 5    0  0.1230236E+000  0.1249941E+03  0.7546771E-02  0.1235078E+00
         21   -1    0    0  503  502  0.00000000000E+00  0.00000000000E+00  0.64866270465E+01  0.64866270465E+01  0.00000000000E+00 0. -1.
         21   -1    0    0  502  503 -0.00000000000E+00 -0.00000000000E+00 -0.60214386704E+03  0.60214386704E+03  0.00000000000E+00 0. -1.
         25    2    1    2    0    0  0.00000000000E+00  0.00000000000E+00 -0.59565723999E+03  0.60863049408E+03  0.12499412296E+03 0.  0.
          4    1    3    3  501    0  0.31148576307E+02 -0.33667705792E+02 -0.91258248485E+02  0.10214802316E+03  0.15500000000E+01 0.  1.
         -4    1    3    3    0  501 -0.31148576307E+02  0.33667705792E+02 -0.50439899150E+03  0.50648247092E+03  0.15500000000E+01 0.  1.
<mgrwt>
<rscale>  2 0.12499412E+03</rscale>
<asrwt>0</asrwt>
<pdfrwt beam="1">  1       21 0.99794212E-03 0.12499412E+03</pdfrwt>
<pdfrwt beam="2">  1       21 0.92637565E-01 0.12499412E+03</pdfrwt>
<totfact> 0.36710558E+06</totfact>
</mgrwt>
</event>
<event>
 5    0  0.1355825E+000  0.1250095E+03  0.7546771E-02  0.1235054E+00
         21   -1    0    0  503  502  0.00000000000E+00  0.00000000000E+00  0.10290849643E+02  0.10290849643E+02  0.00000000000E+00 0. -1.
         21   -1    0    0  502  503 -0.00000000000E+00 -0.00000000000E+00 -0.37964271512E+03  0.37964271512E+03  0.00000000000E+00 0. -1.
         25    2    1    2    0    0  0.00000000000E+00  0.00000000000E+00 -0.36935186548E+03  0.38993356476E+03  0.12500953723E+03 0.  0.
          4    1    3    3  501    0  0.54305186476E+02  0.20148968210E+01 -0.88467489873E+02  0.10383646928E+03  0.15500000000E+01 0. -1.
         -4    1    3    3    0  501 -0.54305186476E+02 -0.20148968210E+01 -0.28088437561E+03  0.28609709549E+03  0.15500000000E+01 0. -1.
<mgrwt>
<rscale>  2 0.12500954E+03</rscale>
<asrwt>0</asrwt>
<pdfrwt beam="1">  1       21 0.15832077E-02 0.12500954E+03</pdfrwt>
<pdfrwt beam="2">  1       21 0.58406569E-01 0.12500954E+03</pdfrwt>
<totfact> 0.48704678E+06</totfact>
</mgrwt>
</event>
<event>
 5    0  0.1570222E+000  0.1249947E+03  0.7546771E-02  0.1235078E+00
         21   -1    0    0  503  502  0.00000000000E+00  0.00000000000E+00  0.35731372937E+02  0.35731372937E+02  0.00000000000E+00 0. -1.
         21   -1    0    0  502  503 -0.00000000000E+00 -0.00000000000E+00 -0.10931336828E+03  0.10931336828E+03  0.00000000000E+00 0. -1.
         25    2    1    2    0    0  0.00000000000E+00  0.00000000000E+00 -0.73581995346E+02  0.14504474122E+03  0.12499466755E+03 0.  0.
          4    1    3    3  501    0  0.26685090729E+02  0.46817067842E+02 -0.73478638433E+02  0.91134212645E+02  0.15500000000E+01 0. -1.
         -4    1    3    3    0  501 -0.26685090729E+02 -0.46817067842E+02 -0.10335691332E+00  0.53910528574E+02  0.15500000000E+01 0. -1.
<mgrwt>
<rscale>  2 0.12499467E+03</rscale>
<asrwt>0</asrwt>
<pdfrwt beam="1">  1       21 0.54971344E-02 0.12499467E+03</pdfrwt>
<pdfrwt beam="2">  1       21 0.16817441E-01 0.12499467E+03</pdfrwt>
<totfact> 0.71397069E+06</totfact>
</mgrwt>
</event>
<event>
 5    0  0.1483549E+000  0.1250007E+03  0.7546771E-02  0.1235068E+00
         21   -1    0    0  503  502  0.00000000000E+00  0.00000000000E+00  0.18032328380E+03  0.18032328380E+03  0.00000000000E+00 0.  1.
         21   -1    0    0  502  503 -0.00000000000E+00 -0.00000000000E+00 -0.21662734234E+02  0.21662734234E+02  0.00000000000E+00 0.  1.
         25    2    1    2    0    0  0.00000000000E+00  0.00000000000E+00  0.15866054957E+03  0.20198601804E+03  0.12500072597E+03 0.  0.
          4    1    3    3  501    0  0.17073307971E+02  0.51151055592E+02  0.28334909106E+02  0.60936014862E+02  0.15500000000E+01 0. -1.
         -4    1    3    3    0  501 -0.17073307971E+02 -0.51151055592E+02  0.13032564046E+03  0.14105000317E+03  0.15500000000E+01 0. -1.
<mgrwt>
<rscale>  2 0.12500073E+03</rscale>
<asrwt>0</asrwt>
<pdfrwt beam="1">  1       21 0.27742043E-01 0.12500073E+03</pdfrwt>
<pdfrwt beam="2">  1       21 0.33327285E-02 0.12500073E+03</pdfrwt>
<totfact> 0.64711499E+06</totfact>
</mgrwt>
</event>
<event>
 5    0  0.1336125E+000  0.1249929E+03  0.7546771E-02  0.1235080E+00
         21   -1    0    0  503  502  0.00000000000E+00  0.00000000000E+00  0.89408362234E+01  0.89408362234E+01  0.00000000000E+00 0. -1.
         21   -1    0    0  502  503 -0.00000000000E+00 -0.00000000000E+00 -0.43685052344E+03  0.43685052344E+03  0.00000000000E+00 0. -1.
         25    2    1    2    0    0  0.00000000000E+00  0.00000000000E+00 -0.42790968722E+03  0.44579135967E+03  0.12499294355E+03 0.  0.
          4    1    3    3  501    0 -0.20920708907E+02 -0.56693689095E+02 -0.15738779426E+03  0.16859765931E+03  0.15500000000E+01 0. -1.
         -4    1    3    3    0  501  0.20920708907E+02  0.56693689095E+02 -0.27052189296E+03  0.27719370035E+03  0.15500000000E+01 0. -1.
<mgrwt>
<rscale>  2 0.12499294E+03</rscale>
<asrwt>0</asrwt>
<pdfrwt beam="1">  1       21 0.13755131E-02 0.12499294E+03</pdfrwt>
<pdfrwt beam="2">  1       21 0.67207780E-01 0.12499294E+03</pdfrwt>
<totfact> 0.45153123E+06</totfact>
</mgrwt>
</event>
<event>
 5    0  0.1222151E+000  0.1250087E+03  0.7546771E-02  0.1235056E+00
         21   -1    0    0  503  502  0.00000000000E+00  0.00000000000E+00  0.17865583860E+04  0.17865583860E+04  0.00000000000E+00 0. -1.
         21   -1    0    0  502  503 -0.00000000000E+00 -0.00000000000E+00 -0.21867695898E+01  0.21867695898E+01  0.00000000000E+00 0. -1.
         25    2    1    2    0    0  0.00000000000E+00  0.00000000000E+00  0.17843716164E+04  0.17887451556E+04  0.12500866448E+03 0.  0.
          4    1    3    3  501    0 -0.58955642631E+02 -0.16932636047E+02  0.72173055186E+03  0.72433409001E+03  0.15500000000E+01 0. -1.
         -4    1    3    3    0  501  0.58955642631E+02  0.16932636047E+02  0.10626410645E+04  0.10644110655E+04  0.15500000000E+01 0. -1.
<mgrwt>
<rscale>  2 0.12500866E+03</rscale>
<asrwt>0</asrwt>
<pdfrwt beam="1">  1       21 0.27485397E+00 0.12500866E+03</pdfrwt>
<pdfrwt beam="2">  1       21 0.33642752E-03 0.12500866E+03</pdfrwt>
<totfact> 0.10197907E+06</totfact>
</mgrwt>
</event>
<event>
 5    0  0.1349739E+000  0.1249971E+03  0.7546771E-02  0.1235074E+00
         21   -1    0    0  503  502  0.00000000000E+00  0.00000000000E+00  0.75049885093E+01  0.75049885093E+01  0.00000000000E+00 0.  1.
         21   -1    0    0  502  503 -0.00000000000E+00 -0.00000000000E+00 -0.52046337162E+03  0.52046337162E+03  0.00000000000E+00 0.  1.
         25    2    1    2    0    0  0.00000000000E+00  0.00000000000E+00 -0.51295838311E+03  0.52796836013E+03  0.12499714594E+03 0.  0.
          4    1    3    3  501    0 -0.33591632050E+02 -0.16533173705E+02 -0.45205709038E+02  0.58717137244E+02  0.15500000000E+01 0.  1.
         -4    1    3    3    0  501  0.33591632050E+02  0.16533173705E+02 -0.46775267407E+03  0.46925122288E+03  0.15500000000E+01 0.  1.
<mgrwt>
<rscale>  2 0.12499715E+03</rscale>
<asrwt>0</asrwt>
<pdfrwt beam="1">  1       21 0.11546134E-02 0.12499715E+03</pdfrwt>
<pdfrwt beam="2">  1       21 0.80071305E-01 0.12499715E+03</pdfrwt>
<totfact> 0.40569674E+06</totfact>
</mgrwt>
</event>
<event>
 5    0  0.1270227E+000  0.1250003E+03  0.7546771E-02  0.1235069E+00
         21   -1    0    0  503  502  0.00000000000E+00  0.00000000000E+00  0.63677551194E+03  0.63677551194E+03  0.00000000000E+00 0. -1.
         21   -1    0    0  502  503 -0.00000000000E+00 -0.00000000000E+00 -0.61344527138E+01  0.61344527138E+01  0.00000000000E+00 0. -1.
         25    2    1    2    0    0  0.00000000000E+00  0.00000000000E+00  0.63064105922E+03  0.64290996465E+03  0.12500030828E+03 0.  0.
          4    1    3    3  501    0 -0.37631720293E+02  0.34463497495E+02  0.50076278495E+03  0.50335836968E+03  0.15500000000E+01 0.  1.
         -4    1    3    3    0  501  0.37631720293E+02 -0.34463497495E+02  0.12987827427E+03  0.13955159497E+03  0.15500000000E+01 0.  1.
<mgrwt>
<rscale>  2 0.12500031E+03</rscale>
<asrwt>0</asrwt>
<pdfrwt beam="1">  1       21 0.97965411E-01 0.12500031E+03</pdfrwt>
<pdfrwt beam="2">  1       21 0.94376246E-03 0.12500031E+03</pdfrwt>
<totfact> 0.35220876E+06</totfact>
</mgrwt>
</event>
<event>
 5    0  0.1222151E+000  0.1250086E+03  0.7546771E-02  0.1235056E+00
         21   -1    0    0  503  502  0.00000000000E+00  0.00000000000E+00  0.95471334541E+03  0.95471334541E+03  0.00000000000E+00 0.  1.
         21   -1    0    0  502  503 -0.00000000000E+00 -0.00000000000E+00 -0.40921032829E+01  0.40921032829E+01  0.00000000000E+00 0.  1.
         25    2    1    2    0    0  0.00000000000E+00  0.00000000000E+00  0.95062124213E+03  0.95880544869E+03  0.12500856955E+03 0.  0.
          4    1    3    3  501    0 -0.40623977596E+02 -0.42077283833E+02  0.30664605224E+03  0.31217784871E+03  0.15500000000E+01 0.  1.
         -4    1    3    3    0  501  0.40623977596E+02  0.42077283833E+02  0.64397518988E+03  0.64662759998E+03  0.15500000000E+01 0.  1.
<mgrwt>
<rscale>  2 0.12500857E+03</rscale>
<asrwt>0</asrwt>
<pdfrwt beam="1">  1       21 0.14687880E+00 0.12500857E+03</pdfrwt>
<pdfrwt beam="2">  1       21 0.62955511E-03 0.12500857E+03</pdfrwt>
<totfact> 0.24671920E+06</totfact>
</mgrwt>
</event>
<event>
 5    0  0.1222151E+000  0.1250070E+03  0.7546771E-02  0.1235058E+00
         21   -1    0    0  503  502  0.00000000000E+00  0.00000000000E+00  0.35163005861E+01  0.35163005861E+01  0.00000000000E+00 0.  1.
         21   -1    0    0  502  503 -0.00000000000E+00 -0.00000000000E+00 -0.11110212556E+04  0.11110212556E+04  0.00000000000E+00 0.  1.
         25    2    1    2    0    0  0.00000000000E+00  0.00000000000E+00 -0.11075049550E+04  0.11145375561E+04  0.12500695488E+03 0.  0.
          4    1    3    3  501    0  0.47428177803E+02  0.38109335009E+02 -0.42686935775E+03  0.43118627593E+03  0.15500000000E+01 0. -1.
         -4    1    3    3    0  501 -0.47428177803E+02 -0.38109335009E+02 -0.68063559723E+03  0.68335128022E+03  0.15500000000E+01 0. -1.
<mgrwt>
<rscale>  2 0.12500695E+03</rscale>
<asrwt>0</asrwt>
<pdfrwt beam="1">  1       21 0.54096954E-03 0.12500695E+03</pdfrwt>
<pdfrwt beam="2">  1       21 0.17092628E+00 0.12500695E+03</pdfrwt>
<totfact> 0.20927372E+06</totfact>
</mgrwt>
</event>
<event>
 5    0  0.1431021E+000  0.1250064E+03  0.7546771E-02  0.1235059E+00
         21   -1    0    0  503  502  0.00000000000E+00  0.00000000000E+00  0.49538637571E+02  0.49538637571E+02  0.00000000000E+00 0.  1.
         21   -1    0    0  502  503 -0.00000000000E+00 -0.00000000000E+00 -0.78860612823E+02  0.78860612823E+02  0.00000000000E+00 0.  1.
         25    2    1    2    0    0  0.00000000000E+00  0.00000000000E+00 -0.29321975253E+02  0.12839925039E+03  0.12500635691E+03 0.  0.
          4    1    3    3  501    0 -0.34576579628E+02 -0.91191903465E+01  0.37969833978E+02  0.52180554650E+02  0.15500000000E+01 0.  1.
         -4    1    3    3    0  501  0.34576579628E+02  0.91191903465E+01 -0.67291809230E+02  0.76218695743E+02  0.15500000000E+01 0.  1.
<mgrwt>
<rscale>  2 0.12500636E+03</rscale>
<asrwt>0</asrwt>
<pdfrwt beam="1">  1       21 0.76213290E-02 0.12500636E+03</pdfrwt>
<pdfrwt beam="2">  1       21 0.12132402E-01 0.12500636E+03</pdfrwt>
<totfact> 0.73567754E+06</totfact>
</mgrwt>
</event>
<event>
 5    0  0.1526301E+000  0.1250030E+03  0.7546771E-02  0.1235065E+00
         21   -1    0    0  503  502  0.00000000000E+00  0.00000000000E+00  0.32503069944E+02  0.32503069944E+02  0.00000000000E+00 0.  1.
         21   -1    0    0  502  503 -0.00000000000E+00 -0.00000000000E+00 -0.12018671816E+03  0.12018671816E+03  0.00000000000E+00 0.  1.
         25    2    1    2    0    0  0.00000000000E+00  0.00000000000E+00 -0.87683648219E+02  0.15268978811E+03  0.12500299687E+03 0.  0.
          4    1    3    3  501    0  0.53819597685E+02 -0.11870924745E+02 -0.78842317313E+01  0.55695884581E+02  0.15500000000E+01 0.  1.
         -4    1    3    3    0  501 -0.53819597685E+02  0.11870924745E+02 -0.79799416487E+02  0.96993903525E+02  0.15500000000E+01 0.  1.
<mgrwt>
<rscale>  2 0.12500300E+03</rscale>
<asrwt>0</asrwt>
<pdfrwt beam="1">  1       21 0.50004724E-02 0.12500300E+03</pdfrwt>
<pdfrwt beam="2">  1       21 0.18490264E-01 0.12500300E+03</pdfrwt>
<totfact> 0.70417557E+06</totfact>
</mgrwt>
</event>
<event>
 5    0  0.1434303E+000  0.1249998E+03  0.7546771E-02  0.1235070E+00
         21   -1    0    0  503  502  0.00000000000E+00  0.00000000000E+00  0.12285080755E+02  0.12285080755E+02  0.00000000000E+00 0. -1.
         21   -1    0    0  502  503 -0.00000000000E+00 -0.00000000000E+00 -0.31796576677E+03  0.31796576677E+03  0.00000000000E+00 0. -1.
         25    2    1    2    0    0  0.00000000000E+00  0.00000000000E+00 -0.30568068601E+03  0.33025084752E+03  0.12499976195E+03 0.  0.
          4    1    3    3  501    0 -0.30839304842E+02 -0.50378954037E+02 -0.20664476202E+03  0.21492687571E+03  0.15500000000E+01 0.  1.
         -4    1    3    3    0  501  0.30839304842E+02  0.50378954037E+02 -0.99035923991E+02  0.11532397181E+03  0.15500000000E+01 0.  1.
<mgrwt>
<rscale>  2 0.12499976E+03</rscale>
<asrwt>0</asrwt>
<pdfrwt beam="1">  1       21 0.18900122E-02 0.12499976E+03</pdfrwt>
<pdfrwt beam="2">  1       21 0.48917815E-01 0.12499976E+03</pdfrwt>
<totfact> 0.53031197E+06</totfact>
</mgrwt>
</event>
<event>
 5    0  0.1435595E+000  0.1249952E+03  0.7546771E-02  0.1235077E+00
         21   -1    0    0  503  502  0.00000000000E+00  0.00000000000E+00  0.11944670469E+02  0.11944670469E+02  0.00000000000E+00 0.  1.
         21   -1    0    0  502  503 -0.00000000000E+00 -0.00000000000E+00 -0.32700332529E+03  0.32700332529E+03  0.00000000000E+00 0.  1.
         25    2    1    2    0    0  0.00000000000E+00  0.00000000000E+00 -0.31505865482E+03  0.33894799576E+03  0.12499515131E+03 0.  0.
          4    1    3    3  501    0 -0.10391761040E+02  0.49315859207E+02 -0.25766014465E+03  0.26254751058E+03  0.15500000000E+01 0.  1.
         -4    1    3    3    0  501  0.10391761040E+02 -0.49315859207E+02 -0.57398510170E+02  0.76400485186E+02  0.15500000000E+01 0.  1.
<mgrwt>
<rscale>  2 0.12499515E+03</rscale>
<asrwt>0</asrwt>
<pdfrwt beam="1">  1       21 0.18376420E-02 0.12499515E+03</pdfrwt>
<pdfrwt beam="2">  1       21 0.50308194E-01 0.12499515E+03</pdfrwt>
<totfact> 0.52371526E+06</totfact>
</mgrwt>
</event>
<event>
 5    0  0.1526358E+000  0.1249990E+03  0.7546771E-02  0.1235071E+00
         21   -1    0    0  503  502  0.00000000000E+00  0.00000000000E+00  0.13688084230E+03  0.13688084230E+03  0.00000000000E+00 0.  1.
         21   -1    0    0  502  503 -0.00000000000E+00 -0.00000000000E+00 -0.28537135646E+02  0.28537135646E+02  0.00000000000E+00 0.  1.
         25    2    1    2    0    0  0.00000000000E+00  0.00000000000E+00  0.10834370665E+03  0.16541797795E+03  0.12499899462E+03 0.  0.
          4    1    3    3  501    0 -0.18994553100E+02  0.57100369129E+02  0.76415999728E+02  0.97278223239E+02  0.15500000000E+01 0.  1.
         -4    1    3    3    0  501  0.18994553100E+02 -0.57100369129E+02  0.31927706927E+02  0.68139754708E+02  0.15500000000E+01 0.  1.
<mgrwt>
<rscale>  2 0.12499899E+03</rscale>
<asrwt>0</asrwt>
<pdfrwt beam="1">  1       21 0.21058591E-01 0.12499899E+03</pdfrwt>
<pdfrwt beam="2">  1       21 0.43903286E-02 0.12499899E+03</pdfrwt>
<totfact> 0.68865223E+06</totfact>
</mgrwt>
</event>
<event>
 5    0  0.1464574E+000  0.1250524E+03  0.7546771E-02  0.1234987E+00
         21   -1    0    0  503  502  0.00000000000E+00  0.00000000000E+00  0.16737817724E+03  0.16737817724E+03  0.00000000000E+00 0.  1.
         21   -1    0    0  502  503 -0.00000000000E+00 -0.00000000000E+00 -0.23357447433E+02  0.23357447433E+02  0.00000000000E+00 0.  1.
         25    2    1    2    0    0  0.00000000000E+00  0.00000000000E+00  0.14402072981E+03  0.19073562468E+03  0.12505242063E+03 0.  0.
          4    1    3    3  501    0 -0.55728912071E+02 -0.25989058957E+02  0.54890774881E+02  0.82441145632E+02  0.15500000000E+01 0. -1.
         -4    1    3    3    0  501  0.55728912071E+02  0.25989058957E+02  0.89129954929E+02  0.10829447905E+03  0.15500000000E+01 0. -1.
<mgrwt>
<rscale>  2 0.12505242E+03</rscale>
<asrwt>0</asrwt>
<pdfrwt beam="1">  1       21 0.25750488E-01 0.12505242E+03</pdfrwt>
<pdfrwt beam="2">  1       21 0.35934536E-02 0.12505242E+03</pdfrwt>
<totfact> 0.65853285E+06</totfact>
</mgrwt>
</event>
<event>
 5    0  0.1222151E+000  0.1249735E+03  0.7546771E-02  0.1235111E+00
         21   -1    0    0  503  502  0.00000000000E+00  0.00000000000E+00  0.34339192051E+01  0.34339192051E+01  0.00000000000E+00 0.  1.
         21   -1    0    0  502  503 -0.00000000000E+00 -0.00000000000E+00 -0.11370667749E+04  0.11370667749E+04  0.00000000000E+00 0.  1.
         25    2    1    2    0    0  0.00000000000E+00  0.00000000000E+00 -0.11336328556E+04  0.11405006941E+04  0.12497352417E+03 0.  0.
          4    1    3    3  501    0  0.50861080014E+02 -0.30692602300E+02 -0.39049261196E+03  0.39498831348E+03  0.15500000000E+01 0.  1.
         -4    1    3    3    0  501 -0.50861080014E+02  0.30692602300E+02 -0.74314024369E+03  0.74551238057E+03  0.15500000000E+01 0.  1.
<mgrwt>
<rscale>  2 0.12497352E+03</rscale>
<asrwt>0</asrwt>
<pdfrwt beam="1">  1       21 0.52829488E-03 0.12497352E+03</pdfrwt>
<pdfrwt beam="2">  1       21 0.17493348E+00 0.12497352E+03</pdfrwt>
<totfact> 0.20384204E+06</totfact>
</mgrwt>
</event>
<event>
 5    0  0.1506029E+000  0.1250004E+03  0.7546771E-02  0.1235069E+00
         21   -1    0    0  503  502  0.00000000000E+00  0.00000000000E+00  0.71086055425E+02  0.71086055425E+02  0.00000000000E+00 0. -1.
         21   -1    0    0  502  503 -0.00000000000E+00 -0.00000000000E+00 -0.54951339173E+02  0.54951339173E+02  0.00000000000E+00 0. -1.
         25    2    1    2    0    0  0.00000000000E+00  0.00000000000E+00  0.16134716252E+02  0.12603739460E+03  0.12500038307E+03 0.  0.
          4    1    3    3  501    0 -0.17960984316E+02 -0.44890566889E+02 -0.31835077979E+02  0.57910574536E+02  0.15500000000E+01 0.  1.
         -4    1    3    3    0  501  0.17960984316E+02  0.44890566889E+02  0.47969794231E+02  0.68126820062E+02  0.15500000000E+01 0.  1.
<mgrwt>
<rscale>  2 0.12500038E+03</rscale>
<asrwt>0</asrwt>
<pdfrwt beam="1">  1       21 0.10936316E-01 0.12500038E+03</pdfrwt>
<pdfrwt beam="2">  1       21 0.84540522E-02 0.12500038E+03</pdfrwt>
<totfact> 0.73900162E+06</totfact>
</mgrwt>
</event>
<event>
 5    0  0.1520793E+000  0.1249806E+03  0.7546771E-02  0.1235100E+00
         21   -1    0    0  503  502  0.00000000000E+00  0.00000000000E+00  0.19807924771E+03  0.19807924771E+03  0.00000000000E+00 0.  1.
         21   -1    0    0  502  503 -0.00000000000E+00 -0.00000000000E+00 -0.19714507120E+02  0.19714507120E+02  0.00000000000E+00 0.  1.
         25    2    1    2    0    0  0.00000000000E+00  0.00000000000E+00  0.17836474059E+03  0.21779375483E+03  0.12498055432E+03 0.  0.
          4    1    3    3  501    0  0.69673214557E+01  0.36298136226E+02  0.14169740558E+01  0.37020380566E+02  0.15500000000E+01 0. -1.
         -4    1    3    3    0  501 -0.69673214557E+01 -0.36298136226E+02  0.17694776654E+03  0.18077337427E+03  0.15500000000E+01 0. -1.
<mgrwt>
<rscale>  2 0.12498055E+03</rscale>
<asrwt>0</asrwt>
<pdfrwt beam="1">  1       21 0.30473729E-01 0.12498055E+03</pdfrwt>
<pdfrwt beam="2">  1       21 0.30330012E-02 0.12498055E+03</pdfrwt>
<totfact> 0.63079760E+06</totfact>
</mgrwt>
</event>
<event>
 5    0  0.1580399E+000  0.1250013E+03  0.7546771E-02  0.1235067E+00
         21   -1    0    0  503  502  0.00000000000E+00  0.00000000000E+00  0.76243685525E+02  0.76243685525E+02  0.00000000000E+00 0.  1.
         21   -1    0    0  502  503 -0.00000000000E+00 -0.00000000000E+00 -0.51234851265E+02  0.51234851265E+02  0.00000000000E+00 0.  1.
         25    2    1    2    0    0  0.00000000000E+00  0.00000000000E+00  0.25008834259E+02  0.12747853679E+03  0.12500134220E+03 0.  0.
          4    1    3    3  501    0  0.41656635634E+02  0.46511164880E+02  0.10141687867E+02  0.63275746409E+02  0.15500000000E+01 0. -1.
         -4    1    3    3    0  501 -0.41656635634E+02 -0.46511164880E+02  0.14867146393E+02  0.64202790381E+02  0.15500000000E+01 0. -1.
<mgrwt>
<rscale>  2 0.12500134E+03</rscale>
<asrwt>0</asrwt>
<pdfrwt beam="1">  1       21 0.11729798E-01 0.12500134E+03</pdfrwt>
<pdfrwt beam="2">  1       21 0.78822848E-02 0.12500134E+03</pdfrwt>
<totfact> 0.73701603E+06</totfact>
</mgrwt>
</event>
<event>
 5    0  0.1490987E+000  0.1250049E+03  0.7546771E-02  0.1235062E+00
         21   -1    0    0  503  502  0.00000000000E+00  0.00000000000E+00  0.63769593911E+02  0.63769593911E+02  0.00000000000E+00 0.  1.
         21   -1    0    0  502  503 -0.00000000000E+00 -0.00000000000E+00 -0.61260495126E+02  0.61260495126E+02  0.00000000000E+00 0.  1.
         25    2    1    2    0    0  0.00000000000E+00  0.00000000000E+00  0.25090987854E+01  0.12503008904E+03  0.12500491025E+03 0.  0.
          4    1    3    3  501    0 -0.38986050806E+02  0.12347709621E+02  0.48505744683E+02  0.63463279600E+02  0.15500000000E+01 0. -1.
         -4    1    3    3    0  501  0.38986050806E+02 -0.12347709621E+02 -0.45996645897E+02  0.61566809437E+02  0.15500000000E+01 0. -1.
<mgrwt>
<rscale>  2 0.12500491E+03</rscale>
<asrwt>0</asrwt>
<pdfrwt beam="1">  1       21 0.98107067E-02 0.12500491E+03</pdfrwt>
<pdfrwt beam="2">  1       21 0.94246916E-02 0.12500491E+03</pdfrwt>
<totfact> 0.74030223E+06</totfact>
</mgrwt>
</event>
<event>
 5    0  0.1530951E+000  0.1250008E+03  0.7546771E-02  0.1235068E+00
         21   -1    0    0  503  502  0.00000000000E+00  0.00000000000E+00  0.35229610911E+02  0.35229610911E+02  0.00000000000E+00 0.  1.
         21   -1    0    0  502  503 -0.00000000000E+00 -0.00000000000E+00 -0.11088115833E+03  0.11088115833E+03  0.00000000000E+00 0.  1.
         25    2    1    2    0    0  0.00000000000E+00  0.00000000000E+00 -0.75651547416E+02  0.14611076924E+03  0.12500080104E+03 0.  0.
          4    1    3    3  501    0  0.37517739710E+01 -0.40433893530E+02  0.17679620842E+02  0.44316442175E+02  0.15500000000E+01 0. -1.
         -4    1    3    3    0  501 -0.37517739710E+01  0.40433893530E+02 -0.93331168259E+02  0.10179432706E+03  0.15500000000E+01 0. -1.
<mgrwt>
<rscale>  2 0.12500080E+03</rscale>
<asrwt>0</asrwt>
<pdfrwt beam="1">  1       21 0.54199400E-02 0.12500080E+03</pdfrwt>
<pdfrwt beam="2">  1       21 0.17058640E-01 0.12500080E+03</pdfrwt>
<totfact> 0.71249796E+06</totfact>
</mgrwt>
</event>
<event>
 5    0  0.1451015E+000  0.1250046E+03  0.7546771E-02  0.1235062E+00
         21   -1    0    0  503  502  0.00000000000E+00  0.00000000000E+00  0.25633786622E+03  0.25633786622E+03  0.00000000000E+00 0.  1.
         21   -1    0    0  502  503 -0.00000000000E+00 -0.00000000000E+00 -0.15239794301E+02  0.15239794301E+02  0.00000000000E+00 0.  1.
         25    2    1    2    0    0  0.00000000000E+00  0.00000000000E+00  0.24109807192E+03  0.27157766052E+03  0.12500458156E+03 0.  0.
          4    1    3    3  501    0  0.35504552939E+00 -0.60443818469E+02  0.86160192300E+02  0.10525950069E+03  0.15500000000E+01 0. -1.
         -4    1    3    3    0  501 -0.35504552939E+00  0.60443818469E+02  0.15493787962E+03  0.16631815983E+03  0.15500000000E+01 0. -1.
<mgrwt>
<rscale>  2 0.12500458E+03</rscale>
<asrwt>0</asrwt>
<pdfrwt beam="1">  1       21 0.39436592E-01 0.12500458E+03</pdfrwt>
<pdfrwt beam="2">  1       21 0.23445839E-02 0.12500458E+03</pdfrwt>
<totfact> 0.57897413E+06</totfact>
</mgrwt>
</event>
<event>
 5    0  0.1535230E+000  0.1249981E+03  0.7546771E-02  0.1235072E+00
         21   -1    0    0  503  502  0.00000000000E+00  0.00000000000E+00  0.34874158475E+02  0.34874158475E+02  0.00000000000E+00 0.  1.
         21   -1    0    0  502  503 -0.00000000000E+00 -0.00000000000E+00 -0.11200645644E+03  0.11200645644E+03  0.00000000000E+00 0.  1.
         25    2    1    2    0    0  0.00000000000E+00  0.00000000000E+00 -0.77132297960E+02  0.14688061491E+03  0.12499809458E+03 0.  0.
          4    1    3    3  501    0 -0.11386268247E+02 -0.37299001439E+02 -0.95926378594E+02  0.10356222875E+03  0.15500000000E+01 0. -1.
         -4    1    3    3    0  501  0.11386268247E+02  0.37299001439E+02  0.18794080634E+02  0.43318386163E+02  0.15500000000E+01 0. -1.
<mgrwt>
<rscale>  2 0.12499809E+03</rscale>
<asrwt>0</asrwt>
<pdfrwt beam="1">  1       21 0.53652552E-02 0.12499809E+03</pdfrwt>
<pdfrwt beam="2">  1       21 0.17231762E-01 0.12499809E+03</pdfrwt>
<totfact> 0.71156740E+06</totfact>
</mgrwt>
</event>
<event>
 5    0  0.1249424E+000  0.1250100E+03  0.7546771E-02  0.1235054E+00
         21   -1    0    0  503  502  0.00000000000E+00  0.00000000000E+00  0.61580630078E+01  0.61580630078E+01  0.00000000000E+00 0.  1.
         21   -1    0    0  502  503 -0.00000000000E+00 -0.00000000000E+00 -0.63443268178E+03  0.63443268178E+03  0.00000000000E+00 0.  1.
         25    2    1    2    0    0  0.00000000000E+00  0.00000000000E+00 -0.62827461878E+03  0.64059074479E+03  0.12501002246E+03 0.  0.
          4    1    3    3  501    0 -0.14098013631E+02  0.44642791436E+02 -0.52620850650E+03  0.52828924618E+03  0.15500000000E+01 0. -1.
         -4    1    3    3    0  501  0.14098013631E+02 -0.44642791436E+02 -0.10206611228E+03  0.11230149862E+03  0.15500000000E+01 0. -1.
<mgrwt>
<rscale>  2 0.12501002E+03</rscale>
<asrwt>0</asrwt>
<pdfrwt beam="1">  1       21 0.94739489E-03 0.12501002E+03</pdfrwt>
<pdfrwt beam="2">  1       21 0.97604968E-01 0.12501002E+03</pdfrwt>
<totfact> 0.35310144E+06</totfact>
</mgrwt>
</event>
<event>
 5    0  0.1555008E+000  0.1249981E+03  0.7546771E-02  0.1235072E+00
         21   -1    0    0  503  502  0.00000000000E+00  0.00000000000E+00  0.35213842251E+02  0.35213842251E+02  0.00000000000E+00 0.  1.
         21   -1    0    0  502  503 -0.00000000000E+00 -0.00000000000E+00 -0.11092602408E+03  0.11092602408E+03  0.00000000000E+00 0.  1.
         25    2    1    2    0    0  0.00000000000E+00  0.00000000000E+00 -0.75712181825E+02  0.14613986633E+03  0.12499810420E+03 0.  0.
          4    1    3    3  501    0 -0.32438318334E+02 -0.51540978951E+02 -0.54182698488E+02  0.81528426472E+02  0.15500000000E+01 0.  1.
         -4    1    3    3    0  501  0.32438318334E+02  0.51540978951E+02 -0.21529483337E+02  0.64611439856E+02  0.15500000000E+01 0.  1.
<mgrwt>
<rscale>  2 0.12499810E+03</rscale>
<asrwt>0</asrwt>
<pdfrwt beam="1">  1       21 0.54175143E-02 0.12499810E+03</pdfrwt>
<pdfrwt beam="2">  1       21 0.17065542E-01 0.12499810E+03</pdfrwt>
<totfact> 0.71250982E+06</totfact>
</mgrwt>
</event>
<event>
 5    0  0.1588770E+000  0.1250002E+03  0.7546771E-02  0.1235069E+00
         21   -1    0    0  503  502  0.00000000000E+00  0.00000000000E+00  0.37994185821E+02  0.37994185821E+02  0.00000000000E+00 0. -1.
         21   -1    0    0  502  503 -0.00000000000E+00 -0.00000000000E+00 -0.10281215980E+03  0.10281215980E+03  0.00000000000E+00 0. -1.
         25    2    1    2    0    0  0.00000000000E+00  0.00000000000E+00 -0.64817973976E+02  0.14080634562E+03  0.12500022886E+03 0.  0.
          4    1    3    3  501    0 -0.61101211728E+02  0.10190853801E+02 -0.41605268116E+02  0.74636535362E+02  0.15500000000E+01 0.  1.
         -4    1    3    3    0  501  0.61101211728E+02 -0.10190853801E+02 -0.23212705859E+02  0.66169810255E+02  0.15500000000E+01 0.  1.
<mgrwt>
<rscale>  2 0.12500023E+03</rscale>
<asrwt>0</asrwt>
<pdfrwt beam="1">  1       21 0.58452594E-02 0.12500023E+03</pdfrwt>
<pdfrwt beam="2">  1       21 0.15817255E-01 0.12500023E+03</pdfrwt>
<totfact> 0.71933796E+06</totfact>
</mgrwt>
</event>
<event>
 5    0  0.1325732E+000  0.1250017E+03  0.7546771E-02  0.1235067E+00
         21   -1    0    0  503  502  0.00000000000E+00  0.00000000000E+00  0.10296019735E+02  0.10296019735E+02  0.00000000000E+00 0.  1.
         21   -1    0    0  502  503 -0.00000000000E+00 -0.00000000000E+00 -0.37940436517E+03  0.37940436517E+03  0.00000000000E+00 0.  1.
         25    2    1    2    0    0  0.00000000000E+00  0.00000000000E+00 -0.36910834543E+03  0.38970038490E+03  0.12500167729E+03 0.  0.
          4    1    3    3  501    0 -0.48478692513E+02 -0.10612740440E+02 -0.30290405930E+03  0.30694638868E+03  0.15500000000E+01 0.  1.
         -4    1    3    3    0  501  0.48478692513E+02  0.10612740440E+02 -0.66204286137E+02  0.82753996219E+02  0.15500000000E+01 0.  1.
<mgrwt>
<rscale>  2 0.12500168E+03</rscale>
<asrwt>0</asrwt>
<pdfrwt beam="1">  1       21 0.15840030E-02 0.12500168E+03</pdfrwt>
<pdfrwt beam="2">  1       21 0.58369903E-01 0.12500168E+03</pdfrwt>
<totfact> 0.48730056E+06</totfact>
</mgrwt>
</event>
<event>
 5    0  0.1509355E+000  0.1250012E+03  0.7546771E-02  0.1235067E+00
         21   -1    0    0  503  502  0.00000000000E+00  0.00000000000E+00  0.13136510788E+03  0.13136510788E+03  0.00000000000E+00 0.  1.
         21   -1    0    0  502  503 -0.00000000000E+00 -0.00000000000E+00 -0.29736391047E+02  0.29736391047E+02  0.00000000000E+00 0.  1.
         25    2    1    2    0    0  0.00000000000E+00  0.00000000000E+00  0.10162871683E+03  0.16110149893E+03  0.12500118748E+03 0.  0.
          4    1    3    3  501    0 -0.21445262953E+02 -0.43755240489E+02  0.10121782119E+03  0.11234709698E+03  0.15500000000E+01 0. -1.
         -4    1    3    3    0  501  0.21445262953E+02  0.43755240489E+02  0.41089563686E+00  0.48754401941E+02  0.15500000000E+01 0. -1.
<mgrwt>
<rscale>  2 0.12500119E+03</rscale>
<asrwt>0</asrwt>
<pdfrwt beam="1">  1       21 0.20210016E-01 0.12500119E+03</pdfrwt>
<pdfrwt beam="2">  1       21 0.45748295E-02 0.12500119E+03</pdfrwt>
<totfact> 0.69383060E+06</totfact>
</mgrwt>
</event>
<event>
 5    0  0.1547169E+000  0.1249921E+03  0.7546771E-02  0.1235082E+00
         21   -1    0    0  503  502  0.00000000000E+00  0.00000000000E+00  0.22185936442E+02  0.22185936442E+02  0.00000000000E+00 0.  1.
         21   -1    0    0  502  503 -0.00000000000E+00 -0.00000000000E+00 -0.17604641164E+03  0.17604641164E+03  0.00000000000E+00 0.  1.
         25    2    1    2    0    0  0.00000000000E+00  0.00000000000E+00 -0.15386047520E+03  0.19823234808E+03  0.12499207174E+03 0.  0.
          4    1    3    3  501    0  0.12619675825E+02  0.60063816109E+02 -0.58405459762E+02  0.84737939871E+02  0.15500000000E+01 0.  1.
         -4    1    3    3    0  501 -0.12619675825E+02 -0.60063816109E+02 -0.95455015436E+02  0.11349440821E+03  0.15500000000E+01 0.  1.
<mgrwt>
<rscale>  2 0.12499207E+03</rscale>
<asrwt>0</asrwt>
<pdfrwt beam="1">  1       21 0.34132210E-02 0.12499207E+03</pdfrwt>
<pdfrwt beam="2">  1       21 0.27084063E-01 0.12499207E+03</pdfrwt>
<totfact> 0.65132052E+06</totfact>
</mgrwt>
</event>
<event>
 5    0  0.1403129E+000  0.1250006E+03  0.7546771E-02  0.1235068E+00
         21   -1    0    0  503  502  0.00000000000E+00  0.00000000000E+00  0.28021283081E+03  0.28021283081E+03  0.00000000000E+00 0.  1.
         21   -1    0    0  502  503 -0.00000000000E+00 -0.00000000000E+00 -0.13940426267E+02  0.13940426267E+02  0.00000000000E+00 0.  1.
         25    2    1    2    0    0  0.00000000000E+00  0.00000000000E+00  0.26627240454E+03  0.29415325707E+03  0.12500058091E+03 0.  0.
          4    1    3    3  501    0  0.60579288570E+02  0.13899602004E+02  0.11809868492E+03  0.13346441855E+03  0.15500000000E+01 0.  1.
         -4    1    3    3    0  501 -0.60579288570E+02 -0.13899602004E+02  0.14817371962E+03  0.16068883853E+03  0.15500000000E+01 0.  1.
<mgrwt>
<rscale>  2 0.12500058E+03</rscale>
<asrwt>0</asrwt>
<pdfrwt beam="1">  1       21 0.43109662E-01 0.12500058E+03</pdfrwt>
<pdfrwt beam="2">  1       21 0.21446812E-02 0.12500058E+03</pdfrwt>
<totfact> 0.55944773E+06</totfact>
</mgrwt>
</event>
<event>
 5    0  0.1222151E+000  0.1250102E+03  0.7546771E-02  0.1235053E+00
         21   -1    0    0  503  502  0.00000000000E+00  0.00000000000E+00  0.18897257146E+04  0.18897257146E+04  0.00000000000E+00 0. -1.
         21   -1    0    0  502  503 -0.00000000000E+00 -0.00000000000E+00 -0.20674364292E+01  0.20674364292E+01  0.00000000000E+00 0. -1.
         25    2    1    2    0    0  0.00000000000E+00  0.00000000000E+00  0.18876582782E+04  0.18917931510E+04  0.12501020412E+03 0.  0.
          4    1    3    3  501    0 -0.47122933773E+02  0.28162007666E+02  0.49215822889E+03  0.49521287779E+03  0.15500000000E+01 0.  1.
         -4    1    3    3    0  501  0.47122933773E+02 -0.28162007666E+02  0.13955000493E+04  0.13965802732E+04  0.15500000000E+01 0.  1.
<mgrwt>
<rscale>  2 0.12501020E+03</rscale>
<asrwt>0</asrwt>
<pdfrwt beam="1">  1       21 0.29072565E+00 0.12501020E+03</pdfrwt>
<pdfrwt beam="2">  1       21 0.31806865E-03 0.12501020E+03</pdfrwt>
<totfact> 0.90500831E+05</totfact>
</mgrwt>
</event>
<event>
 5    0  0.1514674E+000  0.1249934E+03  0.7546771E-02  0.1235080E+00
         21   -1    0    0  503  502  0.00000000000E+00  0.00000000000E+00  0.87219968976E+02  0.87219968976E+02  0.00000000000E+00 0.  1.
         21   -1    0    0  502  503 -0.00000000000E+00 -0.00000000000E+00 -0.44781461356E+02  0.44781461356E+02  0.00000000000E+00 0.  1.
         25    2    1    2    0    0  0.00000000000E+00  0.00000000000E+00  0.42438507620E+02  0.13200143033E+03  0.12499340255E+03 0.  0.
          4    1    3    3  501    0 -0.35217346962E+02  0.40659342983E+02 -0.12342944550E+02  0.55210456247E+02  0.15500000000E+01 0. -1.
         -4    1    3    3    0  501  0.35217346962E+02 -0.40659342983E+02  0.54781452170E+02  0.76790974084E+02  0.15500000000E+01 0. -1.
<mgrwt>
<rscale>  2 0.12499340E+03</rscale>
<asrwt>0</asrwt>
<pdfrwt beam="1">  1       21 0.13418457E-01 0.12499340E+03</pdfrwt>
<pdfrwt beam="2">  1       21 0.68894556E-02 0.12499340E+03</pdfrwt>
<totfact> 0.73108341E+06</totfact>
</mgrwt>
</event>
<event>
 5    0  0.1494945E+000  0.1250037E+03  0.7546771E-02  0.1235064E+00
         21   -1    0    0  503  502  0.00000000000E+00  0.00000000000E+00  0.23341905317E+03  0.23341905317E+03  0.00000000000E+00 0.  1.
         21   -1    0    0  502  503 -0.00000000000E+00 -0.00000000000E+00 -0.16735904445E+02  0.16735904445E+02  0.00000000000E+00 0.  1.
         25    2    1    2    0    0  0.00000000000E+00  0.00000000000E+00  0.21668314873E+03  0.25015495762E+03  0.12500366346E+03 0.  0.
          4    1    3    3  501    0  0.21825570036E+02  0.56539862912E+02  0.77928569474E+02  0.98733864736E+02  0.15500000000E+01 0. -1.
         -4    1    3    3    0  501 -0.21825570036E+02 -0.56539862912E+02  0.13875457925E+03  0.15142109288E+03  0.15500000000E+01 0. -1.
<mgrwt>
<rscale>  2 0.12500366E+03</rscale>
<asrwt>0</asrwt>
<pdfrwt beam="1">  1       21 0.35910621E-01 0.12500366E+03</pdfrwt>
<pdfrwt beam="2">  1       21 0.25747547E-02 0.12500366E+03</pdfrwt>
<totfact> 0.59858076E+06</totfact>
</mgrwt>
</event>
<event>
 5    0  0.1222151E+000  0.1249941E+03  0.7546771E-02  0.1235079E+00
         21   -1    0    0  503  502  0.00000000000E+00  0.00000000000E+00  0.13637594129E+01  0.13637594129E+01  0.00000000000E+00 0. -1.
         21   -1    0    0  502  503 -0.00000000000E+00 -0.00000000000E+00 -0.28640544174E+04  0.28640544174E+04  0.00000000000E+00 0. -1.
         25    2    1    2    0    0  0.00000000000E+00  0.00000000000E+00 -0.28626906579E+04  0.28654181768E+04  0.12499409859E+03 0.  0.
          4    1    3    3  501    0 -0.61123246114E+02  0.77378919079E+01 -0.16690888690E+04  0.16702263264E+04  0.15500000000E+01 0. -1.
         -4    1    3    3    0  501  0.61123246114E+02 -0.77378919079E+01 -0.11936017889E+04  0.11951918503E+04  0.15500000000E+01 0. -1.
<mgrwt>
<rscale>  2 0.12499410E+03</rscale>
<asrwt>0</asrwt>
<pdfrwt beam="1">  1       21 0.20981026E-03 0.12499410E+03</pdfrwt>
<pdfrwt beam="2">  1       21 0.44062141E+00 0.12499410E+03</pdfrwt>
<totfact> 0.22140049E+05</totfact>
</mgrwt>
</event>
<event>
 5    0  0.1235226E+000  0.1250009E+03  0.7546771E-02  0.1235068E+00
         21   -1    0    0  503  502  0.00000000000E+00  0.00000000000E+00  0.67194764725E+03  0.67194764725E+03  0.00000000000E+00 0.  1.
         21   -1    0    0  502  503 -0.00000000000E+00 -0.00000000000E+00 -0.58134040316E+01  0.58134040316E+01  0.00000000000E+00 0.  1.
         25    2    1    2    0    0  0.00000000000E+00  0.00000000000E+00  0.66613424322E+03  0.67776105128E+03  0.12500085058E+03 0.  0.
          4    1    3    3  501    0  0.48882101753E+02  0.28679910175E+02  0.19044515636E+03  0.19870520175E+03  0.15500000000E+01 0. -1.
         -4    1    3    3    0  501 -0.48882101753E+02 -0.28679910175E+02  0.47568908685E+03  0.47905584953E+03  0.15500000000E+01 0. -1.
<mgrwt>
<rscale>  2 0.12500085E+03</rscale>
<asrwt>0</asrwt>
<pdfrwt beam="1">  1       21 0.10337650E+00 0.12500085E+03</pdfrwt>
<pdfrwt beam="2">  1       21 0.89437039E-03 0.12500085E+03</pdfrwt>
<totfact> 0.33784594E+06</totfact>
</mgrwt>
</event>
<event>
 5    0  0.1222151E+000  0.1249959E+03  0.7546771E-02  0.1235076E+00
         21   -1    0    0  503  502  0.00000000000E+00  0.00000000000E+00  0.22202754714E+04  0.22202754714E+04  0.00000000000E+00 0.  1.
         21   -1    0    0  502  503 -0.00000000000E+00 -0.00000000000E+00 -0.17592375538E+01  0.17592375538E+01  0.00000000000E+00 0.  1.
         25    2    1    2    0    0  0.00000000000E+00  0.00000000000E+00  0.22185162339E+04  0.22220347090E+04  0.12499587176E+03 0.  0.
          4    1    3    3  501    0 -0.50698394411E+02 -0.33610297750E+02  0.13629198241E+04  0.13642774017E+04  0.15500000000E+01 0. -1.
         -4    1    3    3    0  501  0.50698394411E+02  0.33610297750E+02  0.85559640976E+03  0.85775730729E+03  0.15500000000E+01 0. -1.
<mgrwt>
<rscale>  2 0.12499587E+03</rscale>
<asrwt>0</asrwt>
<pdfrwt beam="1">  1       21 0.34157860E+00 0.12499587E+03</pdfrwt>
<pdfrwt beam="2">  1       21 0.27065371E-03 0.12499587E+03</pdfrwt>
<totfact> 0.59793593E+05</totfact>
</mgrwt>
</event>
<event>
 5    0  0.1259456E+000  0.1249914E+03  0.7546771E-02  0.1235083E+00
         21   -1    0    0  503  502  0.00000000000E+00  0.00000000000E+00  0.93167923853E+01  0.93167923853E+01  0.00000000000E+00 0.  1.
         21   -1    0    0  502  503 -0.00000000000E+00 -0.00000000000E+00 -0.41921194817E+03  0.41921194817E+03  0.00000000000E+00 0.  1.
         25    2    1    2    0    0  0.00000000000E+00  0.00000000000E+00 -0.40989515579E+03  0.42852874056E+03  0.12499137069E+03 0.  0.
          4    1    3    3  501    0  0.29264584502E+02  0.32615236490E+02 -0.35762557740E+03  0.36030351881E+03  0.15500000000E+01 0.  1.
         -4    1    3    3    0  501 -0.29264584502E+02 -0.32615236490E+02 -0.52269578384E+02  0.68225221743E+02  0.15500000000E+01 0.  1.
<mgrwt>
<rscale>  2 0.12499137E+03</rscale>
<asrwt>0</asrwt>
<pdfrwt beam="1">  1       21 0.14333529E-02 0.12499137E+03</pdfrwt>
<pdfrwt beam="2">  1       21 0.64494137E-01 0.12499137E+03</pdfrwt>
<totfact> 0.46214859E+06</totfact>
</mgrwt>
</event>
<event>
 5    0  0.1526771E+000  0.1250026E+03  0.7546771E-02  0.1235065E+00
         21   -1    0    0  503  502  0.00000000000E+00  0.00000000000E+00  0.22535508546E+02  0.22535508546E+02  0.00000000000E+00 0. -1.
         21   -1    0    0  502  503 -0.00000000000E+00 -0.00000000000E+00 -0.17334486575E+03  0.17334486575E+03  0.00000000000E+00 0. -1.
         25    2    1    2    0    0  0.00000000000E+00  0.00000000000E+00 -0.15080935720E+03  0.19588037429E+03  0.12500263523E+03 0.  0.
          4    1    3    3  501    0  0.11796899275E+02  0.59735014271E+02 -0.53434470193E+02  0.81025205136E+02  0.15500000000E+01 0. -1.
         -4    1    3    3    0  501 -0.11796899275E+02 -0.59735014271E+02 -0.97374887009E+02  0.11485516916E+03  0.15500000000E+01 0. -1.
<mgrwt>
<rscale>  2 0.12500264E+03</rscale>
<asrwt>0</asrwt>
<pdfrwt beam="1">  1       21 0.34670014E-02 0.12500264E+03</pdfrwt>
<pdfrwt beam="2">  1       21 0.26668440E-01 0.12500264E+03</pdfrwt>
<totfact> 0.65370434E+06</totfact>
</mgrwt>
</event>
<event>
 5    0  0.1345960E+000  0.1250293E+03  0.7546771E-02  0.1235024E+00
         21   -1    0    0  503  502  0.00000000000E+00  0.00000000000E+00  0.94345748392E+01  0.94345748392E+01  0.00000000000E+00 0.  1.
         21   -1    0    0  502  503 -0.00000000000E+00 -0.00000000000E+00 -0.41422970945E+03  0.41422970945E+03  0.00000000000E+00 0.  1.
         25    2    1    2    0    0  0.00000000000E+00  0.00000000000E+00 -0.40479513461E+03  0.42366428429E+03  0.12502929568E+03 0.  0.
          4    1    3    3  501    0 -0.14925287889E+01  0.35706945049E+02 -0.37612211064E+03  0.37781934596E+03  0.15500000000E+01 0.  1.
         -4    1    3    3    0  501  0.14925287889E+01 -0.35706945049E+02 -0.28673023967E+02  0.45844938329E+02  0.15500000000E+01 0.  1.
<mgrwt>
<rscale>  2 0.12502930E+03</rscale>
<asrwt>0</asrwt>
<pdfrwt beam="1">  1       21 0.14514733E-02 0.12502930E+03</pdfrwt>
<pdfrwt beam="2">  1       21 0.63727639E-01 0.12502930E+03</pdfrwt>
<totfact> 0.46476333E+06</totfact>
</mgrwt>
</event>
<event>
 5    0  0.1222151E+000  0.1250041E+03  0.7546771E-02  0.1235063E+00
         21   -1    0    0  503  502  0.00000000000E+00  0.00000000000E+00  0.36545398764E+01  0.36545398764E+01  0.00000000000E+00 0.  1.
         21   -1    0    0  502  503 -0.00000000000E+00 -0.00000000000E+00 -0.10689467870E+04  0.10689467870E+04  0.00000000000E+00 0.  1.
         25    2    1    2    0    0  0.00000000000E+00  0.00000000000E+00 -0.10652922471E+04  0.10726013269E+04  0.12500413847E+03 0.  0.
          4    1    3    3  501    0 -0.21605937083E+02 -0.12331029818E+00 -0.10357075786E+04  0.10359340822E+04  0.15500000000E+01 0. -1.
         -4    1    3    3    0  501  0.21605937083E+02  0.12331029818E+00 -0.29584668497E+02  0.36667244684E+02  0.15500000000E+01 0. -1.
<mgrwt>
<rscale>  2 0.12500414E+03</rscale>
<asrwt>0</asrwt>
<pdfrwt beam="1">  1       21 0.56223658E-03 0.12500414E+03</pdfrwt>
<pdfrwt beam="2">  1       21 0.16445345E+00 0.12500414E+03</pdfrwt>
<totfact> 0.21869015E+06</totfact>
</mgrwt>
</event>
<event>
 5    0  0.1457798E+000  0.1250069E+03  0.7546771E-02  0.1235058E+00
         21   -1    0    0  503  502  0.00000000000E+00  0.00000000000E+00  0.15584420724E+02  0.15584420724E+02  0.00000000000E+00 0.  1.
         21   -1    0    0  502  503 -0.00000000000E+00 -0.00000000000E+00 -0.25067872140E+03  0.25067872140E+03  0.00000000000E+00 0.  1.
         25    2    1    2    0    0  0.00000000000E+00  0.00000000000E+00 -0.23509430068E+03  0.26626314213E+03  0.12500692238E+03 0.  0.
          4    1    3    3  501    0  0.20925796927E+02 -0.55573434056E+02 -0.15895799119E+03  0.16969484674E+03  0.15500000000E+01 0.  1.
         -4    1    3    3    0  501 -0.20925796927E+02  0.55573434056E+02 -0.76136309493E+02  0.96568295382E+02  0.15500000000E+01 0.  1.
<mgrwt>
<rscale>  2 0.12500692E+03</rscale>
<asrwt>0</asrwt>
<pdfrwt beam="1">  1       21 0.23976034E-02 0.12500692E+03</pdfrwt>
<pdfrwt beam="2">  1       21 0.38565954E-01 0.12500692E+03</pdfrwt>
<totfact> 0.58369762E+06</totfact>
</mgrwt>
</event>
<event>
 5    0  0.1222151E+000  0.1250056E+03  0.7546771E-02  0.1235061E+00
         21   -1    0    0  503  502  0.00000000000E+00  0.00000000000E+00  0.29086202434E+01  0.29086202434E+01  0.00000000000E+00 0.  1.
         21   -1    0    0  502  503 -0.00000000000E+00 -0.00000000000E+00 -0.13431114119E+04  0.13431114119E+04  0.00000000000E+00 0.  1.
         25    2    1    2    0    0  0.00000000000E+00  0.00000000000E+00 -0.13402027916E+04  0.13460200321E+04  0.12500561654E+03 0.  0.
          4    1    3    3  501    0 -0.11604986412E+02 -0.61295205016E+02 -0.70804989290E+03  0.71079450701E+03  0.15500000000E+01 0. -1.
         -4    1    3    3    0  501  0.11604986412E+02  0.61295205016E+02 -0.63215289873E+03  0.63522552510E+03  0.15500000000E+01 0. -1.
<mgrwt>
<rscale>  2 0.12500562E+03</rscale>
<asrwt>0</asrwt>
<pdfrwt beam="1">  1       21 0.44747934E-03 0.12500562E+03</pdfrwt>
<pdfrwt beam="2">  1       21 0.20663285E+00 0.12500562E+03</pdfrwt>
<totfact> 0.16443423E+06</totfact>
</mgrwt>
</event>
<event>
 5    0  0.1578506E+000  0.1250341E+03  0.7546771E-02  0.1235016E+00
         21   -1    0    0  503  502  0.00000000000E+00  0.00000000000E+00  0.27494160558E+02  0.27494160558E+02  0.00000000000E+00 0.  1.
         21   -1    0    0  502  503 -0.00000000000E+00 -0.00000000000E+00 -0.14215309041E+03  0.14215309041E+03  0.00000000000E+00 0.  1.
         25    2    1    2    0    0  0.00000000000E+00  0.00000000000E+00 -0.11465892985E+03  0.16964725097E+03  0.12503407362E+03 0.  0.
          4    1    3    3  501    0  0.29956765245E+02  0.44368744371E+02 -0.10108487939E+03  0.11439645362E+03  0.15500000000E+01 0.  1.
         -4    1    3    3    0  501 -0.29956765245E+02 -0.44368744371E+02 -0.13574050464E+02  0.55250797343E+02  0.15500000000E+01 0.  1.
<mgrwt>
<rscale>  2 0.12503407E+03</rscale>
<asrwt>0</asrwt>
<pdfrwt beam="1">  1       21 0.42298710E-02 0.12503407E+03</pdfrwt>
<pdfrwt beam="2">  1       21 0.21869706E-01 0.12503407E+03</pdfrwt>
<totfact> 0.68300368E+06</totfact>
</mgrwt>
</event>
<event>
 5    0  0.1236866E+000  0.1250006E+03  0.7546771E-02  0.1235068E+00
         21   -1    0    0  503  502  0.00000000000E+00  0.00000000000E+00  0.66181798866E+03  0.66181798866E+03  0.00000000000E+00 0.  1.
         21   -1    0    0  502  503 -0.00000000000E+00 -0.00000000000E+00 -0.59023561381E+01  0.59023561381E+01  0.00000000000E+00 0.  1.
         25    2    1    2    0    0  0.00000000000E+00  0.00000000000E+00  0.65591563252E+03  0.66772034480E+03  0.12500056748E+03 0.  0.
          4    1    3    3  501    0  0.48501464954E+02  0.39322469577E+02  0.34017890539E+03  0.34586520335E+03  0.15500000000E+01 0.  1.
         -4    1    3    3    0  501 -0.48501464954E+02 -0.39322469577E+02  0.31573672714E+03  0.32185514145E+03  0.15500000000E+01 0.  1.
<mgrwt>
<rscale>  2 0.12500057E+03</rscale>
<asrwt>0</asrwt>
<pdfrwt beam="1">  1       21 0.10181809E+00 0.12500057E+03</pdfrwt>
<pdfrwt beam="2">  1       21 0.90805531E-03 0.12500057E+03</pdfrwt>
<totfact> 0.34191660E+06</totfact>
</mgrwt>
</event>
<event>
 5    0  0.1492806E+000  0.1249846E+03  0.7546771E-02  0.1235093E+00
         21   -1    0    0  503  502  0.00000000000E+00  0.00000000000E+00  0.17116873018E+03  0.17116873018E+03  0.00000000000E+00 0. -1.
         21   -1    0    0  502  503 -0.00000000000E+00 -0.00000000000E+00 -0.22815437672E+02  0.22815437672E+02  0.00000000000E+00 0. -1.
         25    2    1    2    0    0  0.00000000000E+00  0.00000000000E+00  0.14835329251E+03  0.19398416785E+03  0.12498463097E+03 0.  0.
          4    1    3    3  501    0  0.17847159668E+02 -0.55243328530E+02  0.38359909836E+02  0.69600514638E+02  0.15500000000E+01 0. -1.
         -4    1    3    3    0  501 -0.17847159668E+02  0.55243328530E+02  0.10999338267E+03  0.12438365321E+03  0.15500000000E+01 0. -1.
<mgrwt>
<rscale>  2 0.12498463E+03</rscale>
<asrwt>0</asrwt>
<pdfrwt beam="1">  1       21 0.26333650E-01 0.12498463E+03</pdfrwt>
<pdfrwt beam="2">  1       21 0.35100674E-02 0.12498463E+03</pdfrwt>
<totfact> 0.65607914E+06</totfact>
</mgrwt>
</event>
<event>
 5    0  0.1568438E+000  0.1250040E+03  0.7546771E-02  0.1235063E+00
         21   -1    0    0  503  502  0.00000000000E+00  0.00000000000E+00  0.47004557538E+02  0.47004557538E+02  0.00000000000E+00 0.  1.
         21   -1    0    0  502  503 -0.00000000000E+00 -0.00000000000E+00 -0.83108949955E+02  0.83108949955E+02  0.00000000000E+00 0.  1.
         25    2    1    2    0    0  0.00000000000E+00  0.00000000000E+00 -0.36104392417E+02  0.13011350749E+03  0.12500399066E+03 0.  0.
          4    1    3    3  501    0  0.61957324596E+02  0.74229219802E+01 -0.14713748871E+02  0.64130388644E+02  0.15500000000E+01 0. -1.
         -4    1    3    3    0  501 -0.61957324596E+02 -0.74229219802E+01 -0.21390643546E+02  0.65983118849E+02  0.15500000000E+01 0. -1.
<mgrwt>
<rscale>  2 0.12500399E+03</rscale>
<asrwt>0</asrwt>
<pdfrwt beam="1">  1       21 0.72314705E-02 0.12500399E+03</pdfrwt>
<pdfrwt beam="2">  1       21 0.12785992E-01 0.12500399E+03</pdfrwt>
<totfact> 0.73342276E+06</totfact>
</mgrwt>
</event>
<event>
 5    0  0.1511165E+000  0.1249986E+03  0.7546771E-02  0.1235071E+00
         21   -1    0    0  503  502  0.00000000000E+00  0.00000000000E+00  0.16507448519E+03  0.16507448519E+03  0.00000000000E+00 0.  1.
         21   -1    0    0  502  503 -0.00000000000E+00 -0.00000000000E+00 -0.23663040677E+02  0.23663040677E+02  0.00000000000E+00 0.  1.
         25    2    1    2    0    0  0.00000000000E+00  0.00000000000E+00  0.14141144451E+03  0.18873752587E+03  0.12499862812E+03 0.  0.
          4    1    3    3  501    0  0.38968124728E+02  0.11796971244E+02  0.14226492193E+03  0.14798443765E+03  0.15500000000E+01 0.  1.
         -4    1    3    3    0  501 -0.38968124728E+02 -0.11796971244E+02 -0.85347741688E+00  0.40753088215E+02  0.15500000000E+01 0.  1.
<mgrwt>
<rscale>  2 0.12499863E+03</rscale>
<asrwt>0</asrwt>
<pdfrwt beam="1">  1       21 0.25396074E-01 0.12499863E+03</pdfrwt>
<pdfrwt beam="2">  1       21 0.36404679E-02 0.12499863E+03</pdfrwt>
<totfact> 0.66165352E+06</totfact>
</mgrwt>
</event>
<event>
 5    0  0.1578368E+000  0.1249960E+03  0.7546771E-02  0.1235075E+00
         21   -1    0    0  503  502  0.00000000000E+00  0.00000000000E+00  0.90373836272E+02  0.90373836272E+02  0.00000000000E+00 0. -1.
         21   -1    0    0  502  503 -0.00000000000E+00 -0.00000000000E+00 -0.43220495448E+02  0.43220495448E+02  0.00000000000E+00 0. -1.
         25    2    1    2    0    0  0.00000000000E+00  0.00000000000E+00  0.47153340824E+02  0.13359433172E+03  0.12499603160E+03 0.  0.
          4    1    3    3  501    0 -0.60052900205E+02  0.11290531459E+02  0.96506973853E+01  0.61881866356E+02  0.15500000000E+01 0. -1.
         -4    1    3    3    0  501  0.60052900205E+02 -0.11290531459E+02  0.37502643439E+02  0.71712465364E+02  0.15500000000E+01 0. -1.
<mgrwt>
<rscale>  2 0.12499603E+03</rscale>
<asrwt>0</asrwt>
<pdfrwt beam="1">  1       21 0.13903667E-01 0.12499603E+03</pdfrwt>
<pdfrwt beam="2">  1       21 0.66493070E-02 0.12499603E+03</pdfrwt>
<totfact> 0.72890516E+06</totfact>
</mgrwt>
</event>
<event>
 5    0  0.1637219E+000  0.1250038E+03  0.7546771E-02  0.1235063E+00
         21   -1    0    0  503  502  0.00000000000E+00  0.00000000000E+00  0.58575802381E+02  0.58575802381E+02  0.00000000000E+00 0. -1.
         21   -1    0    0  502  503 -0.00000000000E+00 -0.00000000000E+00 -0.66691190478E+02  0.66691190478E+02  0.00000000000E+00 0. -1.
         25    2    1    2    0    0  0.00000000000E+00  0.00000000000E+00 -0.81153880966E+01  0.12526699286E+03  0.12500383984E+03 0.  0.
          4    1    3    3  501    0 -0.32224751457E+02 -0.52161307735E+02  0.80030427940E+01  0.61852144870E+02  0.15500000000E+01 0.  1.
         -4    1    3    3    0  501  0.32224751457E+02  0.52161307735E+02 -0.16118430891E+02  0.63414847989E+02  0.15500000000E+01 0.  1.
<mgrwt>
<rscale>  2 0.12500384E+03</rscale>
<asrwt>0</asrwt>
<pdfrwt beam="1">  1       21 0.90116619E-02 0.12500384E+03</pdfrwt>
<pdfrwt beam="2">  1       21 0.10260183E-01 0.12500384E+03</pdfrwt>
<totfact> 0.74000263E+06</totfact>
</mgrwt>
</event>
<event>
 5    0  0.1518886E+000  0.1250190E+03  0.7546771E-02  0.1235040E+00
         21   -1    0    0  503  502  0.00000000000E+00  0.00000000000E+00  0.52663190793E+02  0.52663190793E+02  0.00000000000E+00 0.  1.
         21   -1    0    0  502  503 -0.00000000000E+00 -0.00000000000E+00 -0.74196762891E+02  0.74196762891E+02  0.00000000000E+00 0.  1.
         25    2    1    2    0    0  0.00000000000E+00  0.00000000000E+00 -0.21533572098E+02  0.12685995368E+03  0.12501901104E+03 0.  0.
          4    1    3    3  501    0  0.21287135146E+02 -0.27194239531E+02 -0.63614075220E+02  0.72400427157E+02  0.15500000000E+01 0. -1.
         -4    1    3    3    0  501 -0.21287135146E+02  0.27194239531E+02  0.42080503122E+02  0.54459526526E+02  0.15500000000E+01 0. -1.
<mgrwt>
<rscale>  2 0.12501901E+03</rscale>
<asrwt>0</asrwt>
<pdfrwt beam="1">  1       21 0.81020293E-02 0.12501901E+03</pdfrwt>
<pdfrwt beam="2">  1       21 0.11414887E-01 0.12501901E+03</pdfrwt>
<totfact> 0.73752419E+06</totfact>
</mgrwt>
</event>
<event>
 5    0  0.1222151E+000  0.1250000E+03  0.7546771E-02  0.1235069E+00
         21   -1    0    0  503  502  0.00000000000E+00  0.00000000000E+00  0.15230030478E+04  0.15230030478E+04  0.00000000000E+00 0.  1.
         21   -1    0    0  502  503 -0.00000000000E+00 -0.00000000000E+00 -0.25648333069E+01  0.25648333069E+01  0.00000000000E+00 0.  1.
         25    2    1    2    0    0  0.00000000000E+00  0.00000000000E+00  0.15204382145E+04  0.15255678811E+04  0.12499998309E+03 0.  0.
          4    1    3    3  501    0 -0.56011197144E+02  0.26585297549E+02  0.66582960346E+03  0.66871181805E+03  0.15500000000E+01 0.  1.
         -4    1    3    3    0  501  0.56011197144E+02 -0.26585297549E+02  0.85460861100E+03  0.85685606303E+03  0.15500000000E+01 0.  1.
<mgrwt>
<rscale>  2 0.12499998E+03</rscale>
<asrwt>0</asrwt>
<pdfrwt beam="1">  1       21 0.23430744E+00 0.12499998E+03</pdfrwt>
<pdfrwt beam="2">  1       21 0.39459096E-03 0.12499998E+03</pdfrwt>
<totfact> 0.13617977E+06</totfact>
</mgrwt>
</event>
<event>
 5    0  0.1570396E+000  0.1250105E+03  0.7546771E-02  0.1235053E+00
         21   -1    0    0  503  502  0.00000000000E+00  0.00000000000E+00  0.14448911464E+03  0.14448911464E+03  0.00000000000E+00 0. -1.
         21   -1    0    0  502  503 -0.00000000000E+00 -0.00000000000E+00 -0.27039430119E+02  0.27039430119E+02  0.00000000000E+00 0. -1.
         25    2    1    2    0    0  0.00000000000E+00  0.00000000000E+00  0.11744968452E+03  0.17152854476E+03  0.12501045265E+03 0.  0.
          4    1    3    3  501    0 -0.47809631740E+02  0.36908089444E+02  0.36748187748E+02  0.70716333024E+02  0.15500000000E+01 0.  1.
         -4    1    3    3    0  501  0.47809631740E+02 -0.36908089444E+02  0.80701496771E+02  0.10081221173E+03  0.15500000000E+01 0.  1.
<mgrwt>
<rscale>  2 0.12501045E+03</rscale>
<asrwt>0</asrwt>
<pdfrwt beam="1">  1       21 0.22229094E-01 0.12501045E+03</pdfrwt>
<pdfrwt beam="2">  1       21 0.41599124E-02 0.12501045E+03</pdfrwt>
<totfact> 0.68118821E+06</totfact>
</mgrwt>
</event>
<event>
 5    0  0.1457168E+000  0.1249994E+03  0.7546771E-02  0.1235070E+00
         21   -1    0    0  503  502  0.00000000000E+00  0.00000000000E+00  0.15822518572E+02  0.15822518572E+02  0.00000000000E+00 0. -1.
         21   -1    0    0  502  503 -0.00000000000E+00 -0.00000000000E+00 -0.24687683248E+03  0.24687683248E+03  0.00000000000E+00 0. -1.
         25    2    1    2    0    0  0.00000000000E+00  0.00000000000E+00 -0.23105431391E+03  0.26269935105E+03  0.12499941227E+03 0.  0.
          4    1    3    3  501    0 -0.24290307663E+02  0.57287930962E+02 -0.12739418873E+03  0.14178719231E+03  0.15500000000E+01 0. -1.
         -4    1    3    3    0  501  0.24290307663E+02 -0.57287930962E+02 -0.10366012518E+03  0.12091215874E+03  0.15500000000E+01 0. -1.
<mgrwt>
<rscale>  2 0.12499941E+03</rscale>
<asrwt>0</asrwt>
<pdfrwt beam="1">  1       21 0.24342336E-02 0.12499941E+03</pdfrwt>
<pdfrwt beam="2">  1       21 0.37981051E-01 0.12499941E+03</pdfrwt>
<totfact> 0.58703610E+06</totfact>
</mgrwt>
</event>
<event>
 5    0  0.1588169E+000  0.1250096E+03  0.7546771E-02  0.1235054E+00
         21   -1    0    0  503  502  0.00000000000E+00  0.00000000000E+00  0.68252796479E+02  0.68252796479E+02  0.00000000000E+00 0.  1.
         21   -1    0    0  502  503 -0.00000000000E+00 -0.00000000000E+00 -0.57240878182E+02  0.57240878182E+02  0.00000000000E+00 0.  1.
         25    2    1    2    0    0  0.00000000000E+00  0.00000000000E+00  0.11011918296E+02  0.12549367466E+03  0.12500959977E+03 0.  0.
          4    1    3    3  501    0 -0.48958632519E+02 -0.28303210732E+02 -0.21175676314E+02  0.60405556063E+02  0.15500000000E+01 0.  1.
         -4    1    3    3    0  501  0.48958632519E+02  0.28303210732E+02  0.32187594610E+02  0.65088118598E+02  0.15500000000E+01 0.  1.
<mgrwt>
<rscale>  2 0.12500960E+03</rscale>
<asrwt>0</asrwt>
<pdfrwt beam="1">  1       21 0.10500430E-01 0.12500960E+03</pdfrwt>
<pdfrwt beam="2">  1       21 0.88062889E-02 0.12500960E+03</pdfrwt>
<totfact> 0.73958182E+06</totfact>
</mgrwt>
</event>
<event>
 5    0  0.1343891E+000  0.1250033E+03  0.7546771E-02  0.1235064E+00
         21   -1    0    0  503  502  0.00000000000E+00  0.00000000000E+00  0.98769560386E+01  0.98769560386E+01  0.00000000000E+00 0.  1.
         21   -1    0    0  502  503 -0.00000000000E+00 -0.00000000000E+00 -0.39551223312E+03  0.39551223312E+03  0.00000000000E+00 0.  1.
         25    2    1    2    0    0  0.00000000000E+00  0.00000000000E+00 -0.38563527708E+03  0.40538918916E+03  0.12500331098E+03 0.  0.
          4    1    3    3  501    0  0.34926184965E+02  0.23737157231E+02 -0.43470551144E+02  0.60624931723E+02  0.15500000000E+01 0.  1.
         -4    1    3    3    0  501 -0.34926184965E+02 -0.23737157231E+02 -0.34216472593E+03  0.34476425743E+03  0.15500000000E+01 0.  1.
<mgrwt>
<rscale>  2 0.12500331E+03</rscale>
<asrwt>0</asrwt>
<pdfrwt beam="1">  1       21 0.15195316E-02 0.12500331E+03</pdfrwt>
<pdfrwt beam="2">  1       21 0.60848041E-01 0.12500331E+03</pdfrwt>
<totfact> 0.47681987E+06</totfact>
</mgrwt>
</event>
<event>
 5    0  0.1226732E+000  0.1250004E+03  0.7546771E-02  0.1235069E+00
         21   -1    0    0  503  502  0.00000000000E+00  0.00000000000E+00  0.68636965759E+01  0.68636965759E+01  0.00000000000E+00 0.  1.
         21   -1    0    0  502  503 -0.00000000000E+00 -0.00000000000E+00 -0.56912123167E+03  0.56912123167E+03  0.00000000000E+00 0.  1.
         25    2    1    2    0    0  0.00000000000E+00  0.00000000000E+00 -0.56225753509E+03  0.57598492825E+03  0.12500040718E+03 0.  0.
          4    1    3    3  501    0  0.23616788432E+02  0.21235151272E+02 -0.52906392927E+03  0.53001861109E+03  0.15500000000E+01 0.  1.
         -4    1    3    3    0  501 -0.23616788432E+02 -0.21235151272E+02 -0.33193605824E+02  0.45966317157E+02  0.15500000000E+01 0.  1.
<mgrwt>
<rscale>  2 0.12500041E+03</rscale>
<asrwt>0</asrwt>
<pdfrwt beam="1">  1       21 0.10559531E-02 0.12500041E+03</pdfrwt>
<pdfrwt beam="2">  1       21 0.87557130E-01 0.12500041E+03</pdfrwt>
<totfact> 0.38201310E+06</totfact>
</mgrwt>
</event>
<event>
 5    0  0.1228879E+000  0.1249986E+03  0.7546771E-02  0.1235071E+00
         21   -1    0    0  503  502  0.00000000000E+00  0.00000000000E+00  0.66387385778E+01  0.66387385778E+01  0.00000000000E+00 0.  1.
         21   -1    0    0  502  503 -0.00000000000E+00 -0.00000000000E+00 -0.58838920983E+03  0.58838920983E+03  0.00000000000E+00 0.  1.
         25    2    1    2    0    0  0.00000000000E+00  0.00000000000E+00 -0.58175047125E+03  0.59502794840E+03  0.12499859433E+03 0.  0.
          4    1    3    3  501    0 -0.61879576323E+02 -0.64238617481E+01 -0.26335948310E+03  0.27061220926E+03  0.15500000000E+01 0.  1.
         -4    1    3    3    0  501  0.61879576323E+02  0.64238617481E+01 -0.31839098815E+03  0.32441573914E+03  0.15500000000E+01 0.  1.
<mgrwt>
<rscale>  2 0.12499859E+03</rscale>
<asrwt>0</asrwt>
<pdfrwt beam="1">  1       21 0.10213442E-02 0.12499859E+03</pdfrwt>
<pdfrwt beam="2">  1       21 0.90521433E-01 0.12499859E+03</pdfrwt>
<totfact> 0.37319753E+06</totfact>
</mgrwt>
</event>
<event>
 5    0  0.1489110E+000  0.1249953E+03  0.7546771E-02  0.1235077E+00
         21   -1    0    0  503  502  0.00000000000E+00  0.00000000000E+00  0.16228153736E+02  0.16228153736E+02  0.00000000000E+00 0.  1.
         21   -1    0    0  502  503 -0.00000000000E+00 -0.00000000000E+00 -0.24068995809E+03  0.24068995809E+03  0.00000000000E+00 0.  1.
         25    2    1    2    0    0  0.00000000000E+00  0.00000000000E+00 -0.22446180435E+03  0.25691811182E+03  0.12499525819E+03 0.  0.
          4    1    3    3  501    0 -0.51859297723E+01  0.60343597921E+02 -0.14376054392E+03  0.15600557736E+03  0.15500000000E+01 0.  1.
         -4    1    3    3    0  501  0.51859297723E+01 -0.60343597921E+02 -0.80701260429E+02  0.10091253447E+03  0.15500000000E+01 0.  1.
<mgrwt>
<rscale>  2 0.12499526E+03</rscale>
<asrwt>0</asrwt>
<pdfrwt beam="1">  1       21 0.24966392E-02 0.12499526E+03</pdfrwt>
<pdfrwt beam="2">  1       21 0.37029221E-01 0.12499526E+03</pdfrwt>
<totfact> 0.59239983E+06</totfact>
</mgrwt>
</event>
<event>
 5    0  0.1345113E+000  0.1250027E+03  0.7546771E-02  0.1235065E+00
         21   -1    0    0  503  502  0.00000000000E+00  0.00000000000E+00  0.19766556765E+03  0.19766556765E+03  0.00000000000E+00 0. -1.
         21   -1    0    0  502  503 -0.00000000000E+00 -0.00000000000E+00 -0.19762769788E+02  0.19762769788E+02  0.00000000000E+00 0. -1.
         25    2    1    2    0    0  0.00000000000E+00  0.00000000000E+00  0.17790279786E+03  0.21742833744E+03  0.12500270571E+03 0.  0.
          4    1    3    3  501    0 -0.40158605139E+02 -0.39646693552E+01  0.59771730729E+01  0.40823538158E+02  0.15500000000E+01 0.  1.
         -4    1    3    3    0  501  0.40158605139E+02  0.39646693552E+01  0.17192562479E+03  0.17660479928E+03  0.15500000000E+01 0.  1.
<mgrwt>
<rscale>  2 0.12500271E+03</rscale>
<asrwt>0</asrwt>
<pdfrwt beam="1">  1       21 0.30410086E-01 0.12500271E+03</pdfrwt>
<pdfrwt beam="2">  1       21 0.30404263E-02 0.12500271E+03</pdfrwt>
<totfact> 0.63082051E+06</totfact>
</mgrwt>
</event>
<event>
 5    0  0.1518915E+000  0.1249975E+03  0.7546771E-02  0.1235073E+00
         21   -1    0    0  503  502  0.00000000000E+00  0.00000000000E+00  0.16305933923E+02  0.16305933923E+02  0.00000000000E+00 0.  1.
         21   -1    0    0  502  503 -0.00000000000E+00 -0.00000000000E+00 -0.23955042999E+03  0.23955042999E+03  0.00000000000E+00 0.  1.
         25    2    1    2    0    0  0.00000000000E+00  0.00000000000E+00 -0.22324449607E+03  0.25585636391E+03  0.12499749570E+03 0.  0.
          4    1    3    3  501    0 -0.27494524353E+02  0.56021157936E+02 -0.10535595770E+03  0.12246060317E+03  0.15500000000E+01 0.  1.
         -4    1    3    3    0  501  0.27494524353E+02 -0.56021157936E+02 -0.11788853837E+03  0.13339576075E+03  0.15500000000E+01 0.  1.
<mgrwt>
<rscale>  2 0.12499750E+03</rscale>
<asrwt>0</asrwt>
<pdfrwt beam="1">  1       21 0.25086054E-02 0.12499750E+03</pdfrwt>
<pdfrwt beam="2">  1       21 0.36853910E-01 0.12499750E+03</pdfrwt>
<totfact> 0.59334906E+06</totfact>
</mgrwt>
</event>
<event>
 5    0  0.1419188E+000  0.1249992E+03  0.7546771E-02  0.1235070E+00
         21   -1    0    0  503  502  0.00000000000E+00  0.00000000000E+00  0.13025068087E+02  0.13025068087E+02  0.00000000000E+00 0.  1.
         21   -1    0    0  502  503 -0.00000000000E+00 -0.00000000000E+00 -0.29989883339E+03  0.29989883339E+03  0.00000000000E+00 0.  1.
         25    2    1    2    0    0  0.00000000000E+00  0.00000000000E+00 -0.28687376530E+03  0.31292390148E+03  0.12499924358E+03 0.  0.
          4    1    3    3  501    0 -0.74626210402E+00  0.47476876993E+02 -0.24510075029E+03  0.24966255435E+03  0.15500000000E+01 0.  1.
         -4    1    3    3    0  501  0.74626210402E+00 -0.47476876993E+02 -0.41773015016E+02  0.63261347122E+02  0.15500000000E+01 0.  1.
<mgrwt>
<rscale>  2 0.12499924E+03</rscale>
<asrwt>0</asrwt>
<pdfrwt beam="1">  1       21 0.20038566E-02 0.12499924E+03</pdfrwt>
<pdfrwt beam="2">  1       21 0.46138282E-01 0.12499924E+03</pdfrwt>
<totfact> 0.54399926E+06</totfact>
</mgrwt>
</event>
<event>
 5    0  0.1335672E+000  0.1249491E+03  0.7546771E-02  0.1235149E+00
         21   -1    0    0  503  502  0.00000000000E+00  0.00000000000E+00  0.35002960117E+03  0.35002960117E+03  0.00000000000E+00 0.  1.
         21   -1    0    0  502  503 -0.00000000000E+00 -0.00000000000E+00 -0.11150688435E+02  0.11150688435E+02  0.00000000000E+00 0.  1.
         25    2    1    2    0    0  0.00000000000E+00  0.00000000000E+00  0.33887891274E+03  0.36118028961E+03  0.12494912606E+03 0.  0.
          4    1    3    3  501    0  0.86222641623E+01 -0.50635115989E+02  0.27214432984E+03  0.27695342059E+03  0.15500000000E+01 0. -1.
         -4    1    3    3    0  501 -0.86222641623E+01  0.50635115989E+02  0.66734582901E+02  0.84226869024E+02  0.15500000000E+01 0. -1.
<mgrwt>
<rscale>  2 0.12494913E+03</rscale>
<asrwt>0</asrwt>
<pdfrwt beam="1">  1       21 0.53850699E-01 0.12494913E+03</pdfrwt>
<pdfrwt beam="2">  1       21 0.17154908E-02 0.12494913E+03</pdfrwt>
<totfact> 0.50787853E+06</totfact>
</mgrwt>
</event>
<event>
 5    0  0.1473359E+000  0.1249557E+03  0.7546771E-02  0.1235138E+00
         21   -1    0    0  503  502  0.00000000000E+00  0.00000000000E+00  0.28139526442E+03  0.28139526442E+03  0.00000000000E+00 0. -1.
         21   -1    0    0  502  503 -0.00000000000E+00 -0.00000000000E+00 -0.13871891797E+02  0.13871891797E+02  0.00000000000E+00 0. -1.
         25    2    1    2    0    0  0.00000000000E+00  0.00000000000E+00  0.26752337262E+03  0.29526715621E+03  0.12495574673E+03 0.  0.
          4    1    3    3  501    0  0.54018465826E+02  0.30817863763E+02  0.12011629860E+03  0.13527033328E+03  0.15500000000E+01 0.  1.
         -4    1    3    3    0  501 -0.54018465826E+02 -0.30817863763E+02  0.14740707402E+03  0.15999682293E+03  0.15500000000E+01 0.  1.
<mgrwt>
<rscale>  2 0.12495575E+03</rscale>
<asrwt>0</asrwt>
<pdfrwt beam="1">  1       21 0.43291575E-01 0.12495575E+03</pdfrwt>
<pdfrwt beam="2">  1       21 0.21341374E-02 0.12495575E+03</pdfrwt>
<totfact> 0.55913964E+06</totfact>
</mgrwt>
</event>
<event>
 5    0  0.1564763E+000  0.1249995E+03  0.7546771E-02  0.1235070E+00
         21   -1    0    0  503  502  0.00000000000E+00  0.00000000000E+00  0.29512553166E+02  0.29512553166E+02  0.00000000000E+00 0. -1.
         21   -1    0    0  502  503 -0.00000000000E+00 -0.00000000000E+00 -0.13235790556E+03  0.13235790556E+03  0.00000000000E+00 0. -1.
         25    2    1    2    0    0  0.00000000000E+00  0.00000000000E+00 -0.10284535240E+03  0.16187045873E+03  0.12499951560E+03 0.  0.
          4    1    3    3  501    0  0.28635985454E+02 -0.22316682707E+02 -0.11727235268E+03  0.12277321040E+03  0.15500000000E+01 0. -1.
         -4    1    3    3    0  501 -0.28635985454E+02  0.22316682707E+02  0.14427000277E+02  0.39097248330E+02  0.15500000000E+01 0. -1.
<mgrwt>
<rscale>  2 0.12499952E+03</rscale>
<asrwt>0</asrwt>
<pdfrwt beam="1">  1       21 0.45403928E-02 0.12499952E+03</pdfrwt>
<pdfrwt beam="2">  1       21 0.20362755E-01 0.12499952E+03</pdfrwt>
<totfact> 0.69292518E+06</totfact>
</mgrwt>
</event>
<event>
 5    0  0.1420779E+000  0.1250033E+03  0.7546771E-02  0.1235064E+00
         21   -1    0    0  503  502  0.00000000000E+00  0.00000000000E+00  0.34550114301E+03  0.34550114301E+03  0.00000000000E+00 0.  1.
         21   -1    0    0  502  503 -0.00000000000E+00 -0.00000000000E+00 -0.11306635479E+02  0.11306635479E+02  0.00000000000E+00 0.  1.
         25    2    1    2    0    0  0.00000000000E+00  0.00000000000E+00  0.33419450753E+03  0.35680777849E+03  0.12500328766E+03 0.  0.
          4    1    3    3  501    0 -0.21933626328E+02 -0.58498915597E+02  0.16447200625E+03  0.17594502104E+03  0.15500000000E+01 0. -1.
         -4    1    3    3    0  501  0.21933626328E+02  0.58498915597E+02  0.16972250128E+03  0.18086275745E+03  0.15500000000E+01 0. -1.
<mgrwt>
<rscale>  2 0.12500329E+03</rscale>
<asrwt>0</asrwt>
<pdfrwt beam="1">  1       21 0.53154014E-01 0.12500329E+03</pdfrwt>
<pdfrwt beam="2">  1       21 0.17394826E-02 0.12500329E+03</pdfrwt>
<totfact> 0.51035357E+06</totfact>
</mgrwt>
</event>
<event>
 5    0  0.1222151E+000  0.1249948E+03  0.7546771E-02  0.1235077E+00
         21   -1    0    0  503  502  0.00000000000E+00  0.00000000000E+00  0.25064981385E+04  0.25064981385E+04  0.00000000000E+00 0.  1.
         21   -1    0    0  502  503 -0.00000000000E+00 -0.00000000000E+00 -0.15583203887E+01  0.15583203887E+01  0.00000000000E+00 0.  1.
         25    2    1    2    0    0  0.00000000000E+00  0.00000000000E+00  0.25049398181E+04  0.25080564588E+04  0.12499483435E+03 0.  0.
          4    1    3    3  501    0  0.46198954322E+02 -0.42054760370E+02  0.12677301222E+04  0.12692694794E+04  0.15500000000E+01 0. -1.
         -4    1    3    3    0  501 -0.46198954322E+02  0.42054760370E+02  0.12372096959E+04  0.12387869794E+04  0.15500000000E+01 0. -1.
<mgrwt>
<rscale>  2 0.12499483E+03</rscale>
<asrwt>0</asrwt>
<pdfrwt beam="1">  1       21 0.38561187E+00 0.12499483E+03</pdfrwt>
<pdfrwt beam="2">  1       21 0.23974360E-03 0.12499483E+03</pdfrwt>
<totfact> 0.39740265E+05</totfact>
</mgrwt>
</event>
<event>
 5    0  0.1430672E+000  0.1249969E+03  0.7546771E-02  0.1235074E+00
         21   -1    0    0  503  502  0.00000000000E+00  0.00000000000E+00  0.39339915225E+03  0.39339915225E+03  0.00000000000E+00 0. -1.
         21   -1    0    0  502  503 -0.00000000000E+00 -0.00000000000E+00 -0.99289944221E+01  0.99289944221E+01  0.00000000000E+00 0. -1.
         25    2    1    2    0    0  0.00000000000E+00  0.00000000000E+00  0.38347015783E+03  0.40332814668E+03  0.12499692778E+03 0.  0.
          4    1    3    3  501    0  0.42734339376E+02  0.40453193920E+02  0.25949363176E+03  0.26608651241E+03  0.15500000000E+01 0.  1.
         -4    1    3    3    0  501 -0.42734339376E+02 -0.40453193920E+02  0.12397652607E+03  0.13724163427E+03  0.15500000000E+01 0.  1.
<mgrwt>
<rscale>  2 0.12499693E+03</rscale>
<asrwt>0</asrwt>
<pdfrwt beam="1">  1       21 0.60522934E-01 0.12499693E+03</pdfrwt>
<pdfrwt beam="2">  1       21 0.15275379E-02 0.12499693E+03</pdfrwt>
<totfact> 0.47825056E+06</totfact>
</mgrwt>
</event>
<event>
 5    0  0.1274929E+000  0.1250038E+03  0.7546771E-02  0.1235063E+00
         21   -1    0    0  503  502  0.00000000000E+00  0.00000000000E+00  0.69508141062E+01  0.69508141062E+01  0.00000000000E+00 0.  1.
         21   -1    0    0  502  503 -0.00000000000E+00 -0.00000000000E+00 -0.56201831460E+03  0.56201831460E+03  0.00000000000E+00 0.  1.
         25    2    1    2    0    0  0.00000000000E+00  0.00000000000E+00 -0.55506750049E+03  0.56896912871E+03  0.12500375721E+03 0.  0.
          4    1    3    3  501    0  0.21267438200E+01 -0.49079293843E+02 -0.10179289467E+03  0.11303758679E+03  0.15500000000E+01 0.  1.
         -4    1    3    3    0  501 -0.21267438200E+01  0.49079293843E+02 -0.45327460583E+03  0.45593154191E+03  0.15500000000E+01 0.  1.
<mgrwt>
<rscale>  2 0.12500376E+03</rscale>
<asrwt>0</asrwt>
<pdfrwt beam="1">  1       21 0.10693561E-02 0.12500376E+03</pdfrwt>
<pdfrwt beam="2">  1       21 0.86464348E-01 0.12500376E+03</pdfrwt>
<totfact> 0.38531053E+06</totfact>
</mgrwt>
</event>
<event>
 5    0  0.1506130E+000  0.1249891E+03  0.7546771E-02  0.1235086E+00
         21   -1    0    0  503  502  0.00000000000E+00  0.00000000000E+00  0.33173251095E+02  0.33173251095E+02  0.00000000000E+00 0. -1.
         21   -1    0    0  502  503 -0.00000000000E+00 -0.00000000000E+00 -0.11773244396E+03  0.11773244396E+03  0.00000000000E+00 0. -1.
         25    2    1    2    0    0  0.00000000000E+00  0.00000000000E+00 -0.84559192869E+02  0.15090569506E+03  0.12498908633E+03 0.  0.
          4    1    3    3  501    0  0.16602980631E+01 -0.29086812767E+02  0.24446249176E+02  0.38063379584E+02  0.15500000000E+01 0.  1.
         -4    1    3    3    0  501 -0.16602980631E+01  0.29086812767E+02 -0.10900544204E+03  0.11284231548E+03  0.15500000000E+01 0.  1.
<mgrwt>
<rscale>  2 0.12498909E+03</rscale>
<asrwt>0</asrwt>
<pdfrwt beam="1">  1       21 0.51035771E-02 0.12498909E+03</pdfrwt>
<pdfrwt beam="2">  1       21 0.18112684E-01 0.12498909E+03</pdfrwt>
<totfact> 0.70665242E+06</totfact>
</mgrwt>
</event>
<event>
 5    0  0.1470486E+000  0.1249938E+03  0.7546771E-02  0.1235079E+00
         21   -1    0    0  503  502  0.00000000000E+00  0.00000000000E+00  0.19722848174E+03  0.19722848174E+03  0.00000000000E+00 0. -1.
         21   -1    0    0  502  503 -0.00000000000E+00 -0.00000000000E+00 -0.19803749461E+02  0.19803749461E+02  0.00000000000E+00 0. -1.
         25    2    1    2    0    0  0.00000000000E+00  0.00000000000E+00  0.17742473228E+03  0.21703223120E+03  0.12499381487E+03 0.  0.
          4    1    3    3  501    0  0.61894755057E+02  0.33350687912E+01  0.75109184669E+02  0.97395459386E+02  0.15500000000E+01 0. -1.
         -4    1    3    3    0  501 -0.61894755057E+02 -0.33350687912E+01  0.10231554761E+03  0.11963677181E+03  0.15500000000E+01 0. -1.
<mgrwt>
<rscale>  2 0.12499381E+03</rscale>
<asrwt>0</asrwt>
<pdfrwt beam="1">  1       21 0.30342842E-01 0.12499381E+03</pdfrwt>
<pdfrwt beam="2">  1       21 0.30467308E-02 0.12499381E+03</pdfrwt>
<totfact> 0.63137047E+06</totfact>
</mgrwt>
</event>
<event>
 5    0  0.1222151E+000  0.1249985E+03  0.7546771E-02  0.1235072E+00
         21   -1    0    0  503  502  0.00000000000E+00  0.00000000000E+00  0.14751700645E+02  0.14751700645E+02  0.00000000000E+00 0. -1.
         21   -1    0    0  502  503 -0.00000000000E+00 -0.00000000000E+00 -0.26479346247E+03  0.26479346247E+03  0.00000000000E+00 0. -1.
         25    2    1    2    0    0  0.00000000000E+00  0.00000000000E+00 -0.25004176182E+03  0.27954516311E+03  0.12499846225E+03 0.  0.
          4    1    3    3  501    0 -0.12567159888E+02  0.19213385035E+02  0.49335876806E+01  0.23533602775E+02  0.15500000000E+01 0.  1.
         -4    1    3    3    0  501  0.12567159888E+02 -0.19213385035E+02 -0.25497534950E+03  0.25601156034E+03  0.15500000000E+01 0.  1.
<mgrwt>
<rscale>  2 0.12499846E+03</rscale>
<asrwt>0</asrwt>
<pdfrwt beam="1">  1       21 0.22694925E-02 0.12499846E+03</pdfrwt>
<pdfrwt beam="2">  1       21 0.40737454E-01 0.12499846E+03</pdfrwt>
<totfact> 0.57202289E+06</totfact>
</mgrwt>
</event>
<event>
 5    0  0.1505938E+000  0.1250058E+03  0.7546771E-02  0.1235060E+00
         21   -1    0    0  503  502  0.00000000000E+00  0.00000000000E+00  0.29985151320E+02  0.29985151320E+02  0.00000000000E+00 0.  1.
         21   -1    0    0  502  503 -0.00000000000E+00 -0.00000000000E+00 -0.13028489582E+03  0.13028489582E+03  0.00000000000E+00 0.  1.
         25    2    1    2    0    0  0.00000000000E+00  0.00000000000E+00 -0.10029974450E+03  0.16027004714E+03  0.12500579692E+03 0.  0.
          4    1    3    3  501    0  0.45125217121E+02  0.38539969240E+02 -0.25071920367E+02  0.64440811138E+02  0.15500000000E+01 0. -1.
         -4    1    3    3    0  501 -0.45125217121E+02 -0.38539969240E+02 -0.75227824137E+02  0.95829236007E+02  0.15500000000E+01 0. -1.
<mgrwt>
<rscale>  2 0.12500580E+03</rscale>
<asrwt>0</asrwt>
<pdfrwt beam="1">  1       21 0.46131002E-02 0.12500580E+03</pdfrwt>
<pdfrwt beam="2">  1       21 0.20043830E-01 0.12500580E+03</pdfrwt>
<totfact> 0.69476274E+06</totfact>
</mgrwt>
</event>
<event>
 5    0  0.1420182E+000  0.1250016E+03  0.7546771E-02  0.1235067E+00
         21   -1    0    0  503  502  0.00000000000E+00  0.00000000000E+00  0.10627388756E+02  0.10627388756E+02  0.00000000000E+00 0. -1.
         21   -1    0    0  502  503 -0.00000000000E+00 -0.00000000000E+00 -0.36757375382E+03  0.36757375382E+03  0.00000000000E+00 0. -1.
         25    2    1    2    0    0  0.00000000000E+00  0.00000000000E+00 -0.35694636507E+03  0.37820114258E+03  0.12500158685E+03 0.  0.
          4    1    3    3  501    0 -0.77957875061E+01  0.55774311247E+02 -0.96592574824E+02  0.11182162630E+03  0.15500000000E+01 0.  1.
         -4    1    3    3    0  501  0.77957875061E+01 -0.55774311247E+02 -0.26035379024E+03  0.26637951628E+03  0.15500000000E+01 0.  1.
<mgrwt>
<rscale>  2 0.12500159E+03</rscale>
<asrwt>0</asrwt>
<pdfrwt beam="1">  1       21 0.16349832E-02 0.12500159E+03</pdfrwt>
<pdfrwt beam="2">  1       21 0.56549799E-01 0.12500159E+03</pdfrwt>
<totfact> 0.49518823E+06</totfact>
</mgrwt>
</event>
<event>
 5    0  0.1377133E+000  0.1249939E+03  0.7546771E-02  0.1235079E+00
         21   -1    0    0  503  502  0.00000000000E+00  0.00000000000E+00  0.17021850617E+02  0.17021850617E+02  0.00000000000E+00 0.  1.
         21   -1    0    0  502  503 -0.00000000000E+00 -0.00000000000E+00 -0.22946211013E+03  0.22946211013E+03  0.00000000000E+00 0.  1.
         25    2    1    2    0    0  0.00000000000E+00  0.00000000000E+00 -0.21244025952E+03  0.24648396075E+03  0.12499391603E+03 0.  0.
          4    1    3    3  501    0  0.21652094508E+02 -0.24463827692E+02 -0.21123875213E+03  0.21375571329E+03  0.15500000000E+01 0. -1.
         -4    1    3    3    0  501 -0.21652094508E+02  0.24463827692E+02 -0.12015073864E+01  0.32728247462E+02  0.15500000000E+01 0. -1.
<mgrwt>
<rscale>  2 0.12499392E+03</rscale>
<asrwt>0</asrwt>
<pdfrwt beam="1">  1       21 0.26187465E-02 0.12499392E+03</pdfrwt>
<pdfrwt beam="2">  1       21 0.35301859E-01 0.12499392E+03</pdfrwt>
<totfact> 0.60220047E+06</totfact>
</mgrwt>
</event>
<event>
 5    0  0.1618742E+000  0.1249999E+03  0.7546771E-02  0.1235069E+00
         21   -1    0    0  503  502  0.00000000000E+00  0.00000000000E+00  0.63839756101E+02  0.63839756101E+02  0.00000000000E+00 0. -1.
         21   -1    0    0  502  503 -0.00000000000E+00 -0.00000000000E+00 -0.61188236684E+02  0.61188236684E+02  0.00000000000E+00 0. -1.
         25    2    1    2    0    0  0.00000000000E+00  0.00000000000E+00  0.26515194164E+01  0.12502799279E+03  0.12499987370E+03 0.  0.
          4    1    3    3  501    0  0.40718270671E+02  0.46042445344E+02  0.12551263747E+02  0.62752060215E+02  0.15500000000E+01 0. -1.
         -4    1    3    3    0  501 -0.40718270671E+02 -0.46042445344E+02 -0.98997443303E+01  0.62275932570E+02  0.15500000000E+01 0. -1.
<mgrwt>
<rscale>  2 0.12499987E+03</rscale>
<asrwt>0</asrwt>
<pdfrwt beam="1">  1       21 0.98215010E-02 0.12499987E+03</pdfrwt>
<pdfrwt beam="2">  1       21 0.94135748E-02 0.12499987E+03</pdfrwt>
<totfact> 0.74040040E+06</totfact>
</mgrwt>
</event>
<event>
 5    0  0.1445161E+000  0.1249980E+03  0.7546771E-02  0.1235072E+00
         21   -1    0    0  503  502  0.00000000000E+00  0.00000000000E+00  0.17035863347E+02  0.17035863347E+02  0.00000000000E+00 0.  1.
         21   -1    0    0  502  503 -0.00000000000E+00 -0.00000000000E+00 -0.22928841158E+03  0.22928841158E+03  0.00000000000E+00 0.  1.
         25    2    1    2    0    0  0.00000000000E+00  0.00000000000E+00 -0.21225254823E+03  0.24632427493E+03  0.12499801673E+03 0.  0.
          4    1    3    3  501    0  0.74624623911E+00  0.47734434633E+02 -0.18555471427E+03  0.19160398645E+03  0.15500000000E+01 0. -1.
         -4    1    3    3    0  501 -0.74624623911E+00 -0.47734434633E+02 -0.26697833958E+02  0.54720288479E+02  0.15500000000E+01 0. -1.
<mgrwt>
<rscale>  2 0.12499802E+03</rscale>
<asrwt>0</asrwt>
<pdfrwt beam="1">  1       21 0.26209021E-02 0.12499802E+03</pdfrwt>
<pdfrwt beam="2">  1       21 0.35275139E-01 0.12499802E+03</pdfrwt>
<totfact> 0.60229002E+06</totfact>
</mgrwt>
</event>
<event>
 5    0  0.1405719E+000  0.1249997E+03  0.7546771E-02  0.1235070E+00
         21   -1    0    0  503  502  0.00000000000E+00  0.00000000000E+00  0.12711324751E+02  0.12711324751E+02  0.00000000000E+00 0.  1.
         21   -1    0    0  502  503 -0.00000000000E+00 -0.00000000000E+00 -0.30730343475E+03  0.30730343475E+03  0.00000000000E+00 0.  1.
         25    2    1    2    0    0  0.00000000000E+00  0.00000000000E+00 -0.29459211000E+03  0.32001475950E+03  0.12499974010E+03 0.  0.
          4    1    3    3  501    0  0.11359399922E+02 -0.40908880418E+02 -0.26465080453E+03  0.26803921970E+03  0.15500000000E+01 0. -1.
         -4    1    3    3    0  501 -0.11359399922E+02  0.40908880418E+02 -0.29941305471E+02  0.51975539794E+02  0.15500000000E+01 0. -1.
<mgrwt>
<rscale>  2 0.12499974E+03</rscale>
<asrwt>0</asrwt>
<pdfrwt beam="1">  1       21 0.19555883E-02 0.12499974E+03</pdfrwt>
<pdfrwt beam="2">  1       21 0.47277454E-01 0.12499974E+03</pdfrwt>
<totfact> 0.53832522E+06</totfact>
</mgrwt>
</event>
<event>
 5    0  0.1222151E+000  0.1250003E+03  0.7546771E-02  0.1235069E+00
         21   -1    0    0  503  502  0.00000000000E+00  0.00000000000E+00  0.25741294067E+01  0.25741294067E+01  0.00000000000E+00 0. -1.
         21   -1    0    0  502  503 -0.00000000000E+00 -0.00000000000E+00 -0.15175097643E+04  0.15175097643E+04  0.00000000000E+00 0. -1.
         25    2    1    2    0    0  0.00000000000E+00  0.00000000000E+00 -0.15149356349E+04  0.15200838937E+04  0.12500026415E+03 0.  0.
          4    1    3    3  501    0 -0.37305307210E+02  0.40903817357E+02 -0.40521697076E+03  0.40898411230E+03  0.15500000000E+01 0.  1.
         -4    1    3    3    0  501  0.37305307210E+02 -0.40903817357E+02 -0.11097186642E+04  0.11110997814E+04  0.15500000000E+01 0.  1.
<mgrwt>
<rscale>  2 0.12500026E+03</rscale>
<asrwt>0</asrwt>
<pdfrwt beam="1">  1       21 0.39601992E-03 0.12500026E+03</pdfrwt>
<pdfrwt beam="2">  1       21 0.23346304E+00 0.12500026E+03</pdfrwt>
<totfact> 0.13697549E+06</totfact>
</mgrwt>
</event>
<event>
 5    0  0.1394358E+000  0.1249878E+03  0.7546771E-02  0.1235088E+00
         21   -1    0    0  503  502  0.00000000000E+00  0.00000000000E+00  0.32059494695E+03  0.32059494695E+03  0.00000000000E+00 0.  1.
         21   -1    0    0  502  503 -0.00000000000E+00 -0.00000000000E+00 -0.12182002970E+02  0.12182002970E+02  0.00000000000E+00 0.  1.
         25    2    1    2    0    0  0.00000000000E+00  0.00000000000E+00  0.30841294398E+03  0.33277694992E+03  0.12498781694E+03 0.  0.
          4    1    3    3  501    0  0.16650339826E+01  0.20986112482E+02  0.31081562087E+03  0.31153160663E+03  0.15500000000E+01 0.  1.
         -4    1    3    3    0  501 -0.16650339826E+01 -0.20986112482E+02 -0.24026768862E+01  0.21245343289E+02  0.15500000000E+01 0.  1.
<mgrwt>
<rscale>  2 0.12498782E+03</rscale>
<asrwt>0</asrwt>
<pdfrwt beam="1">  1       21 0.49322293E-01 0.12498782E+03</pdfrwt>
<pdfrwt beam="2">  1       21 0.18741545E-02 0.12498782E+03</pdfrwt>
<totfact> 0.52852261E+06</totfact>
</mgrwt>
</event>
<event>
 5    0  0.1551964E+000  0.1249941E+03  0.7546771E-02  0.1235079E+00
         21   -1    0    0  503  502  0.00000000000E+00  0.00000000000E+00  0.21835492044E+03  0.21835492044E+03  0.00000000000E+00 0.  1.
         21   -1    0    0  502  503 -0.00000000000E+00 -0.00000000000E+00 -0.17887755191E+02  0.17887755191E+02  0.00000000000E+00 0.  1.
         25    2    1    2    0    0  0.00000000000E+00  0.00000000000E+00  0.20046716525E+03  0.23624267563E+03  0.12499406964E+03 0.  0.
          4    1    3    3  501    0 -0.93844736356E+01  0.59621776308E+02  0.13074762395E+03  0.14401447228E+03  0.15500000000E+01 0.  1.
         -4    1    3    3    0  501  0.93844736356E+01 -0.59621776308E+02  0.69719541297E+02  0.92228203356E+02  0.15500000000E+01 0.  1.
<mgrwt>
<rscale>  2 0.12499407E+03</rscale>
<asrwt>0</asrwt>
<pdfrwt beam="1">  1       21 0.33593063E-01 0.12499407E+03</pdfrwt>
<pdfrwt beam="2">  1       21 0.27519625E-02 0.12499407E+03</pdfrwt>
<totfact> 0.61207316E+06</totfact>
</mgrwt>
</event>
<event>
 5    0  0.1265514E+000  0.1249994E+03  0.7546771E-02  0.1235070E+00
         21   -1    0    0  503  502  0.00000000000E+00  0.00000000000E+00  0.68931943165E+01  0.68931943165E+01  0.00000000000E+00 0.  1.
         21   -1    0    0  502  503 -0.00000000000E+00 -0.00000000000E+00 -0.56667682934E+03  0.56667682934E+03  0.00000000000E+00 0.  1.
         25    2    1    2    0    0  0.00000000000E+00  0.00000000000E+00 -0.55978363503E+03  0.57357002366E+03  0.12499941599E+03 0.  0.
          4    1    3    3  501    0 -0.19528710862E+01 -0.30074411298E+02 -0.28752281913E+02  0.41681892178E+02  0.15500000000E+01 0.  1.
         -4    1    3    3    0  501  0.19528710862E+01  0.30074411298E+02 -0.53103135311E+03  0.53188813148E+03  0.15500000000E+01 0.  1.
<mgrwt>
<rscale>  2 0.12499942E+03</rscale>
<asrwt>0</asrwt>
<pdfrwt beam="1">  1       21 0.10604917E-02 0.12499942E+03</pdfrwt>
<pdfrwt beam="2">  1       21 0.87181030E-01 0.12499942E+03</pdfrwt>
<totfact> 0.38316400E+06</totfact>
</mgrwt>
</event>
<event>
 5    0  0.1222151E+000  0.1249890E+03  0.7546771E-02  0.1235086E+00
         21   -1    0    0  503  502  0.00000000000E+00  0.00000000000E+00  0.12193169069E+04  0.12193169069E+04  0.00000000000E+00 0.  1.
         21   -1    0    0  502  503 -0.00000000000E+00 -0.00000000000E+00 -0.32030762848E+01  0.32030762848E+01  0.00000000000E+00 0.  1.
         25    2    1    2    0    0  0.00000000000E+00  0.00000000000E+00  0.12161138306E+04  0.12225199832E+04  0.12498904061E+03 0.  0.
          4    1    3    3  501    0 -0.32702036280E+02  0.17183690939E+02  0.11008552231E+04  0.11014759767E+04  0.15500000000E+01 0. -1.
         -4    1    3    3    0  501  0.32702036280E+02 -0.17183690939E+02  0.11525860748E+03  0.12104400649E+03  0.15500000000E+01 0. -1.
<mgrwt>
<rscale>  2 0.12498904E+03</rscale>
<asrwt>0</asrwt>
<pdfrwt beam="1">  1       21 0.18758685E+00 0.12498904E+03</pdfrwt>
<pdfrwt beam="2">  1       21 0.49278194E-03 0.12498904E+03</pdfrwt>
<totfact> 0.18705425E+06</totfact>
</mgrwt>
</event>
<event>
 5    0  0.1222151E+000  0.1249990E+03  0.7546771E-02  0.1235071E+00
         21   -1    0    0  503  502  0.00000000000E+00  0.00000000000E+00  0.23517649681E+01  0.23517649681E+01  0.00000000000E+00 0. -1.
         21   -1    0    0  502  503 -0.00000000000E+00 -0.00000000000E+00 -0.16609608777E+04  0.16609608777E+04  0.00000000000E+00 0. -1.
         25    2    1    2    0    0  0.00000000000E+00  0.00000000000E+00 -0.16586091127E+04  0.16633126426E+04  0.12499903368E+03 0.  0.
          4    1    3    3  501    0  0.43449863542E+02 -0.17534363307E+02 -0.13793105531E+04  0.13801070064E+04  0.15500000000E+01 0.  1.
         -4    1    3    3    0  501 -0.43449863542E+02  0.17534363307E+02 -0.27929855954E+03  0.28320563624E+03  0.15500000000E+01 0.  1.
<mgrwt>
<rscale>  2 0.12499903E+03</rscale>
<asrwt>0</asrwt>
<pdfrwt beam="1">  1       21 0.36180951E-03 0.12499903E+03</pdfrwt>
<pdfrwt beam="2">  1       21 0.25553278E+00 0.12499903E+03</pdfrwt>
<totfact> 0.11735546E+06</totfact>
</mgrwt>
</event>
<event>
 5    0  0.1462622E+000  0.1250414E+03  0.7546771E-02  0.1235005E+00
         21   -1    0    0  503  502  0.00000000000E+00  0.00000000000E+00  0.15548455159E+03  0.15548455159E+03  0.00000000000E+00 0.  1.
         21   -1    0    0  502  503 -0.00000000000E+00 -0.00000000000E+00 -0.25139712123E+02  0.25139712123E+02  0.00000000000E+00 0.  1.
         25    2    1    2    0    0  0.00000000000E+00  0.00000000000E+00  0.13034483947E+03  0.18062426371E+03  0.12504138301E+03 0.  0.
          4    1    3    3  501    0  0.90893995654E+01 -0.49355444666E+02  0.11898635136E+03  0.12914616298E+03  0.15500000000E+01 0. -1.
         -4    1    3    3    0  501 -0.90893995654E+01  0.49355444666E+02  0.11358488104E+02  0.51478100729E+02  0.15500000000E+01 0. -1.
<mgrwt>
<rscale>  2 0.12504138E+03</rscale>
<asrwt>0</asrwt>
<pdfrwt beam="1">  1       21 0.23920700E-01 0.12504138E+03</pdfrwt>
<pdfrwt beam="2">  1       21 0.38676481E-02 0.12504138E+03</pdfrwt>
<totfact> 0.67009638E+06</totfact>
</mgrwt>
</event>
<event>
 5    0  0.1477194E+000  0.1250015E+03  0.7546771E-02  0.1235067E+00
         21   -1    0    0  503  502  0.00000000000E+00  0.00000000000E+00  0.27232401522E+03  0.27232401522E+03  0.00000000000E+00 0.  1.
         21   -1    0    0  502  503 -0.00000000000E+00 -0.00000000000E+00 -0.14344471754E+02  0.14344471754E+02  0.00000000000E+00 0.  1.
         25    2    1    2    0    0  0.00000000000E+00  0.00000000000E+00  0.25797954347E+03  0.28666848698E+03  0.12500150630E+03 0.  0.
          4    1    3    3  501    0 -0.55850353925E+02  0.55339661264E+01  0.66015062518E+02  0.86661858934E+02  0.15500000000E+01 0.  1.
         -4    1    3    3    0  501  0.55850353925E+02 -0.55339661264E+01  0.19196448095E+03  0.20000662804E+03  0.15500000000E+01 0.  1.
<mgrwt>
<rscale>  2 0.12500151E+03</rscale>
<asrwt>0</asrwt>
<pdfrwt beam="1">  1       21 0.41895998E-01 0.12500151E+03</pdfrwt>
<pdfrwt beam="2">  1       21 0.22068420E-02 0.12500151E+03</pdfrwt>
<totfact> 0.56580456E+06</totfact>
</mgrwt>
</event>
<event>
 5    0  0.1346894E+000  0.1250135E+03  0.7546771E-02  0.1235048E+00
         21   -1    0    0  503  502  0.00000000000E+00  0.00000000000E+00  0.40276590951E+03  0.40276590951E+03  0.00000000000E+00 0.  1.
         21   -1    0    0  502  503 -0.00000000000E+00 -0.00000000000E+00 -0.97006620429E+01  0.97006620429E+01  0.00000000000E+00 0.  1.
         25    2    1    2    0    0  0.00000000000E+00  0.00000000000E+00  0.39306524746E+03  0.41246657155E+03  0.12501353480E+03 0.  0.
          4    1    3    3  501    0 -0.33646456708E+01 -0.45430698935E+02  0.33765274286E+03  0.34071549203E+03  0.15500000000E+01 0.  1.
         -4    1    3    3    0  501  0.33646456708E+01  0.45430698935E+02  0.55412504605E+02  0.71751079524E+02  0.15500000000E+01 0.  1.
<mgrwt>
<rscale>  2 0.12501353E+03</rscale>
<asrwt>0</asrwt>
<pdfrwt beam="1">  1       21 0.61963973E-01 0.12501353E+03</pdfrwt>
<pdfrwt beam="2">  1       21 0.14924099E-02 0.12501353E+03</pdfrwt>
<totfact> 0.47209343E+06</totfact>
</mgrwt>
</event>
<event>
 5    0  0.1508762E+000  0.1249988E+03  0.7546771E-02  0.1235071E+00
         21   -1    0    0  503  502  0.00000000000E+00  0.00000000000E+00  0.14489200625E+03  0.14489200625E+03  0.00000000000E+00 0. -1.
         21   -1    0    0  502  503 -0.00000000000E+00 -0.00000000000E+00 -0.26959199915E+02  0.26959199915E+02  0.00000000000E+00 0. -1.
         25    2    1    2    0    0  0.00000000000E+00  0.00000000000E+00  0.11793280633E+03  0.17185120616E+03  0.12499876099E+03 0.  0.
          4    1    3    3  501    0  0.39778390227E+02 -0.16731309733E+02 -0.31523817642E+01  0.43296617249E+02  0.15500000000E+01 0.  1.
         -4    1    3    3    0  501 -0.39778390227E+02  0.16731309733E+02  0.12108518810E+03  0.12855458891E+03  0.15500000000E+01 0.  1.
<mgrwt>
<rscale>  2 0.12499876E+03</rscale>
<asrwt>0</asrwt>
<pdfrwt beam="1">  1       21 0.22291077E-01 0.12499876E+03</pdfrwt>
<pdfrwt beam="2">  1       21 0.41475693E-02 0.12499876E+03</pdfrwt>
<totfact> 0.68101002E+06</totfact>
</mgrwt>
</event>
<event>
 5    0  0.1411745E+000  0.1249870E+03  0.7546771E-02  0.1235090E+00
         21   -1    0    0  503  502  0.00000000000E+00  0.00000000000E+00  0.36119993598E+03  0.36119993598E+03  0.00000000000E+00 0.  1.
         21   -1    0    0  502  503 -0.00000000000E+00 -0.00000000000E+00 -0.10812406419E+02  0.10812406419E+02  0.00000000000E+00 0.  1.
         25    2    1    2    0    0  0.00000000000E+00  0.00000000000E+00  0.35038752957E+03  0.37201234240E+03  0.12498704743E+03 0.  0.
          4    1    3    3  501    0  0.60696721084E+02  0.40955224624E+00  0.13116925949E+03  0.14454077909E+03  0.15500000000E+01 0. -1.
         -4    1    3    3    0  501 -0.60696721084E+02 -0.40955224624E+00  0.21921827007E+03  0.22747156332E+03  0.15500000000E+01 0. -1.
<mgrwt>
<rscale>  2 0.12498705E+03</rscale>
<asrwt>0</asrwt>
<pdfrwt beam="1">  1       21 0.55569212E-01 0.12498705E+03</pdfrwt>
<pdfrwt beam="2">  1       21 0.16634474E-02 0.12498705E+03</pdfrwt>
<totfact> 0.49968920E+06</totfact>
</mgrwt>
</event>
<event>
 5    0  0.1510298E+000  0.1250018E+03  0.7546771E-02  0.1235067E+00
         21   -1    0    0  503  502  0.00000000000E+00  0.00000000000E+00  0.96069680425E+02  0.96069680425E+02  0.00000000000E+00 0. -1.
         21   -1    0    0  502  503 -0.00000000000E+00 -0.00000000000E+00 -0.40661737235E+02  0.40661737235E+02  0.00000000000E+00 0. -1.
         25    2    1    2    0    0  0.00000000000E+00  0.00000000000E+00  0.55407943190E+02  0.13673141766E+03  0.12500176161E+03 0.  0.
          4    1    3    3  501    0  0.38777143835E+02  0.37479622408E+02 -0.68094314645E+01  0.54379774151E+02  0.15500000000E+01 0.  1.
         -4    1    3    3    0  501 -0.38777143835E+02 -0.37479622408E+02  0.62217374654E+02  0.82351643509E+02  0.15500000000E+01 0.  1.
<mgrwt>
<rscale>  2 0.12500176E+03</rscale>
<asrwt>0</asrwt>
<pdfrwt beam="1">  1       21 0.14779951E-01 0.12500176E+03</pdfrwt>
<pdfrwt beam="2">  1       21 0.62556519E-02 0.12500176E+03</pdfrwt>
<totfact> 0.72464768E+06</totfact>
</mgrwt>
</event>
<event>
 5    0  0.1542160E+000  0.1250029E+03  0.7546771E-02  0.1235065E+00
         21   -1    0    0  503  502  0.00000000000E+00  0.00000000000E+00  0.14878832441E+02  0.14878832441E+02  0.00000000000E+00 0. -1.
         21   -1    0    0  502  503 -0.00000000000E+00 -0.00000000000E+00 -0.26254976053E+03  0.26254976053E+03  0.00000000000E+00 0. -1.
         25    2    1    2    0    0  0.00000000000E+00  0.00000000000E+00 -0.24767092809E+03  0.27742859297E+03  0.12500294228E+03 0.  0.
          4    1    3    3  501    0 -0.50991449400E+02  0.31403240417E+02 -0.84274495859E+02  0.10339673386E+03  0.15500000000E+01 0.  1.
         -4    1    3    3    0  501  0.50991449400E+02 -0.31403240417E+02 -0.16339643223E+03  0.17403185911E+03  0.15500000000E+01 0.  1.
<mgrwt>
<rscale>  2 0.12500294E+03</rscale>
<asrwt>0</asrwt>
<pdfrwt beam="1">  1       21 0.22890510E-02 0.12500294E+03</pdfrwt>
<pdfrwt beam="2">  1       21 0.40392274E-01 0.12500294E+03</pdfrwt>
<totfact> 0.57381457E+06</totfact>
</mgrwt>
</event>
<event>
 5    0  0.1222151E+000  0.1249773E+03  0.7546771E-02  0.1235105E+00
         21   -1    0    0  503  502  0.00000000000E+00  0.00000000000E+00  0.36106133270E+01  0.36106133270E+01  0.00000000000E+00 0.  1.
         21   -1    0    0  502  503 -0.00000000000E+00 -0.00000000000E+00 -0.10814868173E+04  0.10814868173E+04  0.00000000000E+00 0.  1.
         25    2    1    2    0    0  0.00000000000E+00  0.00000000000E+00 -0.10778762040E+04  0.10850974306E+04  0.12497728939E+03 0.  0.
          4    1    3    3  501    0 -0.52565268303E+02  0.70469798408E+01 -0.25233340096E+03  0.25785134302E+03  0.15500000000E+01 0.  1.
         -4    1    3    3    0  501  0.52565268303E+02 -0.70469798408E+01 -0.82554280303E+03  0.82724608762E+03  0.15500000000E+01 0.  1.
<mgrwt>
<rscale>  2 0.12497729E+03</rscale>
<asrwt>0</asrwt>
<pdfrwt beam="1">  1       21 0.55547794E-03 0.12497729E+03</pdfrwt>
<pdfrwt beam="2">  1       21 0.16638290E+00 0.12497729E+03</pdfrwt>
<totfact> 0.21598010E+06</totfact>
</mgrwt>
</event>
<event>
 5    0  0.1648979E+000  0.1249984E+03  0.7546771E-02  0.1235072E+00
         21   -1    0    0  503  502  0.00000000000E+00  0.00000000000E+00  0.48200532987E+02  0.48200532987E+02  0.00000000000E+00 0. -1.
         21   -1    0    0  502  503 -0.00000000000E+00 -0.00000000000E+00 -0.81039528982E+02  0.81039528982E+02  0.00000000000E+00 0. -1.
         25    2    1    2    0    0  0.00000000000E+00  0.00000000000E+00 -0.32838995995E+02  0.12924006197E+03  0.12499837583E+03 0.  0.
          4    1    3    3  501    0 -0.19972527923E+02  0.56801817289E+02 -0.33670947307E+02  0.69003503618E+02  0.15500000000E+01 0.  1.
         -4    1    3    3    0  501  0.19972527923E+02 -0.56801817289E+02  0.83195131191E+00  0.60236558351E+02  0.15500000000E+01 0.  1.
<mgrwt>
<rscale>  2 0.12499838E+03</rscale>
<asrwt>0</asrwt>
<pdfrwt beam="1">  1       21 0.74154668E-02 0.12499838E+03</pdfrwt>
<pdfrwt beam="2">  1       21 0.12467620E-01 0.12499838E+03</pdfrwt>
<totfact> 0.73469707E+06</totfact>
</mgrwt>
</event>
<event>
 5    0  0.1537713E+000  0.1250006E+03  0.7546771E-02  0.1235068E+00
         21   -1    0    0  503  502  0.00000000000E+00  0.00000000000E+00  0.24994288417E+02  0.24994288417E+02  0.00000000000E+00 0.  1.
         21   -1    0    0  502  503 -0.00000000000E+00 -0.00000000000E+00 -0.15628712252E+03  0.15628712252E+03  0.00000000000E+00 0.  1.
         25    2    1    2    0    0  0.00000000000E+00  0.00000000000E+00 -0.13129283410E+03  0.18128141093E+03  0.12500056666E+03 0.  0.
          4    1    3    3  501    0 -0.50917592513E+02  0.36077777574E+02 -0.61135327410E+02  0.87373554463E+02  0.15500000000E+01 0. -1.
         -4    1    3    3    0  501  0.50917592513E+02 -0.36077777574E+02 -0.70157506690E+02  0.93907856471E+02  0.15500000000E+01 0. -1.
<mgrwt>
<rscale>  2 0.12500057E+03</rscale>
<asrwt>0</asrwt>
<pdfrwt beam="1">  1       21 0.38452751E-02 0.12500057E+03</pdfrwt>
<pdfrwt beam="2">  1       21 0.24044173E-01 0.12500057E+03</pdfrwt>
<totfact> 0.67003877E+06</totfact>
</mgrwt>
</event>
<event>
 5    0  0.1476452E+000  0.1250005E+03  0.7546771E-02  0.1235068E+00
         21   -1    0    0  503  502  0.00000000000E+00  0.00000000000E+00  0.24330965764E+03  0.24330965764E+03  0.00000000000E+00 0. -1.
         21   -1    0    0  502  503 -0.00000000000E+00 -0.00000000000E+00 -0.16054777813E+02  0.16054777813E+02  0.00000000000E+00 0. -1.
         25    2    1    2    0    0  0.00000000000E+00  0.00000000000E+00  0.22725487982E+03  0.25936443545E+03  0.12500051989E+03 0.  0.
          4    1    3    3  501    0  0.30284943499E+02  0.21305230072E+02  0.92039648113E+01  0.38186464872E+02  0.15500000000E+01 0.  1.
         -4    1    3    3    0  501 -0.30284943499E+02 -0.21305230072E+02  0.21805091501E+03  0.22117797058E+03  0.15500000000E+01 0.  1.
<mgrwt>
<rscale>  2 0.12500052E+03</rscale>
<asrwt>0</asrwt>
<pdfrwt beam="1">  1       21 0.37432252E-01 0.12500052E+03</pdfrwt>
<pdfrwt beam="2">  1       21 0.24699660E-02 0.12500052E+03</pdfrwt>
<totfact> 0.59006802E+06</totfact>
</mgrwt>
</event>
<event>
 5    0  0.1499007E+000  0.1250003E+03  0.7546771E-02  0.1235069E+00
         21   -1    0    0  503  502  0.00000000000E+00  0.00000000000E+00  0.27171980886E+02  0.27171980886E+02  0.00000000000E+00 0. -1.
         21   -1    0    0  502  503 -0.00000000000E+00 -0.00000000000E+00 -0.14376096639E+03  0.14376096639E+03  0.00000000000E+00 0. -1.
         25    2    1    2    0    0  0.00000000000E+00  0.00000000000E+00 -0.11658898550E+03  0.17093294728E+03  0.12500032369E+03 0.  0.
          4    1    3    3  501    0 -0.30144636317E+02 -0.51672893732E+02 -0.82949789091E+02  0.10228321981E+03  0.15500000000E+01 0. -1.
         -4    1    3    3    0  501  0.30144636317E+02  0.51672893732E+02 -0.33639196414E+02  0.68649727462E+02  0.15500000000E+01 0. -1.
<mgrwt>
<rscale>  2 0.12500032E+03</rscale>
<asrwt>0</asrwt>
<pdfrwt beam="1">  1       21 0.41803047E-02 0.12500032E+03</pdfrwt>
<pdfrwt beam="2">  1       21 0.22117072E-01 0.12500032E+03</pdfrwt>
<totfact> 0.68206651E+06</totfact>
</mgrwt>
</event>
<event>
 5    0  0.1222151E+000  0.1250019E+03  0.7546771E-02  0.1235066E+00
         21   -1    0    0  503  502  0.00000000000E+00  0.00000000000E+00  0.63998452154E+02  0.63998452154E+02  0.00000000000E+00 0.  1.
         21   -1    0    0  502  503 -0.00000000000E+00 -0.00000000000E+00 -0.61038520585E+02  0.61038520585E+02  0.00000000000E+00 0.  1.
         25    2    1    2    0    0  0.00000000000E+00  0.00000000000E+00  0.29599315692E+01  0.12503697274E+03  0.12500193341E+03 0.  0.
          4    1    3    3  501    0 -0.15583597535E+02 -0.18092266804E+02  0.59235129727E+02  0.63885692639E+02  0.15500000000E+01 0.  1.
         -4    1    3    3    0  501  0.15583597535E+02  0.18092266804E+02 -0.56275198158E+02  0.61151280100E+02  0.15500000000E+01 0.  1.
<mgrwt>
<rscale>  2 0.12500193E+03</rscale>
<asrwt>0</asrwt>
<pdfrwt beam="1">  1       21 0.98459157E-02 0.12500193E+03</pdfrwt>
<pdfrwt beam="2">  1       21 0.93905416E-02 0.12500193E+03</pdfrwt>
<totfact> 0.74034928E+06</totfact>
</mgrwt>
</event>
<event>
 5    0  0.1389572E+000  0.1250005E+03  0.7546771E-02  0.1235069E+00
         21   -1    0    0  503  502  0.00000000000E+00  0.00000000000E+00  0.11416713000E+03  0.11416713000E+03  0.00000000000E+00 0. -1.
         21   -1    0    0  502  503 -0.00000000000E+00 -0.00000000000E+00 -0.34215452487E+02  0.34215452487E+02  0.00000000000E+00 0. -1.
         25    2    1    2    0    0  0.00000000000E+00  0.00000000000E+00  0.79951677511E+02  0.14838258249E+03  0.12500048019E+03 0.  0.
          4    1    3    3  501    0  0.32681923381E+02  0.35411414726E+01  0.10304896421E+03  0.10817642684E+03  0.15500000000E+01 0. -1.
         -4    1    3    3    0  501 -0.32681923381E+02 -0.35411414726E+01 -0.23097286701E+02  0.40206155645E+02  0.15500000000E+01 0. -1.
<mgrwt>
<rscale>  2 0.12500048E+03</rscale>
<asrwt>0</asrwt>
<pdfrwt beam="1">  1       21 0.17564174E-01 0.12500048E+03</pdfrwt>
<pdfrwt beam="2">  1       21 0.52639158E-02 0.12500048E+03</pdfrwt>
<totfact> 0.70962106E+06</totfact>
</mgrwt>
</event>
<event>
 5    0  0.1222151E+000  0.1250005E+03  0.7546771E-02  0.1235069E+00
         21   -1    0    0  503  502  0.00000000000E+00  0.00000000000E+00  0.44616815216E+01  0.44616815216E+01  0.00000000000E+00 0. -1.
         21   -1    0    0  502  503 -0.00000000000E+00 -0.00000000000E+00 -0.87551729238E+03  0.87551729238E+03  0.00000000000E+00 0. -1.
         25    2    1    2    0    0  0.00000000000E+00  0.00000000000E+00 -0.87105561085E+03  0.87997897390E+03  0.12500046920E+03 0.  0.
          4    1    3    3  501    0  0.17140342079E+02 -0.41190078343E+02 -0.74347104926E+03  0.74481005463E+03  0.15500000000E+01 0.  1.
         -4    1    3    3    0  501 -0.17140342079E+02  0.41190078343E+02 -0.12758456159E+03  0.13516891927E+03  0.15500000000E+01 0.  1.
<mgrwt>
<rscale>  2 0.12500047E+03</rscale>
<asrwt>0</asrwt>
<pdfrwt beam="1">  1       21 0.68641248E-03 0.12500047E+03</pdfrwt>
<pdfrwt beam="2">  1       21 0.13469498E+00 0.12500047E+03</pdfrwt>
<totfact> 0.26876894E+06</totfact>
</mgrwt>
</event>
<event>
 5    0  0.1222151E+000  0.1249990E+03  0.7546771E-02  0.1235071E+00
         21   -1    0    0  503  502  0.00000000000E+00  0.00000000000E+00  0.53254616081E+01  0.53254616081E+01  0.00000000000E+00 0. -1.
         21   -1    0    0  502  503 -0.00000000000E+00 -0.00000000000E+00 -0.73349221378E+03  0.73349221378E+03  0.00000000000E+00 0. -1.
         25    2    1    2    0    0  0.00000000000E+00  0.00000000000E+00 -0.72816675217E+03  0.73881767539E+03  0.12499895398E+03 0.  0.
          4    1    3    3  501    0  0.44904784048E+02  0.10565949992E+02 -0.11501643548E+03  0.12393248913E+03  0.15500000000E+01 0.  1.
         -4    1    3    3    0  501 -0.44904784048E+02 -0.10565949992E+02 -0.61315031669E+03  0.61488518626E+03  0.15500000000E+01 0.  1.
<mgrwt>
<rscale>  2 0.12499895E+03</rscale>
<asrwt>0</asrwt>
<pdfrwt beam="1">  1       21 0.81930121E-03 0.12499895E+03</pdfrwt>
<pdfrwt beam="2">  1       21 0.11284504E+00 0.12499895E+03</pdfrwt>
<totfact> 0.31466920E+06</totfact>
</mgrwt>
</event>
<event>
 5    0  0.1311840E+000  0.1250118E+03  0.7546771E-02  0.1235051E+00
         21   -1    0    0  503  502  0.00000000000E+00  0.00000000000E+00  0.86801524707E+01  0.86801524707E+01  0.00000000000E+00 0.  1.
         21   -1    0    0  502  503 -0.00000000000E+00 -0.00000000000E+00 -0.45010607154E+03  0.45010607154E+03  0.00000000000E+00 0.  1.
         25    2    1    2    0    0  0.00000000000E+00  0.00000000000E+00 -0.44142591907E+03  0.45878622401E+03  0.12501182870E+03 0.  0.
          4    1    3    3  501    0  0.25249368730E+02 -0.41567606965E+02 -0.36469403518E+03  0.36792599577E+03  0.15500000000E+01 0.  1.
         -4    1    3    3    0  501 -0.25249368730E+02  0.41567606965E+02 -0.76731883888E+02  0.90860228236E+02  0.15500000000E+01 0.  1.
<mgrwt>
<rscale>  2 0.12501183E+03</rscale>
<asrwt>0</asrwt>
<pdfrwt beam="1">  1       21 0.13354074E-02 0.12501183E+03</pdfrwt>
<pdfrwt beam="2">  1       21 0.69247123E-01 0.12501183E+03</pdfrwt>
<totfact> 0.44358050E+06</totfact>
</mgrwt>
</event>
<event>
 5    0  0.1279016E+000  0.1250006E+03  0.7546771E-02  0.1235068E+00
         21   -1    0    0  503  502  0.00000000000E+00  0.00000000000E+00  0.51123880282E+01  0.51123880282E+01  0.00000000000E+00 0. -1.
         21   -1    0    0  502  503 -0.00000000000E+00 -0.00000000000E+00 -0.76408309902E+03  0.76408309902E+03  0.00000000000E+00 0. -1.
         25    2    1    2    0    0  0.00000000000E+00  0.00000000000E+00 -0.75897071099E+03  0.76919548704E+03  0.12500062861E+03 0.  0.
          4    1    3    3  501    0  0.57610603659E+02 -0.23263027530E+02 -0.33878975534E+03  0.34444310260E+03  0.15500000000E+01 0. -1.
         -4    1    3    3    0  501 -0.57610603659E+02  0.23263027530E+02 -0.42018095565E+03  0.42475238445E+03  0.15500000000E+01 0. -1.
<mgrwt>
<rscale>  2 0.12500063E+03</rscale>
<asrwt>0</asrwt>
<pdfrwt beam="1">  1       21 0.78652092E-03 0.12500063E+03</pdfrwt>
<pdfrwt beam="2">  1       21 0.11755129E+00 0.12500063E+03</pdfrwt>
<totfact> 0.30404450E+06</totfact>
</mgrwt>
</event>
<event>
 5    0  0.1476624E+000  0.1250071E+03  0.7546771E-02  0.1235058E+00
         21   -1    0    0  503  502  0.00000000000E+00  0.00000000000E+00  0.13878757565E+03  0.13878757565E+03  0.00000000000E+00 0. -1.
         21   -1    0    0  502  503 -0.00000000000E+00 -0.00000000000E+00 -0.28148721596E+02  0.28148721596E+02  0.00000000000E+00 0. -1.
         25    2    1    2    0    0  0.00000000000E+00  0.00000000000E+00  0.11063885405E+03  0.16693629724E+03  0.12500708504E+03 0.  0.
          4    1    3    3  501    0 -0.54537299204E+02  0.16888215057E+02  0.89228483199E+02  0.10594174591E+03  0.15500000000E+01 0. -1.
         -4    1    3    3    0  501  0.54537299204E+02 -0.16888215057E+02  0.21410370851E+02  0.60994551332E+02  0.15500000000E+01 0. -1.
<mgrwt>
<rscale>  2 0.12500709E+03</rscale>
<asrwt>0</asrwt>
<pdfrwt beam="1">  1       21 0.21351934E-01 0.12500709E+03</pdfrwt>
<pdfrwt beam="2">  1       21 0.43305726E-02 0.12500709E+03</pdfrwt>
<totfact> 0.68669370E+06</totfact>
</mgrwt>
</event>
<event>
 5    0  0.1448817E+000  0.1249753E+03  0.7546771E-02  0.1235108E+00
         21   -1    0    0  503  502  0.00000000000E+00  0.00000000000E+00  0.11115565433E+02  0.11115565433E+02  0.00000000000E+00 0. -1.
         21   -1    0    0  502  503 -0.00000000000E+00 -0.00000000000E+00 -0.35128279626E+03  0.35128279626E+03  0.00000000000E+00 0. -1.
         25    2    1    2    0    0  0.00000000000E+00  0.00000000000E+00 -0.34016723083E+03  0.36239836169E+03  0.12497530808E+03 0.  0.
          4    1    3    3  501    0  0.26055600047E+02  0.54561570264E+02 -0.12456152893E+03  0.13846962206E+03  0.15500000000E+01 0.  1.
         -4    1    3    3    0  501 -0.26055600047E+02 -0.54561570264E+02 -0.21560570190E+03  0.22392873964E+03  0.15500000000E+01 0.  1.
<mgrwt>
<rscale>  2 0.12497531E+03</rscale>
<asrwt>0</asrwt>
<pdfrwt beam="1">  1       21 0.17100868E-02 0.12497531E+03</pdfrwt>
<pdfrwt beam="2">  1       21 0.54043514E-01 0.12497531E+03</pdfrwt>
<totfact> 0.50666923E+06</totfact>
</mgrwt>
</event>
<event>
 5    0  0.1384412E+000  0.1250009E+03  0.7546771E-02  0.1235068E+00
         21   -1    0    0  503  502  0.00000000000E+00  0.00000000000E+00  0.25564636460E+03  0.25564636460E+03  0.00000000000E+00 0. -1.
         21   -1    0    0  502  503 -0.00000000000E+00 -0.00000000000E+00 -0.15280106034E+02  0.15280106034E+02  0.00000000000E+00 0. -1.
         25    2    1    2    0    0  0.00000000000E+00  0.00000000000E+00  0.24036625856E+03  0.27092647063E+03  0.12500085693E+03 0.  0.
          4    1    3    3  501    0 -0.28726966355E+02  0.16747224400E+02  0.23483397885E+03  0.23718159339E+03  0.15500000000E+01 0. -1.
         -4    1    3    3    0  501  0.28726966355E+02 -0.16747224400E+02  0.55322797126E+01  0.33744877239E+02  0.15500000000E+01 0. -1.
<mgrwt>
<rscale>  2 0.12500086E+03</rscale>
<asrwt>0</asrwt>
<pdfrwt beam="1">  1       21 0.39330207E-01 0.12500086E+03</pdfrwt>
<pdfrwt beam="2">  1       21 0.23507857E-02 0.12500086E+03</pdfrwt>
<totfact> 0.57960794E+06</totfact>
</mgrwt>
</event>
<event>
 5    0  0.1222151E+000  0.1250169E+03  0.7546771E-02  0.1235043E+00
         21   -1    0    0  503  502  0.00000000000E+00  0.00000000000E+00  0.25393396911E+01  0.25393396911E+01  0.00000000000E+00 0.  1.
         21   -1    0    0  502  503 -0.00000000000E+00 -0.00000000000E+00 -0.15387087236E+04  0.15387087236E+04  0.00000000000E+00 0.  1.
         25    2    1    2    0    0  0.00000000000E+00  0.00000000000E+00 -0.15361693839E+04  0.15412480633E+04  0.12501686502E+03 0.  0.
          4    1    3    3  501    0  0.58793936423E+02  0.14838484479E+02 -0.95423583155E+03  0.95616177099E+03  0.15500000000E+01 0.  1.
         -4    1    3    3    0  501 -0.58793936423E+02 -0.14838484479E+02 -0.58193355234E+03  0.58508629229E+03  0.15500000000E+01 0.  1.
<mgrwt>
<rscale>  2 0.12501687E+03</rscale>
<asrwt>0</asrwt>
<pdfrwt beam="1">  1       21 0.39066876E-03 0.12501687E+03</pdfrwt>
<pdfrwt beam="2">  1       21 0.23672374E+00 0.12501687E+03</pdfrwt>
<totfact> 0.13386535E+06</totfact>
</mgrwt>
</event>
<event>
 5    0  0.1607752E+000  0.1250093E+03  0.7546771E-02  0.1235055E+00
         21   -1    0    0  503  502  0.00000000000E+00  0.00000000000E+00  0.70401750309E+02  0.70401750309E+02  0.00000000000E+00 0.  1.
         21   -1    0    0  502  503 -0.00000000000E+00 -0.00000000000E+00 -0.55493382942E+02  0.55493382942E+02  0.00000000000E+00 0.  1.
         25    2    1    2    0    0  0.00000000000E+00  0.00000000000E+00  0.14908367367E+02  0.12589513325E+03  0.12500930029E+03 0.  0.
          4    1    3    3  501    0  0.40247677600E+02  0.46548529210E+02  0.18384092161E+02  0.64241874726E+02  0.15500000000E+01 0.  1.
         -4    1    3    3    0  501 -0.40247677600E+02 -0.46548529210E+02 -0.34757247935E+01  0.61653258524E+02  0.15500000000E+01 0.  1.
<mgrwt>
<rscale>  2 0.12500930E+03</rscale>
<asrwt>0</asrwt>
<pdfrwt beam="1">  1       21 0.10831039E-01 0.12500930E+03</pdfrwt>
<pdfrwt beam="2">  1       21 0.85374435E-02 0.12500930E+03</pdfrwt>
<totfact> 0.73902979E+06</totfact>
</mgrwt>
</event>
<event>
 5    0  0.1222151E+000  0.1249915E+03  0.7546771E-02  0.1235083E+00
         21   -1    0    0  503  502  0.00000000000E+00  0.00000000000E+00  0.29979668756E+01  0.29979668756E+01  0.00000000000E+00 0. -1.
         21   -1    0    0  502  503 -0.00000000000E+00 -0.00000000000E+00 -0.13027888024E+04  0.13027888024E+04  0.00000000000E+00 0. -1.
         25    2    1    2    0    0  0.00000000000E+00  0.00000000000E+00 -0.12997908355E+04  0.13057867693E+04  0.12499148252E+03 0.  0.
          4    1    3    3  501    0  0.57049000262E+02 -0.13143964028E+01 -0.91562731310E+03  0.91740508777E+03  0.15500000000E+01 0.  1.
         -4    1    3    3    0  501 -0.57049000262E+02  0.13143964028E+01 -0.38416352242E+03  0.38838168150E+03  0.15500000000E+01 0.  1.
<mgrwt>
<rscale>  2 0.12499148E+03</rscale>
<asrwt>0</asrwt>
<pdfrwt beam="1">  1       21 0.46122570E-03 0.12499148E+03</pdfrwt>
<pdfrwt beam="2">  1       21 0.20042903E+00 0.12499148E+03</pdfrwt>
<totfact> 0.17152379E+06</totfact>
</mgrwt>
</event>
<event>
 5    0  0.1222151E+000  0.1250017E+03  0.7546771E-02  0.1235067E+00
         21   -1    0    0  503  502  0.00000000000E+00  0.00000000000E+00  0.11532226034E+04  0.11532226034E+04  0.00000000000E+00 0.  1.
         21   -1    0    0  502  503 -0.00000000000E+00 -0.00000000000E+00 -0.33873418904E+01  0.33873418904E+01  0.00000000000E+00 0.  1.
         25    2    1    2    0    0  0.00000000000E+00  0.00000000000E+00  0.11498352615E+04  0.11566099453E+04  0.12500174772E+03 0.  0.
          4    1    3    3  501    0 -0.62185461647E+02 -0.60544329752E+01  0.57011925565E+03  0.57353470336E+03  0.15500000000E+01 0. -1.
         -4    1    3    3    0  501  0.62185461647E+02  0.60544329752E+01  0.57971600589E+03  0.58307524195E+03  0.15500000000E+01 0. -1.
<mgrwt>
<rscale>  2 0.12500175E+03</rscale>
<asrwt>0</asrwt>
<pdfrwt beam="1">  1       21 0.17741855E+00 0.12500175E+03</pdfrwt>
<pdfrwt beam="2">  1       21 0.52113044E-03 0.12500175E+03</pdfrwt>
<totfact> 0.20029279E+06</totfact>
</mgrwt>
</event>
<event>
 5    0  0.1612637E+000  0.1250031E+03  0.7546771E-02  0.1235064E+00
         21   -1    0    0  503  502  0.00000000000E+00  0.00000000000E+00  0.12766444646E+03  0.12766444646E+03  0.00000000000E+00 0.  1.
         21   -1    0    0  502  503 -0.00000000000E+00 -0.00000000000E+00 -0.30599312183E+02  0.30599312183E+02  0.00000000000E+00 0.  1.
         25    2    1    2    0    0  0.00000000000E+00  0.00000000000E+00  0.97065134274E+02  0.15826375864E+03  0.12500310799E+03 0.  0.
          4    1    3    3  501    0 -0.41316507590E+02  0.42390714508E+02  0.73854622434E+02  0.94662211208E+02  0.15500000000E+01 0.  1.
         -4    1    3    3    0  501  0.41316507590E+02 -0.42390714508E+02  0.23210511841E+02  0.63601547433E+02  0.15500000000E+01 0.  1.
<mgrwt>
<rscale>  2 0.12500311E+03</rscale>
<asrwt>0</asrwt>
<pdfrwt beam="1">  1       21 0.19640684E-01 0.12500311E+03</pdfrwt>
<pdfrwt beam="2">  1       21 0.47075866E-02 0.12500311E+03</pdfrwt>
<totfact> 0.69726760E+06</totfact>
</mgrwt>
</event>
<event>
 5    0  0.1530475E+000  0.1250005E+03  0.7546771E-02  0.1235068E+00
         21   -1    0    0  503  502  0.00000000000E+00  0.00000000000E+00  0.98279734595E+02  0.98279734595E+02  0.00000000000E+00 0.  1.
         21   -1    0    0  502  503 -0.00000000000E+00 -0.00000000000E+00 -0.39746582912E+02  0.39746582912E+02  0.00000000000E+00 0.  1.
         25    2    1    2    0    0  0.00000000000E+00  0.00000000000E+00  0.58533151683E+02  0.13802631751E+03  0.12500053791E+03 0.  0.
          4    1    3    3  501    0 -0.36399373115E+02  0.41650570018E+02 -0.28161945693E+01  0.55407741317E+02  0.15500000000E+01 0.  1.
         -4    1    3    3    0  501  0.36399373115E+02 -0.41650570018E+02  0.61349346252E+02  0.82618576190E+02  0.15500000000E+01 0.  1.
<mgrwt>
<rscale>  2 0.12500054E+03</rscale>
<asrwt>0</asrwt>
<pdfrwt beam="1">  1       21 0.15119959E-01 0.12500054E+03</pdfrwt>
<pdfrwt beam="2">  1       21 0.61148589E-02 0.12500054E+03</pdfrwt>
<totfact> 0.72297036E+06</totfact>
</mgrwt>
</event>
<event>
 5    0  0.1526071E+000  0.1249845E+03  0.7546771E-02  0.1235093E+00
         21   -1    0    0  503  502  0.00000000000E+00  0.00000000000E+00  0.20777728561E+03  0.20777728561E+03  0.00000000000E+00 0. -1.
         21   -1    0    0  502  503 -0.00000000000E+00 -0.00000000000E+00 -0.18795529447E+02  0.18795529447E+02  0.00000000000E+00 0. -1.
         25    2    1    2    0    0  0.00000000000E+00  0.00000000000E+00  0.18898175616E+03  0.22657281506E+03  0.12498454449E+03 0.  0.
          4    1    3    3  501    0 -0.59819130481E+02  0.73294583601E+01  0.12432420483E+03  0.13817003922E+03  0.15500000000E+01 0. -1.
         -4    1    3    3    0  501  0.59819130481E+02 -0.73294583601E+01  0.64657551332E+02  0.88402775836E+02  0.15500000000E+01 0. -1.
<mgrwt>
<rscale>  2 0.12498454E+03</rscale>
<asrwt>0</asrwt>
<pdfrwt beam="1">  1       21 0.31965735E-01 0.12498454E+03</pdfrwt>
<pdfrwt beam="2">  1       21 0.28916201E-02 0.12498454E+03</pdfrwt>
<totfact> 0.62180971E+06</totfact>
</mgrwt>
</event>
<event>
 5    0  0.1374816E+000  0.1249993E+03  0.7546771E-02  0.1235070E+00
         21   -1    0    0  503  502  0.00000000000E+00  0.00000000000E+00  0.45823988247E+03  0.45823988247E+03  0.00000000000E+00 0. -1.
         21   -1    0    0  502  503 -0.00000000000E+00 -0.00000000000E+00 -0.85243660934E+01  0.85243660934E+01  0.00000000000E+00 0. -1.
         25    2    1    2    0    0  0.00000000000E+00  0.00000000000E+00  0.44971551637E+03  0.46676424856E+03  0.12499927227E+03 0.  0.
          4    1    3    3  501    0 -0.29101800070E+02  0.23358964780E+02  0.37731501565E+02  0.53090721536E+02  0.15500000000E+01 0. -1.
         -4    1    3    3    0  501  0.29101800070E+02 -0.23358964780E+02  0.41198401481E+03  0.41367352702E+03  0.15500000000E+01 0. -1.
<mgrwt>
<rscale>  2 0.12499927E+03</rscale>
<asrwt>0</asrwt>
<pdfrwt beam="1">  1       21 0.70498424E-01 0.12499927E+03</pdfrwt>
<pdfrwt beam="2">  1       21 0.13114413E-02 0.12499927E+03</pdfrwt>
<totfact> 0.43906638E+06</totfact>
</mgrwt>
</event>
<event>
 5    0  0.1322476E+000  0.1250058E+03  0.7546771E-02  0.1235060E+00
         21   -1    0    0  503  502  0.00000000000E+00  0.00000000000E+00  0.39863757704E+03  0.39863757704E+03  0.00000000000E+00 0.  1.
         21   -1    0    0  502  503 -0.00000000000E+00 -0.00000000000E+00 -0.97999173083E+01  0.97999173083E+01  0.00000000000E+00 0.  1.
         25    2    1    2    0    0  0.00000000000E+00  0.00000000000E+00  0.38883765973E+03  0.40843749435E+03  0.12500584452E+03 0.  0.
          4    1    3    3  501    0  0.37002826312E+02 -0.28809623794E+02  0.32933333657E+03  0.33265906369E+03  0.15500000000E+01 0. -1.
         -4    1    3    3    0  501 -0.37002826312E+02  0.28809623794E+02  0.59504323163E+02  0.75778430660E+02  0.15500000000E+01 0. -1.
<mgrwt>
<rscale>  2 0.12500584E+03</rscale>
<asrwt>0</asrwt>
<pdfrwt beam="1">  1       21 0.61328846E-01 0.12500584E+03</pdfrwt>
<pdfrwt beam="2">  1       21 0.15076799E-02 0.12500584E+03</pdfrwt>
<totfact> 0.47479762E+06</totfact>
</mgrwt>
</event>
<event>
 5    0  0.1358999E+000  0.1249969E+03  0.7546771E-02  0.1235074E+00
         21   -1    0    0  503  502  0.00000000000E+00  0.00000000000E+00  0.37794670845E+03  0.37794670845E+03  0.00000000000E+00 0.  1.
         21   -1    0    0  502  503 -0.00000000000E+00 -0.00000000000E+00 -0.10334940495E+02  0.10334940495E+02  0.00000000000E+00 0.  1.
         25    2    1    2    0    0  0.00000000000E+00  0.00000000000E+00  0.36761176795E+03  0.38828164894E+03  0.12499690784E+03 0.  0.
          4    1    3    3  501    0  0.45856690712E+02 -0.16949830596E+02  0.62957212922E+02  0.79725441354E+02  0.15500000000E+01 0. -1.
         -4    1    3    3    0  501 -0.45856690712E+02  0.16949830596E+02  0.30465455503E+03  0.30855620759E+03  0.15500000000E+01 0. -1.
<mgrwt>
<rscale>  2 0.12499691E+03</rscale>
<asrwt>0</asrwt>
<pdfrwt beam="1">  1       21 0.58145637E-01 0.12499691E+03</pdfrwt>
<pdfrwt beam="2">  1       21 0.15899911E-02 0.12499691E+03</pdfrwt>
<totfact> 0.48832234E+06</totfact>
</mgrwt>
</event>
<event>
 4    0  0.1350282E+000  0.1251261E+03  0.7546771E-02  0.1234872E+00
         21   -1    0    0  503  502  0.00000000000E+00  0.00000000000E+00  0.13816153053E+03  0.13816153053E+03  0.00000000000E+00 0. -1.
         21   -1    0    0  502  503 -0.00000000000E+00 -0.00000000000E+00 -0.28330155104E+02  0.28330155104E+02  0.00000000000E+00 0. -1.
          4    1    1    2  501    0  0.21279609235E+02  0.74513093166E+00  0.13316481294E+03  0.13486529166E+03  0.15500000000E+01 0. -1.
         -4    1    1    2    0  501 -0.21279609235E+02 -0.74513093166E+00 -0.23333437516E+02  0.31626393971E+02  0.15500000000E+01 0. -1.
<mgrwt>
<rscale>  2 0.12512614E+03</rscale>
<asrwt>0</asrwt>
<pdfrwt beam="1">  1       21 0.21255620E-01 0.12512614E+03</pdfrwt>
<pdfrwt beam="2">  1       21 0.43584855E-02 0.12512614E+03</pdfrwt>
<totfact> 0.68515020E+06</totfact>
</mgrwt>
</event>
<event>
 5    0  0.1513622E+000  0.1249915E+03  0.7546771E-02  0.1235083E+00
         21   -1    0    0  503  502  0.00000000000E+00  0.00000000000E+00  0.95001247096E+02  0.95001247096E+02  0.00000000000E+00 0. -1.
         21   -1    0    0  502  503 -0.00000000000E+00 -0.00000000000E+00 -0.41112261242E+02  0.41112261242E+02  0.00000000000E+00 0. -1.
         25    2    1    2    0    0  0.00000000000E+00  0.00000000000E+00  0.53888985854E+02  0.13611350834E+03  0.12499145713E+03 0.  0.
          4    1    3    3  501    0 -0.32440782944E+02  0.53192675503E+02  0.31987841575E+02  0.70053476958E+02  0.15500000000E+01 0. -1.
         -4    1    3    3    0  501  0.32440782944E+02 -0.53192675503E+02  0.21901144279E+02  0.66060031380E+02  0.15500000000E+01 0. -1.
<mgrwt>
<rscale>  2 0.12499146E+03</rscale>
<asrwt>0</asrwt>
<pdfrwt beam="1">  1       21 0.14615576E-01 0.12499146E+03</pdfrwt>
<pdfrwt beam="2">  1       21 0.63249633E-02 0.12499146E+03</pdfrwt>
<totfact> 0.72565179E+06</totfact>
</mgrwt>
</event>
<event>
 5    0  0.1222151E+000  0.1249977E+03  0.7546771E-02  0.1235073E+00
         21   -1    0    0  503  502  0.00000000000E+00  0.00000000000E+00  0.10793361834E+04  0.10793361834E+04  0.00000000000E+00 0.  1.
         21   -1    0    0  502  503 -0.00000000000E+00 -0.00000000000E+00 -0.36189918883E+01  0.36189918883E+01  0.00000000000E+00 0.  1.
         25    2    1    2    0    0  0.00000000000E+00  0.00000000000E+00  0.10757171915E+04  0.10829551752E+04  0.12499774226E+03 0.  0.
          4    1    3    3  501    0 -0.59137188490E+02 -0.17231803288E+02  0.44717205889E+03  0.45139715867E+03  0.15500000000E+01 0. -1.
         -4    1    3    3    0  501  0.59137188490E+02  0.17231803288E+02  0.62854513258E+03  0.63155801657E+03  0.15500000000E+01 0. -1.
<mgrwt>
<rscale>  2 0.12499774E+03</rscale>
<asrwt>0</asrwt>
<pdfrwt beam="1">  1       21 0.16605146E+00 0.12499774E+03</pdfrwt>
<pdfrwt beam="2">  1       21 0.55676884E-03 0.12499774E+03</pdfrwt>
<totfact> 0.21635763E+06</totfact>
</mgrwt>
</event>
<event>
 5    0  0.1450128E+000  0.1250048E+03  0.7546771E-02  0.1235062E+00
         21   -1    0    0  503  502  0.00000000000E+00  0.00000000000E+00  0.25163956624E+02  0.25163956624E+02  0.00000000000E+00 0.  1.
         21   -1    0    0  502  503 -0.00000000000E+00 -0.00000000000E+00 -0.15524378598E+03  0.15524378598E+03  0.00000000000E+00 0.  1.
         25    2    1    2    0    0  0.00000000000E+00  0.00000000000E+00 -0.13007982935E+03  0.18040774260E+03  0.12500476625E+03 0.  0.
          4    1    3    3  501    0 -0.33277047289E+02 -0.52639337350E+02 -0.72382375531E+02  0.95498023542E+02  0.15500000000E+01 0.  1.
         -4    1    3    3    0  501  0.33277047289E+02  0.52639337350E+02 -0.57697453822E+02  0.84909719058E+02  0.15500000000E+01 0.  1.
<mgrwt>
<rscale>  2 0.12500477E+03</rscale>
<asrwt>0</asrwt>
<pdfrwt beam="1">  1       21 0.38713780E-02 0.12500477E+03</pdfrwt>
<pdfrwt beam="2">  1       21 0.23883659E-01 0.12500477E+03</pdfrwt>
<totfact> 0.67096681E+06</totfact>
</mgrwt>
</event>
<event>
 5    0  0.1222151E+000  0.1249912E+03  0.7546771E-02  0.1235083E+00
         21   -1    0    0  503  502  0.00000000000E+00  0.00000000000E+00  0.11459891186E+04  0.11459891186E+04  0.00000000000E+00 0. -1.
         21   -1    0    0  502  503 -0.00000000000E+00 -0.00000000000E+00 -0.34081466646E+01  0.34081466646E+01  0.00000000000E+00 0. -1.
         25    2    1    2    0    0  0.00000000000E+00  0.00000000000E+00  0.11425809719E+04  0.11493972652E+04  0.12499118356E+03 0.  0.
          4    1    3    3  501    0 -0.30978677583E+02  0.14189818554E+02  0.10528452168E+04  0.10533975900E+04  0.15500000000E+01 0.  1.
         -4    1    3    3    0  501  0.30978677583E+02 -0.14189818554E+02  0.89735755078E+02  0.95999675285E+02  0.15500000000E+01 0.  1.
<mgrwt>
<rscale>  2 0.12499118E+03</rscale>
<asrwt>0</asrwt>
<pdfrwt beam="1">  1       21 0.17630571E+00 0.12499118E+03</pdfrwt>
<pdfrwt beam="2">  1       21 0.52433117E-03 0.12499118E+03</pdfrwt>
<totfact> 0.20186334E+06</totfact>
</mgrwt>
</event>
<event>
 5    0  0.1222151E+000  0.1249987E+03  0.7546771E-02  0.1235071E+00
         21   -1    0    0  503  502  0.00000000000E+00  0.00000000000E+00  0.55845338943E+01  0.55845338943E+01  0.00000000000E+00 0.  1.
         21   -1    0    0  502  503 -0.00000000000E+00 -0.00000000000E+00 -0.69946245427E+03  0.69946245427E+03  0.00000000000E+00 0.  1.
         25    2    1    2    0    0  0.00000000000E+00  0.00000000000E+00 -0.69387792038E+03  0.70504698817E+03  0.12499874853E+03 0.  0.
          4    1    3    3  501    0  0.20862666111E+02 -0.10500393610E+02 -0.20073096921E+02  0.30835706952E+02  0.15500000000E+01 0.  1.
         -4    1    3    3    0  501 -0.20862666111E+02  0.10500393610E+02 -0.67380482346E+03  0.67421128121E+03  0.15500000000E+01 0.  1.
<mgrwt>
<rscale>  2 0.12499875E+03</rscale>
<asrwt>0</asrwt>
<pdfrwt beam="1">  1       21 0.85915830E-03 0.12499875E+03</pdfrwt>
<pdfrwt beam="2">  1       21 0.10760970E+00 0.12499875E+03</pdfrwt>
<totfact> 0.32717459E+06</totfact>
</mgrwt>
</event>
<event>
 5    0  0.1408477E+000  0.1249984E+03  0.7546771E-02  0.1235072E+00
         21   -1    0    0  503  502  0.00000000000E+00  0.00000000000E+00  0.61725707401E+03  0.61725707401E+03  0.00000000000E+00 0.  1.
         21   -1    0    0  502  503 -0.00000000000E+00 -0.00000000000E+00 -0.63282425404E+01  0.63282425404E+01  0.00000000000E+00 0.  1.
         25    2    1    2    0    0  0.00000000000E+00  0.00000000000E+00  0.61092883147E+03  0.62358531655E+03  0.12499843958E+03 0.  0.
          4    1    3    3  501    0  0.60714225392E+00  0.61576248538E+02  0.35820065595E+03  0.36345854706E+03  0.15500000000E+01 0.  1.
         -4    1    3    3    0  501 -0.60714225392E+00 -0.61576248538E+02  0.25272817552E+03  0.26012676950E+03  0.15500000000E+01 0.  1.
<mgrwt>
<rscale>  2 0.12499844E+03</rscale>
<asrwt>0</asrwt>
<pdfrwt beam="1">  1       21 0.94962579E-01 0.12499844E+03</pdfrwt>
<pdfrwt beam="2">  1       21 0.97357626E-03 0.12499844E+03</pdfrwt>
<totfact> 0.36048689E+06</totfact>
</mgrwt>
</event>
<event>
 5    0  0.1479500E+000  0.1249974E+03  0.7546771E-02  0.1235073E+00
         21   -1    0    0  503  502  0.00000000000E+00  0.00000000000E+00  0.32868489466E+03  0.32868489466E+03  0.00000000000E+00 0. -1.
         21   -1    0    0  502  503 -0.00000000000E+00 -0.00000000000E+00 -0.11883988761E+02  0.11883988761E+02  0.00000000000E+00 0. -1.
         25    2    1    2    0    0  0.00000000000E+00  0.00000000000E+00  0.31680090590E+03  0.34056888342E+03  0.12499740148E+03 0.  0.
          4    1    3    3  501    0 -0.43460352299E+02 -0.18889211112E+02  0.26934521334E+03  0.27348647310E+03  0.15500000000E+01 0.  1.
         -4    1    3    3    0  501  0.43460352299E+02  0.18889211112E+02  0.47455692558E+02  0.67082410322E+02  0.15500000000E+01 0.  1.
<mgrwt>
<rscale>  2 0.12499740E+03</rscale>
<asrwt>0</asrwt>
<pdfrwt beam="1">  1       21 0.50566900E-01 0.12499740E+03</pdfrwt>
<pdfrwt beam="2">  1       21 0.18283062E-02 0.12499740E+03</pdfrwt>
<totfact> 0.52245984E+06</totfact>
</mgrwt>
</event>
<event>
 5    0  0.1446276E+000  0.1250045E+03  0.7546771E-02  0.1235062E+00
         21   -1    0    0  503  502  0.00000000000E+00  0.00000000000E+00  0.21022053449E+02  0.21022053449E+02  0.00000000000E+00 0. -1.
         21   -1    0    0  502  503 -0.00000000000E+00 -0.00000000000E+00 -0.18583005879E+03  0.18583005879E+03  0.00000000000E+00 0. -1.
         25    2    1    2    0    0  0.00000000000E+00  0.00000000000E+00 -0.16480800534E+03  0.20685211224E+03  0.12500447077E+03 0.  0.
          4    1    3    3  501    0  0.18023425409E+02 -0.30904399384E+02  0.23642002144E+01  0.35887570375E+02  0.15500000000E+01 0.  1.
         -4    1    3    3    0  501 -0.18023425409E+02  0.30904399384E+02 -0.16717220556E+03  0.17096454186E+03  0.15500000000E+01 0.  1.
<mgrwt>
<rscale>  2 0.12500447E+03</rscale>
<asrwt>0</asrwt>
<pdfrwt beam="1">  1       21 0.32341620E-02 0.12500447E+03</pdfrwt>
<pdfrwt beam="2">  1       21 0.28589240E-01 0.12500447E+03</pdfrwt>
<totfact> 0.64184998E+06</totfact>
</mgrwt>
</event>
<event>
 5    0  0.1552365E+000  0.1249962E+03  0.7546771E-02  0.1235075E+00
         21   -1    0    0  503  502  0.00000000000E+00  0.00000000000E+00  0.47178810610E+02  0.47178810610E+02  0.00000000000E+00 0. -1.
         21   -1    0    0  502  503 -0.00000000000E+00 -0.00000000000E+00 -0.82791693097E+02  0.82791693097E+02  0.00000000000E+00 0. -1.
         25    2    1    2    0    0  0.00000000000E+00  0.00000000000E+00 -0.35612882487E+02  0.12997050371E+03  0.12499621768E+03 0.  0.
          4    1    3    3  501    0 -0.24828206229E+02  0.23248951135E+02  0.36687747113E+02  0.50053439859E+02  0.15500000000E+01 0. -1.
         -4    1    3    3    0  501  0.24828206229E+02 -0.23248951135E+02 -0.72300629600E+02  0.79917063847E+02  0.15500000000E+01 0. -1.
<mgrwt>
<rscale>  2 0.12499622E+03</rscale>
<asrwt>0</asrwt>
<pdfrwt beam="1">  1       21 0.72582787E-02 0.12499622E+03</pdfrwt>
<pdfrwt beam="2">  1       21 0.12737183E-01 0.12499622E+03</pdfrwt>
<totfact> 0.73375943E+06</totfact>
</mgrwt>
</event>
<event>
 5    0  0.1535587E+000  0.1250009E+03  0.7546771E-02  0.1235068E+00
         21   -1    0    0  503  502  0.00000000000E+00  0.00000000000E+00  0.16360248405E+03  0.16360248405E+03  0.00000000000E+00 0.  1.
         21   -1    0    0  502  503 -0.00000000000E+00 -0.00000000000E+00 -0.23876831102E+02  0.23876831102E+02  0.00000000000E+00 0.  1.
         25    2    1    2    0    0  0.00000000000E+00  0.00000000000E+00  0.13972565295E+03  0.18747931515E+03  0.12500094207E+03 0.  0.
          4    1    3    3  501    0 -0.11572650476E+02 -0.55337849268E+02  0.29963509477E+02  0.64003267110E+02  0.15500000000E+01 0.  1.
         -4    1    3    3    0  501  0.11572650476E+02  0.55337849268E+02  0.10976214347E+03  0.12347604804E+03  0.15500000000E+01 0.  1.
<mgrwt>
<rscale>  2 0.12500094E+03</rscale>
<asrwt>0</asrwt>
<pdfrwt beam="1">  1       21 0.25169612E-01 0.12500094E+03</pdfrwt>
<pdfrwt beam="2">  1       21 0.36733587E-02 0.12500094E+03</pdfrwt>
<totfact> 0.66302133E+06</totfact>
</mgrwt>
</event>
<event>
 5    0  0.1458992E+000  0.1249987E+03  0.7546771E-02  0.1235071E+00
         21   -1    0    0  503  502  0.00000000000E+00  0.00000000000E+00  0.35532673526E+03  0.35532673526E+03  0.00000000000E+00 0. -1.
         21   -1    0    0  502  503 -0.00000000000E+00 -0.00000000000E+00 -0.10993168318E+02  0.10993168318E+02  0.00000000000E+00 0. -1.
         25    2    1    2    0    0  0.00000000000E+00  0.00000000000E+00  0.34433356694E+03  0.36631990357E+03  0.12499866573E+03 0.  0.
          4    1    3    3  501    0  0.52056560906E+02  0.34543899020E+02  0.17443229396E+03  0.18528948747E+03  0.15500000000E+01 0.  1.
         -4    1    3    3    0  501 -0.52056560906E+02 -0.34543899020E+02  0.16990127298E+03  0.18103041610E+03  0.15500000000E+01 0.  1.
<mgrwt>
<rscale>  2 0.12499867E+03</rscale>
<asrwt>0</asrwt>
<pdfrwt beam="1">  1       21 0.54665643E-01 0.12499867E+03</pdfrwt>
<pdfrwt beam="2">  1       21 0.16912569E-02 0.12499867E+03</pdfrwt>
<totfact> 0.50356971E+06</totfact>
</mgrwt>
</event>
<event>
 5    0  0.1465608E+000  0.1250045E+03  0.7546771E-02  0.1235062E+00
         21   -1    0    0  503  502  0.00000000000E+00  0.00000000000E+00  0.26839114404E+02  0.26839114404E+02  0.00000000000E+00 0. -1.
         21   -1    0    0  502  503 -0.00000000000E+00 -0.00000000000E+00 -0.14555371204E+03  0.14555371204E+03  0.00000000000E+00 0. -1.
         25    2    1    2    0    0  0.00000000000E+00  0.00000000000E+00 -0.11871459764E+03  0.17239282645E+03  0.12500452359E+03 0.  0.
          4    1    3    3  501    0  0.52162345881E+02  0.13730784946E+02 -0.15862598518E+02  0.56244726996E+02  0.15500000000E+01 0. -1.
         -4    1    3    3    0  501 -0.52162345881E+02 -0.13730784946E+02 -0.10285199912E+03  0.11614809945E+03  0.15500000000E+01 0. -1.
<mgrwt>
<rscale>  2 0.12500452E+03</rscale>
<asrwt>0</asrwt>
<pdfrwt beam="1">  1       21 0.41290946E-02 0.12500452E+03</pdfrwt>
<pdfrwt beam="2">  1       21 0.22392879E-01 0.12500452E+03</pdfrwt>
<totfact> 0.68027295E+06</totfact>
</mgrwt>
</event>
<event>
 5    0  0.1553153E+000  0.1250116E+03  0.7546771E-02  0.1235051E+00
         21   -1    0    0  503  502  0.00000000000E+00  0.00000000000E+00  0.52224857424E+02  0.52224857424E+02  0.00000000000E+00 0.  1.
         21   -1    0    0  502  503 -0.00000000000E+00 -0.00000000000E+00 -0.74810670703E+02  0.74810670703E+02  0.00000000000E+00 0.  1.
         25    2    1    2    0    0  0.00000000000E+00  0.00000000000E+00 -0.22585813279E+02  0.12703552813E+03  0.12501162524E+03 0.  0.
          4    1    3    3  501    0 -0.26496372524E+02  0.48781415122E+02  0.17857569993E+02  0.58335062563E+02  0.15500000000E+01 0.  1.
         -4    1    3    3    0  501  0.26496372524E+02 -0.48781415122E+02 -0.40443383272E+02  0.68700465564E+02  0.15500000000E+01 0.  1.
<mgrwt>
<rscale>  2 0.12501163E+03</rscale>
<asrwt>0</asrwt>
<pdfrwt beam="1">  1       21 0.80345935E-02 0.12501163E+03</pdfrwt>
<pdfrwt beam="2">  1       21 0.11509334E-01 0.12501163E+03</pdfrwt>
<totfact> 0.73742416E+06</totfact>
</mgrwt>
</event>
<event>
 5    0  0.1487993E+000  0.1249790E+03  0.7546771E-02  0.1235102E+00
         21   -1    0    0  503  502  0.00000000000E+00  0.00000000000E+00  0.83646423854E+02  0.83646423854E+02  0.00000000000E+00 0.  1.
         21   -1    0    0  502  503 -0.00000000000E+00 -0.00000000000E+00 -0.46683874961E+02  0.46683874961E+02  0.00000000000E+00 0.  1.
         25    2    1    2    0    0  0.00000000000E+00  0.00000000000E+00  0.36962548894E+02  0.13033029881E+03  0.12497902531E+03 0.  0.
          4    1    3    3  501    0  0.51135086297E+02  0.90317011993E+01  0.54698248458E+02  0.75436526707E+02  0.15500000000E+01 0.  1.
         -4    1    3    3    0  501 -0.51135086297E+02 -0.90317011993E+01 -0.17735699565E+02  0.54893772108E+02  0.15500000000E+01 0.  1.
<mgrwt>
<rscale>  2 0.12497903E+03</rscale>
<asrwt>0</asrwt>
<pdfrwt beam="1">  1       21 0.12868681E-01 0.12497903E+03</pdfrwt>
<pdfrwt beam="2">  1       21 0.71821346E-02 0.12497903E+03</pdfrwt>
<totfact> 0.73360078E+06</totfact>
</mgrwt>
</event>
<event>
 5    0  0.1509491E+000  0.1250256E+03  0.7546771E-02  0.1235029E+00
         21   -1    0    0  503  502  0.00000000000E+00  0.00000000000E+00  0.74856819177E+02  0.74856819177E+02  0.00000000000E+00 0. -1.
         21   -1    0    0  502  503 -0.00000000000E+00 -0.00000000000E+00 -0.52204290840E+02  0.52204290840E+02  0.00000000000E+00 0. -1.
         25    2    1    2    0    0  0.00000000000E+00  0.00000000000E+00  0.22652528337E+02  0.12706111002E+03  0.12502555194E+03 0.  0.
          4    1    3    3  501    0  0.24569160577E+02  0.50050135481E+02 -0.17360689025E+02  0.58416228366E+02  0.15500000000E+01 0. -1.
         -4    1    3    3    0  501 -0.24569160577E+02 -0.50050135481E+02  0.40013217362E+02  0.68644881650E+02  0.15500000000E+01 0. -1.
<mgrwt>
<rscale>  2 0.12502555E+03</rscale>
<asrwt>0</asrwt>
<pdfrwt beam="1">  1       21 0.11516434E-01 0.12502555E+03</pdfrwt>
<pdfrwt beam="2">  1       21 0.80314294E-02 0.12502555E+03</pdfrwt>
<totfact> 0.73712730E+06</totfact>
</mgrwt>
</event>
<event>
 5    0  0.1544832E+000  0.1250034E+03  0.7546771E-02  0.1235064E+00
         21   -1    0    0  503  502  0.00000000000E+00  0.00000000000E+00  0.22789058968E+02  0.22789058968E+02  0.00000000000E+00 0.  1.
         21   -1    0    0  502  503 -0.00000000000E+00 -0.00000000000E+00 -0.17141844382E+03  0.17141844382E+03  0.00000000000E+00 0.  1.
         25    2    1    2    0    0  0.00000000000E+00  0.00000000000E+00 -0.14862938486E+03  0.19420750279E+03  0.12500344034E+03 0.  0.
          4    1    3    3  501    0 -0.40909506337E+02  0.36965939381E+02 -0.11998137218E+03  0.13205302175E+03  0.15500000000E+01 0.  1.
         -4    1    3    3    0  501  0.40909506337E+02 -0.36965939381E+02 -0.28648012674E+02  0.62154481039E+02  0.15500000000E+01 0.  1.
<mgrwt>
<rscale>  2 0.12500344E+03</rscale>
<asrwt>0</asrwt>
<pdfrwt beam="1">  1       21 0.35060089E-02 0.12500344E+03</pdfrwt>
<pdfrwt beam="2">  1       21 0.26372069E-01 0.12500344E+03</pdfrwt>
<totfact> 0.65552149E+06</totfact>
</mgrwt>
</event>
<event>
 5    0  0.1414142E+000  0.1250094E+03  0.7546771E-02  0.1235055E+00
         21   -1    0    0  503  502  0.00000000000E+00  0.00000000000E+00  0.10346565044E+02  0.10346565044E+02  0.00000000000E+00 0.  1.
         21   -1    0    0  502  503 -0.00000000000E+00 -0.00000000000E+00 -0.37759758602E+03  0.37759758602E+03  0.00000000000E+00 0.  1.
         25    2    1    2    0    0  0.00000000000E+00  0.00000000000E+00 -0.36725102097E+03  0.38794415106E+03  0.12500940740E+03 0.  0.
          4    1    3    3  501    0 -0.12984826763E+02  0.53529052190E+02 -0.92065992338E+02  0.10729638670E+03  0.15500000000E+01 0. -1.
         -4    1    3    3    0  501  0.12984826763E+02 -0.53529052190E+02 -0.27518502864E+03  0.28064776436E+03  0.15500000000E+01 0. -1.
<mgrwt>
<rscale>  2 0.12500941E+03</rscale>
<asrwt>0</asrwt>
<pdfrwt beam="1">  1       21 0.15917796E-02 0.12500941E+03</pdfrwt>
<pdfrwt beam="2">  1       21 0.58091923E-01 0.12500941E+03</pdfrwt>
<totfact> 0.48839933E+06</totfact>
</mgrwt>
</event>
<event>
 5    0  0.1511127E+000  0.1249988E+03  0.7546771E-02  0.1235071E+00
         21   -1    0    0  503  502  0.00000000000E+00  0.00000000000E+00  0.45604095781E+02  0.45604095781E+02  0.00000000000E+00 0. -1.
         21   -1    0    0  502  503 -0.00000000000E+00 -0.00000000000E+00 -0.85654096192E+02  0.85654096192E+02  0.00000000000E+00 0. -1.
         25    2    1    2    0    0  0.00000000000E+00  0.00000000000E+00 -0.40050000411E+02  0.13125819197E+03  0.12499884170E+03 0.  0.
          4    1    3    3  501    0 -0.12982938847E+00  0.21759085283E+02  0.41476613310E+02  0.46863488983E+02  0.15500000000E+01 0.  1.
         -4    1    3    3    0  501  0.12982938847E+00 -0.21759085283E+02 -0.81526613721E+02  0.84394702990E+02  0.15500000000E+01 0.  1.
<mgrwt>
<rscale>  2 0.12499884E+03</rscale>
<asrwt>0</asrwt>
<pdfrwt beam="1">  1       21 0.70160148E-02 0.12499884E+03</pdfrwt>
<pdfrwt beam="2">  1       21 0.13177553E-01 0.12499884E+03</pdfrwt>
<totfact> 0.73198062E+06</totfact>
</mgrwt>
</event>
<event>
 5    0  0.1283586E+000  0.1250068E+03  0.7546771E-02  0.1235059E+00
         21   -1    0    0  503  502  0.00000000000E+00  0.00000000000E+00  0.56362430114E+03  0.56362430114E+03  0.00000000000E+00 0. -1.
         21   -1    0    0  502  503 -0.00000000000E+00 -0.00000000000E+00 -0.69313439705E+01  0.69313439705E+01  0.00000000000E+00 0. -1.
         25    2    1    2    0    0  0.00000000000E+00  0.00000000000E+00  0.55669295717E+03  0.57055564511E+03  0.12500678224E+03 0.  0.
          4    1    3    3  501    0  0.13672090923E+02  0.40324609759E+02  0.48706914129E+03  0.48892918825E+03  0.15500000000E+01 0.  1.
         -4    1    3    3    0  501 -0.13672090923E+02 -0.40324609759E+02  0.69623815875E+02  0.81626456859E+02  0.15500000000E+01 0.  1.
<mgrwt>
<rscale>  2 0.12500678E+03</rscale>
<asrwt>0</asrwt>
<pdfrwt beam="1">  1       21 0.86711395E-01 0.12500678E+03</pdfrwt>
<pdfrwt beam="2">  1       21 0.10663611E-02 0.12500678E+03</pdfrwt>
<totfact> 0.38452523E+06</totfact>
</mgrwt>
</event>
<event>
 5    0  0.1490097E+000  0.1250247E+03  0.7546771E-02  0.1235031E+00
         21   -1    0    0  503  502  0.00000000000E+00  0.00000000000E+00  0.11524684071E+03  0.11524684071E+03  0.00000000000E+00 0. -1.
         21   -1    0    0  502  503 -0.00000000000E+00 -0.00000000000E+00 -0.33908023817E+02  0.33908023817E+02  0.00000000000E+00 0. -1.
         25    2    1    2    0    0  0.00000000000E+00  0.00000000000E+00  0.81338816896E+02  0.14915486453E+03  0.12502467948E+03 0.  0.
          4    1    3    3  501    0 -0.33427022284E+02 -0.12560703702E+02 -0.20514953638E+02  0.41211684254E+02  0.15500000000E+01 0.  1.
         -4    1    3    3    0  501  0.33427022284E+02  0.12560703702E+02  0.10185377053E+03  0.10794318028E+03  0.15500000000E+01 0.  1.
<mgrwt>
<rscale>  2 0.12502468E+03</rscale>
<asrwt>0</asrwt>
<pdfrwt beam="1">  1       21 0.17730283E-01 0.12502468E+03</pdfrwt>
<pdfrwt beam="2">  1       21 0.52166191E-02 0.12502468E+03</pdfrwt>
<totfact> 0.70821022E+06</totfact>
</mgrwt>
</event>
<event>
 5    0  0.1407883E+000  0.1249919E+03  0.7546771E-02  0.1235082E+00
         21   -1    0    0  503  502  0.00000000000E+00  0.00000000000E+00  0.37717206750E+03  0.37717206750E+03  0.00000000000E+00 0. -1.
         21   -1    0    0  502  503 -0.00000000000E+00 -0.00000000000E+00 -0.10355331384E+02  0.10355331384E+02  0.00000000000E+00 0. -1.
         25    2    1    2    0    0  0.00000000000E+00  0.00000000000E+00  0.36681673611E+03  0.38752739888E+03  0.12499186770E+03 0.  0.
          4    1    3    3  501    0 -0.52380706342E+02 -0.31401416533E+02  0.14256370380E+03  0.15510190037E+03  0.15500000000E+01 0.  1.
         -4    1    3    3    0  501  0.52380706342E+02  0.31401416533E+02  0.22425303231E+03  0.23242549851E+03  0.15500000000E+01 0.  1.
<mgrwt>
<rscale>  2 0.12499187E+03</rscale>
<asrwt>0</asrwt>
<pdfrwt beam="1">  1       21 0.58026462E-01 0.12499187E+03</pdfrwt>
<pdfrwt beam="2">  1       21 0.15931282E-02 0.12499187E+03</pdfrwt>
<totfact> 0.48889744E+06</totfact>
</mgrwt>
</event>
<event>
 5    0  0.1687330E+000  0.1249996E+03  0.7546771E-02  0.1235070E+00
         21   -1    0    0  503  502  0.00000000000E+00  0.00000000000E+00  0.11863336950E+03  0.11863336950E+03  0.00000000000E+00 0.  1.
         21   -1    0    0  502  503 -0.00000000000E+00 -0.00000000000E+00 -0.32926872241E+02  0.32926872241E+02  0.00000000000E+00 0.  1.
         25    2    1    2    0    0  0.00000000000E+00  0.00000000000E+00  0.85706497256E+02  0.15156024174E+03  0.12499961281E+03 0.  0.
          4    1    3    3  501    0  0.22294514630E+02 -0.57224093246E+02  0.56793199843E+02  0.83663087912E+02  0.15500000000E+01 0.  1.
         -4    1    3    3    0  501 -0.22294514630E+02  0.57224093246E+02  0.28913297413E+02  0.67897153827E+02  0.15500000000E+01 0.  1.
<mgrwt>
<rscale>  2 0.12499961E+03</rscale>
<asrwt>0</asrwt>
<pdfrwt beam="1">  1       21 0.18251287E-01 0.12499961E+03</pdfrwt>
<pdfrwt beam="2">  1       21 0.50656727E-02 0.12499961E+03</pdfrwt>
<totfact> 0.70564448E+06</totfact>
</mgrwt>
</event>
<event>
 5    0  0.1313674E+000  0.1249933E+03  0.7546771E-02  0.1235080E+00
         21   -1    0    0  503  502  0.00000000000E+00  0.00000000000E+00  0.56514320783E+03  0.56514320783E+03  0.00000000000E+00 0. -1.
         21   -1    0    0  502  503 -0.00000000000E+00 -0.00000000000E+00 -0.69112239744E+01  0.69112239744E+01  0.00000000000E+00 0. -1.
         25    2    1    2    0    0  0.00000000000E+00  0.00000000000E+00  0.55823198386E+03  0.57205443181E+03  0.12499330041E+03 0.  0.
          4    1    3    3  501    0  0.43660761026E+01  0.52654909113E+02  0.43172113521E+03  0.43494498866E+03  0.15500000000E+01 0. -1.
         -4    1    3    3    0  501 -0.43660761026E+01 -0.52654909113E+02  0.12651084865E+03  0.13710944315E+03  0.15500000000E+01 0. -1.
<mgrwt>
<rscale>  2 0.12499330E+03</rscale>
<asrwt>0</asrwt>
<pdfrwt beam="1">  1       21 0.86945072E-01 0.12499330E+03</pdfrwt>
<pdfrwt beam="2">  1       21 0.10632657E-02 0.12499330E+03</pdfrwt>
<totfact> 0.38394123E+06</totfact>
</mgrwt>
</event>
<event>
 5    0  0.1250234E+000  0.1249984E+03  0.7546771E-02  0.1235072E+00
         21   -1    0    0  503  502  0.00000000000E+00  0.00000000000E+00  0.70065424606E+03  0.70065424606E+03  0.00000000000E+00 0. -1.
         21   -1    0    0  502  503 -0.00000000000E+00 -0.00000000000E+00 -0.55750059707E+01  0.55750059707E+01  0.00000000000E+00 0. -1.
         25    2    1    2    0    0  0.00000000000E+00  0.00000000000E+00  0.69507924009E+03  0.70622925203E+03  0.12499842567E+03 0.  0.
          4    1    3    3  501    0 -0.37182961943E+02  0.13990597312E+02  0.75085302881E+02  0.84961842498E+02  0.15500000000E+01 0.  1.
         -4    1    3    3    0  501  0.37182961943E+02 -0.13990597312E+02  0.61999393721E+03  0.62126740954E+03  0.15500000000E+01 0.  1.
<mgrwt>
<rscale>  2 0.12499843E+03</rscale>
<asrwt>0</asrwt>
<pdfrwt beam="1">  1       21 0.10779289E+00 0.12499843E+03</pdfrwt>
<pdfrwt beam="2">  1       21 0.85769378E-03 0.12499843E+03</pdfrwt>
<totfact> 0.32672653E+06</totfact>
</mgrwt>
</event>
<event>
 5    0  0.1524652E+000  0.1249974E+03  0.7546771E-02  0.1235073E+00
         21   -1    0    0  503  502  0.00000000000E+00  0.00000000000E+00  0.59343888527E+02  0.59343888527E+02  0.00000000000E+00 0. -1.
         21   -1    0    0  502  503 -0.00000000000E+00 -0.00000000000E+00 -0.65821237188E+02  0.65821237188E+02  0.00000000000E+00 0. -1.
         25    2    1    2    0    0  0.00000000000E+00  0.00000000000E+00 -0.64773486606E+01  0.12516512571E+03  0.12499741057E+03 0.  0.
          4    1    3    3  501    0  0.39529630570E+02  0.85271194063E+01 -0.50930114722E+02  0.65050615246E+02  0.15500000000E+01 0. -1.
         -4    1    3    3    0  501 -0.39529630570E+02 -0.85271194063E+01  0.44452766061E+02  0.60114510468E+02  0.15500000000E+01 0. -1.
<mgrwt>
<rscale>  2 0.12499741E+03</rscale>
<asrwt>0</asrwt>
<pdfrwt beam="1">  1       21 0.91298290E-02 0.12499741E+03</pdfrwt>
<pdfrwt beam="2">  1       21 0.10126344E-01 0.12499741E+03</pdfrwt>
<totfact> 0.74026181E+06</totfact>
</mgrwt>
</event>
<event>
 5    0  0.1577885E+000  0.1250118E+03  0.7546771E-02  0.1235051E+00
         21   -1    0    0  503  502  0.00000000000E+00  0.00000000000E+00  0.15817851578E+03  0.15817851578E+03  0.00000000000E+00 0.  1.
         21   -1    0    0  502  503 -0.00000000000E+00 -0.00000000000E+00 -0.24699868610E+02  0.24699868610E+02  0.00000000000E+00 0.  1.
         25    2    1    2    0    0  0.00000000000E+00  0.00000000000E+00  0.13347864717E+03  0.18287838439E+03  0.12501181635E+03 0.  0.
          4    1    3    3  501    0  0.15409633279E+02  0.59999339965E+02  0.78732198170E+02  0.10019251031E+03  0.15500000000E+01 0. -1.
         -4    1    3    3    0  501 -0.15409633279E+02 -0.59999339965E+02  0.54746449004E+02  0.82685874081E+02  0.15500000000E+01 0. -1.
<mgrwt>
<rscale>  2 0.12501182E+03</rscale>
<asrwt>0</asrwt>
<pdfrwt beam="1">  1       21 0.24335156E-01 0.12501182E+03</pdfrwt>
<pdfrwt beam="2">  1       21 0.37999799E-02 0.12501182E+03</pdfrwt>
<totfact> 0.66802844E+06</totfact>
</mgrwt>
</event>
<event>
 5    0  0.1533715E+000  0.1249990E+03  0.7546771E-02  0.1235071E+00
         21   -1    0    0  503  502  0.00000000000E+00  0.00000000000E+00  0.10372190307E+03  0.10372190307E+03  0.00000000000E+00 0.  1.
         21   -1    0    0  502  503 -0.00000000000E+00 -0.00000000000E+00 -0.37660184496E+02  0.37660184496E+02  0.00000000000E+00 0.  1.
         25    2    1    2    0    0  0.00000000000E+00  0.00000000000E+00  0.66061718570E+02  0.14138208756E+03  0.12499897609E+03 0.  0.
          4    1    3    3  501    0  0.23043484852E+02  0.29483115006E+02 -0.23562320347E+02  0.44247505068E+02  0.15500000000E+01 0.  1.
         -4    1    3    3    0  501 -0.23043484852E+02 -0.29483115006E+02  0.89624038917E+02  0.97134582495E+02  0.15500000000E+01 0.  1.
<mgrwt>
<rscale>  2 0.12499898E+03</rscale>
<asrwt>0</asrwt>
<pdfrwt beam="1">  1       21 0.15957216E-01 0.12499898E+03</pdfrwt>
<pdfrwt beam="2">  1       21 0.57938746E-02 0.12499898E+03</pdfrwt>
<totfact> 0.71861264E+06</totfact>
</mgrwt>
</event>
<event>
 5    0  0.1255527E+000  0.1250032E+03  0.7546771E-02  0.1235064E+00
         21   -1    0    0  503  502  0.00000000000E+00  0.00000000000E+00  0.54315815563E+03  0.54315815563E+03  0.00000000000E+00 0.  1.
         21   -1    0    0  502  503 -0.00000000000E+00 -0.00000000000E+00 -0.71921003829E+01  0.71921003829E+01  0.00000000000E+00 0.  1.
         25    2    1    2    0    0  0.00000000000E+00  0.00000000000E+00  0.53596605525E+03  0.55035025601E+03  0.12500316762E+03 0.  0.
          4    1    3    3  501    0  0.12582736876E+02  0.39222451057E+02  0.61135297759E+02  0.73733663047E+02  0.15500000000E+01 0. -1.
         -4    1    3    3    0  501 -0.12582736876E+02 -0.39222451057E+02  0.47483075749E+03  0.47661659297E+03  0.15500000000E+01 0. -1.
<mgrwt>
<rscale>  2 0.12500317E+03</rscale>
<asrwt>0</asrwt>
<pdfrwt beam="1">  1       21 0.83562761E-01 0.12500317E+03</pdfrwt>
<pdfrwt beam="2">  1       21 0.11064774E-02 0.12500317E+03</pdfrwt>
<totfact> 0.39435678E+06</totfact>
</mgrwt>
</event>
<event>
 5    0  0.1316838E+000  0.1249811E+03  0.7546771E-02  0.1235099E+00
         21   -1    0    0  503  502  0.00000000000E+00  0.00000000000E+00  0.53509810825E+03  0.53509810825E+03  0.00000000000E+00 0. -1.
         21   -1    0    0  502  503 -0.00000000000E+00 -0.00000000000E+00 -0.72978612249E+01  0.72978612249E+01  0.00000000000E+00 0. -1.
         25    2    1    2    0    0  0.00000000000E+00  0.00000000000E+00  0.52780024702E+03  0.54239596947E+03  0.12498114635E+03 0.  0.
          4    1    3    3  501    0 -0.20908032813E+02  0.40059324290E+02  0.45110568954E+03  0.45336590182E+03  0.15500000000E+01 0.  1.
         -4    1    3    3    0  501  0.20908032813E+02 -0.40059324290E+02  0.76694557488E+02  0.89030067656E+02  0.15500000000E+01 0.  1.
<mgrwt>
<rscale>  2 0.12498115E+03</rscale>
<asrwt>0</asrwt>
<pdfrwt beam="1">  1       21 0.82322755E-01 0.12498115E+03</pdfrwt>
<pdfrwt beam="2">  1       21 0.11227483E-02 0.12498115E+03</pdfrwt>
<totfact> 0.39853078E+06</totfact>
</mgrwt>
</event>
<event>
 5    0  0.1222151E+000  0.1250009E+03  0.7546771E-02  0.1235068E+00
         21   -1    0    0  503  502  0.00000000000E+00  0.00000000000E+00  0.18906511176E+01  0.18906511176E+01  0.00000000000E+00 0. -1.
         21   -1    0    0  502  503 -0.00000000000E+00 -0.00000000000E+00 -0.20661172054E+04  0.20661172054E+04  0.00000000000E+00 0. -1.
         25    2    1    2    0    0  0.00000000000E+00  0.00000000000E+00 -0.20642265543E+04  0.20680078565E+04  0.12500090885E+03 0.  0.
          4    1    3    3  501    0  0.56411771205E+02 -0.22539335181E+02 -0.79032552756E+03  0.79265828172E+03  0.15500000000E+01 0. -1.
         -4    1    3    3    0  501 -0.56411771205E+02  0.22539335181E+02 -0.12739010267E+04  0.12753495748E+04  0.15500000000E+01 0. -1.
<mgrwt>
<rscale>  2 0.12500091E+03</rscale>
<asrwt>0</asrwt>
<pdfrwt beam="1">  1       21 0.29086761E-03 0.12500091E+03</pdfrwt>
<pdfrwt beam="2">  1       21 0.31786615E+00 0.12500091E+03</pdfrwt>
<totfact> 0.73034730E+05</totfact>
</mgrwt>
</event>
<event>
 5    0  0.1222151E+000  0.1250044E+03  0.7546771E-02  0.1235062E+00
         21   -1    0    0  503  502  0.00000000000E+00  0.00000000000E+00  0.10231556092E+04  0.10231556092E+04  0.00000000000E+00 0. -1.
         21   -1    0    0  502  503 -0.00000000000E+00 -0.00000000000E+00 -0.38181121691E+01  0.38181121691E+01  0.00000000000E+00 0. -1.
         25    2    1    2    0    0  0.00000000000E+00  0.00000000000E+00  0.10193374970E+04  0.10269737213E+04  0.12500436604E+03 0.  0.
          4    1    3    3  501    0  0.95905139708E+01 -0.60807419468E+02  0.59761690979E+03  0.60078106960E+03  0.15500000000E+01 0.  1.
         -4    1    3    3    0  501 -0.95905139708E+01  0.60807419468E+02  0.42172058721E+03  0.42619265174E+03  0.15500000000E+01 0.  1.
<mgrwt>
<rscale>  2 0.12500437E+03</rscale>
<asrwt>0</asrwt>
<pdfrwt beam="1">  1       21 0.15740834E+00 0.12500437E+03</pdfrwt>
<pdfrwt beam="2">  1       21 0.58740269E-03 0.12500437E+03</pdfrwt>
<totfact> 0.22950123E+06</totfact>
</mgrwt>
</event>
<event>
 5    0  0.1372852E+000  0.1249706E+03  0.7546771E-02  0.1235115E+00
         21   -1    0    0  503  502  0.00000000000E+00  0.00000000000E+00  0.14497346239E+02  0.14497346239E+02  0.00000000000E+00 0. -1.
         21   -1    0    0  502  503 -0.00000000000E+00 -0.00000000000E+00 -0.26931896200E+03  0.26931896200E+03  0.00000000000E+00 0. -1.
         25    2    1    2    0    0  0.00000000000E+00  0.00000000000E+00 -0.25482161576E+03  0.28381630824E+03  0.12497056038E+03 0.  0.
          4    1    3    3  501    0 -0.23990786629E+02 -0.26545759787E+02 -0.11124887611E+02  0.37502011014E+02  0.15500000000E+01 0. -1.
         -4    1    3    3    0  501  0.23990786629E+02  0.26545759787E+02 -0.24369672815E+03  0.24631429722E+03  0.15500000000E+01 0. -1.
<mgrwt>
<rscale>  2 0.12497056E+03</rscale>
<asrwt>0</asrwt>
<pdfrwt beam="1">  1       21 0.22303613E-02 0.12497056E+03</pdfrwt>
<pdfrwt beam="2">  1       21 0.41433680E-01 0.12497056E+03</pdfrwt>
<totfact> 0.56870603E+06</totfact>
</mgrwt>
</event>
<event>
 4    0  0.1494777E+000  0.1269115E+03  0.7546771E-02  0.1232112E+00
         21   -1    0    0  503  502  0.00000000000E+00  0.00000000000E+00  0.51168664851E+02  0.51168664851E+02  0.00000000000E+00 0.  1.
         21   -1    0    0  502  503 -0.00000000000E+00 -0.00000000000E+00 -0.78693322324E+02  0.78693322324E+02  0.00000000000E+00 0.  1.
          4    1    1    2  501    0  0.57684707132E+02  0.44417461093E+01  0.12861311874E+02  0.59288029049E+02  0.15500000000E+01 0.  1.
         -4    1    1    2    0  501 -0.57684707132E+02 -0.44417461093E+01 -0.40385969347E+02  0.70573958125E+02  0.15500000000E+01 0.  1.
<mgrwt>
<rscale>  2 0.12691150E+03</rscale>
<asrwt>0</asrwt>
<pdfrwt beam="1">  1       21 0.78721023E-02 0.12691150E+03</pdfrwt>
<pdfrwt beam="2">  1       21 0.12106665E-01 0.12691150E+03</pdfrwt>
<totfact> 0.69911667E+06</totfact>
</mgrwt>
</event>
<event>
 5    0  0.1222151E+000  0.1250003E+03  0.7546771E-02  0.1235069E+00
         21   -1    0    0  503  502  0.00000000000E+00  0.00000000000E+00  0.15895019154E+04  0.15895019154E+04  0.00000000000E+00 0. -1.
         21   -1    0    0  502  503 -0.00000000000E+00 -0.00000000000E+00 -0.24575439449E+01  0.24575439449E+01  0.00000000000E+00 0. -1.
         25    2    1    2    0    0  0.00000000000E+00  0.00000000000E+00  0.15870443715E+04  0.15919594594E+04  0.12500033292E+03 0.  0.
          4    1    3    3  501    0  0.42640283194E+02 -0.32637935899E+02  0.12003536247E+04  0.12015550988E+04  0.15500000000E+01 0. -1.
         -4    1    3    3    0  501 -0.42640283194E+02  0.32637935899E+02  0.38669074682E+03  0.39040436061E+03  0.15500000000E+01 0. -1.
<mgrwt>
<rscale>  2 0.12500033E+03</rscale>
<asrwt>0</asrwt>
<pdfrwt beam="1">  1       21 0.24453793E+00 0.12500033E+03</pdfrwt>
<pdfrwt beam="2">  1       21 0.37808495E-03 0.12500033E+03</pdfrwt>
<totfact> 0.12683193E+06</totfact>
</mgrwt>
</event>
<event>
 5    0  0.1290140E+000  0.1250020E+03  0.7546771E-02  0.1235066E+00
         21   -1    0    0  503  502  0.00000000000E+00  0.00000000000E+00  0.42209052532E+03  0.42209052532E+03  0.00000000000E+00 0.  1.
         21   -1    0    0  502  503 -0.00000000000E+00 -0.00000000000E+00 -0.92548283686E+01  0.92548283686E+01  0.00000000000E+00 0.  1.
         25    2    1    2    0    0  0.00000000000E+00  0.00000000000E+00  0.41283569695E+03  0.43134535369E+03  0.12500200587E+03 0.  0.
          4    1    3    3  501    0 -0.15631692056E+02 -0.28200731301E+02  0.39109814559E+03  0.39242807370E+03  0.15500000000E+01 0.  1.
         -4    1    3    3    0  501  0.15631692056E+02  0.28200731301E+02  0.21737551355E+02  0.38917279984E+02  0.15500000000E+01 0.  1.
<mgrwt>
<rscale>  2 0.12500201E+03</rscale>
<asrwt>0</asrwt>
<pdfrwt beam="1">  1       21 0.64936989E-01 0.12500201E+03</pdfrwt>
<pdfrwt beam="2">  1       21 0.14238201E-02 0.12500201E+03</pdfrwt>
<totfact> 0.46027145E+06</totfact>
</mgrwt>
</event>
<event>
 5    0  0.1222151E+000  0.1250930E+03  0.7546771E-02  0.1234924E+00
         21   -1    0    0  503  502  0.00000000000E+00  0.00000000000E+00  0.50536632009E+01  0.50536632009E+01  0.00000000000E+00 0.  1.
         21   -1    0    0  502  503 -0.00000000000E+00 -0.00000000000E+00 -0.77410484668E+03  0.77410484668E+03  0.00000000000E+00 0.  1.
         25    2    1    2    0    0  0.00000000000E+00  0.00000000000E+00 -0.76905118348E+03  0.77915850988E+03  0.12509300823E+03 0.  0.
          4    1    3    3  501    0  0.19275637710E+01 -0.47263020808E+02 -0.12982443172E+03  0.13818210525E+03  0.15500000000E+01 0.  1.
         -4    1    3    3    0  501 -0.19275637710E+01  0.47263020808E+02 -0.63922675175E+03  0.64097640463E+03  0.15500000000E+01 0.  1.
<mgrwt>
<rscale>  2 0.12509301E+03</rscale>
<asrwt>0</asrwt>
<pdfrwt beam="1">  1       21 0.77748693E-03 0.12509301E+03</pdfrwt>
<pdfrwt beam="2">  1       21 0.11909301E+00 0.12509301E+03</pdfrwt>
<totfact> 0.29995909E+06</totfact>
</mgrwt>
</event>
<event>
 5    0  0.1538057E+000  0.1249927E+03  0.7546771E-02  0.1235081E+00
         21   -1    0    0  503  502  0.00000000000E+00  0.00000000000E+00  0.71601233790E+02  0.71601233790E+02  0.00000000000E+00 0. -1.
         21   -1    0    0  502  503 -0.00000000000E+00 -0.00000000000E+00 -0.54549217764E+02  0.54549217764E+02  0.00000000000E+00 0. -1.
         25    2    1    2    0    0  0.00000000000E+00  0.00000000000E+00  0.17052016027E+02  0.12615045155E+03  0.12499266049E+03 0.  0.
          4    1    3    3  501    0  0.16221409067E+02  0.52071618796E+02  0.39284545427E+02  0.67232920549E+02  0.15500000000E+01 0.  1.
         -4    1    3    3    0  501 -0.16221409067E+02 -0.52071618796E+02 -0.22232529401E+02  0.58917531005E+02  0.15500000000E+01 0.  1.
<mgrwt>
<rscale>  2 0.12499266E+03</rscale>
<asrwt>0</asrwt>
<pdfrwt beam="1">  1       21 0.11015574E-01 0.12499266E+03</pdfrwt>
<pdfrwt beam="2">  1       21 0.83921874E-02 0.12499266E+03</pdfrwt>
<totfact> 0.73899159E+06</totfact>
</mgrwt>
</event>
<event>
 5    0  0.1222151E+000  0.1249980E+03  0.7546771E-02  0.1235072E+00
         21   -1    0    0  503  502  0.00000000000E+00  0.00000000000E+00  0.14168080901E+02  0.14168080901E+02  0.00000000000E+00 0. -1.
         21   -1    0    0  502  503 -0.00000000000E+00 -0.00000000000E+00 -0.27569885780E+03  0.27569885780E+03  0.00000000000E+00 0. -1.
         25    2    1    2    0    0  0.00000000000E+00  0.00000000000E+00 -0.26153077690E+03  0.28986693871E+03  0.12499797953E+03 0.  0.
          4    1    3    3  501    0  0.23302092369E+02 -0.65152178445E+00  0.36612422124E+01  0.23647815627E+02  0.15500000000E+01 0.  1.
         -4    1    3    3    0  501 -0.23302092369E+02  0.65152178445E+00 -0.26519201912E+03  0.26621912308E+03  0.15500000000E+01 0.  1.
<mgrwt>
<rscale>  2 0.12499798E+03</rscale>
<asrwt>0</asrwt>
<pdfrwt beam="1">  1       21 0.21797049E-02 0.12499798E+03</pdfrwt>
<pdfrwt beam="2">  1       21 0.42415206E-01 0.12499798E+03</pdfrwt>
<totfact> 0.56311787E+06</totfact>
</mgrwt>
</event>
<event>
 5    0  0.1414790E+000  0.1250002E+03  0.7546771E-02  0.1235069E+00
         21   -1    0    0  503  502  0.00000000000E+00  0.00000000000E+00  0.12498466405E+02  0.12498466405E+02  0.00000000000E+00 0. -1.
         21   -1    0    0  502  503 -0.00000000000E+00 -0.00000000000E+00 -0.31253947760E+03  0.31253947760E+03  0.00000000000E+00 0. -1.
         25    2    1    2    0    0  0.00000000000E+00  0.00000000000E+00 -0.30004101119E+03  0.32503794400E+03  0.12500022658E+03 0.  0.
          4    1    3    3  501    0  0.50064268635E+01 -0.54070053060E+02 -0.69653739756E+02  0.88332785022E+02  0.15500000000E+01 0. -1.
         -4    1    3    3    0  501 -0.50064268635E+01  0.54070053060E+02 -0.23038727144E+03  0.23670515898E+03  0.15500000000E+01 0. -1.
<mgrwt>
<rscale>  2 0.12500023E+03</rscale>
<asrwt>0</asrwt>
<pdfrwt beam="1">  1       21 0.19228410E-02 0.12500023E+03</pdfrwt>
<pdfrwt beam="2">  1       21 0.48082996E-01 0.12500023E+03</pdfrwt>
<totfact> 0.53436207E+06</totfact>
</mgrwt>
</event>
<event>
 5    0  0.1463673E+000  0.1249995E+03  0.7546771E-02  0.1235070E+00
         21   -1    0    0  503  502  0.00000000000E+00  0.00000000000E+00  0.33257601871E+03  0.33257601871E+03  0.00000000000E+00 0.  1.
         21   -1    0    0  502  503 -0.00000000000E+00 -0.00000000000E+00 -0.11745348515E+02  0.11745348515E+02  0.00000000000E+00 0.  1.
         25    2    1    2    0    0  0.00000000000E+00  0.00000000000E+00  0.32083067019E+03  0.34432136723E+03  0.12499953996E+03 0.  0.
          4    1    3    3  501    0  0.60253327062E+02 -0.16321515263E+02  0.15314644236E+03  0.16538769782E+03  0.15500000000E+01 0. -1.
         -4    1    3    3    0  501 -0.60253327062E+02  0.16321515263E+02  0.16768422783E+03  0.17893366940E+03  0.15500000000E+01 0. -1.
<mgrwt>
<rscale>  2 0.12499954E+03</rscale>
<asrwt>0</asrwt>
<pdfrwt beam="1">  1       21 0.51165534E-01 0.12499954E+03</pdfrwt>
<pdfrwt beam="2">  1       21 0.18069770E-02 0.12499954E+03</pdfrwt>
<totfact> 0.51961170E+06</totfact>
</mgrwt>
</event>
<event>
 5    0  0.1512262E+000  0.1250079E+03  0.7546771E-02  0.1235057E+00
         21   -1    0    0  503  502  0.00000000000E+00  0.00000000000E+00  0.56150383602E+02  0.56150383602E+02  0.00000000000E+00 0.  1.
         21   -1    0    0  502  503 -0.00000000000E+00 -0.00000000000E+00 -0.69576478024E+02  0.69576478024E+02  0.00000000000E+00 0.  1.
         25    2    1    2    0    0  0.00000000000E+00  0.00000000000E+00 -0.13426094422E+02  0.12572686163E+03  0.12500793464E+03 0.  0.
          4    1    3    3  501    0 -0.43729421426E+02 -0.43350882957E+02 -0.17394013479E+02  0.64004027657E+02  0.15500000000E+01 0.  1.
         -4    1    3    3    0  501  0.43729421426E+02  0.43350882957E+02  0.39679190570E+01  0.61722833968E+02  0.15500000000E+01 0.  1.
<mgrwt>
<rscale>  2 0.12500793E+03</rscale>
<asrwt>0</asrwt>
<pdfrwt beam="1">  1       21 0.86385206E-02 0.12500793E+03</pdfrwt>
<pdfrwt beam="2">  1       21 0.10704074E-01 0.12500793E+03</pdfrwt>
<totfact> 0.73928848E+06</totfact>
</mgrwt>
</event>
<event>
 5    0  0.1516759E+000  0.1249998E+03  0.7546771E-02  0.1235070E+00
         21   -1    0    0  503  502  0.00000000000E+00  0.00000000000E+00  0.26379573095E+02  0.26379573095E+02  0.00000000000E+00 0.  1.
         21   -1    0    0  502  503 -0.00000000000E+00 -0.00000000000E+00 -0.14807805018E+03  0.14807805018E+03  0.00000000000E+00 0.  1.
         25    2    1    2    0    0  0.00000000000E+00  0.00000000000E+00 -0.12169847708E+03  0.17445762327E+03  0.12499977197E+03 0.  0.
          4    1    3    3  501    0 -0.48806755912E+02 -0.19704208466E+02 -0.13861204217E+02  0.54450810245E+02  0.15500000000E+01 0. -1.
         -4    1    3    3    0  501  0.48806755912E+02  0.19704208466E+02 -0.10783727287E+03  0.12000681303E+03  0.15500000000E+01 0. -1.
<mgrwt>
<rscale>  2 0.12499977E+03</rscale>
<asrwt>0</asrwt>
<pdfrwt beam="1">  1       21 0.40583958E-02 0.12499977E+03</pdfrwt>
<pdfrwt beam="2">  1       21 0.22781239E-01 0.12499977E+03</pdfrwt>
<totfact> 0.67793491E+06</totfact>
</mgrwt>
</event>
<event>
 5    0  0.1372349E+000  0.1249915E+03  0.7546771E-02  0.1235083E+00
         21   -1    0    0  503  502  0.00000000000E+00  0.00000000000E+00  0.36395973660E+03  0.36395973660E+03  0.00000000000E+00 0. -1.
         21   -1    0    0  502  503 -0.00000000000E+00 -0.00000000000E+00 -0.10731186638E+02  0.10731186638E+02  0.00000000000E+00 0. -1.
         25    2    1    2    0    0  0.00000000000E+00  0.00000000000E+00  0.35322854996E+03  0.37469092324E+03  0.12499151751E+03 0.  0.
          4    1    3    3  501    0  0.96058534673E+01 -0.47496758490E+02  0.29482916808E+03  0.29878898128E+03  0.15500000000E+01 0.  1.
         -4    1    3    3    0  501 -0.96058534673E+01  0.47496758490E+02  0.58399381889E+02  0.75901941957E+02  0.15500000000E+01 0.  1.
<mgrwt>
<rscale>  2 0.12499152E+03</rscale>
<asrwt>0</asrwt>
<pdfrwt beam="1">  1       21 0.55993796E-01 0.12499152E+03</pdfrwt>
<pdfrwt beam="2">  1       21 0.16509521E-02 0.12499152E+03</pdfrwt>
<totfact> 0.49775617E+06</totfact>
</mgrwt>
</event>
<event>
 5    0  0.1409536E+000  0.1249872E+03  0.7546771E-02  0.1235089E+00
         21   -1    0    0  503  502  0.00000000000E+00  0.00000000000E+00  0.19040261109E+02  0.19040261109E+02  0.00000000000E+00 0. -1.
         21   -1    0    0  502  503 -0.00000000000E+00 -0.00000000000E+00 -0.20511537358E+03  0.20511537358E+03  0.00000000000E+00 0. -1.
         25    2    1    2    0    0  0.00000000000E+00  0.00000000000E+00 -0.18607511247E+03  0.22415563469E+03  0.12498720367E+03 0.  0.
          4    1    3    3  501    0  0.33680514062E+02 -0.25152157036E+01 -0.18729659861E+03  0.19032372865E+03  0.15500000000E+01 0. -1.
         -4    1    3    3    0  501 -0.33680514062E+02  0.25152157036E+01  0.12214861418E+01  0.33831906034E+02  0.15500000000E+01 0. -1.
<mgrwt>
<rscale>  2 0.12498720E+03</rscale>
<asrwt>0</asrwt>
<pdfrwt beam="1">  1       21 0.29292710E-02 0.12498720E+03</pdfrwt>
<pdfrwt beam="2">  1       21 0.31556211E-01 0.12498720E+03</pdfrwt>
<totfact> 0.62420460E+06</totfact>
</mgrwt>
</event>
<event>
 5    0  0.1548854E+000  0.1250002E+03  0.7546771E-02  0.1235069E+00
         21   -1    0    0  503  502  0.00000000000E+00  0.00000000000E+00  0.67170735259E+02  0.67170735259E+02  0.00000000000E+00 0. -1.
         21   -1    0    0  502  503 -0.00000000000E+00 -0.00000000000E+00 -0.58154225285E+02  0.58154225285E+02  0.00000000000E+00 0. -1.
         25    2    1    2    0    0  0.00000000000E+00  0.00000000000E+00  0.90165099741E+01  0.12532496054E+03  0.12500019313E+03 0.  0.
          4    1    3    3  501    0 -0.39681193774E+02  0.56886107610E+01  0.52558780154E+02  0.66119477486E+02  0.15500000000E+01 0.  1.
         -4    1    3    3    0  501  0.39681193774E+02 -0.56886107610E+01 -0.43542270180E+02  0.59205483058E+02  0.15500000000E+01 0.  1.
<mgrwt>
<rscale>  2 0.12500019E+03</rscale>
<asrwt>0</asrwt>
<pdfrwt beam="1">  1       21 0.10333959E-01 0.12500019E+03</pdfrwt>
<pdfrwt beam="2">  1       21 0.89468039E-02 0.12500019E+03</pdfrwt>
<totfact> 0.73999337E+06</totfact>
</mgrwt>
</event>
<event>
 5    0  0.1310140E+000  0.1250851E+03  0.7546771E-02  0.1234936E+00
         21   -1    0    0  503  502  0.00000000000E+00  0.00000000000E+00  0.31697572287E+03  0.31697572287E+03  0.00000000000E+00 0. -1.
         21   -1    0    0  502  503 -0.00000000000E+00 -0.00000000000E+00 -0.12340291294E+02  0.12340291294E+02  0.00000000000E+00 0. -1.
         25    2    1    2    0    0  0.00000000000E+00  0.00000000000E+00  0.30463543157E+03  0.32931601416E+03  0.12508513506E+03 0.  0.
          4    1    3    3  501    0 -0.30439179026E+01 -0.31183203370E+02  0.29476577557E+03  0.29643029966E+03  0.15500000000E+01 0. -1.
         -4    1    3    3    0  501  0.30439179026E+01  0.31183203370E+02  0.98696560024E+01  0.32885714501E+02  0.15500000000E+01 0. -1.
<mgrwt>
<rscale>  2 0.12508514E+03</rscale>
<asrwt>0</asrwt>
<pdfrwt beam="1">  1       21 0.48765490E-01 0.12508514E+03</pdfrwt>
<pdfrwt beam="2">  1       21 0.18985066E-02 0.12508514E+03</pdfrwt>
<totfact> 0.52990044E+06</totfact>
</mgrwt>
</event>
<event>
 5    0  0.1222151E+000  0.1250205E+03  0.7546771E-02  0.1235037E+00
         21   -1    0    0  503  502  0.00000000000E+00  0.00000000000E+00  0.80390747271E+03  0.80390747271E+03  0.00000000000E+00 0.  1.
         21   -1    0    0  502  503 -0.00000000000E+00 -0.00000000000E+00 -0.48606760976E+01  0.48606760976E+01  0.00000000000E+00 0.  1.
         25    2    1    2    0    0  0.00000000000E+00  0.00000000000E+00  0.79904679661E+03  0.80876814881E+03  0.12502053971E+03 0.  0.
          4    1    3    3  501    0  0.40285213721E+02  0.42608922795E+02  0.53927842218E+03  0.54245924997E+03  0.15500000000E+01 0. -1.
         -4    1    3    3    0  501 -0.40285213721E+02 -0.42608922795E+02  0.25976837443E+03  0.26630889884E+03  0.15500000000E+01 0. -1.
<mgrwt>
<rscale>  2 0.12502054E+03</rscale>
<asrwt>0</asrwt>
<pdfrwt beam="1">  1       21 0.12367797E+00 0.12502054E+03</pdfrwt>
<pdfrwt beam="2">  1       21 0.74779696E-03 0.12502054E+03</pdfrwt>
<totfact> 0.29059594E+06</totfact>
</mgrwt>
</event>
<event>
 5    0  0.1222151E+000  0.1249994E+03  0.7546771E-02  0.1235070E+00
         21   -1    0    0  503  502  0.00000000000E+00  0.00000000000E+00  0.50018102777E+01  0.50018102777E+01  0.00000000000E+00 0.  1.
         21   -1    0    0  502  503 -0.00000000000E+00 -0.00000000000E+00 -0.78095974397E+03  0.78095974397E+03  0.00000000000E+00 0.  1.
         25    2    1    2    0    0  0.00000000000E+00  0.00000000000E+00 -0.77595793369E+03  0.78596155424E+03  0.12499939958E+03 0.  0.
          4    1    3    3  501    0  0.48040921982E+02  0.42139513377E+01 -0.13819548311E+03  0.14637650639E+03  0.15500000000E+01 0.  1.
         -4    1    3    3    0  501 -0.48040921982E+02 -0.42139513377E+01 -0.63776245058E+03  0.63958504786E+03  0.15500000000E+01 0.  1.
<mgrwt>
<rscale>  2 0.12499940E+03</rscale>
<asrwt>0</asrwt>
<pdfrwt beam="1">  1       21 0.76950919E-03 0.12499940E+03</pdfrwt>
<pdfrwt beam="2">  1       21 0.12014767E+00 0.12499940E+03</pdfrwt>
<totfact> 0.29833693E+06</totfact>
</mgrwt>
</event>
<event>
 4    0  0.1414744E+000  0.1255405E+03  0.7546771E-02  0.1234227E+00
         21   -1    0    0  503  502  0.00000000000E+00  0.00000000000E+00  0.11947020676E+02  0.11947020676E+02  0.00000000000E+00 0. -1.
         21   -1    0    0  502  503 -0.00000000000E+00 -0.00000000000E+00 -0.32979822028E+03  0.32979822028E+03  0.00000000000E+00 0. -1.
          4    1    1    2  501    0 -0.61996290048E+02 -0.97018363305E+01 -0.15945659240E+03  0.17136648729E+03  0.15500000000E+01 0.  1.
         -4    1    1    2    0  501  0.61996290048E+02  0.97018363305E+01 -0.15839460721E+03  0.17037875366E+03  0.15500000000E+01 0.  1.
<mgrwt>
<rscale>  2 0.12554053E+03</rscale>
<asrwt>0</asrwt>
<pdfrwt beam="1">  1       21 0.18380033E-02 0.12554053E+03</pdfrwt>
<pdfrwt beam="2">  1       21 0.50738185E-01 0.12554053E+03</pdfrwt>
<totfact> 0.51453535E+06</totfact>
</mgrwt>
</event>
<event>
 5    0  0.1222151E+000  0.1249368E+03  0.7546771E-02  0.1235168E+00
         21   -1    0    0  503  502  0.00000000000E+00  0.00000000000E+00  0.42371733576E+01  0.42371733576E+01  0.00000000000E+00 0. -1.
         21   -1    0    0  502  503 -0.00000000000E+00 -0.00000000000E+00 -0.92096806302E+03  0.92096806302E+03  0.00000000000E+00 0. -1.
         25    2    1    2    0    0  0.00000000000E+00  0.00000000000E+00 -0.91673088966E+03  0.92520523637E+03  0.12493680546E+03 0.  0.
          4    1    3    3  501    0  0.15118958501E+02 -0.15337517603E+02 -0.24276129496E+02  0.32489310791E+02  0.15500000000E+01 0.  1.
         -4    1    3    3    0  501 -0.15118958501E+02  0.15337517603E+02 -0.89245476016E+03  0.89271592558E+03  0.15500000000E+01 0.  1.
<mgrwt>
<rscale>  2 0.12493681E+03</rscale>
<asrwt>0</asrwt>
<pdfrwt beam="1">  1       21 0.65187375E-03 0.12493681E+03</pdfrwt>
<pdfrwt beam="2">  1       21 0.14168719E+00 0.12493681E+03</pdfrwt>
<totfact> 0.25627290E+06</totfact>
</mgrwt>
</event>
<event>
 5    0  0.1263063E+000  0.1250125E+03  0.7546771E-02  0.1235050E+00
         21   -1    0    0  503  502  0.00000000000E+00  0.00000000000E+00  0.54676094617E+01  0.54676094617E+01  0.00000000000E+00 0. -1.
         21   -1    0    0  502  503 -0.00000000000E+00 -0.00000000000E+00 -0.71457792737E+03  0.71457792737E+03  0.00000000000E+00 0. -1.
         25    2    1    2    0    0  0.00000000000E+00  0.00000000000E+00 -0.70911031791E+03  0.72004553683E+03  0.12501252796E+03 0.  0.
          4    1    3    3  501    0  0.59155541246E+02  0.19825523345E+02 -0.33443618013E+03  0.34020933337E+03  0.15500000000E+01 0. -1.
         -4    1    3    3    0  501 -0.59155541246E+02 -0.19825523345E+02 -0.37467413778E+03  0.37983620346E+03  0.15500000000E+01 0. -1.
<mgrwt>
<rscale>  2 0.12501253E+03</rscale>
<asrwt>0</asrwt>
<pdfrwt beam="1">  1       21 0.84117059E-03 0.12501253E+03</pdfrwt>
<pdfrwt beam="2">  1       21 0.10993508E+00 0.12501253E+03</pdfrwt>
<totfact> 0.32141520E+06</totfact>
</mgrwt>
</event>
<event>
 5    0  0.1222151E+000  0.1250094E+03  0.7546771E-02  0.1235055E+00
         21   -1    0    0  503  502  0.00000000000E+00  0.00000000000E+00  0.35268104555E+01  0.35268104555E+01  0.00000000000E+00 0.  1.
         21   -1    0    0  502  503 -0.00000000000E+00 -0.00000000000E+00 -0.11077542843E+04  0.11077542843E+04  0.00000000000E+00 0.  1.
         25    2    1    2    0    0  0.00000000000E+00  0.00000000000E+00 -0.11042274738E+04  0.11112810947E+04  0.12500942991E+03 0.  0.
          4    1    3    3  501    0  0.53286507645E+02 -0.32626304035E+02 -0.55845768206E+03  0.56194422567E+03  0.15500000000E+01 0. -1.
         -4    1    3    3    0  501 -0.53286507645E+02  0.32626304035E+02 -0.54576979174E+03  0.54933686904E+03  0.15500000000E+01 0. -1.
<mgrwt>
<rscale>  2 0.12500943E+03</rscale>
<asrwt>0</asrwt>
<pdfrwt beam="1">  1       21 0.54258619E-03 0.12500943E+03</pdfrwt>
<pdfrwt beam="2">  1       21 0.17042375E+00 0.12500943E+03</pdfrwt>
<totfact> 0.20997348E+06</totfact>
</mgrwt>
</event>
<event>
 5    0  0.1491900E+000  0.1249996E+03  0.7546771E-02  0.1235070E+00
         21   -1    0    0  503  502  0.00000000000E+00  0.00000000000E+00  0.17644990932E+02  0.17644990932E+02  0.00000000000E+00 0.  1.
         21   -1    0    0  502  503 -0.00000000000E+00 -0.00000000000E+00 -0.22137862337E+03  0.22137862337E+03  0.00000000000E+00 0.  1.
         25    2    1    2    0    0  0.00000000000E+00  0.00000000000E+00 -0.20373363243E+03  0.23902361430E+03  0.12499958083E+03 0.  0.
          4    1    3    3  501    0  0.17257338017E+02  0.51689284989E+02 -0.43420435341E+02  0.69694580874E+02  0.15500000000E+01 0.  1.
         -4    1    3    3    0  501 -0.17257338017E+02 -0.51689284989E+02 -0.16031319709E+03  0.16932903342E+03  0.15500000000E+01 0.  1.
<mgrwt>
<rscale>  2 0.12499958E+03</rscale>
<asrwt>0</asrwt>
<pdfrwt beam="1">  1       21 0.27146142E-02 0.12499958E+03</pdfrwt>
<pdfrwt beam="2">  1       21 0.34058247E-01 0.12499958E+03</pdfrwt>
<totfact> 0.60927919E+06</totfact>
</mgrwt>
</event>
<event>
 5    0  0.1222151E+000  0.1250012E+03  0.7546771E-02  0.1235067E+00
         21   -1    0    0  503  502  0.00000000000E+00  0.00000000000E+00  0.36090368658E+01  0.36090368658E+01  0.00000000000E+00 0. -1.
         21   -1    0    0  502  503 -0.00000000000E+00 -0.00000000000E+00 -0.10823736120E+04  0.10823736120E+04  0.00000000000E+00 0. -1.
         25    2    1    2    0    0  0.00000000000E+00  0.00000000000E+00 -0.10787645752E+04  0.10859826489E+04  0.12500122029E+03 0.  0.
          4    1    3    3  501    0 -0.58702573254E+02 -0.18480185405E+02 -0.63311949322E+03  0.63610549797E+03  0.15500000000E+01 0.  1.
         -4    1    3    3    0  501  0.58702573254E+02  0.18480185405E+02 -0.44564508194E+03  0.44987715092E+03  0.15500000000E+01 0.  1.
<mgrwt>
<rscale>  2 0.12500122E+03</rscale>
<asrwt>0</asrwt>
<pdfrwt beam="1">  1       21 0.55523696E-03 0.12500122E+03</pdfrwt>
<pdfrwt beam="2">  1       21 0.16651886E+00 0.12500122E+03</pdfrwt>
<totfact> 0.21565242E+06</totfact>
</mgrwt>
</event>
<event>
 5    0  0.1369181E+000  0.1250049E+03  0.7546771E-02  0.1235062E+00
         21   -1    0    0  503  502  0.00000000000E+00  0.00000000000E+00  0.37763595832E+03  0.37763595832E+03  0.00000000000E+00 0. -1.
         21   -1    0    0  502  503 -0.00000000000E+00 -0.00000000000E+00 -0.10344767821E+02  0.10344767821E+02  0.00000000000E+00 0. -1.
         25    2    1    2    0    0  0.00000000000E+00  0.00000000000E+00  0.36729119050E+03  0.38798072614E+03  0.12500490086E+03 0.  0.
          4    1    3    3  501    0  0.59971657814E+02 -0.13404093991E+02  0.21874435598E+03  0.22721744046E+03  0.15500000000E+01 0. -1.
         -4    1    3    3    0  501 -0.59971657814E+02  0.13404093991E+02  0.14854683452E+03  0.16076328568E+03  0.15500000000E+01 0. -1.
<mgrwt>
<rscale>  2 0.12500490E+03</rscale>
<asrwt>0</asrwt>
<pdfrwt beam="1">  1       21 0.58097829E-01 0.12500490E+03</pdfrwt>
<pdfrwt beam="2">  1       21 0.15915030E-02 0.12500490E+03</pdfrwt>
<totfact> 0.48842947E+06</totfact>
</mgrwt>
</event>
<event>
 5    0  0.1591450E+000  0.1249959E+03  0.7546771E-02  0.1235076E+00
         21   -1    0    0  503  502  0.00000000000E+00  0.00000000000E+00  0.26632485547E+02  0.26632485547E+02  0.00000000000E+00 0. -1.
         21   -1    0    0  502  503 -0.00000000000E+00 -0.00000000000E+00 -0.14666280692E+03  0.14666280692E+03  0.00000000000E+00 0. -1.
         25    2    1    2    0    0  0.00000000000E+00  0.00000000000E+00 -0.12003032137E+03  0.17329529247E+03  0.12499592130E+03 0.  0.
          4    1    3    3  501    0 -0.59521774560E+02  0.17066397408E+02 -0.71572264421E+02  0.94652496542E+02  0.15500000000E+01 0.  1.
         -4    1    3    3    0  501  0.59521774560E+02 -0.17066397408E+02 -0.48458056950E+02  0.78642795923E+02  0.15500000000E+01 0.  1.
<mgrwt>
<rscale>  2 0.12499592E+03</rscale>
<asrwt>0</asrwt>
<pdfrwt beam="1">  1       21 0.40973055E-02 0.12499592E+03</pdfrwt>
<pdfrwt beam="2">  1       21 0.22563509E-01 0.12499592E+03</pdfrwt>
<totfact> 0.67936160E+06</totfact>
</mgrwt>
</event>
<event>
 5    0  0.1495075E+000  0.1250027E+03  0.7546771E-02  0.1235065E+00
         21   -1    0    0  503  502  0.00000000000E+00  0.00000000000E+00  0.19364296381E+02  0.19364296381E+02  0.00000000000E+00 0. -1.
         21   -1    0    0  502  503 -0.00000000000E+00 -0.00000000000E+00 -0.20173307731E+03  0.20173307731E+03  0.00000000000E+00 0. -1.
         25    2    1    2    0    0  0.00000000000E+00  0.00000000000E+00 -0.18236878093E+03  0.22109737369E+03  0.12500270555E+03 0.  0.
          4    1    3    3  501    0  0.52661780621E+02  0.27029770515E+02 -0.55803166714E+02  0.81365026563E+02  0.15500000000E+01 0. -1.
         -4    1    3    3    0  501 -0.52661780621E+02 -0.27029770515E+02 -0.12656561421E+03  0.13973234713E+03  0.15500000000E+01 0. -1.
<mgrwt>
<rscale>  2 0.12500271E+03</rscale>
<asrwt>0</asrwt>
<pdfrwt beam="1">  1       21 0.29791224E-02 0.12500271E+03</pdfrwt>
<pdfrwt beam="2">  1       21 0.31035860E-01 0.12500271E+03</pdfrwt>
<totfact> 0.62706256E+06</totfact>
</mgrwt>
</event>
<event>
 5    0  0.1311970E+000  0.1249926E+03  0.7546771E-02  0.1235081E+00
         21   -1    0    0  503  502  0.00000000000E+00  0.00000000000E+00  0.34692346787E+02  0.34692346787E+02  0.00000000000E+00 0. -1.
         21   -1    0    0  502  503 -0.00000000000E+00 -0.00000000000E+00 -0.11258352977E+03  0.11258352977E+03  0.00000000000E+00 0. -1.
         25    2    1    2    0    0  0.00000000000E+00  0.00000000000E+00 -0.77891182982E+02  0.14727587656E+03  0.12499258950E+03 0.  0.
          4    1    3    3  501    0  0.23716526974E+02 -0.64015752104E+01 -0.10663173182E+03  0.10943574621E+03  0.15500000000E+01 0. -1.
         -4    1    3    3    0  501 -0.23716526974E+02  0.64015752104E+01  0.28740548841E+02  0.37840130346E+02  0.15500000000E+01 0. -1.
<mgrwt>
<rscale>  2 0.12499259E+03</rscale>
<asrwt>0</asrwt>
<pdfrwt beam="1">  1       21 0.53372843E-02 0.12499259E+03</pdfrwt>
<pdfrwt beam="2">  1       21 0.17320542E-01 0.12499259E+03</pdfrwt>
<totfact> 0.71116519E+06</totfact>
</mgrwt>
</event>
<event>
 5    0  0.1222151E+000  0.1249913E+03  0.7546771E-02  0.1235083E+00
         21   -1    0    0  503  502  0.00000000000E+00  0.00000000000E+00  0.62326684778E+02  0.62326684778E+02  0.00000000000E+00 0. -1.
         21   -1    0    0  502  503 -0.00000000000E+00 -0.00000000000E+00 -0.62665077066E+02  0.62665077066E+02  0.00000000000E+00 0. -1.
         25    2    1    2    0    0  0.00000000000E+00  0.00000000000E+00 -0.33839228809E+00  0.12499176184E+03  0.12499130377E+03 0.  0.
          4    1    3    3  501    0  0.19987593716E+02 -0.12157978708E+02  0.57761868528E+02  0.62339043181E+02  0.15500000000E+01 0. -1.
         -4    1    3    3    0  501 -0.19987593716E+02  0.12157978708E+02 -0.58100260816E+02  0.62652718662E+02  0.15500000000E+01 0. -1.
<mgrwt>
<rscale>  2 0.12499130E+03</rscale>
<asrwt>0</asrwt>
<pdfrwt beam="1">  1       21 0.95887207E-02 0.12499130E+03</pdfrwt>
<pdfrwt beam="2">  1       21 0.96407811E-02 0.12499130E+03</pdfrwt>
<totfact> 0.74061160E+06</totfact>
</mgrwt>
</event>
<event>
 5    0  0.1222151E+000  0.1250005E+03  0.7546771E-02  0.1235069E+00
         21   -1    0    0  503  502  0.00000000000E+00  0.00000000000E+00  0.49713802162E+01  0.49713802162E+01  0.00000000000E+00 0. -1.
         21   -1    0    0  502  503 -0.00000000000E+00 -0.00000000000E+00 -0.78575382960E+03  0.78575382960E+03  0.00000000000E+00 0. -1.
         25    2    1    2    0    0  0.00000000000E+00  0.00000000000E+00 -0.78078244939E+03  0.79072520982E+03  0.12500049669E+03 0.  0.
          4    1    3    3  501    0  0.17426815498E+02  0.11677526648E+02 -0.76268991225E+03  0.76297992325E+03  0.15500000000E+01 0.  1.
         -4    1    3    3    0  501 -0.17426815498E+02 -0.11677526648E+02 -0.18092537135E+02  0.27745286573E+02  0.15500000000E+01 0.  1.
<mgrwt>
<rscale>  2 0.12500050E+03</rscale>
<asrwt>0</asrwt>
<pdfrwt beam="1">  1       21 0.76482806E-03 0.12500050E+03</pdfrwt>
<pdfrwt beam="2">  1       21 0.12088515E+00 0.12500050E+03</pdfrwt>
<totfact> 0.29672075E+06</totfact>
</mgrwt>
</event>
<event>
 5    0  0.1534563E+000  0.1250022E+03  0.7546771E-02  0.1235066E+00
         21   -1    0    0  503  502  0.00000000000E+00  0.00000000000E+00  0.40379266587E+03  0.40379266587E+03  0.00000000000E+00 0. -1.
         21   -1    0    0  502  503 -0.00000000000E+00 -0.00000000000E+00 -0.96742478009E+01  0.96742478009E+01  0.00000000000E+00 0. -1.
         25    2    1    2    0    0  0.00000000000E+00  0.00000000000E+00  0.39411841807E+03  0.41346691367E+03  0.12500224494E+03 0.  0.
          4    1    3    3  501    0 -0.51296986207E+02 -0.62993319782E+00  0.31503757758E+03  0.31919093877E+03  0.15500000000E+01 0.  1.
         -4    1    3    3    0  501  0.51296986207E+02  0.62993319782E+00  0.79080840490E+02  0.94275974895E+02  0.15500000000E+01 0.  1.
<mgrwt>
<rscale>  2 0.12500224E+03</rscale>
<asrwt>0</asrwt>
<pdfrwt beam="1">  1       21 0.62121936E-01 0.12500224E+03</pdfrwt>
<pdfrwt beam="2">  1       21 0.14883461E-02 0.12500224E+03</pdfrwt>
<totfact> 0.47158108E+06</totfact>
</mgrwt>
</event>
<event>
 5    0  0.1474281E+000  0.1249962E+03  0.7546771E-02  0.1235075E+00
         21   -1    0    0  503  502  0.00000000000E+00  0.00000000000E+00  0.20565997342E+03  0.20565997342E+03  0.00000000000E+00 0. -1.
         21   -1    0    0  502  503 -0.00000000000E+00 -0.00000000000E+00 -0.18992581980E+02  0.18992581980E+02  0.00000000000E+00 0. -1.
         25    2    1    2    0    0  0.00000000000E+00  0.00000000000E+00  0.18666739144E+03  0.22465255540E+03  0.12499622243E+03 0.  0.
          4    1    3    3  501    0 -0.29780337443E+02  0.14127783122E+02  0.18872732165E+03  0.19159036300E+03  0.15500000000E+01 0.  1.
         -4    1    3    3    0  501  0.29780337443E+02 -0.14127783122E+02 -0.20599302133E+01  0.33062192406E+02  0.15500000000E+01 0.  1.
<mgrwt>
<rscale>  2 0.12499622E+03</rscale>
<asrwt>0</asrwt>
<pdfrwt beam="1">  1       21 0.31639994E-01 0.12499622E+03</pdfrwt>
<pdfrwt beam="2">  1       21 0.29219358E-02 0.12499622E+03</pdfrwt>
<totfact> 0.62356075E+06</totfact>
</mgrwt>
</event>
<event>
 5    0  0.1530384E+000  0.1250018E+03  0.7546771E-02  0.1235067E+00
         21   -1    0    0  503  502  0.00000000000E+00  0.00000000000E+00  0.82046578782E+02  0.82046578782E+02  0.00000000000E+00 0.  1.
         21   -1    0    0  502  503 -0.00000000000E+00 -0.00000000000E+00 -0.47611505309E+02  0.47611505309E+02  0.00000000000E+00 0.  1.
         25    2    1    2    0    0  0.00000000000E+00  0.00000000000E+00  0.34435073473E+02  0.12965808409E+03  0.12500177793E+03 0.  0.
          4    1    3    3  501    0 -0.54062819608E+02  0.27221221175E+02  0.11426634523E+01  0.60559817751E+02  0.15500000000E+01 0.  1.
         -4    1    3    3    0  501  0.54062819608E+02 -0.27221221175E+02  0.33292410021E+02  0.69098266340E+02  0.15500000000E+01 0.  1.
<mgrwt>
<rscale>  2 0.12500178E+03</rscale>
<asrwt>0</asrwt>
<pdfrwt beam="1">  1       21 0.12622551E-01 0.12500178E+03</pdfrwt>
<pdfrwt beam="2">  1       21 0.73248470E-02 0.12500178E+03</pdfrwt>
<totfact> 0.73407315E+06</totfact>
</mgrwt>
</event>
<event>
 5    0  0.1363995E+000  0.1250053E+03  0.7546771E-02  0.1235061E+00
         21   -1    0    0  503  502  0.00000000000E+00  0.00000000000E+00  0.15820311904E+02  0.15820311904E+02  0.00000000000E+00 0. -1.
         21   -1    0    0  502  503 -0.00000000000E+00 -0.00000000000E+00 -0.24693446751E+03  0.24693446751E+03  0.00000000000E+00 0. -1.
         25    2    1    2    0    0  0.00000000000E+00  0.00000000000E+00 -0.23111415560E+03  0.26275477941E+03  0.12500528462E+03 0.  0.
          4    1    3    3  501    0  0.32841975397E+02 -0.11759082140E+02 -0.65936273537E+01  0.35535190761E+02  0.15500000000E+01 0. -1.
         -4    1    3    3    0  501 -0.32841975397E+02  0.11759082140E+02 -0.22452052825E+03  0.22721958865E+03  0.15500000000E+01 0. -1.
<mgrwt>
<rscale>  2 0.12500528E+03</rscale>
<asrwt>0</asrwt>
<pdfrwt beam="1">  1       21 0.24338943E-02 0.12500528E+03</pdfrwt>
<pdfrwt beam="2">  1       21 0.37989915E-01 0.12500528E+03</pdfrwt>
<totfact> 0.58689887E+06</totfact>
</mgrwt>
</event>
<event>
 4    0  0.1274327E+000  0.1255330E+03  0.7546771E-02  0.1234239E+00
         21   -1    0    0  503  502  0.00000000000E+00  0.00000000000E+00  0.20770194903E+02  0.20770194903E+02  0.00000000000E+00 0. -1.
         21   -1    0    0  502  503 -0.00000000000E+00 -0.00000000000E+00 -0.18967725129E+03  0.18967725129E+03  0.00000000000E+00 0. -1.
          4    1    1    2  501    0  0.10965563453E+02 -0.21710493338E+02 -0.18142086774E+03  0.18305060189E+03  0.15500000000E+01 0. -1.
         -4    1    1    2    0  501 -0.10965563453E+02  0.21710493338E+02  0.12513811353E+02  0.27396844297E+02  0.15500000000E+01 0. -1.
<mgrwt>
<rscale>  2 0.12553300E+03</rscale>
<asrwt>0</asrwt>
<pdfrwt beam="1">  1       21 0.31954145E-02 0.12553300E+03</pdfrwt>
<pdfrwt beam="2">  1       21 0.29181116E-01 0.12553300E+03</pdfrwt>
<totfact> 0.62959588E+06</totfact>
</mgrwt>
</event>
<event>
 5    0  0.1494105E+000  0.1250068E+03  0.7546771E-02  0.1235059E+00
         21   -1    0    0  503  502  0.00000000000E+00  0.00000000000E+00  0.16821040818E+02  0.16821040818E+02  0.00000000000E+00 0. -1.
         21   -1    0    0  502  503 -0.00000000000E+00 -0.00000000000E+00 -0.23224920640E+03  0.23224920640E+03  0.00000000000E+00 0. -1.
         25    2    1    2    0    0  0.00000000000E+00  0.00000000000E+00 -0.21542816558E+03  0.24907024722E+03  0.12500677391E+03 0.  0.
          4    1    3    3  501    0  0.51688069023E+02  0.28203318263E+02 -0.66053816306E+02  0.88501936640E+02  0.15500000000E+01 0.  1.
         -4    1    3    3    0  501 -0.51688069023E+02 -0.28203318263E+02 -0.14937434927E+03  0.16056831058E+03  0.15500000000E+01 0.  1.
<mgrwt>
<rscale>  2 0.12500677E+03</rscale>
<asrwt>0</asrwt>
<pdfrwt beam="1">  1       21 0.25878527E-02 0.12500677E+03</pdfrwt>
<pdfrwt beam="2">  1       21 0.35730643E-01 0.12500677E+03</pdfrwt>
<totfact> 0.59955598E+06</totfact>
</mgrwt>
</event>
<event>
 5    0  0.1222151E+000  0.1250003E+03  0.7546771E-02  0.1235069E+00
         21   -1    0    0  503  502  0.00000000000E+00  0.00000000000E+00  0.52787830853E+01  0.52787830853E+01  0.00000000000E+00 0. -1.
         21   -1    0    0  502  503 -0.00000000000E+00 -0.00000000000E+00 -0.73999433450E+03  0.73999433450E+03  0.00000000000E+00 0. -1.
         25    2    1    2    0    0  0.00000000000E+00  0.00000000000E+00 -0.73471555141E+03  0.74527311759E+03  0.12500031322E+03 0.  0.
          4    1    3    3  501    0 -0.57690992687E+02 -0.17164236248E+02 -0.46730292323E+03  0.47116587971E+03  0.15500000000E+01 0. -1.
         -4    1    3    3    0  501  0.57690992687E+02  0.17164236248E+02 -0.26741262819E+03  0.27410723788E+03  0.15500000000E+01 0. -1.
<mgrwt>
<rscale>  2 0.12500031E+03</rscale>
<asrwt>0</asrwt>
<pdfrwt beam="1">  1       21 0.81212104E-03 0.12500031E+03</pdfrwt>
<pdfrwt beam="2">  1       21 0.11384520E+00 0.12500031E+03</pdfrwt>
<totfact> 0.31235588E+06</totfact>
</mgrwt>
</event>
<event>
 5    0  0.1513401E+000  0.1250260E+03  0.7546771E-02  0.1235029E+00
         21   -1    0    0  503  502  0.00000000000E+00  0.00000000000E+00  0.11765316674E+03  0.11765316674E+03  0.00000000000E+00 0. -1.
         21   -1    0    0  502  503 -0.00000000000E+00 -0.00000000000E+00 -0.33215238449E+02  0.33215238449E+02  0.00000000000E+00 0. -1.
         25    2    1    2    0    0  0.00000000000E+00  0.00000000000E+00  0.84437928291E+02  0.15086840519E+03  0.12502604509E+03 0.  0.
          4    1    3    3  501    0  0.14180257357E+02 -0.55307277678E+02  0.11560795651E+02  0.58275459320E+02  0.15500000000E+01 0. -1.
         -4    1    3    3    0  501 -0.14180257357E+02  0.55307277678E+02  0.72877132640E+02  0.92592945869E+02  0.15500000000E+01 0. -1.
<mgrwt>
<rscale>  2 0.12502605E+03</rscale>
<asrwt>0</asrwt>
<pdfrwt beam="1">  1       21 0.18100487E-01 0.12502605E+03</pdfrwt>
<pdfrwt beam="2">  1       21 0.51100368E-02 0.12502605E+03</pdfrwt>
<totfact> 0.70603467E+06</totfact>
</mgrwt>
</event>
<event>
 5    0  0.1222151E+000  0.1249996E+03  0.7546771E-02  0.1235070E+00
         21   -1    0    0  503  502  0.00000000000E+00  0.00000000000E+00  0.66413503821E+01  0.66413503821E+01  0.00000000000E+00 0. -1.
         21   -1    0    0  502  503 -0.00000000000E+00 -0.00000000000E+00 -0.58816774283E+03  0.58816774283E+03  0.00000000000E+00 0. -1.
         25    2    1    2    0    0  0.00000000000E+00  0.00000000000E+00 -0.58152639245E+03  0.59480909321E+03  0.12499964902E+03 0.  0.
          4    1    3    3  501    0  0.17819107523E+02 -0.16628265970E+02 -0.17003154646E+02  0.29757849217E+02  0.15500000000E+01 0. -1.
         -4    1    3    3    0  501 -0.17819107523E+02  0.16628265970E+02 -0.56452323780E+03  0.56505124400E+03  0.15500000000E+01 0. -1.
<mgrwt>
<rscale>  2 0.12499965E+03</rscale>
<asrwt>0</asrwt>
<pdfrwt beam="1">  1       21 0.10217464E-02 0.12499965E+03</pdfrwt>
<pdfrwt beam="2">  1       21 0.90487325E-01 0.12499965E+03</pdfrwt>
<totfact> 0.37328771E+06</totfact>
</mgrwt>
</event>
<event>
 5    0  0.1647689E+000  0.1249973E+03  0.7546771E-02  0.1235073E+00
         21   -1    0    0  503  502  0.00000000000E+00  0.00000000000E+00  0.10000609285E+03  0.10000609285E+03  0.00000000000E+00 0. -1.
         21   -1    0    0  502  503 -0.00000000000E+00 -0.00000000000E+00 -0.39058448329E+02  0.39058448329E+02  0.00000000000E+00 0. -1.
         25    2    1    2    0    0  0.00000000000E+00  0.00000000000E+00  0.60947644525E+02  0.13906454118E+03  0.12499732494E+03 0.  0.
          4    1    3    3  501    0  0.38759346069E+02 -0.35468305952E+02 -0.71457099905E+01  0.53044804704E+02  0.15500000000E+01 0.  1.
         -4    1    3    3    0  501 -0.38759346069E+02  0.35468305952E+02  0.68093354516E+02  0.86019736479E+02  0.15500000000E+01 0.  1.
<mgrwt>
<rscale>  2 0.12499732E+03</rscale>
<asrwt>0</asrwt>
<pdfrwt beam="1">  1       21 0.15385553E-01 0.12499732E+03</pdfrwt>
<pdfrwt beam="2">  1       21 0.60089921E-02 0.12499732E+03</pdfrwt>
<totfact> 0.72166585E+06</totfact>
</mgrwt>
</event>
<event>
 5    0  0.1608555E+000  0.1249814E+03  0.7546771E-02  0.1235098E+00
         21   -1    0    0  503  502  0.00000000000E+00  0.00000000000E+00  0.22077113326E+02  0.22077113326E+02  0.00000000000E+00 0. -1.
         21   -1    0    0  502  503 -0.00000000000E+00 -0.00000000000E+00 -0.17688386081E+03  0.17688386081E+03  0.00000000000E+00 0. -1.
         25    2    1    2    0    0  0.00000000000E+00  0.00000000000E+00 -0.15480674749E+03  0.19896097414E+03  0.12498135926E+03 0.  0.
          4    1    3    3  501    0 -0.50356787662E+02 -0.28725176284E+02 -0.40350798563E+02  0.70650769712E+02  0.15500000000E+01 0.  1.
         -4    1    3    3    0  501  0.50356787662E+02  0.28725176284E+02 -0.11445594892E+03  0.12831020443E+03  0.15500000000E+01 0.  1.
<mgrwt>
<rscale>  2 0.12498136E+03</rscale>
<asrwt>0</asrwt>
<pdfrwt beam="1">  1       21 0.33964791E-02 0.12498136E+03</pdfrwt>
<pdfrwt beam="2">  1       21 0.27212901E-01 0.12498136E+03</pdfrwt>
<totfact> 0.65070716E+06</totfact>
</mgrwt>
</event>
<event>
 5    0  0.1563403E+000  0.1249809E+03  0.7546771E-02  0.1235099E+00
         21   -1    0    0  503  502  0.00000000000E+00  0.00000000000E+00  0.14539459600E+03  0.14539459600E+03  0.00000000000E+00 0. -1.
         21   -1    0    0  502  503 -0.00000000000E+00 -0.00000000000E+00 -0.26858329996E+02  0.26858329996E+02  0.00000000000E+00 0. -1.
         25    2    1    2    0    0  0.00000000000E+00  0.00000000000E+00  0.11853626600E+03  0.17225292600E+03  0.12498089516E+03 0.  0.
          4    1    3    3  501    0  0.60134910367E+02  0.16786281558E+02  0.56290750088E+02  0.84077569773E+02  0.15500000000E+01 0.  1.
         -4    1    3    3    0  501 -0.60134910367E+02 -0.16786281558E+02  0.62245515916E+02  0.88175356223E+02  0.15500000000E+01 0.  1.
<mgrwt>
<rscale>  2 0.12498090E+03</rscale>
<asrwt>0</asrwt>
<pdfrwt beam="1">  1       21 0.22368399E-01 0.12498090E+03</pdfrwt>
<pdfrwt beam="2">  1       21 0.41320508E-02 0.12498090E+03</pdfrwt>
<totfact> 0.68084572E+06</totfact>
</mgrwt>
</event>
<event>
 5    0  0.1520031E+000  0.1249975E+03  0.7546771E-02  0.1235073E+00
         21   -1    0    0  503  502  0.00000000000E+00  0.00000000000E+00  0.14743277410E+03  0.14743277410E+03  0.00000000000E+00 0. -1.
         21   -1    0    0  502  503 -0.00000000000E+00 -0.00000000000E+00 -0.26494074506E+02  0.26494074506E+02  0.00000000000E+00 0. -1.
         25    2    1    2    0    0  0.00000000000E+00  0.00000000000E+00  0.12093869960E+03  0.17392684861E+03  0.12499751840E+03 0.  0.
          4    1    3    3  501    0  0.56694048755E+02 -0.99186852781E+00  0.23959071904E+02  0.61576282722E+02  0.15500000000E+01 0. -1.
         -4    1    3    3    0  501 -0.56694048755E+02  0.99186852781E+00  0.96979627692E+02  0.11235056589E+03  0.15500000000E+01 0. -1.
<mgrwt>
<rscale>  2 0.12499752E+03</rscale>
<asrwt>0</asrwt>
<pdfrwt beam="1">  1       21 0.22681965E-01 0.12499752E+03</pdfrwt>
<pdfrwt beam="2">  1       21 0.40760115E-02 0.12499752E+03</pdfrwt>
<totfact> 0.67859425E+06</totfact>
</mgrwt>
</event>
<event>
 5    0  0.1418435E+000  0.1250032E+03  0.7546771E-02  0.1235064E+00
         21   -1    0    0  503  502  0.00000000000E+00  0.00000000000E+00  0.23455544224E+03  0.23455544224E+03  0.00000000000E+00 0.  1.
         21   -1    0    0  502  503 -0.00000000000E+00 -0.00000000000E+00 -0.16654691104E+02  0.16654691104E+02  0.00000000000E+00 0.  1.
         25    2    1    2    0    0  0.00000000000E+00  0.00000000000E+00  0.21790075113E+03  0.25121013334E+03  0.12500317495E+03 0.  0.
          4    1    3    3  501    0 -0.22045894454E+02 -0.33097933805E+02  0.20580018344E+03  0.20961300696E+03  0.15500000000E+01 0. -1.
         -4    1    3    3    0  501  0.22045894454E+02  0.33097933805E+02  0.12100567695E+02  0.41597126379E+02  0.15500000000E+01 0. -1.
<mgrwt>
<rscale>  2 0.12500317E+03</rscale>
<asrwt>0</asrwt>
<pdfrwt beam="1">  1       21 0.36085450E-01 0.12500317E+03</pdfrwt>
<pdfrwt beam="2">  1       21 0.25622603E-02 0.12500317E+03</pdfrwt>
<totfact> 0.59759662E+06</totfact>
</mgrwt>
</event>
<event>
 5    0  0.1371451E+000  0.1250166E+03  0.7546771E-02  0.1235043E+00
         21   -1    0    0  503  502  0.00000000000E+00  0.00000000000E+00  0.82776846055E+01  0.82776846055E+01  0.00000000000E+00 0.  1.
         21   -1    0    0  502  503 -0.00000000000E+00 -0.00000000000E+00 -0.47202698092E+03  0.47202698092E+03  0.00000000000E+00 0.  1.
         25    2    1    2    0    0  0.00000000000E+00  0.00000000000E+00 -0.46374929632E+03  0.48030466553E+03  0.12501664647E+03 0.  0.
          4    1    3    3  501    0 -0.49660317676E+02  0.31101198383E+02 -0.14845474655E+03  0.15960778792E+03  0.15500000000E+01 0. -1.
         -4    1    3    3    0  501  0.49660317676E+02 -0.31101198383E+02 -0.31529454977E+03  0.32069687760E+03  0.15500000000E+01 0. -1.
<mgrwt>
<rscale>  2 0.12501665E+03</rscale>
<asrwt>0</asrwt>
<pdfrwt beam="1">  1       21 0.12734901E-02 0.12501665E+03</pdfrwt>
<pdfrwt beam="2">  1       21 0.72619527E-01 0.12501665E+03</pdfrwt>
<totfact> 0.43114855E+06</totfact>
</mgrwt>
</event>
<event>
 5    0  0.1639354E+000  0.1249999E+03  0.7546771E-02  0.1235069E+00
         21   -1    0    0  503  502  0.00000000000E+00  0.00000000000E+00  0.61668653219E+02  0.61668653219E+02  0.00000000000E+00 0. -1.
         21   -1    0    0  502  503 -0.00000000000E+00 -0.00000000000E+00 -0.63342440918E+02  0.63342440918E+02  0.00000000000E+00 0. -1.
         25    2    1    2    0    0  0.00000000000E+00  0.00000000000E+00 -0.16737876992E+01  0.12501109414E+03  0.12499988837E+03 0.  0.
          4    1    3    3  501    0 -0.59656851003E+02 -0.17925038031E+02  0.40208724363E+01  0.62440505885E+02  0.15500000000E+01 0.  1.
         -4    1    3    3    0  501  0.59656851003E+02  0.17925038031E+02 -0.56946601355E+01  0.62570588251E+02  0.15500000000E+01 0.  1.
<mgrwt>
<rscale>  2 0.12499989E+03</rscale>
<asrwt>0</asrwt>
<pdfrwt beam="1">  1       21 0.94874852E-02 0.12499989E+03</pdfrwt>
<pdfrwt beam="2">  1       21 0.97449909E-02 0.12499989E+03</pdfrwt>
<totfact> 0.74042294E+06</totfact>
</mgrwt>
</event>
<event>
 5    0  0.1501796E+000  0.1249978E+03  0.7546771E-02  0.1235073E+00
         21   -1    0    0  503  502  0.00000000000E+00  0.00000000000E+00  0.29521485117E+03  0.29521485117E+03  0.00000000000E+00 0. -1.
         21   -1    0    0  502  503 -0.00000000000E+00 -0.00000000000E+00 -0.13231418546E+02  0.13231418546E+02  0.00000000000E+00 0. -1.
         25    2    1    2    0    0  0.00000000000E+00  0.00000000000E+00  0.28198343263E+03  0.30844626972E+03  0.12499778009E+03 0.  0.
          4    1    3    3  501    0  0.48989073387E+02  0.29975442885E+02  0.80283784811E+02  0.98723579205E+02  0.15500000000E+01 0.  1.
         -4    1    3    3    0  501 -0.48989073387E+02 -0.29975442885E+02  0.20169964781E+03  0.20972269051E+03  0.15500000000E+01 0.  1.
<mgrwt>
<rscale>  2 0.12499778E+03</rscale>
<asrwt>0</asrwt>
<pdfrwt beam="1">  1       21 0.45417665E-01 0.12499778E+03</pdfrwt>
<pdfrwt beam="2">  1       21 0.20356031E-02 0.12499778E+03</pdfrwt>
<totfact> 0.54764534E+06</totfact>
</mgrwt>
</event>
<event>
 4    0  0.1517494E+000  0.1252725E+03  0.7546771E-02  0.1234644E+00
         21   -1    0    0  503  502  0.00000000000E+00  0.00000000000E+00  0.56333136900E+02  0.56333136900E+02  0.00000000000E+00 0. -1.
         21   -1    0    0  502  503 -0.00000000000E+00 -0.00000000000E+00 -0.69644637119E+02  0.69644637119E+02  0.00000000000E+00 0. -1.
          4    1    1    2  501    0 -0.32299767983E+02 -0.49323717538E+02 -0.27864628936E+02  0.65229933077E+02  0.15500000000E+01 0.  1.
         -4    1    1    2    0  501  0.32299767983E+02  0.49323717538E+02  0.14553128717E+02  0.60747840941E+02  0.15500000000E+01 0.  1.
<mgrwt>
<rscale>  2 0.12527252E+03</rscale>
<asrwt>0</asrwt>
<pdfrwt beam="1">  1       21 0.86666364E-02 0.12527252E+03</pdfrwt>
<pdfrwt beam="2">  1       21 0.10714560E-01 0.12527252E+03</pdfrwt>
<totfact> 0.73397638E+06</totfact>
</mgrwt>
</event>
<event>
 5    0  0.1222151E+000  0.1250058E+03  0.7546771E-02  0.1235060E+00
         21   -1    0    0  503  502  0.00000000000E+00  0.00000000000E+00  0.75781044224E+03  0.75781044224E+03  0.00000000000E+00 0. -1.
         21   -1    0    0  502  503 -0.00000000000E+00 -0.00000000000E+00 -0.51551301405E+01  0.51551301405E+01  0.00000000000E+00 0. -1.
         25    2    1    2    0    0  0.00000000000E+00  0.00000000000E+00  0.75265531210E+03  0.76296557238E+03  0.12500578309E+03 0.  0.
          4    1    3    3  501    0  0.53172106265E+02  0.11276203958E+02  0.56442692127E+03  0.56704019047E+03  0.15500000000E+01 0. -1.
         -4    1    3    3    0  501 -0.53172106265E+02 -0.11276203958E+02  0.18822839083E+03  0.19592538191E+03  0.15500000000E+01 0. -1.
<mgrwt>
<rscale>  2 0.12500578E+03</rscale>
<asrwt>0</asrwt>
<pdfrwt beam="1">  1       21 0.11658613E+00 0.12500578E+03</pdfrwt>
<pdfrwt beam="2">  1       21 0.79309754E-03 0.12500578E+03</pdfrwt>
<totfact> 0.30613638E+06</totfact>
</mgrwt>
</event>
<event>
 5    0  0.1568379E+000  0.1250039E+03  0.7546771E-02  0.1235063E+00
         21   -1    0    0  503  502  0.00000000000E+00  0.00000000000E+00  0.18742533192E+03  0.18742533192E+03  0.00000000000E+00 0.  1.
         21   -1    0    0  502  503 -0.00000000000E+00 -0.00000000000E+00 -0.20842923379E+02  0.20842923379E+02  0.00000000000E+00 0.  1.
         25    2    1    2    0    0  0.00000000000E+00  0.00000000000E+00  0.16658240854E+03  0.20826825530E+03  0.12500386926E+03 0.  0.
          4    1    3    3  501    0 -0.85203462601E+01  0.55282274995E+02  0.36898232980E+02  0.67026922397E+02  0.15500000000E+01 0.  1.
         -4    1    3    3    0  501  0.85203462601E+01 -0.55282274995E+02  0.12968417556E+03  0.14124133290E+03  0.15500000000E+01 0.  1.
<mgrwt>
<rscale>  2 0.12500387E+03</rscale>
<asrwt>0</asrwt>
<pdfrwt beam="1">  1       21 0.28834665E-01 0.12500387E+03</pdfrwt>
<pdfrwt beam="2">  1       21 0.32066037E-02 0.12500387E+03</pdfrwt>
<totfact> 0.64035929E+06</totfact>
</mgrwt>
</event>
<event>
 5    0  0.1222151E+000  0.1250020E+03  0.7546771E-02  0.1235066E+00
         21   -1    0    0  503  502  0.00000000000E+00  0.00000000000E+00  0.40288472966E+01  0.40288472966E+01  0.00000000000E+00 0. -1.
         21   -1    0    0  502  503 -0.00000000000E+00 -0.00000000000E+00 -0.96960140219E+03  0.96960140219E+03  0.00000000000E+00 0. -1.
         25    2    1    2    0    0  0.00000000000E+00  0.00000000000E+00 -0.96557255489E+03  0.97363024949E+03  0.12500201579E+03 0.  0.
          4    1    3    3  501    0  0.59959782080E+02  0.15223365720E+02 -0.55115466717E+03  0.55461770255E+03  0.15500000000E+01 0.  1.
         -4    1    3    3    0  501 -0.59959782080E+02 -0.15223365720E+02 -0.41441788772E+03  0.41901254694E+03  0.15500000000E+01 0.  1.
<mgrwt>
<rscale>  2 0.12500202E+03</rscale>
<asrwt>0</asrwt>
<pdfrwt beam="1">  1       21 0.61982211E-03 0.12500202E+03</pdfrwt>
<pdfrwt beam="2">  1       21 0.14916958E+00 0.12500202E+03</pdfrwt>
<totfact> 0.24287998E+06</totfact>
</mgrwt>
</event>
<event>
 5    0  0.1298963E+000  0.1249942E+03  0.7546771E-02  0.1235078E+00
         21   -1    0    0  503  502  0.00000000000E+00  0.00000000000E+00  0.30505136384E+03  0.30505136384E+03  0.00000000000E+00 0. -1.
         21   -1    0    0  502  503 -0.00000000000E+00 -0.00000000000E+00 -0.12804040910E+02  0.12804040910E+02  0.00000000000E+00 0. -1.
         25    2    1    2    0    0  0.00000000000E+00  0.00000000000E+00  0.29224732293E+03  0.31785540475E+03  0.12499424215E+03 0.  0.
          4    1    3    3  501    0  0.56151223059E+00  0.23344489170E+02 -0.12409947099E+01  0.23435508070E+02  0.15500000000E+01 0.  1.
         -4    1    3    3    0  501 -0.56151223059E+00 -0.23344489170E+02  0.29348831764E+03  0.29441989668E+03  0.15500000000E+01 0.  1.
<mgrwt>
<rscale>  2 0.12499424E+03</rscale>
<asrwt>0</asrwt>
<pdfrwt beam="1">  1       21 0.46930973E-01 0.12499424E+03</pdfrwt>
<pdfrwt beam="2">  1       21 0.19698527E-02 0.12499424E+03</pdfrwt>
<totfact> 0.54011535E+06</totfact>
</mgrwt>
</event>
<event>
 5    0  0.1489756E+000  0.1250082E+03  0.7546771E-02  0.1235056E+00
         21   -1    0    0  503  502  0.00000000000E+00  0.00000000000E+00  0.22278572629E+03  0.22278572629E+03  0.00000000000E+00 0.  1.
         21   -1    0    0  502  503 -0.00000000000E+00 -0.00000000000E+00 -0.17535966028E+02  0.17535966028E+02  0.00000000000E+00 0.  1.
         25    2    1    2    0    0  0.00000000000E+00  0.00000000000E+00  0.20524976026E+03  0.24032169232E+03  0.12500820657E+03 0.  0.
          4    1    3    3  501    0  0.48779923427E+02  0.35928349979E+02  0.13203475338E+03  0.14527871786E+03  0.15500000000E+01 0.  1.
         -4    1    3    3    0  501 -0.48779923427E+02 -0.35928349979E+02  0.73215006880E+02  0.95042974460E+02  0.15500000000E+01 0.  1.
<mgrwt>
<rscale>  2 0.12500821E+03</rscale>
<asrwt>0</asrwt>
<pdfrwt beam="1">  1       21 0.34274725E-01 0.12500821E+03</pdfrwt>
<pdfrwt beam="2">  1       21 0.26978411E-02 0.12500821E+03</pdfrwt>
<totfact> 0.60788963E+06</totfact>
</mgrwt>
</event>
<event>
 5    0  0.1485603E+000  0.1250277E+03  0.7546771E-02  0.1235026E+00
         21   -1    0    0  503  502  0.00000000000E+00  0.00000000000E+00  0.21535266179E+02  0.21535266179E+02  0.00000000000E+00 0. -1.
         21   -1    0    0  502  503 -0.00000000000E+00 -0.00000000000E+00 -0.18146889212E+03  0.18146889212E+03  0.00000000000E+00 0. -1.
         25    2    1    2    0    0  0.00000000000E+00  0.00000000000E+00 -0.15993362595E+03  0.20300415830E+03  0.12502769126E+03 0.  0.
          4    1    3    3  501    0 -0.45299355505E+02  0.35867507827E+02 -0.11863168246E+03  0.13196358706E+03  0.15500000000E+01 0. -1.
         -4    1    3    3    0  501  0.45299355505E+02 -0.35867507827E+02 -0.41301943485E+02  0.71040571243E+02  0.15500000000E+01 0. -1.
<mgrwt>
<rscale>  2 0.12502769E+03</rscale>
<asrwt>0</asrwt>
<pdfrwt beam="1">  1       21 0.33131179E-02 0.12502769E+03</pdfrwt>
<pdfrwt beam="2">  1       21 0.27918291E-01 0.12502769E+03</pdfrwt>
<totfact> 0.64557921E+06</totfact>
</mgrwt>
</event>
<event>
 5    0  0.1360133E+000  0.1249989E+03  0.7546771E-02  0.1235071E+00
         21   -1    0    0  503  502  0.00000000000E+00  0.00000000000E+00  0.31509119086E+03  0.31509119086E+03  0.00000000000E+00 0.  1.
         21   -1    0    0  502  503 -0.00000000000E+00 -0.00000000000E+00 -0.12396995130E+02  0.12396995130E+02  0.00000000000E+00 0.  1.
         25    2    1    2    0    0  0.00000000000E+00  0.00000000000E+00  0.30269419573E+03  0.32748818599E+03  0.12499894333E+03 0.  0.
          4    1    3    3  501    0  0.25639849557E+02 -0.18860812947E+02  0.29220687571E+03  0.29393943740E+03  0.15500000000E+01 0. -1.
         -4    1    3    3    0  501 -0.25639849557E+02  0.18860812947E+02  0.10487320019E+02  0.33548748583E+02  0.15500000000E+01 0. -1.
<mgrwt>
<rscale>  2 0.12499894E+03</rscale>
<asrwt>0</asrwt>
<pdfrwt beam="1">  1       21 0.48475562E-01 0.12499894E+03</pdfrwt>
<pdfrwt beam="2">  1       21 0.19072303E-02 0.12499894E+03</pdfrwt>
<totfact> 0.53246640E+06</totfact>
</mgrwt>
</event>
<event>
 5    0  0.1464597E+000  0.1249907E+03  0.7546771E-02  0.1235084E+00
         21   -1    0    0  503  502  0.00000000000E+00  0.00000000000E+00  0.42071283120E+02  0.42071283120E+02  0.00000000000E+00 0.  1.
         21   -1    0    0  502  503 -0.00000000000E+00 -0.00000000000E+00 -0.92834487694E+02  0.92834487694E+02  0.00000000000E+00 0.  1.
         25    2    1    2    0    0  0.00000000000E+00  0.00000000000E+00 -0.50763204573E+02  0.13490577081E+03  0.12499065589E+03 0.  0.
          4    1    3    3  501    0  0.20609262148E+02  0.27714401189E+02  0.30810125054E+02  0.46308703560E+02  0.15500000000E+01 0. -1.
         -4    1    3    3    0  501 -0.20609262148E+02 -0.27714401189E+02 -0.81573329628E+02  0.88597067254E+02  0.15500000000E+01 0. -1.
<mgrwt>
<rscale>  2 0.12499066E+03</rscale>
<asrwt>0</asrwt>
<pdfrwt beam="1">  1       21 0.64725051E-02 0.12499066E+03</pdfrwt>
<pdfrwt beam="2">  1       21 0.14282229E-01 0.12499066E+03</pdfrwt>
<totfact> 0.72726282E+06</totfact>
</mgrwt>
</event>
<event>
 5    0  0.1479811E+000  0.1250092E+03  0.7546771E-02  0.1235055E+00
         21   -1    0    0  503  502  0.00000000000E+00  0.00000000000E+00  0.10779934236E+03  0.10779934236E+03  0.00000000000E+00 0.  1.
         21   -1    0    0  502  503 -0.00000000000E+00 -0.00000000000E+00 -0.36241667016E+02  0.36241667016E+02  0.00000000000E+00 0.  1.
         25    2    1    2    0    0  0.00000000000E+00  0.00000000000E+00  0.71557675349E+02  0.14404100938E+03  0.12500924559E+03 0.  0.
          4    1    3    3  501    0  0.38116335916E+02 -0.36096112563E+02  0.74830198480E+02  0.91420706136E+02  0.15500000000E+01 0.  1.
         -4    1    3    3    0  501 -0.38116335916E+02  0.36096112563E+02 -0.32725231314E+01  0.52620303244E+02  0.15500000000E+01 0.  1.
<mgrwt>
<rscale>  2 0.12500925E+03</rscale>
<asrwt>0</asrwt>
<pdfrwt beam="1">  1       21 0.16584514E-01 0.12500925E+03</pdfrwt>
<pdfrwt beam="2">  1       21 0.55756411E-02 0.12500925E+03</pdfrwt>
<totfact> 0.71499215E+06</totfact>
</mgrwt>
</event>
<event>
 5    0  0.1481336E+000  0.1250036E+03  0.7546771E-02  0.1235064E+00
         21   -1    0    0  503  502  0.00000000000E+00  0.00000000000E+00  0.27331709037E+02  0.27331709037E+02  0.00000000000E+00 0. -1.
         21   -1    0    0  502  503 -0.00000000000E+00 -0.00000000000E+00 -0.14292830471E+03  0.14292830471E+03  0.00000000000E+00 0. -1.
         25    2    1    2    0    0  0.00000000000E+00  0.00000000000E+00 -0.11559659567E+03  0.17026001375E+03  0.12500359735E+03 0.  0.
          4    1    3    3  501    0 -0.31683814557E+02 -0.53775821693E+02 -0.53857964102E+02  0.82454750626E+02  0.15500000000E+01 0. -1.
         -4    1    3    3    0  501  0.31683814557E+02  0.53775821693E+02 -0.61738631570E+02  0.87805263121E+02  0.15500000000E+01 0. -1.
<mgrwt>
<rscale>  2 0.12500360E+03</rscale>
<asrwt>0</asrwt>
<pdfrwt beam="1">  1       21 0.42048783E-02 0.12500360E+03</pdfrwt>
<pdfrwt beam="2">  1       21 0.21988970E-01 0.12500360E+03</pdfrwt>
<totfact> 0.68280590E+06</totfact>
</mgrwt>
</event>
<event>
 5    0  0.1561883E+000  0.1249796E+03  0.7546771E-02  0.1235101E+00
         21   -1    0    0  503  502  0.00000000000E+00  0.00000000000E+00  0.51469787904E+02  0.51469787904E+02  0.00000000000E+00 0. -1.
         21   -1    0    0  502  503 -0.00000000000E+00 -0.00000000000E+00 -0.75869271071E+02  0.75869271071E+02  0.00000000000E+00 0. -1.
         25    2    1    2    0    0  0.00000000000E+00  0.00000000000E+00 -0.24399483167E+02  0.12733905898E+03  0.12497960298E+03 0.  0.
          4    1    3    3  501    0  0.31940714346E+02 -0.46818180132E+02  0.14572187745E+02  0.58539750422E+02  0.15500000000E+01 0.  1.
         -4    1    3    3    0  501 -0.31940714346E+02  0.46818180132E+02 -0.38971670912E+02  0.68799308553E+02  0.15500000000E+01 0.  1.
<mgrwt>
<rscale>  2 0.12497960E+03</rscale>
<asrwt>0</asrwt>
<pdfrwt beam="1">  1       21 0.79184289E-02 0.12497960E+03</pdfrwt>
<pdfrwt beam="2">  1       21 0.11672196E-01 0.12497960E+03</pdfrwt>
<totfact> 0.73761449E+06</totfact>
</mgrwt>
</event>
<event>
 5    0  0.1222151E+000  0.1249962E+03  0.7546771E-02  0.1235075E+00
         21   -1    0    0  503  502  0.00000000000E+00  0.00000000000E+00  0.19699957883E+02  0.19699957883E+02  0.00000000000E+00 0. -1.
         21   -1    0    0  502  503 -0.00000000000E+00 -0.00000000000E+00 -0.19827505542E+03  0.19827505542E+03  0.00000000000E+00 0. -1.
         25    2    1    2    0    0  0.00000000000E+00  0.00000000000E+00 -0.17857509754E+03  0.21797501331E+03  0.12499616380E+03 0.  0.
          4    1    3    3  501    0  0.63887727365E+01 -0.22015830654E+02  0.12067626084E+02  0.25952713071E+02  0.15500000000E+01 0. -1.
         -4    1    3    3    0  501 -0.63887727365E+01  0.22015830654E+02 -0.19064272362E+03  0.19202230023E+03  0.15500000000E+01 0. -1.
<mgrwt>
<rscale>  2 0.12499616E+03</rscale>
<asrwt>0</asrwt>
<pdfrwt beam="1">  1       21 0.30307627E-02 0.12499616E+03</pdfrwt>
<pdfrwt beam="2">  1       21 0.30503855E-01 0.12499616E+03</pdfrwt>
<totfact> 0.63036230E+06</totfact>
</mgrwt>
</event>
<event>
 5    0  0.1529169E+000  0.1250021E+03  0.7546771E-02  0.1235066E+00
         21   -1    0    0  503  502  0.00000000000E+00  0.00000000000E+00  0.52104867588E+02  0.52104867588E+02  0.00000000000E+00 0.  1.
         21   -1    0    0  502  503 -0.00000000000E+00 -0.00000000000E+00 -0.74971581465E+02  0.74971581465E+02  0.00000000000E+00 0.  1.
         25    2    1    2    0    0  0.00000000000E+00  0.00000000000E+00 -0.22866713877E+02  0.12707644905E+03  0.12500214918E+03 0.  0.
          4    1    3    3  501    0 -0.26779841904E+02 -0.44313772438E+02 -0.46986713572E+02  0.69935857130E+02  0.15500000000E+01 0. -1.
         -4    1    3    3    0  501  0.26779841904E+02  0.44313772438E+02  0.24119999695E+02  0.57140591924E+02  0.15500000000E+01 0. -1.
<mgrwt>
<rscale>  2 0.12500215E+03</rscale>
<asrwt>0</asrwt>
<pdfrwt beam="1">  1       21 0.80161334E-02 0.12500215E+03</pdfrwt>
<pdfrwt beam="2">  1       21 0.11534090E-01 0.12500215E+03</pdfrwt>
<totfact> 0.73754686E+06</totfact>
</mgrwt>
</event>
<event>
 5    0  0.1351491E+000  0.1249992E+03  0.7546771E-02  0.1235070E+00
         21   -1    0    0  503  502  0.00000000000E+00  0.00000000000E+00  0.69273301552E+03  0.69273301552E+03  0.00000000000E+00 0. -1.
         21   -1    0    0  502  503 -0.00000000000E+00 -0.00000000000E+00 -0.56388289789E+01  0.56388289789E+01  0.00000000000E+00 0. -1.
         25    2    1    2    0    0  0.00000000000E+00  0.00000000000E+00  0.68709418654E+03  0.69837184450E+03  0.12499924804E+03 0.  0.
          4    1    3    3  501    0  0.41291809421E+02  0.46295429631E+02  0.38517693171E+03  0.39014350123E+03  0.15500000000E+01 0.  1.
         -4    1    3    3    0  501 -0.41291809421E+02 -0.46295429631E+02  0.30191725483E+03  0.30822834327E+03  0.15500000000E+01 0.  1.
<mgrwt>
<rscale>  2 0.12499925E+03</rscale>
<asrwt>0</asrwt>
<pdfrwt beam="1">  1       21 0.10657424E+00 0.12499925E+03</pdfrwt>
<pdfrwt beam="2">  1       21 0.86751270E-03 0.12499925E+03</pdfrwt>
<totfact> 0.32973636E+06</totfact>
</mgrwt>
</event>
<event>
 5    0  0.1262593E+000  0.1250044E+03  0.7546771E-02  0.1235062E+00
         21   -1    0    0  503  502  0.00000000000E+00  0.00000000000E+00  0.64562081254E+03  0.64562081254E+03  0.00000000000E+00 0.  1.
         21   -1    0    0  502  503 -0.00000000000E+00 -0.00000000000E+00 -0.60508065078E+01  0.60508065078E+01  0.00000000000E+00 0.  1.
         25    2    1    2    0    0  0.00000000000E+00  0.00000000000E+00  0.63957000603E+03  0.65167161905E+03  0.12500442575E+03 0.  0.
          4    1    3    3  501    0  0.80759019179E+01  0.59411021773E+02  0.22811076095E+03  0.23586396813E+03  0.15500000000E+01 0.  1.
         -4    1    3    3    0  501 -0.80759019179E+01 -0.59411021773E+02  0.41145924508E+03  0.41580765092E+03  0.15500000000E+01 0.  1.
<mgrwt>
<rscale>  2 0.12500443E+03</rscale>
<asrwt>0</asrwt>
<pdfrwt beam="1">  1       21 0.99326224E-01 0.12500443E+03</pdfrwt>
<pdfrwt beam="2">  1       21 0.93089382E-03 0.12500443E+03</pdfrwt>
<totfact> 0.34851294E+06</totfact>
</mgrwt>
</event>
<event>
 5    0  0.1514881E+000  0.1250486E+03  0.7546771E-02  0.1234993E+00
         21   -1    0    0  503  502  0.00000000000E+00  0.00000000000E+00  0.32906490389E+02  0.32906490389E+02  0.00000000000E+00 0.  1.
         21   -1    0    0  502  503 -0.00000000000E+00 -0.00000000000E+00 -0.11879986394E+03  0.11879986394E+03  0.00000000000E+00 0.  1.
         25    2    1    2    0    0  0.00000000000E+00  0.00000000000E+00 -0.85893373556E+02  0.15170635433E+03  0.12504857586E+03 0.  0.
          4    1    3    3  501    0  0.22857569672E+02  0.42453608848E+02 -0.91201751755E+02  0.10317431569E+03  0.15500000000E+01 0. -1.
         -4    1    3    3    0  501 -0.22857569672E+02 -0.42453608848E+02  0.53083781990E+01  0.48532038641E+02  0.15500000000E+01 0. -1.
<mgrwt>
<rscale>  2 0.12504858E+03</rscale>
<asrwt>0</asrwt>
<pdfrwt beam="1">  1       21 0.50625370E-02 0.12504858E+03</pdfrwt>
<pdfrwt beam="2">  1       21 0.18276902E-01 0.12504858E+03</pdfrwt>
<totfact> 0.70458357E+06</totfact>
</mgrwt>
</event>
<event>
 5    0  0.1533531E+000  0.1250045E+03  0.7546771E-02  0.1235062E+00
         21   -1    0    0  503  502  0.00000000000E+00  0.00000000000E+00  0.52407415170E+02  0.52407415170E+02  0.00000000000E+00 0. -1.
         21   -1    0    0  502  503 -0.00000000000E+00 -0.00000000000E+00 -0.74541520438E+02  0.74541520438E+02  0.00000000000E+00 0. -1.
         25    2    1    2    0    0  0.00000000000E+00  0.00000000000E+00 -0.22134105267E+02  0.12694893561E+03  0.12500445446E+03 0.  0.
          4    1    3    3  501    0 -0.43538697193E+00  0.41630609830E+02  0.36249854510E+02  0.55224556935E+02  0.15500000000E+01 0.  1.
         -4    1    3    3    0  501  0.43538697193E+00 -0.41630609830E+02 -0.58383959778E+02  0.71724378673E+02  0.15500000000E+01 0.  1.
<mgrwt>
<rscale>  2 0.12500445E+03</rscale>
<asrwt>0</asrwt>
<pdfrwt beam="1">  1       21 0.80626793E-02 0.12500445E+03</pdfrwt>
<pdfrwt beam="2">  1       21 0.11467926E-01 0.12500445E+03</pdfrwt>
<totfact> 0.73767701E+06</totfact>
</mgrwt>
</event>
<event>
 5    0  0.1401575E+000  0.1250225E+03  0.7546771E-02  0.1235034E+00
         21   -1    0    0  503  502  0.00000000000E+00  0.00000000000E+00  0.11583771966E+02  0.11583771966E+02  0.00000000000E+00 0. -1.
         21   -1    0    0  502  503 -0.00000000000E+00 -0.00000000000E+00 -0.33733893515E+03  0.33733893515E+03  0.00000000000E+00 0. -1.
         25    2    1    2    0    0  0.00000000000E+00  0.00000000000E+00 -0.32575516318E+03  0.34892270711E+03  0.12502251478E+03 0.  0.
          4    1    3    3  501    0 -0.15872591640E+02 -0.33990042817E+02 -0.23389667832E+02  0.44235067959E+02  0.15500000000E+01 0. -1.
         -4    1    3    3    0  501  0.15872591640E+02  0.33990042817E+02 -0.30236549535E+03  0.30468763916E+03  0.15500000000E+01 0. -1.
<mgrwt>
<rscale>  2 0.12502251E+03</rscale>
<asrwt>0</asrwt>
<pdfrwt beam="1">  1       21 0.17821187E-02 0.12502251E+03</pdfrwt>
<pdfrwt beam="2">  1       21 0.51898298E-01 0.12502251E+03</pdfrwt>
<totfact> 0.51588987E+06</totfact>
</mgrwt>
</event>
<event>
 5    0  0.1506142E+000  0.1249994E+03  0.7546771E-02  0.1235070E+00
         21   -1    0    0  503  502  0.00000000000E+00  0.00000000000E+00  0.24337179183E+02  0.24337179183E+02  0.00000000000E+00 0.  1.
         21   -1    0    0  502  503 -0.00000000000E+00 -0.00000000000E+00 -0.16050393583E+03  0.16050393583E+03  0.00000000000E+00 0.  1.
         25    2    1    2    0    0  0.00000000000E+00  0.00000000000E+00 -0.13616675664E+03  0.18484111501E+03  0.12499940873E+03 0.  0.
          4    1    3    3  501    0  0.41024989314E+02 -0.42466497413E+02 -0.37873799010E+02  0.70166090829E+02  0.15500000000E+01 0.  1.
         -4    1    3    3    0  501 -0.41024989314E+02  0.42466497413E+02 -0.98292957632E+02  0.11467502418E+03  0.15500000000E+01 0.  1.
<mgrwt>
<rscale>  2 0.12499941E+03</rscale>
<asrwt>0</asrwt>
<pdfrwt beam="1">  1       21 0.37441812E-02 0.12499941E+03</pdfrwt>
<pdfrwt beam="2">  1       21 0.24692914E-01 0.12499941E+03</pdfrwt>
<totfact> 0.66601469E+06</totfact>
</mgrwt>
</event>
<event>
 4    0  0.1432496E+000  0.1251336E+03  0.7546771E-02  0.1234861E+00
         21   -1    0    0  503  502  0.00000000000E+00  0.00000000000E+00  0.21734852695E+03  0.21734852695E+03  0.00000000000E+00 0.  1.
         21   -1    0    0  502  503 -0.00000000000E+00 -0.00000000000E+00 -0.18010737383E+02  0.18010737383E+02  0.00000000000E+00 0.  1.
          4    1    1    2  501    0 -0.31063404738E+02 -0.35626700382E+02  0.17671562249E+03  0.18293444352E+03  0.15500000000E+01 0.  1.
         -4    1    1    2    0  501  0.31063404738E+02  0.35626700382E+02  0.22622167077E+02  0.52424820813E+02  0.15500000000E+01 0.  1.
<mgrwt>
<rscale>  2 0.12513364E+03</rscale>
<asrwt>0</asrwt>
<pdfrwt beam="1">  1       21 0.33438233E-01 0.12513364E+03</pdfrwt>
<pdfrwt beam="2">  1       21 0.27708828E-02 0.12513364E+03</pdfrwt>
<totfact> 0.61078419E+06</totfact>
</mgrwt>
</event>
<event>
 5    0  0.1510485E+000  0.1250000E+03  0.7546771E-02  0.1235069E+00
         21   -1    0    0  503  502  0.00000000000E+00  0.00000000000E+00  0.29383114457E+02  0.29383114457E+02  0.00000000000E+00 0.  1.
         21   -1    0    0  502  503 -0.00000000000E+00 -0.00000000000E+00 -0.13294209812E+03  0.13294209812E+03  0.00000000000E+00 0.  1.
         25    2    1    2    0    0  0.00000000000E+00  0.00000000000E+00 -0.10355898366E+03  0.16232521257E+03  0.12500004616E+03 0.  0.
          4    1    3    3  501    0  0.41391337498E+02 -0.34216910587E+02 -0.10309345604E+02  0.54705803136E+02  0.15500000000E+01 0.  1.
         -4    1    3    3    0  501 -0.41391337498E+02  0.34216910587E+02 -0.93249638056E+02  0.10761940944E+03  0.15500000000E+01 0.  1.
<mgrwt>
<rscale>  2 0.12500005E+03</rscale>
<asrwt>0</asrwt>
<pdfrwt beam="1">  1       21 0.45204791E-02 0.12500005E+03</pdfrwt>
<pdfrwt beam="2">  1       21 0.20452631E-01 0.12500005E+03</pdfrwt>
<totfact> 0.69236409E+06</totfact>
</mgrwt>
</event>
<event>
 5    0  0.1511114E+000  0.1249993E+03  0.7546771E-02  0.1235070E+00
         21   -1    0    0  503  502  0.00000000000E+00  0.00000000000E+00  0.37262414828E+02  0.37262414828E+02  0.00000000000E+00 0. -1.
         21   -1    0    0  502  503 -0.00000000000E+00 -0.00000000000E+00 -0.10482963438E+03  0.10482963438E+03  0.00000000000E+00 0. -1.
         25    2    1    2    0    0  0.00000000000E+00  0.00000000000E+00 -0.67567219556E+02  0.14209204921E+03  0.12499928516E+03 0.  0.
          4    1    3    3  501    0  0.26269630206E+02 -0.43659823563E+02  0.73207548420E+01  0.51500190448E+02  0.15500000000E+01 0.  1.
         -4    1    3    3    0  501 -0.26269630206E+02  0.43659823563E+02 -0.74887974398E+02  0.90591858763E+02  0.15500000000E+01 0.  1.
<mgrwt>
<rscale>  2 0.12499929E+03</rscale>
<asrwt>0</asrwt>
<pdfrwt beam="1">  1       21 0.57326792E-02 0.12499929E+03</pdfrwt>
<pdfrwt beam="2">  1       21 0.16127636E-01 0.12499929E+03</pdfrwt>
<totfact> 0.71768666E+06</totfact>
</mgrwt>
</event>
<event>
 5    0  0.1462257E+000  0.1249915E+03  0.7546771E-02  0.1235083E+00
         21   -1    0    0  503  502  0.00000000000E+00  0.00000000000E+00  0.13523411244E+03  0.13523411244E+03  0.00000000000E+00 0. -1.
         21   -1    0    0  502  503 -0.00000000000E+00 -0.00000000000E+00 -0.28881163083E+02  0.28881163083E+02  0.00000000000E+00 0. -1.
         25    2    1    2    0    0  0.00000000000E+00  0.00000000000E+00  0.10635294936E+03  0.16411527552E+03  0.12499149500E+03 0.  0.
          4    1    3    3  501    0  0.61154480009E+02 -0.26164986754E+00  0.69959262160E+02  0.92933523272E+02  0.15500000000E+01 0. -1.
         -4    1    3    3    0  501 -0.61154480009E+02  0.26164986754E+00  0.36393687198E+02  0.71181752252E+02  0.15500000000E+01 0. -1.
<mgrwt>
<rscale>  2 0.12499150E+03</rscale>
<asrwt>0</asrwt>
<pdfrwt beam="1">  1       21 0.20805248E-01 0.12499150E+03</pdfrwt>
<pdfrwt beam="2">  1       21 0.44432559E-02 0.12499150E+03</pdfrwt>
<totfact> 0.69035038E+06</totfact>
</mgrwt>
</event>
<event>
 5    0  0.1268581E+000  0.1250010E+03  0.7546771E-02  0.1235068E+00
         21   -1    0    0  503  502  0.00000000000E+00  0.00000000000E+00  0.66450020963E+03  0.66450020963E+03  0.00000000000E+00 0. -1.
         21   -1    0    0  502  503 -0.00000000000E+00 -0.00000000000E+00 -0.58785740404E+01  0.58785740404E+01  0.00000000000E+00 0. -1.
         25    2    1    2    0    0  0.00000000000E+00  0.00000000000E+00  0.65862163559E+03  0.67037878367E+03  0.12500101891E+03 0.  0.
          4    1    3    3  501    0 -0.49308922769E+01  0.61062577155E+02  0.26341824942E+03  0.27045245175E+03  0.15500000000E+01 0. -1.
         -4    1    3    3    0  501  0.49308922769E+01 -0.61062577155E+02  0.39520338616E+03  0.39992633192E+03  0.15500000000E+01 0. -1.
<mgrwt>
<rscale>  2 0.12500102E+03</rscale>
<asrwt>0</asrwt>
<pdfrwt beam="1">  1       21 0.10223074E+00 0.12500102E+03</pdfrwt>
<pdfrwt beam="2">  1       21 0.90439653E-03 0.12500102E+03</pdfrwt>
<totfact> 0.34082854E+06</totfact>
</mgrwt>
</event>
<event>
 5    0  0.1546851E+000  0.1250004E+03  0.7546771E-02  0.1235069E+00
         21   -1    0    0  503  502  0.00000000000E+00  0.00000000000E+00  0.86807954878E+02  0.86807954878E+02  0.00000000000E+00 0. -1.
         21   -1    0    0  502  503 -0.00000000000E+00 -0.00000000000E+00 -0.44999035062E+02  0.44999035062E+02  0.00000000000E+00 0. -1.
         25    2    1    2    0    0  0.00000000000E+00  0.00000000000E+00  0.41808919816E+02  0.13180698994E+03  0.12500038728E+03 0.  0.
          4    1    3    3  501    0  0.45270638182E+02 -0.28157362187E+02 -0.13451995620E+02  0.55005694368E+02  0.15500000000E+01 0. -1.
         -4    1    3    3    0  501 -0.45270638182E+02  0.28157362187E+02  0.55260915436E+02  0.76801295572E+02  0.15500000000E+01 0. -1.
<mgrwt>
<rscale>  2 0.12500039E+03</rscale>
<asrwt>0</asrwt>
<pdfrwt beam="1">  1       21 0.13355070E-01 0.12500039E+03</pdfrwt>
<pdfrwt beam="2">  1       21 0.69229285E-02 0.12500039E+03</pdfrwt>
<totfact> 0.73121406E+06</totfact>
</mgrwt>
</event>
<event>
 5    0  0.1588653E+000  0.1249947E+03  0.7546771E-02  0.1235078E+00
         21   -1    0    0  503  502  0.00000000000E+00  0.00000000000E+00  0.40493536258E+02  0.40493536258E+02  0.00000000000E+00 0.  1.
         21   -1    0    0  502  503 -0.00000000000E+00 -0.00000000000E+00 -0.96457767981E+02  0.96457767981E+02  0.00000000000E+00 0.  1.
         25    2    1    2    0    0  0.00000000000E+00  0.00000000000E+00 -0.55964231723E+02  0.13695130424E+03  0.12499465789E+03 0.  0.
          4    1    3    3  501    0  0.11131646896E+02 -0.51511655124E+02 -0.64750346789E+02  0.83500743024E+02  0.15500000000E+01 0.  1.
         -4    1    3    3    0  501 -0.11131646896E+02  0.51511655124E+02  0.87861150660E+01  0.53450561215E+02  0.15500000000E+01 0.  1.
<mgrwt>
<rscale>  2 0.12499466E+03</rscale>
<asrwt>0</asrwt>
<pdfrwt beam="1">  1       21 0.62297749E-02 0.12499466E+03</pdfrwt>
<pdfrwt beam="2">  1       21 0.14839656E-01 0.12499466E+03</pdfrwt>
<totfact> 0.72448993E+06</totfact>
</mgrwt>
</event>
<event>
 5    0  0.1497251E+000  0.1250008E+03  0.7546771E-02  0.1235068E+00
         21   -1    0    0  503  502  0.00000000000E+00  0.00000000000E+00  0.42376595980E+02  0.42376595980E+02  0.00000000000E+00 0.  1.
         21   -1    0    0  502  503 -0.00000000000E+00 -0.00000000000E+00 -0.92180565323E+02  0.92180565323E+02  0.00000000000E+00 0.  1.
         25    2    1    2    0    0  0.00000000000E+00  0.00000000000E+00 -0.49803969343E+02  0.13455716130E+03  0.12500077718E+03 0.  0.
          4    1    3    3  501    0 -0.28478118122E+02  0.29693050722E+02  0.25716559240E+02  0.48543015894E+02  0.15500000000E+01 0. -1.
         -4    1    3    3    0  501  0.28478118122E+02 -0.29693050722E+02 -0.75520528583E+02  0.86014145408E+02  0.15500000000E+01 0. -1.
<mgrwt>
<rscale>  2 0.12500078E+03</rscale>
<asrwt>0</asrwt>
<pdfrwt beam="1">  1       21 0.65194763E-02 0.12500078E+03</pdfrwt>
<pdfrwt beam="2">  1       21 0.14181625E-01 0.12500078E+03</pdfrwt>
<totfact> 0.72753718E+06</totfact>
</mgrwt>
</event>
<event>
 5    0  0.1585935E+000  0.1250007E+03  0.7546771E-02  0.1235068E+00
         21   -1    0    0  503  502  0.00000000000E+00  0.00000000000E+00  0.13949546927E+03  0.13949546927E+03  0.00000000000E+00 0. -1.
         21   -1    0    0  502  503 -0.00000000000E+00 -0.00000000000E+00 -0.28003034103E+02  0.28003034103E+02  0.00000000000E+00 0. -1.
         25    2    1    2    0    0  0.00000000000E+00  0.00000000000E+00  0.11149243517E+03  0.16749850337E+03  0.12500074213E+03 0.  0.
          4    1    3    3  501    0  0.81298374587E+00 -0.62452661669E+02  0.53465104289E+02  0.82230868710E+02  0.15500000000E+01 0.  1.
         -4    1    3    3    0  501 -0.81298374587E+00  0.62452661669E+02  0.58027330878E+02  0.85267634663E+02  0.15500000000E+01 0.  1.
<mgrwt>
<rscale>  2 0.12500074E+03</rscale>
<asrwt>0</asrwt>
<pdfrwt beam="1">  1       21 0.21460841E-01 0.12500074E+03</pdfrwt>
<pdfrwt beam="2">  1       21 0.43081592E-02 0.12500074E+03</pdfrwt>
<totfact> 0.68613376E+06</totfact>
</mgrwt>
</event>
<event>
 5    0  0.1441350E+000  0.1249797E+03  0.7546771E-02  0.1235101E+00
         21   -1    0    0  503  502  0.00000000000E+00  0.00000000000E+00  0.26416611993E+03  0.26416611993E+03  0.00000000000E+00 0. -1.
         21   -1    0    0  502  503 -0.00000000000E+00 -0.00000000000E+00 -0.14782285626E+02  0.14782285626E+02  0.00000000000E+00 0. -1.
         25    2    1    2    0    0  0.00000000000E+00  0.00000000000E+00  0.24938383431E+03  0.27894840556E+03  0.12497966294E+03 0.  0.
          4    1    3    3  501    0 -0.29904028268E+02 -0.37407429503E+02  0.35162885849E+02  0.59433977907E+02  0.15500000000E+01 0.  1.
         -4    1    3    3    0  501  0.29904028268E+02  0.37407429503E+02  0.21422094846E+03  0.21951442765E+03  0.15500000000E+01 0.  1.
<mgrwt>
<rscale>  2 0.12497966E+03</rscale>
<asrwt>0</asrwt>
<pdfrwt beam="1">  1       21 0.40640938E-01 0.12497966E+03</pdfrwt>
<pdfrwt beam="2">  1       21 0.22741980E-02 0.12497966E+03</pdfrwt>
<totfact> 0.57281616E+06</totfact>
</mgrwt>
</event>
<event>
 5    0  0.1520085E+000  0.1249945E+03  0.7546771E-02  0.1235078E+00
         21   -1    0    0  503  502  0.00000000000E+00  0.00000000000E+00  0.11075562090E+03  0.11075562090E+03  0.00000000000E+00 0. -1.
         21   -1    0    0  502  503 -0.00000000000E+00 -0.00000000000E+00 -0.35265983494E+02  0.35265983494E+02  0.00000000000E+00 0. -1.
         25    2    1    2    0    0  0.00000000000E+00  0.00000000000E+00  0.75489637410E+02  0.14602160440E+03  0.12499449426E+03 0.  0.
          4    1    3    3  501    0 -0.27184753435E+02  0.27156789199E+01 -0.27895641390E+02  0.39076272083E+02  0.15500000000E+01 0. -1.
         -4    1    3    3    0  501  0.27184753435E+02 -0.27156789199E+01  0.10338527880E+03  0.10694533231E+03  0.15500000000E+01 0. -1.
<mgrwt>
<rscale>  2 0.12499449E+03</rscale>
<asrwt>0</asrwt>
<pdfrwt beam="1">  1       21 0.17039326E-01 0.12499449E+03</pdfrwt>
<pdfrwt beam="2">  1       21 0.54255360E-02 0.12499449E+03</pdfrwt>
<totfact> 0.71272606E+06</totfact>
</mgrwt>
</event>
<event>
 5    0  0.1222151E+000  0.1249883E+03  0.7546771E-02  0.1235088E+00
         21   -1    0    0  503  502  0.00000000000E+00  0.00000000000E+00  0.73743217528E+03  0.73743217528E+03  0.00000000000E+00 0.  1.
         21   -1    0    0  502  503 -0.00000000000E+00 -0.00000000000E+00 -0.52961033675E+01  0.52961033675E+01  0.00000000000E+00 0.  1.
         25    2    1    2    0    0  0.00000000000E+00  0.00000000000E+00  0.73213607191E+03  0.74272827864E+03  0.12498827188E+03 0.  0.
          4    1    3    3  501    0  0.30887457430E+02 -0.27358235005E+02  0.87307115647E+02  0.96578688082E+02  0.15500000000E+01 0.  1.
         -4    1    3    3    0  501 -0.30887457430E+02  0.27358235005E+02  0.64482895626E+03  0.64614959056E+03  0.15500000000E+01 0.  1.
<mgrwt>
<rscale>  2 0.12498827E+03</rscale>
<asrwt>0</asrwt>
<pdfrwt beam="1">  1       21 0.11345102E+00 0.12498827E+03</pdfrwt>
<pdfrwt beam="2">  1       21 0.81478572E-03 0.12498827E+03</pdfrwt>
<totfact> 0.31335408E+06</totfact>
</mgrwt>
</event>
<event>
 5    0  0.1545324E+000  0.1249816E+03  0.7546771E-02  0.1235098E+00
         21   -1    0    0  503  502  0.00000000000E+00  0.00000000000E+00  0.24423777149E+03  0.24423777149E+03  0.00000000000E+00 0. -1.
         21   -1    0    0  502  503 -0.00000000000E+00 -0.00000000000E+00 -0.15988917297E+02  0.15988917297E+02  0.00000000000E+00 0. -1.
         25    2    1    2    0    0  0.00000000000E+00  0.00000000000E+00  0.22824885419E+03  0.26022668879E+03  0.12498155911E+03 0.  0.
          4    1    3    3  501    0  0.57237212976E+02  0.22389892272E+02  0.13743015772E+03  0.15055516124E+03  0.15500000000E+01 0. -1.
         -4    1    3    3    0  501 -0.57237212976E+02 -0.22389892272E+02  0.90818696470E+02  0.10967152754E+03  0.15500000000E+01 0. -1.
<mgrwt>
<rscale>  2 0.12498156E+03</rscale>
<asrwt>0</asrwt>
<pdfrwt beam="1">  1       21 0.37575039E-01 0.12498156E+03</pdfrwt>
<pdfrwt beam="2">  1       21 0.24598336E-02 0.12498156E+03</pdfrwt>
<totfact> 0.58955883E+06</totfact>
</mgrwt>
</event>
<event>
 5    0  0.1606189E+000  0.1249971E+03  0.7546771E-02  0.1235074E+00
         21   -1    0    0  503  502  0.00000000000E+00  0.00000000000E+00  0.37211888678E+02  0.37211888678E+02  0.00000000000E+00 0. -1.
         21   -1    0    0  502  503 -0.00000000000E+00 -0.00000000000E+00 -0.10496834274E+03  0.10496834274E+03  0.00000000000E+00 0. -1.
         25    2    1    2    0    0  0.00000000000E+00  0.00000000000E+00 -0.67756454066E+02  0.14218023142E+03  0.12499712452E+03 0.  0.
          4    1    3    3  501    0 -0.17091734382E+02 -0.56230752053E+02 -0.57997992251E+02  0.82584468672E+02  0.15500000000E+01 0.  1.
         -4    1    3    3    0  501  0.17091734382E+02  0.56230752053E+02 -0.97584618145E+01  0.59595762749E+02  0.15500000000E+01 0.  1.
<mgrwt>
<rscale>  2 0.12499712E+03</rscale>
<asrwt>0</asrwt>
<pdfrwt beam="1">  1       21 0.57249059E-02 0.12499712E+03</pdfrwt>
<pdfrwt beam="2">  1       21 0.16148976E-01 0.12499712E+03</pdfrwt>
<totfact> 0.71761203E+06</totfact>
</mgrwt>
</event>
<event>
 5    0  0.1406713E+000  0.1250037E+03  0.7546771E-02  0.1235064E+00
         21   -1    0    0  503  502  0.00000000000E+00  0.00000000000E+00  0.28334918151E+03  0.28334918151E+03  0.00000000000E+00 0. -1.
         21   -1    0    0  502  503 -0.00000000000E+00 -0.00000000000E+00 -0.13786800241E+02  0.13786800241E+02  0.00000000000E+00 0. -1.
         25    2    1    2    0    0  0.00000000000E+00  0.00000000000E+00  0.26956238127E+03  0.29713598175E+03  0.12500365697E+03 0.  0.
          4    1    3    3  501    0 -0.25263836662E+02  0.35257858479E+02  0.24168619953E+03  0.24555243752E+03  0.15500000000E+01 0.  1.
         -4    1    3    3    0  501  0.25263836662E+02 -0.35257858479E+02  0.27876181740E+02  0.51583544234E+02  0.15500000000E+01 0.  1.
<mgrwt>
<rscale>  2 0.12500366E+03</rscale>
<asrwt>0</asrwt>
<pdfrwt beam="1">  1       21 0.43592177E-01 0.12500366E+03</pdfrwt>
<pdfrwt beam="2">  1       21 0.21210464E-02 0.12500366E+03</pdfrwt>
<totfact> 0.55689911E+06</totfact>
</mgrwt>
</event>
<event>
 5    0  0.1322829E+000  0.1250234E+03  0.7546771E-02  0.1235033E+00
         21   -1    0    0  503  502  0.00000000000E+00  0.00000000000E+00  0.53750043604E+03  0.53750043604E+03  0.00000000000E+00 0.  1.
         21   -1    0    0  502  503 -0.00000000000E+00 -0.00000000000E+00 -0.72701597134E+01  0.72701597134E+01  0.00000000000E+00 0.  1.
         25    2    1    2    0    0  0.00000000000E+00  0.00000000000E+00  0.53023027633E+03  0.54477059576E+03  0.12502342206E+03 0.  0.
          4    1    3    3  501    0 -0.54994345874E+02 -0.15916491681E+02  0.15595519408E+03  0.16613891130E+03  0.15500000000E+01 0.  1.
         -4    1    3    3    0  501  0.54994345874E+02  0.15916491681E+02  0.37427508225E+03  0.37863168446E+03  0.15500000000E+01 0.  1.
<mgrwt>
<rscale>  2 0.12502342E+03</rscale>
<asrwt>0</asrwt>
<pdfrwt beam="1">  1       21 0.82692344E-01 0.12502342E+03</pdfrwt>
<pdfrwt beam="2">  1       21 0.11184865E-02 0.12502342E+03</pdfrwt>
<totfact> 0.39692571E+06</totfact>
</mgrwt>
</event>
<event>
 5    0  0.1268970E+000  0.1249934E+03  0.7546771E-02  0.1235080E+00
         21   -1    0    0  503  502  0.00000000000E+00  0.00000000000E+00  0.62375930635E+03  0.62375930635E+03  0.00000000000E+00 0.  1.
         21   -1    0    0  502  503 -0.00000000000E+00 -0.00000000000E+00 -0.62617732314E+01  0.62617732314E+01  0.00000000000E+00 0.  1.
         25    2    1    2    0    0  0.00000000000E+00  0.00000000000E+00  0.61749753312E+03  0.63002107958E+03  0.12499342906E+03 0.  0.
          4    1    3    3  501    0  0.82904006492E+01 -0.38011950802E+02  0.55515317046E+03  0.55651692186E+03  0.15500000000E+01 0. -1.
         -4    1    3    3    0  501 -0.82904006492E+01  0.38011950802E+02  0.62344362654E+02  0.73504157715E+02  0.15500000000E+01 0. -1.
<mgrwt>
<rscale>  2 0.12499343E+03</rscale>
<asrwt>0</asrwt>
<pdfrwt beam="1">  1       21 0.95962921E-01 0.12499343E+03</pdfrwt>
<pdfrwt beam="2">  1       21 0.96335022E-03 0.12499343E+03</pdfrwt>
<totfact> 0.35775070E+06</totfact>
</mgrwt>
</event>
<event>
 5    0  0.1248740E+000  0.1249831E+03  0.7546771E-02  0.1235096E+00
         21   -1    0    0  503  502  0.00000000000E+00  0.00000000000E+00  0.52436452636E+01  0.52436452636E+01  0.00000000000E+00 0.  1.
         21   -1    0    0  502  503 -0.00000000000E+00 -0.00000000000E+00 -0.74474763165E+03  0.74474763165E+03  0.00000000000E+00 0.  1.
         25    2    1    2    0    0  0.00000000000E+00  0.00000000000E+00 -0.73950398639E+03  0.74999127691E+03  0.12498307711E+03 0.  0.
          4    1    3    3  501    0 -0.37968908638E+02  0.30976906013E+02 -0.13722161706E+03  0.14571678496E+03  0.15500000000E+01 0.  1.
         -4    1    3    3    0  501  0.37968908638E+02 -0.30976906013E+02 -0.60228236933E+03  0.60427449196E+03  0.15500000000E+01 0.  1.
<mgrwt>
<rscale>  2 0.12498308E+03</rscale>
<asrwt>0</asrwt>
<pdfrwt beam="1">  1       21 0.80671452E-03 0.12498308E+03</pdfrwt>
<pdfrwt beam="2">  1       21 0.11457658E+00 0.12498308E+03</pdfrwt>
<totfact> 0.31082192E+06</totfact>
</mgrwt>
</event>
<event>
 5    0  0.1414867E+000  0.1249965E+03  0.7546771E-02  0.1235075E+00
         21   -1    0    0  503  502  0.00000000000E+00  0.00000000000E+00  0.44833045256E+03  0.44833045256E+03  0.00000000000E+00 0. -1.
         21   -1    0    0  502  503 -0.00000000000E+00 -0.00000000000E+00 -0.87123996020E+01  0.87123996020E+01  0.00000000000E+00 0. -1.
         25    2    1    2    0    0  0.00000000000E+00  0.00000000000E+00  0.43961805296E+03  0.45704285216E+03  0.12499654485E+03 0.  0.
          4    1    3    3  501    0 -0.57644745742E+02 -0.20174181917E+02  0.26800162669E+03  0.27487667915E+03  0.15500000000E+01 0.  1.
         -4    1    3    3    0  501  0.57644745742E+02  0.20174181917E+02  0.17161642626E+03  0.18216617301E+03  0.15500000000E+01 0.  1.
<mgrwt>
<rscale>  2 0.12499654E+03</rscale>
<asrwt>0</asrwt>
<pdfrwt beam="1">  1       21 0.68973898E-01 0.12499654E+03</pdfrwt>
<pdfrwt beam="2">  1       21 0.13403695E-02 0.12499654E+03</pdfrwt>
<totfact> 0.44477656E+06</totfact>
</mgrwt>
</event>
<event>
 5    0  0.1472937E+000  0.1250015E+03  0.7546771E-02  0.1235067E+00
         21   -1    0    0  503  502  0.00000000000E+00  0.00000000000E+00  0.83754359528E+02  0.83754359528E+02  0.00000000000E+00 0.  1.
         21   -1    0    0  502  503 -0.00000000000E+00 -0.00000000000E+00 -0.46640476083E+02  0.46640476083E+02  0.00000000000E+00 0.  1.
         25    2    1    2    0    0  0.00000000000E+00  0.00000000000E+00  0.37113883445E+02  0.13039483561E+03  0.12500149123E+03 0.  0.
          4    1    3    3  501    0  0.48659492999E+02 -0.94756598447E+00  0.59430395408E+02  0.76831103979E+02  0.15500000000E+01 0.  1.
         -4    1    3    3    0  501 -0.48659492999E+02  0.94756598447E+00 -0.22316511963E+02  0.53563731633E+02  0.15500000000E+01 0.  1.
<mgrwt>
<rscale>  2 0.12500149E+03</rscale>
<asrwt>0</asrwt>
<pdfrwt beam="1">  1       21 0.12885286E-01 0.12500149E+03</pdfrwt>
<pdfrwt beam="2">  1       21 0.71754579E-02 0.12500149E+03</pdfrwt>
<totfact> 0.73309401E+06</totfact>
</mgrwt>
</event>
<event>
 5    0  0.1469089E+000  0.1249916E+03  0.7546771E-02  0.1235082E+00
         21   -1    0    0  503  502  0.00000000000E+00  0.00000000000E+00  0.86698153494E+02  0.86698153494E+02  0.00000000000E+00 0. -1.
         21   -1    0    0  502  503 -0.00000000000E+00 -0.00000000000E+00 -0.45049682333E+02  0.45049682333E+02  0.00000000000E+00 0. -1.
         25    2    1    2    0    0  0.00000000000E+00  0.00000000000E+00  0.41648471161E+02  0.13174783583E+03  0.12499158810E+03 0.  0.
          4    1    3    3  501    0 -0.31830774304E+02  0.38419353046E+02 -0.18812622038E+02  0.53343810599E+02  0.15500000000E+01 0. -1.
         -4    1    3    3    0  501  0.31830774304E+02 -0.38419353046E+02  0.60461093199E+02  0.78404025229E+02  0.15500000000E+01 0. -1.
<mgrwt>
<rscale>  2 0.12499159E+03</rscale>
<asrwt>0</asrwt>
<pdfrwt beam="1">  1       21 0.13338177E-01 0.12499159E+03</pdfrwt>
<pdfrwt beam="2">  1       21 0.69307204E-02 0.12499159E+03</pdfrwt>
<totfact> 0.73145767E+06</totfact>
</mgrwt>
</event>
<event>
 5    0  0.1381860E+000  0.1250118E+03  0.7546771E-02  0.1235051E+00
         21   -1    0    0  503  502  0.00000000000E+00  0.00000000000E+00  0.52398554498E+03  0.52398554498E+03  0.00000000000E+00 0. -1.
         21   -1    0    0  502  503 -0.00000000000E+00 -0.00000000000E+00 -0.74562907896E+01  0.74562907896E+01  0.00000000000E+00 0. -1.
         25    2    1    2    0    0  0.00000000000E+00  0.00000000000E+00  0.51652925419E+03  0.53144183576E+03  0.12501181693E+03 0.  0.
          4    1    3    3  501    0  0.16393385459E+01  0.59585207504E+02  0.17856277884E+03  0.18825555203E+03  0.15500000000E+01 0. -1.
         -4    1    3    3    0  501 -0.16393385459E+01 -0.59585207504E+02  0.33796647535E+03  0.34318628373E+03  0.15500000000E+01 0. -1.
<mgrwt>
<rscale>  2 0.12501182E+03</rscale>
<asrwt>0</asrwt>
<pdfrwt beam="1">  1       21 0.80613131E-01 0.12501182E+03</pdfrwt>
<pdfrwt beam="2">  1       21 0.11471221E-02 0.12501182E+03</pdfrwt>
<totfact> 0.40376819E+06</totfact>
</mgrwt>
</event>
<event>
 5    0  0.1325477E+000  0.1249969E+03  0.7546771E-02  0.1235074E+00
         21   -1    0    0  503  502  0.00000000000E+00  0.00000000000E+00  0.45311449840E+03  0.45311449840E+03  0.00000000000E+00 0. -1.
         21   -1    0    0  502  503 -0.00000000000E+00 -0.00000000000E+00 -0.86204648955E+01  0.86204648955E+01  0.00000000000E+00 0. -1.
         25    2    1    2    0    0  0.00000000000E+00  0.00000000000E+00  0.44449403350E+03  0.46173496329E+03  0.12499692200E+03 0.  0.
          4    1    3    3  501    0  0.29480636427E+02  0.19204139591E+02  0.41296998928E+03  0.41446896319E+03  0.15500000000E+01 0. -1.
         -4    1    3    3    0  501 -0.29480636427E+02 -0.19204139591E+02  0.31524044220E+02  0.47266000101E+02  0.15500000000E+01 0. -1.
<mgrwt>
<rscale>  2 0.12499692E+03</rscale>
<asrwt>0</asrwt>
<pdfrwt beam="1">  1       21 0.69709904E-01 0.12499692E+03</pdfrwt>
<pdfrwt beam="2">  1       21 0.13262257E-02 0.12499692E+03</pdfrwt>
<totfact> 0.44201699E+06</totfact>
</mgrwt>
</event>
<event>
 5    0  0.1388370E+000  0.1249984E+03  0.7546771E-02  0.1235072E+00
         21   -1    0    0  503  502  0.00000000000E+00  0.00000000000E+00  0.11135966310E+02  0.11135966310E+02  0.00000000000E+00 0.  1.
         21   -1    0    0  502  503 -0.00000000000E+00 -0.00000000000E+00 -0.35076905978E+03  0.35076905978E+03  0.00000000000E+00 0.  1.
         25    2    1    2    0    0  0.00000000000E+00  0.00000000000E+00 -0.33963309347E+03  0.36190502609E+03  0.12499843891E+03 0.  0.
          4    1    3    3  501    0  0.30844273464E+02 -0.51759603391E+02 -0.21768275820E+03  0.22587299853E+03  0.15500000000E+01 0.  1.
         -4    1    3    3    0  501 -0.30844273464E+02  0.51759603391E+02 -0.12195033526E+03  0.13603202755E+03  0.15500000000E+01 0.  1.
<mgrwt>
<rscale>  2 0.12499844E+03</rscale>
<asrwt>0</asrwt>
<pdfrwt beam="1">  1       21 0.17132257E-02 0.12499844E+03</pdfrwt>
<pdfrwt beam="2">  1       21 0.53964467E-01 0.12499844E+03</pdfrwt>
<totfact> 0.50673034E+06</totfact>
</mgrwt>
</event>
<event>
 5    0  0.1222151E+000  0.1250011E+03  0.7546771E-02  0.1235068E+00
         21   -1    0    0  503  502  0.00000000000E+00  0.00000000000E+00  0.43194691483E+01  0.43194691483E+01  0.00000000000E+00 0. -1.
         21   -1    0    0  502  503 -0.00000000000E+00 -0.00000000000E+00 -0.90435164499E+03  0.90435164499E+03  0.00000000000E+00 0. -1.
         25    2    1    2    0    0  0.00000000000E+00  0.00000000000E+00 -0.90003217584E+03  0.90867111413E+03  0.12500110447E+03 0.  0.
          4    1    3    3  501    0  0.10551740713E+02  0.55558358318E+02 -0.25688691190E+03  0.26304250307E+03  0.15500000000E+01 0.  1.
         -4    1    3    3    0  501 -0.10551740713E+02 -0.55558358318E+02 -0.64314526393E+03  0.64562861107E+03  0.15500000000E+01 0.  1.
<mgrwt>
<rscale>  2 0.12500110E+03</rscale>
<asrwt>0</asrwt>
<pdfrwt beam="1">  1       21 0.66453303E-03 0.12500110E+03</pdfrwt>
<pdfrwt beam="2">  1       21 0.13913117E+00 0.12500110E+03</pdfrwt>
<totfact> 0.26050586E+06</totfact>
</mgrwt>
</event>
<event>
 5    0  0.1480559E+000  0.1249997E+03  0.7546771E-02  0.1235070E+00
         21   -1    0    0  503  502  0.00000000000E+00  0.00000000000E+00  0.39373619714E+03  0.39373619714E+03  0.00000000000E+00 0. -1.
         21   -1    0    0  502  503 -0.00000000000E+00 -0.00000000000E+00 -0.99209418100E+01  0.99209418100E+01  0.00000000000E+00 0. -1.
         25    2    1    2    0    0  0.00000000000E+00  0.00000000000E+00  0.38381525533E+03  0.40365713895E+03  0.12499974241E+03 0.  0.
          4    1    3    3  501    0  0.61560839259E+02  0.10666720787E+02  0.19009366171E+03  0.20010376954E+03  0.15500000000E+01 0.  1.
         -4    1    3    3    0  501 -0.61560839259E+02 -0.10666720787E+02  0.19372159362E+03  0.20355336941E+03  0.15500000000E+01 0.  1.
<mgrwt>
<rscale>  2 0.12499974E+03</rscale>
<asrwt>0</asrwt>
<pdfrwt beam="1">  1       21 0.60574787E-01 0.12499974E+03</pdfrwt>
<pdfrwt beam="2">  1       21 0.15262990E-02 0.12499974E+03</pdfrwt>
<totfact> 0.47800032E+06</totfact>
</mgrwt>
</event>
<event>
 5    0  0.1450251E+000  0.1250019E+03  0.7546771E-02  0.1235066E+00
         21   -1    0    0  503  502  0.00000000000E+00  0.00000000000E+00  0.14657324345E+03  0.14657324345E+03  0.00000000000E+00 0. -1.
         21   -1    0    0  502  503 -0.00000000000E+00 -0.00000000000E+00 -0.26651291894E+02  0.26651291894E+02  0.00000000000E+00 0. -1.
         25    2    1    2    0    0  0.00000000000E+00  0.00000000000E+00  0.11992195156E+03  0.17322453535E+03  0.12500186071E+03 0.  0.
          4    1    3    3  501    0  0.30588847900E+02 -0.22928959121E+02 -0.85270379221E+01  0.39198567040E+02  0.15500000000E+01 0. -1.
         -4    1    3    3    0  501 -0.30588847900E+02  0.22928959121E+02  0.12844898948E+03  0.13402596831E+03  0.15500000000E+01 0. -1.
<mgrwt>
<rscale>  2 0.12500186E+03</rscale>
<asrwt>0</asrwt>
<pdfrwt beam="1">  1       21 0.22549729E-01 0.12500186E+03</pdfrwt>
<pdfrwt beam="2">  1       21 0.41001988E-02 0.12500186E+03</pdfrwt>
<totfact> 0.67934218E+06</totfact>
</mgrwt>
</event>
<event>
 5    0  0.1447853E+000  0.1249869E+03  0.7546771E-02  0.1235090E+00
         21   -1    0    0  503  502  0.00000000000E+00  0.00000000000E+00  0.18315172513E+02  0.18315172513E+02  0.00000000000E+00 0. -1.
         21   -1    0    0  502  503 -0.00000000000E+00 -0.00000000000E+00 -0.21323489290E+03  0.21323489290E+03  0.00000000000E+00 0. -1.
         25    2    1    2    0    0  0.00000000000E+00  0.00000000000E+00 -0.19491972039E+03  0.23155006541E+03  0.12498694090E+03 0.  0.
          4    1    3    3  501    0  0.14840654638E+02  0.42636856129E+02 -0.17746286081E+03  0.18312186106E+03  0.15500000000E+01 0. -1.
         -4    1    3    3    0  501 -0.14840654638E+02 -0.42636856129E+02 -0.17456859577E+02  0.48428204354E+02  0.15500000000E+01 0. -1.
<mgrwt>
<rscale>  2 0.12498694E+03</rscale>
<asrwt>0</asrwt>
<pdfrwt beam="1">  1       21 0.28177190E-02 0.12498694E+03</pdfrwt>
<pdfrwt beam="2">  1       21 0.32805366E-01 0.12498694E+03</pdfrwt>
<totfact> 0.61680389E+06</totfact>
</mgrwt>
</event>
<event>
 5    0  0.1422174E+000  0.1249898E+03  0.7546771E-02  0.1235085E+00
         21   -1    0    0  503  502  0.00000000000E+00  0.00000000000E+00  0.10907981185E+02  0.10907981185E+02  0.00000000000E+00 0.  1.
         21   -1    0    0  502  503 -0.00000000000E+00 -0.00000000000E+00 -0.35805061958E+03  0.35805061958E+03  0.00000000000E+00 0.  1.
         25    2    1    2    0    0  0.00000000000E+00  0.00000000000E+00 -0.34714263840E+03  0.36895860077E+03  0.12498975033E+03 0.  0.
          4    1    3    3  501    0 -0.19287761338E+02  0.52419195156E+02 -0.25619409454E+03  0.26221671636E+03  0.15500000000E+01 0. -1.
         -4    1    3    3    0  501  0.19287761338E+02 -0.52419195156E+02 -0.90948543854E+02  0.10674188441E+03  0.15500000000E+01 0. -1.
<mgrwt>
<rscale>  2 0.12498975E+03</rscale>
<asrwt>0</asrwt>
<pdfrwt beam="1">  1       21 0.16781514E-02 0.12498975E+03</pdfrwt>
<pdfrwt beam="2">  1       21 0.55084695E-01 0.12498975E+03</pdfrwt>
<totfact> 0.50180923E+06</totfact>
</mgrwt>
</event>
<event>
 5    0  0.1574515E+000  0.1250028E+03  0.7546771E-02  0.1235065E+00
         21   -1    0    0  503  502  0.00000000000E+00  0.00000000000E+00  0.85301852164E+02  0.85301852164E+02  0.00000000000E+00 0. -1.
         21   -1    0    0  502  503 -0.00000000000E+00 -0.00000000000E+00 -0.45795282351E+02  0.45795282351E+02  0.00000000000E+00 0. -1.
         25    2    1    2    0    0  0.00000000000E+00  0.00000000000E+00  0.39506569813E+02  0.13109713451E+03  0.12500275845E+03 0.  0.
          4    1    3    3  501    0 -0.66257873472E+01 -0.60715763803E+02  0.59306096918E+01  0.61383056811E+02  0.15500000000E+01 0.  1.
         -4    1    3    3    0  501  0.66257873472E+01  0.60715763803E+02  0.33575960121E+02  0.69714077704E+02  0.15500000000E+01 0.  1.
<mgrwt>
<rscale>  2 0.12500276E+03</rscale>
<asrwt>0</asrwt>
<pdfrwt beam="1">  1       21 0.13123362E-01 0.12500276E+03</pdfrwt>
<pdfrwt beam="2">  1       21 0.70454281E-02 0.12500276E+03</pdfrwt>
<totfact> 0.73212432E+06</totfact>
</mgrwt>
</event>
<event>
 5    0  0.1467261E+000  0.1250027E+03  0.7546771E-02  0.1235065E+00
         21   -1    0    0  503  502  0.00000000000E+00  0.00000000000E+00  0.28338876726E+02  0.28338876726E+02  0.00000000000E+00 0.  1.
         21   -1    0    0  502  503 -0.00000000000E+00 -0.00000000000E+00 -0.13784659432E+03  0.13784659432E+03  0.00000000000E+00 0.  1.
         25    2    1    2    0    0  0.00000000000E+00  0.00000000000E+00 -0.10950771759E+03  0.16618547104E+03  0.12500268227E+03 0.  0.
          4    1    3    3  501    0  0.13884761243E+02 -0.43027622349E+02  0.25802338906E+01  0.45312503647E+02  0.15500000000E+01 0.  1.
         -4    1    3    3    0  501 -0.13884761243E+02  0.43027622349E+02 -0.11208795148E+03  0.12087296740E+03  0.15500000000E+01 0.  1.
<mgrwt>
<rscale>  2 0.12500268E+03</rscale>
<asrwt>0</asrwt>
<pdfrwt beam="1">  1       21 0.43598271E-02 0.12500268E+03</pdfrwt>
<pdfrwt beam="2">  1       21 0.21207169E-01 0.12500268E+03</pdfrwt>
<totfact> 0.68766799E+06</totfact>
</mgrwt>
</event>
<event>
 5    0  0.1439368E+000  0.1250027E+03  0.7546771E-02  0.1235065E+00
         21   -1    0    0  503  502  0.00000000000E+00  0.00000000000E+00  0.24882900899E+03  0.24882900899E+03  0.00000000000E+00 0.  1.
         21   -1    0    0  502  503 -0.00000000000E+00 -0.00000000000E+00 -0.15699210285E+02  0.15699210285E+02  0.00000000000E+00 0.  1.
         25    2    1    2    0    0  0.00000000000E+00  0.00000000000E+00  0.23312979871E+03  0.26452821928E+03  0.12500270297E+03 0.  0.
          4    1    3    3  501    0  0.58553553009E+01 -0.54644567215E+02  0.17947286667E+03  0.18770515785E+03  0.15500000000E+01 0. -1.
         -4    1    3    3    0  501 -0.58553553009E+01  0.54644567215E+02  0.53656932040E+02  0.76823061432E+02  0.15500000000E+01 0. -1.
<mgrwt>
<rscale>  2 0.12500270E+03</rscale>
<asrwt>0</asrwt>
<pdfrwt beam="1">  1       21 0.38281383E-01 0.12500270E+03</pdfrwt>
<pdfrwt beam="2">  1       21 0.24152633E-02 0.12500270E+03</pdfrwt>
<totfact> 0.58532723E+06</totfact>
</mgrwt>
</event>
<event>
 5    0  0.1332358E+000  0.1250027E+03  0.7546771E-02  0.1235065E+00
         21   -1    0    0  503  502  0.00000000000E+00  0.00000000000E+00  0.49609826245E+03  0.49609826245E+03  0.00000000000E+00 0.  1.
         21   -1    0    0  502  503 -0.00000000000E+00 -0.00000000000E+00 -0.78742802159E+01  0.78742802159E+01  0.00000000000E+00 0.  1.
         25    2    1    2    0    0  0.00000000000E+00  0.00000000000E+00  0.48822398223E+03  0.50397254266E+03  0.12500266770E+03 0.  0.
          4    1    3    3  501    0  0.21269745656E+02 -0.58734739790E+02  0.24958455336E+03  0.25728782232E+03  0.15500000000E+01 0.  1.
         -4    1    3    3    0  501 -0.21269745656E+02  0.58734739790E+02  0.23863942887E+03  0.24668472034E+03  0.15500000000E+01 0.  1.
<mgrwt>
<rscale>  2 0.12500267E+03</rscale>
<asrwt>0</asrwt>
<pdfrwt beam="1">  1       21 0.76322785E-01 0.12500267E+03</pdfrwt>
<pdfrwt beam="2">  1       21 0.12114281E-02 0.12500267E+03</pdfrwt>
<totfact> 0.41826677E+06</totfact>
</mgrwt>
</event>
<event>
 5    0  0.1486338E+000  0.1250032E+03  0.7546771E-02  0.1235064E+00
         21   -1    0    0  503  502  0.00000000000E+00  0.00000000000E+00  0.21587210419E+03  0.21587210419E+03  0.00000000000E+00 0. -1.
         21   -1    0    0  502  503 -0.00000000000E+00 -0.00000000000E+00 -0.18096142835E+02  0.18096142835E+02  0.00000000000E+00 0. -1.
         25    2    1    2    0    0  0.00000000000E+00  0.00000000000E+00  0.19777596135E+03  0.23396824702E+03  0.12500323886E+03 0.  0.
          4    1    3    3  501    0 -0.54870354368E+02 -0.23690152468E+02  0.64780392385E+02  0.88152599792E+02  0.15500000000E+01 0. -1.
         -4    1    3    3    0  501  0.54870354368E+02  0.23690152468E+02  0.13299556897E+03  0.14581564723E+03  0.15500000000E+01 0. -1.
<mgrwt>
<rscale>  2 0.12500324E+03</rscale>
<asrwt>0</asrwt>
<pdfrwt beam="1">  1       21 0.33211091E-01 0.12500324E+03</pdfrwt>
<pdfrwt beam="2">  1       21 0.27840221E-02 0.12500324E+03</pdfrwt>
<totfact> 0.61416253E+06</totfact>
</mgrwt>
</event>
<event>
 5    0  0.1444795E+000  0.1249860E+03  0.7546771E-02  0.1235091E+00
         21   -1    0    0  503  502  0.00000000000E+00  0.00000000000E+00  0.65860819914E+01  0.65860819914E+01  0.00000000000E+00 0.  1.
         21   -1    0    0  502  503 -0.00000000000E+00 -0.00000000000E+00 -0.59297431091E+03  0.59297431091E+03  0.00000000000E+00 0.  1.
         25    2    1    2    0    0  0.00000000000E+00  0.00000000000E+00 -0.58638822891E+03  0.59956039290E+03  0.12498603811E+03 0.  0.
          4    1    3    3  501    0 -0.61555971572E+02 -0.32101624899E+01 -0.34200414195E+03  0.34751788212E+03  0.15500000000E+01 0. -1.
         -4    1    3    3    0  501  0.61555971572E+02  0.32101624899E+01 -0.24438408696E+03  0.25204251078E+03  0.15500000000E+01 0. -1.
<mgrwt>
<rscale>  2 0.12498604E+03</rscale>
<asrwt>0</asrwt>
<pdfrwt beam="1">  1       21 0.10132436E-02 0.12498604E+03</pdfrwt>
<pdfrwt beam="2">  1       21 0.91226797E-01 0.12498604E+03</pdfrwt>
<totfact> 0.37125398E+06</totfact>
</mgrwt>
</event>
<event>
 5    0  0.1222151E+000  0.1249514E+03  0.7546771E-02  0.1235145E+00
         21   -1    0    0  503  502  0.00000000000E+00  0.00000000000E+00  0.52013780496E+01  0.52013780496E+01  0.00000000000E+00 0. -1.
         21   -1    0    0  502  503 -0.00000000000E+00 -0.00000000000E+00 -0.75041851892E+03  0.75041851892E+03  0.00000000000E+00 0. -1.
         25    2    1    2    0    0  0.00000000000E+00  0.00000000000E+00 -0.74521714087E+03  0.75561989697E+03  0.12495135713E+03 0.  0.
          4    1    3    3  501    0 -0.29590329561E+02 -0.35965523268E+02 -0.12095742158E+03  0.12962332662E+03  0.15500000000E+01 0. -1.
         -4    1    3    3    0  501  0.29590329561E+02  0.35965523268E+02 -0.62425971928E+03  0.62599657035E+03  0.15500000000E+01 0. -1.
<mgrwt>
<rscale>  2 0.12495136E+03</rscale>
<asrwt>0</asrwt>
<pdfrwt beam="1">  1       21 0.80021175E-03 0.12495136E+03</pdfrwt>
<pdfrwt beam="2">  1       21 0.11544904E+00 0.12495136E+03</pdfrwt>
<totfact> 0.30909407E+06</totfact>
</mgrwt>
</event>
<event>
 5    0  0.1554935E+000  0.1249883E+03  0.7546771E-02  0.1235088E+00
         21   -1    0    0  503  502  0.00000000000E+00  0.00000000000E+00  0.23797997582E+03  0.23797997582E+03  0.00000000000E+00 0.  1.
         21   -1    0    0  502  503 -0.00000000000E+00 -0.00000000000E+00 -0.16411125861E+02  0.16411125861E+02  0.00000000000E+00 0.  1.
         25    2    1    2    0    0  0.00000000000E+00  0.00000000000E+00  0.22156884996E+03  0.25439110168E+03  0.12498830882E+03 0.  0.
          4    1    3    3  501    0  0.51122138035E+02 -0.33302627653E+02  0.13813496725E+03  0.15101724962E+03  0.15500000000E+01 0.  1.
         -4    1    3    3    0  501 -0.51122138035E+02  0.33302627653E+02  0.83433882706E+02  0.10337385206E+03  0.15500000000E+01 0.  1.
<mgrwt>
<rscale>  2 0.12498831E+03</rscale>
<asrwt>0</asrwt>
<pdfrwt beam="1">  1       21 0.36612302E-01 0.12498831E+03</pdfrwt>
<pdfrwt beam="2">  1       21 0.25247888E-02 0.12498831E+03</pdfrwt>
<totfact> 0.59484744E+06</totfact>
</mgrwt>
</event>
<event>
 5    0  0.1494983E+000  0.1249989E+03  0.7546771E-02  0.1235071E+00
         21   -1    0    0  503  502  0.00000000000E+00  0.00000000000E+00  0.50107740045E+02  0.50107740045E+02  0.00000000000E+00 0. -1.
         21   -1    0    0  502  503 -0.00000000000E+00 -0.00000000000E+00 -0.77955679779E+02  0.77955679779E+02  0.00000000000E+00 0. -1.
         25    2    1    2    0    0  0.00000000000E+00  0.00000000000E+00 -0.27847939734E+02  0.12806341982E+03  0.12499892699E+03 0.  0.
          4    1    3    3  501    0  0.19621639977E+02  0.22607202749E+02  0.42262928916E+02  0.51813627860E+02  0.15500000000E+01 0.  1.
         -4    1    3    3    0  501 -0.19621639977E+02 -0.22607202749E+02 -0.70110868650E+02  0.76249791963E+02  0.15500000000E+01 0.  1.
<mgrwt>
<rscale>  2 0.12499893E+03</rscale>
<asrwt>0</asrwt>
<pdfrwt beam="1">  1       21 0.77088831E-02 0.12499893E+03</pdfrwt>
<pdfrwt beam="2">  1       21 0.11993181E-01 0.12499893E+03</pdfrwt>
<totfact> 0.73627011E+06</totfact>
</mgrwt>
</event>
<event>
 5    0  0.1597551E+000  0.1249979E+03  0.7546771E-02  0.1235073E+00
         21   -1    0    0  503  502  0.00000000000E+00  0.00000000000E+00  0.79056091020E+02  0.79056091020E+02  0.00000000000E+00 0.  1.
         21   -1    0    0  502  503 -0.00000000000E+00 -0.00000000000E+00 -0.49409474155E+02  0.49409474155E+02  0.00000000000E+00 0.  1.
         25    2    1    2    0    0  0.00000000000E+00  0.00000000000E+00  0.29646616865E+02  0.12846556517E+03  0.12499791816E+03 0.  0.
          4    1    3    3  501    0 -0.59340923550E+02 -0.14607098604E+02  0.28184141384E+02  0.67316126322E+02  0.15500000000E+01 0. -1.
         -4    1    3    3    0  501  0.59340923550E+02  0.14607098604E+02  0.14624754805E+01  0.61149438852E+02  0.15500000000E+01 0. -1.
<mgrwt>
<rscale>  2 0.12499792E+03</rscale>
<asrwt>0</asrwt>
<pdfrwt beam="1">  1       21 0.12162476E-01 0.12499792E+03</pdfrwt>
<pdfrwt beam="2">  1       21 0.76014576E-02 0.12499792E+03</pdfrwt>
<totfact> 0.73574670E+06</totfact>
</mgrwt>
</event>
<event>
 5    0  0.1569745E+000  0.1250038E+03  0.7546771E-02  0.1235063E+00
         21   -1    0    0  503  502  0.00000000000E+00  0.00000000000E+00  0.54552931839E+02  0.54552931839E+02  0.00000000000E+00 0. -1.
         21   -1    0    0  502  503 -0.00000000000E+00 -0.00000000000E+00 -0.71609085444E+02  0.71609085444E+02  0.00000000000E+00 0. -1.
         25    2    1    2    0    0  0.00000000000E+00  0.00000000000E+00 -0.17056153605E+02  0.12616201728E+03  0.12500376886E+03 0.  0.
          4    1    3    3  501    0 -0.56642229013E+02 -0.19145624879E+02  0.97835190357E+01  0.60605418935E+02  0.15500000000E+01 0. -1.
         -4    1    3    3    0  501  0.56642229013E+02  0.19145624879E+02 -0.26839672641E+02  0.65556598349E+02  0.15500000000E+01 0. -1.
<mgrwt>
<rscale>  2 0.12500377E+03</rscale>
<asrwt>0</asrwt>
<pdfrwt beam="1">  1       21 0.83927588E-02 0.12500377E+03</pdfrwt>
<pdfrwt beam="2">  1       21 0.11016782E-01 0.12500377E+03</pdfrwt>
<totfact> 0.73876626E+06</totfact>
</mgrwt>
</event>
<event>
 5    0  0.1592965E+000  0.1249983E+03  0.7546771E-02  0.1235072E+00
         21   -1    0    0  503  502  0.00000000000E+00  0.00000000000E+00  0.27931474626E+02  0.27931474626E+02  0.00000000000E+00 0.  1.
         21   -1    0    0  502  503 -0.00000000000E+00 -0.00000000000E+00 -0.13984744700E+03  0.13984744700E+03  0.00000000000E+00 0.  1.
         25    2    1    2    0    0  0.00000000000E+00  0.00000000000E+00 -0.11191597238E+03  0.16777892163E+03  0.12499832667E+03 0.  0.
          4    1    3    3  501    0  0.25678625533E+01 -0.55919515393E+02 -0.18708286484E+02  0.59042261162E+02  0.15500000000E+01 0. -1.
         -4    1    3    3    0  501 -0.25678625533E+01  0.55919515393E+02 -0.93207685892E+02  0.10873666047E+03  0.15500000000E+01 0. -1.
<mgrwt>
<rscale>  2 0.12499833E+03</rscale>
<asrwt>0</asrwt>
<pdfrwt beam="1">  1       21 0.42971500E-02 0.12499833E+03</pdfrwt>
<pdfrwt beam="2">  1       21 0.21514992E-01 0.12499833E+03</pdfrwt>
<totfact> 0.68584182E+06</totfact>
</mgrwt>
</event>
<event>
 5    0  0.1354753E+000  0.1250043E+03  0.7546771E-02  0.1235063E+00
         21   -1    0    0  503  502  0.00000000000E+00  0.00000000000E+00  0.10781066485E+02  0.10781066485E+02  0.00000000000E+00 0. -1.
         21   -1    0    0  502  503 -0.00000000000E+00 -0.00000000000E+00 -0.36235004238E+03  0.36235004238E+03  0.00000000000E+00 0. -1.
         25    2    1    2    0    0  0.00000000000E+00  0.00000000000E+00 -0.35156897589E+03  0.37313110886E+03  0.12500431829E+03 0.  0.
          4    1    3    3  501    0 -0.17192519171E+02 -0.30494192753E+02 -0.33027205285E+03  0.33212574411E+03  0.15500000000E+01 0. -1.
         -4    1    3    3    0  501  0.17192519171E+02  0.30494192753E+02 -0.21296923037E+02  0.41005364745E+02  0.15500000000E+01 0. -1.
<mgrwt>
<rscale>  2 0.12500432E+03</rscale>
<asrwt>0</asrwt>
<pdfrwt beam="1">  1       21 0.16586254E-02 0.12500432E+03</pdfrwt>
<pdfrwt beam="2">  1       21 0.55746168E-01 0.12500432E+03</pdfrwt>
<totfact> 0.49868808E+06</totfact>
</mgrwt>
</event>
<event>
 5    0  0.1559777E+000  0.1249490E+03  0.7546771E-02  0.1235149E+00
         21   -1    0    0  503  502  0.00000000000E+00  0.00000000000E+00  0.49661128980E+03  0.49661128980E+03  0.00000000000E+00 0. -1.
         21   -1    0    0  502  503 -0.00000000000E+00 -0.00000000000E+00 -0.78593947494E+01  0.78593947494E+01  0.00000000000E+00 0. -1.
         25    2    1    2    0    0  0.00000000000E+00  0.00000000000E+00  0.48875189505E+03  0.50447068455E+03  0.12494901622E+03 0.  0.
          4    1    3    3  501    0 -0.61839487617E+02 -0.35665968031E+01  0.27662949473E+03  0.28348390200E+03  0.15500000000E+01 0.  1.
         -4    1    3    3    0  501  0.61839487617E+02  0.35665968031E+01  0.21212240033E+03  0.22098678255E+03  0.15500000000E+01 0.  1.
<mgrwt>
<rscale>  2 0.12494902E+03</rscale>
<asrwt>0</asrwt>
<pdfrwt beam="1">  1       21 0.76401712E-01 0.12494902E+03</pdfrwt>
<pdfrwt beam="2">  1       21 0.12091380E-02 0.12494902E+03</pdfrwt>
<totfact> 0.41855761E+06</totfact>
</mgrwt>
</event>
<event>
 5    0  0.1499635E+000  0.1250009E+03  0.7546771E-02  0.1235068E+00
         21   -1    0    0  503  502  0.00000000000E+00  0.00000000000E+00  0.20804035088E+02  0.20804035088E+02  0.00000000000E+00 0. -1.
         21   -1    0    0  502  503 -0.00000000000E+00 -0.00000000000E+00 -0.18776671709E+03  0.18776671709E+03  0.00000000000E+00 0. -1.
         25    2    1    2    0    0  0.00000000000E+00  0.00000000000E+00 -0.16696268201E+03  0.20857075218E+03  0.12500088593E+03 0.  0.
          4    1    3    3  501    0  0.50431776472E+02  0.31966924905E+02 -0.11418702279E+03  0.12886553861E+03  0.15500000000E+01 0. -1.
         -4    1    3    3    0  501 -0.50431776472E+02 -0.31966924905E+02 -0.52775659213E+02  0.79705213577E+02  0.15500000000E+01 0. -1.
<mgrwt>
<rscale>  2 0.12500089E+03</rscale>
<asrwt>0</asrwt>
<pdfrwt beam="1">  1       21 0.32006206E-02 0.12500089E+03</pdfrwt>
<pdfrwt beam="2">  1       21 0.28887189E-01 0.12500089E+03</pdfrwt>
<totfact> 0.64008788E+06</totfact>
</mgrwt>
</event>
<event>
 5    0  0.1250287E+000  0.1250016E+03  0.7546771E-02  0.1235067E+00
         21   -1    0    0  503  502  0.00000000000E+00  0.00000000000E+00  0.63634111031E+03  0.63634111031E+03  0.00000000000E+00 0. -1.
         21   -1    0    0  502  503 -0.00000000000E+00 -0.00000000000E+00 -0.61387644524E+01  0.61387644524E+01  0.00000000000E+00 0. -1.
         25    2    1    2    0    0  0.00000000000E+00  0.00000000000E+00  0.63020234586E+03  0.64247987476E+03  0.12500157099E+03 0.  0.
          4    1    3    3  501    0 -0.58275120554E+02 -0.15616951787E+02  0.39862319154E+03  0.40316588422E+03  0.15500000000E+01 0. -1.
         -4    1    3    3    0  501  0.58275120554E+02  0.15616951787E+02  0.23157915431E+03  0.23931399054E+03  0.15500000000E+01 0. -1.
<mgrwt>
<rscale>  2 0.12500157E+03</rscale>
<asrwt>0</asrwt>
<pdfrwt beam="1">  1       21 0.97898580E-01 0.12500157E+03</pdfrwt>
<pdfrwt beam="2">  1       21 0.94442580E-03 0.12500157E+03</pdfrwt>
<totfact> 0.35237876E+06</totfact>
</mgrwt>
</event>
<event>
 5    0  0.1222151E+000  0.1249410E+03  0.7546771E-02  0.1235162E+00
         21   -1    0    0  503  502  0.00000000000E+00  0.00000000000E+00  0.56990054293E+01  0.56990054293E+01  0.00000000000E+00 0.  1.
         21   -1    0    0  502  503 -0.00000000000E+00 -0.00000000000E+00 -0.68477946008E+03  0.68477946008E+03  0.00000000000E+00 0.  1.
         25    2    1    2    0    0  0.00000000000E+00  0.00000000000E+00 -0.67908045465E+03  0.69047846551E+03  0.12494097584E+03 0.  0.
          4    1    3    3  501    0  0.56424676842E+01 -0.36661380722E+02 -0.61719984720E+03  0.61831541155E+03  0.15500000000E+01 0.  1.
         -4    1    3    3    0  501 -0.56424676842E+01  0.36661380722E+02 -0.61880607447E+02  0.72163053954E+02  0.15500000000E+01 0.  1.
<mgrwt>
<rscale>  2 0.12494098E+03</rscale>
<asrwt>0</asrwt>
<pdfrwt beam="1">  1       21 0.87677042E-03 0.12494098E+03</pdfrwt>
<pdfrwt beam="2">  1       21 0.10535064E+00 0.12494098E+03</pdfrwt>
<totfact> 0.33329231E+06</totfact>
</mgrwt>
</event>
<event>
 5    0  0.1670788E+000  0.1249994E+03  0.7546771E-02  0.1235070E+00
         21   -1    0    0  503  502  0.00000000000E+00  0.00000000000E+00  0.77894522178E+02  0.77894522178E+02  0.00000000000E+00 0.  1.
         21   -1    0    0  502  503 -0.00000000000E+00 -0.00000000000E+00 -0.50147468110E+02  0.50147468110E+02  0.00000000000E+00 0.  1.
         25    2    1    2    0    0  0.00000000000E+00  0.00000000000E+00  0.27747054068E+02  0.12804199029E+03  0.12499940907E+03 0.  0.
          4    1    3    3  501    0 -0.56643293449E+02  0.24671831838E+02  0.23408625918E+02  0.66087277492E+02  0.15500000000E+01 0. -1.
         -4    1    3    3    0  501  0.56643293449E+02 -0.24671831838E+02  0.43384281501E+01  0.61954712797E+02  0.15500000000E+01 0. -1.
<mgrwt>
<rscale>  2 0.12499941E+03</rscale>
<asrwt>0</asrwt>
<pdfrwt beam="1">  1       21 0.11983773E-01 0.12499941E+03</pdfrwt>
<pdfrwt beam="2">  1       21 0.77149950E-02 0.12499941E+03</pdfrwt>
<totfact> 0.73628998E+06</totfact>
</mgrwt>
</event>
<event>
 5    0  0.1419166E+000  0.1250001E+03  0.7546771E-02  0.1235069E+00
         21   -1    0    0  503  502  0.00000000000E+00  0.00000000000E+00  0.40976741325E+03  0.40976741325E+03  0.00000000000E+00 0.  1.
         21   -1    0    0  502  503 -0.00000000000E+00 -0.00000000000E+00 -0.95328626038E+01  0.95328626038E+01  0.00000000000E+00 0.  1.
         25    2    1    2    0    0  0.00000000000E+00  0.00000000000E+00  0.40023455065E+03  0.41930027586E+03  0.12500010320E+03 0.  0.
          4    1    3    3  501    0 -0.50214432958E+02  0.35491847742E+02  0.23727297181E+03  0.24511635235E+03  0.15500000000E+01 0.  1.
         -4    1    3    3    0  501  0.50214432958E+02 -0.35491847742E+02  0.16296157883E+03  0.17418392351E+03  0.15500000000E+01 0.  1.
<mgrwt>
<rscale>  2 0.12500010E+03</rscale>
<asrwt>0</asrwt>
<pdfrwt beam="1">  1       21 0.63041127E-01 0.12500010E+03</pdfrwt>
<pdfrwt beam="2">  1       21 0.14665946E-02 0.12500010E+03</pdfrwt>
<totfact> 0.46786874E+06</totfact>
</mgrwt>
</event>
<event>
 5    0  0.1222151E+000  0.1249996E+03  0.7546771E-02  0.1235070E+00
         21   -1    0    0  503  502  0.00000000000E+00  0.00000000000E+00  0.21825637561E+01  0.21825637561E+01  0.00000000000E+00 0. -1.
         21   -1    0    0  502  503 -0.00000000000E+00 -0.00000000000E+00 -0.17897428757E+04  0.17897428757E+04  0.00000000000E+00 0. -1.
         25    2    1    2    0    0  0.00000000000E+00  0.00000000000E+00 -0.17875603119E+04  0.17919254394E+04  0.12499964693E+03 0.  0.
          4    1    3    3  501    0  0.27567106076E+02  0.19422684637E+02 -0.16478080789E+04  0.16481538318E+04  0.15500000000E+01 0.  1.
         -4    1    3    3    0  501 -0.27567106076E+02 -0.19422684637E+02 -0.13975223302E+03  0.14377160759E+03  0.15500000000E+01 0.  1.
<mgrwt>
<rscale>  2 0.12499965E+03</rscale>
<asrwt>0</asrwt>
<pdfrwt beam="1">  1       21 0.33577791E-03 0.12499965E+03</pdfrwt>
<pdfrwt beam="2">  1       21 0.27534599E+00 0.12499965E+03</pdfrwt>
<totfact> 0.10163158E+06</totfact>
</mgrwt>
</event>
<event>
 5    0  0.1532115E+000  0.1250206E+03  0.7546771E-02  0.1235037E+00
         21   -1    0    0  503  502  0.00000000000E+00  0.00000000000E+00  0.11521911187E+03  0.11521911187E+03  0.00000000000E+00 0. -1.
         21   -1    0    0  502  503 -0.00000000000E+00 -0.00000000000E+00 -0.33913955061E+02  0.33913955061E+02  0.00000000000E+00 0. -1.
         25    2    1    2    0    0  0.00000000000E+00  0.00000000000E+00  0.81305156805E+02  0.14913306693E+03  0.12502057082E+03 0.  0.
          4    1    3    3  501    0  0.36091742378E+02 -0.24446533755E+02  0.94064395954E+02  0.10368587159E+03  0.15500000000E+01 0. -1.
         -4    1    3    3    0  501 -0.36091742378E+02  0.24446533755E+02 -0.12759239149E+02  0.45447195339E+02  0.15500000000E+01 0. -1.
<mgrwt>
<rscale>  2 0.12502057E+03</rscale>
<asrwt>0</asrwt>
<pdfrwt beam="1">  1       21 0.17726017E-01 0.12502057E+03</pdfrwt>
<pdfrwt beam="2">  1       21 0.52175316E-02 0.12502057E+03</pdfrwt>
<totfact> 0.70831174E+06</totfact>
</mgrwt>
</event>
<event>
 5    0  0.1415145E+000  0.1250026E+03  0.7546771E-02  0.1235065E+00
         21   -1    0    0  503  502  0.00000000000E+00  0.00000000000E+00  0.61227619765E+02  0.61227619765E+02  0.00000000000E+00 0. -1.
         21   -1    0    0  502  503 -0.00000000000E+00 -0.00000000000E+00 -0.63801520782E+02  0.63801520782E+02  0.00000000000E+00 0. -1.
         25    2    1    2    0    0  0.00000000000E+00  0.00000000000E+00 -0.25739010172E+01  0.12502914055E+03  0.12500264405E+03 0.  0.
          4    1    3    3  501    0  0.23253599751E+02 -0.93497529241E+01 -0.58534255028E+02  0.63693086695E+02  0.15500000000E+01 0.  1.
         -4    1    3    3    0  501 -0.23253599751E+02  0.93497529241E+01  0.55960354010E+02  0.61336053851E+02  0.15500000000E+01 0.  1.
<mgrwt>
<rscale>  2 0.12500264E+03</rscale>
<asrwt>0</asrwt>
<pdfrwt beam="1">  1       21 0.94196337E-02 0.12500264E+03</pdfrwt>
<pdfrwt beam="2">  1       21 0.98156186E-02 0.12500264E+03</pdfrwt>
<totfact> 0.74034641E+06</totfact>
</mgrwt>
</event>
<event>
 5    0  0.1222151E+000  0.1249989E+03  0.7546771E-02  0.1235071E+00
         21   -1    0    0  503  502  0.00000000000E+00  0.00000000000E+00  0.76623439371E+01  0.76623439371E+01  0.00000000000E+00 0.  1.
         21   -1    0    0  502  503 -0.00000000000E+00 -0.00000000000E+00 -0.50978940918E+03  0.50978940918E+03  0.00000000000E+00 0.  1.
         25    2    1    2    0    0  0.00000000000E+00  0.00000000000E+00 -0.50212706524E+03  0.51745175312E+03  0.12499890861E+03 0.  0.
          4    1    3    3  501    0 -0.28912171332E+02  0.43140343743E+02 -0.10725752084E+03  0.11917877826E+03  0.15500000000E+01 0.  1.
         -4    1    3    3    0  501  0.28912171332E+02 -0.43140343743E+02 -0.39486954440E+03  0.39827297486E+03  0.15500000000E+01 0.  1.
<mgrwt>
<rscale>  2 0.12499891E+03</rscale>
<asrwt>0</asrwt>
<pdfrwt beam="1">  1       21 0.11788217E-02 0.12499891E+03</pdfrwt>
<pdfrwt beam="2">  1       21 0.78429167E-01 0.12499891E+03</pdfrwt>
<totfact> 0.41114274E+06</totfact>
</mgrwt>
</event>
<event>
 5    0  0.1383978E+000  0.1250003E+03  0.7546771E-02  0.1235069E+00
         21   -1    0    0  503  502  0.00000000000E+00  0.00000000000E+00  0.10225922687E+02  0.10225922687E+02  0.00000000000E+00 0. -1.
         21   -1    0    0  502  503 -0.00000000000E+00 -0.00000000000E+00 -0.38199681190E+03  0.38199681190E+03  0.00000000000E+00 0. -1.
         25    2    1    2    0    0  0.00000000000E+00  0.00000000000E+00 -0.37177088921E+03  0.39222273458E+03  0.12500031784E+03 0.  0.
          4    1    3    3  501    0 -0.13169210581E+02 -0.61061829142E+02 -0.18156911775E+03  0.19202010860E+03  0.15500000000E+01 0. -1.
         -4    1    3    3    0  501  0.13169210581E+02  0.61061829142E+02 -0.19020177146E+03  0.20020262598E+03  0.15500000000E+01 0. -1.
<mgrwt>
<rscale>  2 0.12500032E+03</rscale>
<asrwt>0</asrwt>
<pdfrwt beam="1">  1       21 0.15732191E-02 0.12500032E+03</pdfrwt>
<pdfrwt beam="2">  1       21 0.58768732E-01 0.12500032E+03</pdfrwt>
<totfact> 0.48561140E+06</totfact>
</mgrwt>
</event>
<event>
 5    0  0.1222151E+000  0.1249954E+03  0.7546771E-02  0.1235077E+00
         21   -1    0    0  503  502  0.00000000000E+00  0.00000000000E+00  0.84672909491E+03  0.84672909491E+03  0.00000000000E+00 0. -1.
         21   -1    0    0  502  503 -0.00000000000E+00 -0.00000000000E+00 -0.46129986996E+01  0.46129986996E+01  0.00000000000E+00 0. -1.
         25    2    1    2    0    0  0.00000000000E+00  0.00000000000E+00  0.84211609621E+03  0.85134209361E+03  0.12499536333E+03 0.  0.
          4    1    3    3  501    0 -0.32579612726E+02 -0.21762089382E+02  0.89583350177E+02  0.97788541397E+02  0.15500000000E+01 0. -1.
         -4    1    3    3    0  501  0.32579612726E+02  0.21762089382E+02  0.75253274604E+03  0.75355355222E+03  0.15500000000E+01 0. -1.
<mgrwt>
<rscale>  2 0.12499536E+03</rscale>
<asrwt>0</asrwt>
<pdfrwt beam="1">  1       21 0.13026589E+00 0.12499536E+03</pdfrwt>
<pdfrwt beam="2">  1       21 0.70969278E-03 0.12499536E+03</pdfrwt>
<totfact> 0.27733971E+06</totfact>
</mgrwt>
</event>
<event>
 5    0  0.1645354E+000  0.1249992E+03  0.7546771E-02  0.1235071E+00
         21   -1    0    0  503  502  0.00000000000E+00  0.00000000000E+00  0.24974223646E+02  0.24974223646E+02  0.00000000000E+00 0. -1.
         21   -1    0    0  502  503 -0.00000000000E+00 -0.00000000000E+00 -0.15640926717E+03  0.15640926717E+03  0.00000000000E+00 0. -1.
         25    2    1    2    0    0  0.00000000000E+00  0.00000000000E+00 -0.13143504353E+03  0.18138349082E+03  0.12499920030E+03 0.  0.
          4    1    3    3  501    0  0.46098430076E+02 -0.41251297557E+02 -0.52979186691E+02  0.81461227146E+02  0.15500000000E+01 0.  1.
         -4    1    3    3    0  501 -0.46098430076E+02  0.41251297557E+02 -0.78455856834E+02  0.99922263671E+02  0.15500000000E+01 0.  1.
<mgrwt>
<rscale>  2 0.12499920E+03</rscale>
<asrwt>0</asrwt>
<pdfrwt beam="1">  1       21 0.38421883E-02 0.12499920E+03</pdfrwt>
<pdfrwt beam="2">  1       21 0.24062964E-01 0.12499920E+03</pdfrwt>
<totfact> 0.66994539E+06</totfact>
</mgrwt>
</event>
<event>
 5    0  0.1493767E+000  0.1250029E+03  0.7546771E-02  0.1235065E+00
         21   -1    0    0  503  502  0.00000000000E+00  0.00000000000E+00  0.22589576313E+03  0.22589576313E+03  0.00000000000E+00 0. -1.
         21   -1    0    0  502  503 -0.00000000000E+00 -0.00000000000E+00 -0.17293077179E+02  0.17293077179E+02  0.00000000000E+00 0. -1.
         25    2    1    2    0    0  0.00000000000E+00  0.00000000000E+00  0.20860268595E+03  0.24318884031E+03  0.12500292582E+03 0.  0.
          4    1    3    3  501    0 -0.46195000728E+02  0.52248868445E+00  0.22458064782E+02  0.51390838293E+02  0.15500000000E+01 0.  1.
         -4    1    3    3    0  501  0.46195000728E+02 -0.52248868445E+00  0.18614462117E+03  0.19179800201E+03  0.15500000000E+01 0.  1.
<mgrwt>
<rscale>  2 0.12500293E+03</rscale>
<asrwt>0</asrwt>
<pdfrwt beam="1">  1       21 0.34753192E-01 0.12500293E+03</pdfrwt>
<pdfrwt beam="2">  1       21 0.26604736E-02 0.12500293E+03</pdfrwt>
<totfact> 0.60520978E+06</totfact>
</mgrwt>
</event>
<event>
 5    0  0.1222151E+000  0.1250003E+03  0.7546771E-02  0.1235069E+00
         21   -1    0    0  503  502  0.00000000000E+00  0.00000000000E+00  0.12704636088E+04  0.12704636088E+04  0.00000000000E+00 0.  1.
         21   -1    0    0  502  503 -0.00000000000E+00 -0.00000000000E+00 -0.30746802216E+01  0.30746802216E+01  0.00000000000E+00 0.  1.
         25    2    1    2    0    0  0.00000000000E+00  0.00000000000E+00  0.12673889286E+04  0.12735382890E+04  0.12500030928E+03 0.  0.
          4    1    3    3  501    0  0.58182499758E+02  0.15078352821E+02  0.80758512252E+03  0.80982016066E+03  0.15500000000E+01 0.  1.
         -4    1    3    3    0  501 -0.58182499758E+02 -0.15078352821E+02  0.45980380606E+03  0.46371812835E+03  0.15500000000E+01 0.  1.
<mgrwt>
<rscale>  2 0.12500031E+03</rscale>
<asrwt>0</asrwt>
<pdfrwt beam="1">  1       21 0.19545552E+00 0.12500031E+03</pdfrwt>
<pdfrwt beam="2">  1       21 0.47302874E-03 0.12500031E+03</pdfrwt>
<totfact> 0.17734179E+06</totfact>
</mgrwt>
</event>
<event>
 5    0  0.1461168E+000  0.1249987E+03  0.7546771E-02  0.1235071E+00
         21   -1    0    0  503  502  0.00000000000E+00  0.00000000000E+00  0.28596891306E+03  0.28596891306E+03  0.00000000000E+00 0. -1.
         21   -1    0    0  502  503 -0.00000000000E+00 -0.00000000000E+00 -0.13659423562E+02  0.13659423562E+02  0.00000000000E+00 0. -1.
         25    2    1    2    0    0  0.00000000000E+00  0.00000000000E+00  0.27230948950E+03  0.29962833662E+03  0.12499872814E+03 0.  0.
          4    1    3    3  501    0  0.48112561952E+02 -0.35946692398E+02  0.17744979902E+03  0.18734411382E+03  0.15500000000E+01 0. -1.
         -4    1    3    3    0  501 -0.48112561952E+02  0.35946692398E+02  0.94859690475E+02  0.11228422280E+03  0.15500000000E+01 0. -1.
<mgrwt>
<rscale>  2 0.12499873E+03</rscale>
<asrwt>0</asrwt>
<pdfrwt beam="1">  1       21 0.43995213E-01 0.12499873E+03</pdfrwt>
<pdfrwt beam="2">  1       21 0.21014500E-02 0.12499873E+03</pdfrwt>
<totfact> 0.55488850E+06</totfact>
</mgrwt>
</event>
<event>
 5    0  0.1529330E+000  0.1250028E+03  0.7546771E-02  0.1235065E+00
         21   -1    0    0  503  502  0.00000000000E+00  0.00000000000E+00  0.92881875957E+02  0.92881875957E+02  0.00000000000E+00 0.  1.
         21   -1    0    0  502  503 -0.00000000000E+00 -0.00000000000E+00 -0.42057974511E+02  0.42057974511E+02  0.00000000000E+00 0.  1.
         25    2    1    2    0    0  0.00000000000E+00  0.00000000000E+00  0.50823901446E+02  0.13493985047E+03  0.12500277711E+03 0.  0.
          4    1    3    3  501    0  0.51369049203E+02 -0.15619655940E+02  0.59909676716E+02  0.80463188676E+02  0.15500000000E+01 0.  1.
         -4    1    3    3    0  501 -0.51369049203E+02  0.15619655940E+02 -0.90857752700E+01  0.54476661792E+02  0.15500000000E+01 0.  1.
<mgrwt>
<rscale>  2 0.12500278E+03</rscale>
<asrwt>0</asrwt>
<pdfrwt beam="1">  1       21 0.14289519E-01 0.12500278E+03</pdfrwt>
<pdfrwt beam="2">  1       21 0.64704576E-02 0.12500278E+03</pdfrwt>
<totfact> 0.72699287E+06</totfact>
</mgrwt>
</event>
<event>
 5    0  0.1524987E+000  0.1249969E+03  0.7546771E-02  0.1235074E+00
         21   -1    0    0  503  502  0.00000000000E+00  0.00000000000E+00  0.20744647420E+03  0.20744647420E+03  0.00000000000E+00 0.  1.
         21   -1    0    0  502  503 -0.00000000000E+00 -0.00000000000E+00 -0.18829219984E+02  0.18829219984E+02  0.00000000000E+00 0.  1.
         25    2    1    2    0    0  0.00000000000E+00  0.00000000000E+00  0.18861725422E+03  0.22627569419E+03  0.12499688472E+03 0.  0.
          4    1    3    3  501    0 -0.24993798448E+02  0.56829191647E+02  0.10703274675E+03  0.12374432658E+03  0.15500000000E+01 0.  1.
         -4    1    3    3    0  501  0.24993798448E+02 -0.56829191647E+02  0.81584507470E+02  0.10253136761E+03  0.15500000000E+01 0.  1.
<mgrwt>
<rscale>  2 0.12499688E+03</rscale>
<asrwt>0</asrwt>
<pdfrwt beam="1">  1       21 0.31914841E-01 0.12499688E+03</pdfrwt>
<pdfrwt beam="2">  1       21 0.28968032E-02 0.12499688E+03</pdfrwt>
<totfact> 0.62191469E+06</totfact>
</mgrwt>
</event>
<event>
 5    0  0.1475413E+000  0.1250009E+03  0.7546771E-02  0.1235068E+00
         21   -1    0    0  503  502  0.00000000000E+00  0.00000000000E+00  0.63060854907E+02  0.63060854907E+02  0.00000000000E+00 0.  1.
         21   -1    0    0  502  503 -0.00000000000E+00 -0.00000000000E+00 -0.61945026219E+02  0.61945026219E+02  0.00000000000E+00 0.  1.
         25    2    1    2    0    0  0.00000000000E+00  0.00000000000E+00  0.11158286882E+01  0.12500588113E+03  0.12500090097E+03 0.  0.
          4    1    3    3  501    0 -0.14349533444E+02 -0.26831921594E+02  0.55131534209E+02  0.62990076129E+02  0.15500000000E+01 0. -1.
         -4    1    3    3    0  501  0.14349533444E+02  0.26831921594E+02 -0.54015705521E+02  0.62015804997E+02  0.15500000000E+01 0. -1.
<mgrwt>
<rscale>  2 0.12500090E+03</rscale>
<asrwt>0</asrwt>
<pdfrwt beam="1">  1       21 0.97016699E-02 0.12500090E+03</pdfrwt>
<pdfrwt beam="2">  1       21 0.95300041E-02 0.12500090E+03</pdfrwt>
<totfact> 0.74041082E+06</totfact>
</mgrwt>
</event>
<event>
 5    0  0.1410896E+000  0.1249860E+03  0.7546771E-02  0.1235091E+00
         21   -1    0    0  503  502  0.00000000000E+00  0.00000000000E+00  0.11944283629E+02  0.11944283629E+02  0.00000000000E+00 0.  1.
         21   -1    0    0  502  503 -0.00000000000E+00 -0.00000000000E+00 -0.32696585244E+03  0.32696585244E+03  0.00000000000E+00 0.  1.
         25    2    1    2    0    0  0.00000000000E+00  0.00000000000E+00 -0.31502156881E+03  0.33891013607E+03  0.12498596527E+03 0.  0.
          4    1    3    3  501    0  0.20121361336E+02  0.58256454989E+02 -0.18520172226E+03  0.19519417040E+03  0.15500000000E+01 0. -1.
         -4    1    3    3    0  501 -0.20121361336E+02 -0.58256454989E+02 -0.12981984655E+03  0.14371596567E+03  0.15500000000E+01 0. -1.
<mgrwt>
<rscale>  2 0.12498597E+03</rscale>
<asrwt>0</asrwt>
<pdfrwt beam="1">  1       21 0.18375821E-02 0.12498597E+03</pdfrwt>
<pdfrwt beam="2">  1       21 0.50302438E-01 0.12498597E+03</pdfrwt>
<totfact> 0.52386451E+06</totfact>
</mgrwt>
</event>
<event>
 5    0  0.1428058E+000  0.1250057E+03  0.7546771E-02  0.1235060E+00
         21   -1    0    0  503  502  0.00000000000E+00  0.00000000000E+00  0.23203303594E+03  0.23203303594E+03  0.00000000000E+00 0. -1.
         21   -1    0    0  502  503 -0.00000000000E+00 -0.00000000000E+00 -0.16836421914E+02  0.16836421914E+02  0.00000000000E+00 0. -1.
         25    2    1    2    0    0  0.00000000000E+00  0.00000000000E+00  0.21519661402E+03  0.24886945785E+03  0.12500569733E+03 0.  0.
          4    1    3    3  501    0 -0.32776675065E+02  0.16034977017E+02  0.20857996613E+03  0.21175324245E+03  0.15500000000E+01 0. -1.
         -4    1    3    3    0  501  0.32776675065E+02 -0.16034977017E+02  0.66166478891E+01  0.37116215400E+02  0.15500000000E+01 0. -1.
<mgrwt>
<rscale>  2 0.12500570E+03</rscale>
<asrwt>0</asrwt>
<pdfrwt beam="1">  1       21 0.35697388E-01 0.12500570E+03</pdfrwt>
<pdfrwt beam="2">  1       21 0.25902189E-02 0.12500570E+03</pdfrwt>
<totfact> 0.59976178E+06</totfact>
</mgrwt>
</event>
<event>
 5    0  0.1222151E+000  0.1249944E+03  0.7546771E-02  0.1235078E+00
         21   -1    0    0  503  502  0.00000000000E+00  0.00000000000E+00  0.18393084280E+04  0.18393084280E+04  0.00000000000E+00 0.  1.
         21   -1    0    0  502  503 -0.00000000000E+00 -0.00000000000E+00 -0.21235705613E+01  0.21235705613E+01  0.00000000000E+00 0.  1.
         25    2    1    2    0    0  0.00000000000E+00  0.00000000000E+00  0.18371848575E+04  0.18414319986E+04  0.12499441957E+03 0.  0.
          4    1    3    3  501    0 -0.21051821195E+02 -0.39737357709E+02  0.27960884883E+03  0.28320619276E+03  0.15500000000E+01 0. -1.
         -4    1    3    3    0  501  0.21051821195E+02  0.39737357709E+02  0.15575760086E+04  0.15582258058E+04  0.15500000000E+01 0. -1.
<mgrwt>
<rscale>  2 0.12499442E+03</rscale>
<asrwt>0</asrwt>
<pdfrwt beam="1">  1       21 0.28296925E+00 0.12499442E+03</pdfrwt>
<pdfrwt beam="2">  1       21 0.32670463E-03 0.12499442E+03</pdfrwt>
<totfact> 0.96027643E+05</totfact>
</mgrwt>
</event>
<event>
 5    0  0.1222151E+000  0.1250012E+03  0.7546771E-02  0.1235067E+00
         21   -1    0    0  503  502  0.00000000000E+00  0.00000000000E+00  0.10971240034E+04  0.10971240034E+04  0.00000000000E+00 0. -1.
         21   -1    0    0  502  503 -0.00000000000E+00 -0.00000000000E+00 -0.35605120689E+01  0.35605120689E+01  0.00000000000E+00 0. -1.
         25    2    1    2    0    0  0.00000000000E+00  0.00000000000E+00  0.10935634913E+04  0.11006845154E+04  0.12500117208E+03 0.  0.
          4    1    3    3  501    0  0.23251669133E+02  0.16338778356E+02  0.56808870237E+02  0.63539326667E+02  0.15500000000E+01 0. -1.
         -4    1    3    3    0  501 -0.23251669133E+02 -0.16338778356E+02  0.10367546211E+04  0.10371451888E+04  0.15500000000E+01 0. -1.
<mgrwt>
<rscale>  2 0.12500117E+03</rscale>
<asrwt>0</asrwt>
<pdfrwt beam="1">  1       21 0.16878804E+00 0.12500117E+03</pdfrwt>
<pdfrwt beam="2">  1       21 0.54777196E-03 0.12500117E+03</pdfrwt>
<totfact> 0.21235610E+06</totfact>
</mgrwt>
</event>
<event>
 5    0  0.1495279E+000  0.1250558E+03  0.7546771E-02  0.1234982E+00
         21   -1    0    0  503  502  0.00000000000E+00  0.00000000000E+00  0.46777965753E+02  0.46777965753E+02  0.00000000000E+00 0.  1.
         21   -1    0    0  502  503 -0.00000000000E+00 -0.00000000000E+00 -0.83580826475E+02  0.83580826475E+02  0.00000000000E+00 0.  1.
         25    2    1    2    0    0  0.00000000000E+00  0.00000000000E+00 -0.36802860722E+02  0.13035879223E+03  0.12505584414E+03 0.  0.
          4    1    3    3  501    0 -0.27077851982E+02  0.30447244041E+02  0.31012219869E+02  0.51228947079E+02  0.15500000000E+01 0. -1.
         -4    1    3    3    0  501  0.27077851982E+02 -0.30447244041E+02 -0.67815080591E+02  0.79129845148E+02  0.15500000000E+01 0. -1.
<mgrwt>
<rscale>  2 0.12505584E+03</rscale>
<asrwt>0</asrwt>
<pdfrwt beam="1">  1       21 0.71966101E-02 0.12505584E+03</pdfrwt>
<pdfrwt beam="2">  1       21 0.12858589E-01 0.12505584E+03</pdfrwt>
<totfact> 0.73212570E+06</totfact>
</mgrwt>
</event>
<event>
 5    0  0.1488289E+000  0.1250020E+03  0.7546771E-02  0.1235066E+00
         21   -1    0    0  503  502  0.00000000000E+00  0.00000000000E+00  0.26971779793E+02  0.26971779793E+02  0.00000000000E+00 0.  1.
         21   -1    0    0  502  503 -0.00000000000E+00 -0.00000000000E+00 -0.14483182451E+03  0.14483182451E+03  0.00000000000E+00 0.  1.
         25    2    1    2    0    0  0.00000000000E+00  0.00000000000E+00 -0.11786004471E+03  0.17180360430E+03  0.12500195323E+03 0.  0.
          4    1    3    3  501    0 -0.26057327342E+02 -0.52354867412E+02 -0.89165520071E+02  0.10664384145E+03  0.15500000000E+01 0.  1.
         -4    1    3    3    0  501  0.26057327342E+02  0.52354867412E+02 -0.28694524641E+02  0.65159762847E+02  0.15500000000E+01 0.  1.
<mgrwt>
<rscale>  2 0.12500195E+03</rscale>
<asrwt>0</asrwt>
<pdfrwt beam="1">  1       21 0.41495046E-02 0.12500195E+03</pdfrwt>
<pdfrwt beam="2">  1       21 0.22281819E-01 0.12500195E+03</pdfrwt>
<totfact> 0.68101093E+06</totfact>
</mgrwt>
</event>
<event>
 5    0  0.1540180E+000  0.1250099E+03  0.7546771E-02  0.1235054E+00
         21   -1    0    0  503  502  0.00000000000E+00  0.00000000000E+00  0.26922077376E+02  0.26922077376E+02  0.00000000000E+00 0. -1.
         21   -1    0    0  502  503 -0.00000000000E+00 -0.00000000000E+00 -0.14511757404E+03  0.14511757404E+03  0.00000000000E+00 0. -1.
         25    2    1    2    0    0  0.00000000000E+00  0.00000000000E+00 -0.11819549666E+03  0.17203965141E+03  0.12500986452E+03 0.  0.
          4    1    3    3  501    0  0.50849251910E+02  0.15896245877E+02 -0.14162334952E+02  0.55148085045E+02  0.15500000000E+01 0. -1.
         -4    1    3    3    0  501 -0.50849251910E+02 -0.15896245877E+02 -0.10403316171E+03  0.11689156637E+03  0.15500000000E+01 0. -1.
<mgrwt>
<rscale>  2 0.12500986E+03</rscale>
<asrwt>0</asrwt>
<pdfrwt beam="1">  1       21 0.41418582E-02 0.12500986E+03</pdfrwt>
<pdfrwt beam="2">  1       21 0.22325780E-01 0.12500986E+03</pdfrwt>
<totfact> 0.68059623E+06</totfact>
</mgrwt>
</event>
<event>
 5    0  0.1564135E+000  0.1249995E+03  0.7546771E-02  0.1235070E+00
         21   -1    0    0  503  502  0.00000000000E+00  0.00000000000E+00  0.14519614173E+03  0.14519614173E+03  0.00000000000E+00 0. -1.
         21   -1    0    0  502  503 -0.00000000000E+00 -0.00000000000E+00 -0.26903039128E+02  0.26903039128E+02  0.00000000000E+00 0. -1.
         25    2    1    2    0    0  0.00000000000E+00  0.00000000000E+00  0.11829310260E+03  0.17209918086E+03  0.12499947971E+03 0.  0.
          4    1    3    3  501    0  0.25312495156E+02  0.48129209318E+02  0.16785150409E+02  0.56932301682E+02  0.15500000000E+01 0. -1.
         -4    1    3    3    0  501 -0.25312495156E+02 -0.48129209318E+02  0.10150795219E+03  0.11516687918E+03  0.15500000000E+01 0. -1.
<mgrwt>
<rscale>  2 0.12499948E+03</rscale>
<asrwt>0</asrwt>
<pdfrwt beam="1">  1       21 0.22337867E-01 0.12499948E+03</pdfrwt>
<pdfrwt beam="2">  1       21 0.41389292E-02 0.12499948E+03</pdfrwt>
<totfact> 0.68070556E+06</totfact>
</mgrwt>
</event>
<event>
 5    0  0.1317851E+000  0.1250012E+03  0.7546771E-02  0.1235067E+00
         21   -1    0    0  503  502  0.00000000000E+00  0.00000000000E+00  0.57845255108E+03  0.57845255108E+03  0.00000000000E+00 0.  1.
         21   -1    0    0  502  503 -0.00000000000E+00 -0.00000000000E+00 -0.67530560896E+01  0.67530560896E+01  0.00000000000E+00 0.  1.
         25    2    1    2    0    0  0.00000000000E+00  0.00000000000E+00  0.57169949499E+03  0.58520560717E+03  0.12500116036E+03 0.  0.
          4    1    3    3  501    0 -0.49037430923E+02 -0.38652702664E+02  0.27515460079E+03  0.28215449295E+03  0.15500000000E+01 0.  1.
         -4    1    3    3    0  501  0.49037430923E+02  0.38652702664E+02  0.29654489420E+03  0.30305111422E+03  0.15500000000E+01 0.  1.
<mgrwt>
<rscale>  2 0.12500116E+03</rscale>
<asrwt>0</asrwt>
<pdfrwt beam="1">  1       21 0.88992661E-01 0.12500116E+03</pdfrwt>
<pdfrwt beam="2">  1       21 0.10389322E-02 0.12500116E+03</pdfrwt>
<totfact> 0.37769273E+06</totfact>
</mgrwt>
</event>
<event>
 5    0  0.1245151E+000  0.1249995E+03  0.7546771E-02  0.1235070E+00
         21   -1    0    0  503  502  0.00000000000E+00  0.00000000000E+00  0.51078588375E+03  0.51078588375E+03  0.00000000000E+00 0. -1.
         21   -1    0    0  502  503 -0.00000000000E+00 -0.00000000000E+00 -0.76474731397E+01  0.76474731397E+01  0.00000000000E+00 0. -1.
         25    2    1    2    0    0  0.00000000000E+00  0.00000000000E+00  0.50313841061E+03  0.51843335689E+03  0.12499954122E+03 0.  0.
          4    1    3    3  501    0 -0.15697532361E+02 -0.20504046719E+02  0.15600058742E+02  0.30209150713E+02  0.15500000000E+01 0. -1.
         -4    1    3    3    0  501  0.15697532361E+02  0.20504046719E+02  0.48753835187E+03  0.48822420618E+03  0.15500000000E+01 0. -1.
<mgrwt>
<rscale>  2 0.12499954E+03</rscale>
<asrwt>0</asrwt>
<pdfrwt beam="1">  1       21 0.78582417E-01 0.12499954E+03</pdfrwt>
<pdfrwt beam="2">  1       21 0.11765347E-02 0.12499954E+03</pdfrwt>
<totfact> 0.41062191E+06</totfact>
</mgrwt>
</event>
<event>
 5    0  0.1566934E+000  0.1250019E+03  0.7546771E-02  0.1235066E+00
         21   -1    0    0  503  502  0.00000000000E+00  0.00000000000E+00  0.51548314969E+02  0.51548314969E+02  0.00000000000E+00 0. -1.
         21   -1    0    0  502  503 -0.00000000000E+00 -0.00000000000E+00 -0.75780768711E+02  0.75780768711E+02  0.00000000000E+00 0. -1.
         25    2    1    2    0    0  0.00000000000E+00  0.00000000000E+00 -0.24232453742E+02  0.12732908368E+03  0.12500193493E+03 0.  0.
          4    1    3    3  501    0  0.60182164740E+02 -0.16315337725E+02 -0.80563980975E+01  0.62891901292E+02  0.15500000000E+01 0.  1.
         -4    1    3    3    0  501 -0.60182164740E+02  0.16315337725E+02 -0.16176055645E+02  0.64437182388E+02  0.15500000000E+01 0.  1.
<mgrwt>
<rscale>  2 0.12500193E+03</rscale>
<asrwt>0</asrwt>
<pdfrwt beam="1">  1       21 0.79305100E-02 0.12500193E+03</pdfrwt>
<pdfrwt beam="2">  1       21 0.11658580E-01 0.12500193E+03</pdfrwt>
<totfact> 0.73720762E+06</totfact>
</mgrwt>
</event>
<event>
 5    0  0.1484665E+000  0.1250001E+03  0.7546771E-02  0.1235069E+00
         21   -1    0    0  503  502  0.00000000000E+00  0.00000000000E+00  0.21439861839E+03  0.21439861839E+03  0.00000000000E+00 0. -1.
         21   -1    0    0  502  503 -0.00000000000E+00 -0.00000000000E+00 -0.18219587922E+02  0.18219587922E+02  0.00000000000E+00 0. -1.
         25    2    1    2    0    0  0.00000000000E+00  0.00000000000E+00  0.19617903047E+03  0.23261820631E+03  0.12500007165E+03 0.  0.
          4    1    3    3  501    0  0.60336095898E+01 -0.47924957090E+02  0.17184131110E+03  0.17850782800E+03  0.15500000000E+01 0.  1.
         -4    1    3    3    0  501 -0.60336095898E+01  0.47924957090E+02  0.24337719365E+02  0.54110378308E+02  0.15500000000E+01 0.  1.
<mgrwt>
<rscale>  2 0.12500007E+03</rscale>
<asrwt>0</asrwt>
<pdfrwt beam="1">  1       21 0.32984401E-01 0.12500007E+03</pdfrwt>
<pdfrwt beam="2">  1       21 0.28030137E-02 0.12500007E+03</pdfrwt>
<totfact> 0.61554273E+06</totfact>
</mgrwt>
</event>
<event>
 5    0  0.1514474E+000  0.1249837E+03  0.7546771E-02  0.1235095E+00
         21   -1    0    0  503  502  0.00000000000E+00  0.00000000000E+00  0.22464208371E+03  0.22464208371E+03  0.00000000000E+00 0. -1.
         21   -1    0    0  502  503 -0.00000000000E+00 -0.00000000000E+00 -0.17384223588E+02  0.17384223588E+02  0.00000000000E+00 0. -1.
         25    2    1    2    0    0  0.00000000000E+00  0.00000000000E+00  0.20725786013E+03  0.24202630730E+03  0.12498365030E+03 0.  0.
          4    1    3    3  501    0  0.39794999848E+02  0.38912198109E+02  0.48685732760E+02  0.73962857225E+02  0.15500000000E+01 0.  1.
         -4    1    3    3    0  501 -0.39794999848E+02 -0.38912198109E+02  0.15857212737E+03  0.16806345008E+03  0.15500000000E+01 0.  1.
<mgrwt>
<rscale>  2 0.12498365E+03</rscale>
<asrwt>0</asrwt>
<pdfrwt beam="1">  1       21 0.34560319E-01 0.12498365E+03</pdfrwt>
<pdfrwt beam="2">  1       21 0.26744961E-02 0.12498365E+03</pdfrwt>
<totfact> 0.60662143E+06</totfact>
</mgrwt>
</event>
<event>
 5    0  0.1474760E+000  0.1250010E+03  0.7546771E-02  0.1235068E+00
         21   -1    0    0  503  502  0.00000000000E+00  0.00000000000E+00  0.38886428768E+03  0.38886428768E+03  0.00000000000E+00 0. -1.
         21   -1    0    0  502  503 -0.00000000000E+00 -0.00000000000E+00 -0.10045442790E+02  0.10045442790E+02  0.00000000000E+00 0. -1.
         25    2    1    2    0    0  0.00000000000E+00  0.00000000000E+00  0.37881884489E+03  0.39890973047E+03  0.12500102327E+03 0.  0.
          4    1    3    3  501    0 -0.59476758473E+01  0.60562809227E+02  0.14420134079E+03  0.15652366561E+03  0.15500000000E+01 0.  1.
         -4    1    3    3    0  501  0.59476758473E+01 -0.60562809227E+02  0.23461750409E+03  0.24238606486E+03  0.15500000000E+01 0.  1.
<mgrwt>
<rscale>  2 0.12500102E+03</rscale>
<asrwt>0</asrwt>
<pdfrwt beam="1">  1       21 0.59825263E-01 0.12500102E+03</pdfrwt>
<pdfrwt beam="2">  1       21 0.15454530E-02 0.12500102E+03</pdfrwt>
<totfact> 0.48112525E+06</totfact>
</mgrwt>
</event>
<event>
 5    0  0.1453644E+000  0.1250085E+03  0.7546771E-02  0.1235056E+00
         21   -1    0    0  503  502  0.00000000000E+00  0.00000000000E+00  0.58007428934E+02  0.58007428934E+02  0.00000000000E+00 0.  1.
         21   -1    0    0  502  503 -0.00000000000E+00 -0.00000000000E+00 -0.67349651212E+02  0.67349651212E+02  0.00000000000E+00 0.  1.
         25    2    1    2    0    0  0.00000000000E+00  0.00000000000E+00 -0.93422222777E+01  0.12535708015E+03  0.12500848141E+03 0.  0.
          4    1    3    3  501    0  0.31977997716E+02 -0.30893087420E+02 -0.48695728314E+02  0.65959469709E+02  0.15500000000E+01 0.  1.
         -4    1    3    3    0  501 -0.31977997716E+02  0.30893087420E+02  0.39353506036E+02  0.59397610437E+02  0.15500000000E+01 0.  1.
<mgrwt>
<rscale>  2 0.12500848E+03</rscale>
<asrwt>0</asrwt>
<pdfrwt beam="1">  1       21 0.89242198E-02 0.12500848E+03</pdfrwt>
<pdfrwt beam="2">  1       21 0.10361485E-01 0.12500848E+03</pdfrwt>
<totfact> 0.73979325E+06</totfact>
</mgrwt>
</event>
<event>
 5    0  0.1261465E+000  0.1250047E+03  0.7546771E-02  0.1235062E+00
         21   -1    0    0  503  502  0.00000000000E+00  0.00000000000E+00  0.72176589295E+01  0.72176589295E+01  0.00000000000E+00 0. -1.
         21   -1    0    0  502  503 -0.00000000000E+00 -0.00000000000E+00 -0.54124834817E+03  0.54124834817E+03  0.00000000000E+00 0. -1.
         25    2    1    2    0    0  0.00000000000E+00  0.00000000000E+00 -0.53403068924E+03  0.54846600710E+03  0.12500473548E+03 0.  0.
          4    1    3    3  501    0  0.13809465180E+02  0.36525207641E+02 -0.52996241680E+02  0.65846763428E+02  0.15500000000E+01 0. -1.
         -4    1    3    3    0  501 -0.13809465180E+02 -0.36525207641E+02 -0.48103444756E+03  0.48261924367E+03  0.15500000000E+01 0. -1.
<mgrwt>
<rscale>  2 0.12500474E+03</rscale>
<asrwt>0</asrwt>
<pdfrwt beam="1">  1       21 0.11104089E-02 0.12500474E+03</pdfrwt>
<pdfrwt beam="2">  1       21 0.83268992E-01 0.12500474E+03</pdfrwt>
<totfact> 0.39527318E+06</totfact>
</mgrwt>
</event>
<event>
 5    0  0.1627859E+000  0.1249969E+03  0.7546771E-02  0.1235074E+00
         21   -1    0    0  503  502  0.00000000000E+00  0.00000000000E+00  0.11341007966E+03  0.11341007966E+03  0.00000000000E+00 0.  1.
         21   -1    0    0  502  503 -0.00000000000E+00 -0.00000000000E+00 -0.34441896141E+02  0.34441896141E+02  0.00000000000E+00 0.  1.
         25    2    1    2    0    0  0.00000000000E+00  0.00000000000E+00  0.78968183515E+02  0.14785197580E+03  0.12499693092E+03 0.  0.
          4    1    3    3  501    0 -0.54103637851E+02 -0.31176381749E+02  0.36979006979E+02  0.72588014609E+02  0.15500000000E+01 0.  1.
         -4    1    3    3    0  501  0.54103637851E+02  0.31176381749E+02  0.41989176537E+02  0.75263961190E+02  0.15500000000E+01 0.  1.
<mgrwt>
<rscale>  2 0.12499693E+03</rscale>
<asrwt>0</asrwt>
<pdfrwt beam="1">  1       21 0.17447704E-01 0.12499693E+03</pdfrwt>
<pdfrwt beam="2">  1       21 0.52987533E-02 0.12499693E+03</pdfrwt>
<totfact> 0.71035636E+06</totfact>
</mgrwt>
</event>
<event>
 5    0  0.1453048E+000  0.1250011E+03  0.7546771E-02  0.1235067E+00
         21   -1    0    0  503  502  0.00000000000E+00  0.00000000000E+00  0.14276630459E+02  0.14276630459E+02  0.00000000000E+00 0. -1.
         21   -1    0    0  502  503 -0.00000000000E+00 -0.00000000000E+00 -0.27361648764E+03  0.27361648764E+03  0.00000000000E+00 0. -1.
         25    2    1    2    0    0  0.00000000000E+00  0.00000000000E+00 -0.25933985718E+03  0.28789311810E+03  0.12500114370E+03 0.  0.
          4    1    3    3  501    0 -0.58081041115E+02  0.22627336406E+02 -0.13958013218E+03  0.15287386791E+03  0.15500000000E+01 0. -1.
         -4    1    3    3    0  501  0.58081041115E+02 -0.22627336406E+02 -0.11975972500E+03  0.13501925019E+03  0.15500000000E+01 0. -1.
<mgrwt>
<rscale>  2 0.12500114E+03</rscale>
<asrwt>0</asrwt>
<pdfrwt beam="1">  1       21 0.21964048E-02 0.12500114E+03</pdfrwt>
<pdfrwt beam="2">  1       21 0.42094842E-01 0.12500114E+03</pdfrwt>
<totfact> 0.56475931E+06</totfact>
</mgrwt>
</event>
<event>
 5    0  0.1621170E+000  0.1250006E+03  0.7546771E-02  0.1235068E+00
         21   -1    0    0  503  502  0.00000000000E+00  0.00000000000E+00  0.32040774566E+02  0.32040774566E+02  0.00000000000E+00 0. -1.
         21   -1    0    0  502  503 -0.00000000000E+00 -0.00000000000E+00 -0.12191615163E+03  0.12191615163E+03  0.00000000000E+00 0. -1.
         25    2    1    2    0    0  0.00000000000E+00  0.00000000000E+00 -0.89875377061E+02  0.15395692619E+03  0.12500060688E+03 0.  0.
          4    1    3    3  501    0 -0.53482564445E+02 -0.30862739974E+02 -0.56686359578E+02  0.83836980388E+02  0.15500000000E+01 0.  1.
         -4    1    3    3    0  501  0.53482564445E+02  0.30862739974E+02 -0.33189017483E+02  0.70119945806E+02  0.15500000000E+01 0.  1.
<mgrwt>
<rscale>  2 0.12500061E+03</rscale>
<asrwt>0</asrwt>
<pdfrwt beam="1">  1       21 0.49293500E-02 0.12500061E+03</pdfrwt>
<pdfrwt beam="2">  1       21 0.18756331E-01 0.12500061E+03</pdfrwt>
<totfact> 0.70264447E+06</totfact>
</mgrwt>
</event>
<event>
 5    0  0.1382583E+000  0.1250053E+03  0.7546771E-02  0.1235061E+00
         21   -1    0    0  503  502  0.00000000000E+00  0.00000000000E+00  0.25370777229E+03  0.25370777229E+03  0.00000000000E+00 0.  1.
         21   -1    0    0  502  503 -0.00000000000E+00 -0.00000000000E+00 -0.15397963108E+02  0.15397963108E+02  0.00000000000E+00 0.  1.
         25    2    1    2    0    0  0.00000000000E+00  0.00000000000E+00  0.23830980918E+03  0.26910573539E+03  0.12500532657E+03 0.  0.
          4    1    3    3  501    0 -0.42869631516E+02 -0.17041275409E+02  0.28432980404E+02  0.54212980443E+02  0.15500000000E+01 0. -1.
         -4    1    3    3    0  501  0.42869631516E+02  0.17041275409E+02  0.20987682877E+03  0.21489275495E+03  0.15500000000E+01 0. -1.
<mgrwt>
<rscale>  2 0.12500533E+03</rscale>
<asrwt>0</asrwt>
<pdfrwt beam="1">  1       21 0.39031962E-01 0.12500533E+03</pdfrwt>
<pdfrwt beam="2">  1       21 0.23689176E-02 0.12500533E+03</pdfrwt>
<totfact> 0.58116809E+06</totfact>
</mgrwt>
</event>
<event>
 5    0  0.1607803E+000  0.1250005E+03  0.7546771E-02  0.1235069E+00
         21   -1    0    0  503  502  0.00000000000E+00  0.00000000000E+00  0.29035296895E+02  0.29035296895E+02  0.00000000000E+00 0. -1.
         21   -1    0    0  502  503 -0.00000000000E+00 -0.00000000000E+00 -0.13453551562E+03  0.13453551562E+03  0.00000000000E+00 0. -1.
         25    2    1    2    0    0  0.00000000000E+00  0.00000000000E+00 -0.10550021873E+03  0.16357081252E+03  0.12500045822E+03 0.  0.
          4    1    3    3  501    0  0.10331728599E+02  0.61453695483E+02 -0.46814540018E+02  0.77957071273E+02  0.15500000000E+01 0.  1.
         -4    1    3    3    0  501 -0.10331728599E+02 -0.61453695483E+02 -0.58685678711E+02  0.85613741246E+02  0.15500000000E+01 0.  1.
<mgrwt>
<rscale>  2 0.12500046E+03</rscale>
<asrwt>0</asrwt>
<pdfrwt beam="1">  1       21 0.44669687E-02 0.12500046E+03</pdfrwt>
<pdfrwt beam="2">  1       21 0.20697772E-01 0.12500046E+03</pdfrwt>
<totfact> 0.69084987E+06</totfact>
</mgrwt>
</event>
<event>
 5    0  0.1526217E+000  0.1249949E+03  0.7546771E-02  0.1235077E+00
         21   -1    0    0  503  502  0.00000000000E+00  0.00000000000E+00  0.23133290860E+02  0.23133290860E+02  0.00000000000E+00 0.  1.
         21   -1    0    0  502  503 -0.00000000000E+00 -0.00000000000E+00 -0.16884458930E+03  0.16884458930E+03  0.00000000000E+00 0.  1.
         25    2    1    2    0    0  0.00000000000E+00  0.00000000000E+00 -0.14571129844E+03  0.19197788016E+03  0.12499489581E+03 0.  0.
          4    1    3    3  501    0  0.39859487564E+02 -0.35717390619E+02 -0.12236308092E+03  0.13356510328E+03  0.15500000000E+01 0.  1.
         -4    1    3    3    0  501 -0.39859487564E+02  0.35717390619E+02 -0.23348217516E+02  0.58412776879E+02  0.15500000000E+01 0.  1.
<mgrwt>
<rscale>  2 0.12499490E+03</rscale>
<asrwt>0</asrwt>
<pdfrwt beam="1">  1       21 0.35589678E-02 0.12499490E+03</pdfrwt>
<pdfrwt beam="2">  1       21 0.25976091E-01 0.12499490E+03</pdfrwt>
<totfact> 0.65811824E+06</totfact>
</mgrwt>
</event>
<event>
 5    0  0.1280713E+000  0.1250142E+03  0.7546771E-02  0.1235047E+00
         21   -1    0    0  503  502  0.00000000000E+00  0.00000000000E+00  0.51561679374E+03  0.51561679374E+03  0.00000000000E+00 0. -1.
         21   -1    0    0  502  503 -0.00000000000E+00 -0.00000000000E+00 -0.75775963924E+01  0.75775963924E+01  0.00000000000E+00 0. -1.
         25    2    1    2    0    0  0.00000000000E+00  0.00000000000E+00  0.50803919734E+03  0.52319439013E+03  0.12501417449E+03 0.  0.
          4    1    3    3  501    0  0.79943929731E+01 -0.26372834185E+02  0.48873124225E+03  0.48951002681E+03  0.15500000000E+01 0.  1.
         -4    1    3    3    0  501 -0.79943929731E+01  0.26372834185E+02  0.19307955096E+02  0.33684363315E+02  0.15500000000E+01 0.  1.
<mgrwt>
<rscale>  2 0.12501417E+03</rscale>
<asrwt>0</asrwt>
<pdfrwt beam="1">  1       21 0.79325633E-01 0.12501417E+03</pdfrwt>
<pdfrwt beam="2">  1       21 0.11657845E-02 0.12501417E+03</pdfrwt>
<totfact> 0.40799107E+06</totfact>
</mgrwt>
</event>
<event>
 5    0  0.1438695E+000  0.1249924E+03  0.7546771E-02  0.1235081E+00
         21   -1    0    0  503  502  0.00000000000E+00  0.00000000000E+00  0.31334008264E+03  0.31334008264E+03  0.00000000000E+00 0.  1.
         21   -1    0    0  502  503 -0.00000000000E+00 -0.00000000000E+00 -0.12464973679E+02  0.12464973679E+02  0.00000000000E+00 0.  1.
         25    2    1    2    0    0  0.00000000000E+00  0.00000000000E+00  0.30087510896E+03  0.32580505631E+03  0.12499241389E+03 0.  0.
          4    1    3    3  501    0 -0.51441073615E+02  0.23884402249E+02  0.82130511470E+02  0.99822202640E+02  0.15500000000E+01 0. -1.
         -4    1    3    3    0  501  0.51441073615E+02 -0.23884402249E+02  0.21874459749E+03  0.22598285367E+03  0.15500000000E+01 0. -1.
<mgrwt>
<rscale>  2 0.12499241E+03</rscale>
<asrwt>0</asrwt>
<pdfrwt beam="1">  1       21 0.48206161E-01 0.12499241E+03</pdfrwt>
<pdfrwt beam="2">  1       21 0.19176885E-02 0.12499241E+03</pdfrwt>
<totfact> 0.53386664E+06</totfact>
</mgrwt>
</event>
<event>
 5    0  0.1264699E+000  0.1249982E+03  0.7546771E-02  0.1235072E+00
         21   -1    0    0  503  502  0.00000000000E+00  0.00000000000E+00  0.92105208845E+03  0.92105208845E+03  0.00000000000E+00 0. -1.
         21   -1    0    0  502  503 -0.00000000000E+00 -0.00000000000E+00 -0.42409495085E+01  0.42409495085E+01  0.00000000000E+00 0. -1.
         25    2    1    2    0    0  0.00000000000E+00  0.00000000000E+00  0.91681113894E+03  0.92529303796E+03  0.12499816642E+03 0.  0.
          4    1    3    3  501    0  0.10246831734E+02  0.61268721542E+02  0.40881515584E+03  0.41351068662E+03  0.15500000000E+01 0.  1.
         -4    1    3    3    0  501 -0.10246831734E+02 -0.61268721542E+02  0.50799598310E+03  0.51178235134E+03  0.15500000000E+01 0.  1.
<mgrwt>
<rscale>  2 0.12499817E+03</rscale>
<asrwt>0</asrwt>
<pdfrwt beam="1">  1       21 0.14170016E+00 0.12499817E+03</pdfrwt>
<pdfrwt beam="2">  1       21 0.65245450E-03 0.12499817E+03</pdfrwt>
<totfact> 0.25585954E+06</totfact>
</mgrwt>
</event>
<event>
 5    0  0.1568991E+000  0.1250023E+03  0.7546771E-02  0.1235066E+00
         21   -1    0    0  503  502  0.00000000000E+00  0.00000000000E+00  0.60146180957E+02  0.60146180957E+02  0.00000000000E+00 0. -1.
         21   -1    0    0  502  503 -0.00000000000E+00 -0.00000000000E+00 -0.64948350795E+02  0.64948350795E+02  0.00000000000E+00 0. -1.
         25    2    1    2    0    0  0.00000000000E+00  0.00000000000E+00 -0.48021698377E+01  0.12509453175E+03  0.12500232414E+03 0.  0.
          4    1    3    3  501    0  0.86956244476E+00 -0.39914897857E+02  0.45697218508E+02  0.60700852458E+02  0.15500000000E+01 0. -1.
         -4    1    3    3    0  501 -0.86956244476E+00  0.39914897857E+02 -0.50499388346E+02  0.64393679294E+02  0.15500000000E+01 0. -1.
<mgrwt>
<rscale>  2 0.12500232E+03</rscale>
<asrwt>0</asrwt>
<pdfrwt beam="1">  1       21 0.92532587E-02 0.12500232E+03</pdfrwt>
<pdfrwt beam="2">  1       21 0.99920539E-02 0.12500232E+03</pdfrwt>
<totfact> 0.74026415E+06</totfact>
</mgrwt>
</event>
<event>
 5    0  0.1431117E+000  0.1249842E+03  0.7546771E-02  0.1235094E+00
         21   -1    0    0  503  502  0.00000000000E+00  0.00000000000E+00  0.12171723437E+02  0.12171723437E+02  0.00000000000E+00 0. -1.
         21   -1    0    0  502  503 -0.00000000000E+00 -0.00000000000E+00 -0.32084699269E+03  0.32084699269E+03  0.00000000000E+00 0. -1.
         25    2    1    2    0    0  0.00000000000E+00  0.00000000000E+00 -0.30867526925E+03  0.33301871612E+03  0.12498417277E+03 0.  0.
          4    1    3    3  501    0 -0.63683544405E+01 -0.40822517606E+02 -0.29480767606E+02  0.50779445060E+02  0.15500000000E+01 0.  1.
         -4    1    3    3    0  501  0.63683544405E+01  0.40822517606E+02 -0.27919450164E+03  0.28223927106E+03  0.15500000000E+01 0.  1.
<mgrwt>
<rscale>  2 0.12498417E+03</rscale>
<asrwt>0</asrwt>
<pdfrwt beam="1">  1       21 0.18725727E-02 0.12498417E+03</pdfrwt>
<pdfrwt beam="2">  1       21 0.49361078E-01 0.12498417E+03</pdfrwt>
<totfact> 0.52838499E+06</totfact>
</mgrwt>
</event>
<event>
 5    0  0.1222151E+000  0.1250022E+03  0.7546771E-02  0.1235066E+00
         21   -1    0    0  503  502  0.00000000000E+00  0.00000000000E+00  0.91646916380E+03  0.91646916380E+03  0.00000000000E+00 0.  1.
         21   -1    0    0  502  503 -0.00000000000E+00 -0.00000000000E+00 -0.42624352378E+01  0.42624352378E+01  0.00000000000E+00 0.  1.
         25    2    1    2    0    0  0.00000000000E+00  0.00000000000E+00  0.91220672857E+03  0.92073159904E+03  0.12500224731E+03 0.  0.
          4    1    3    3  501    0  0.68595602865E+01 -0.19289483720E+02  0.89092113482E+03  0.89115767894E+03  0.15500000000E+01 0.  1.
         -4    1    3    3    0  501 -0.68595602865E+01  0.19289483720E+02  0.21285593742E+02  0.29573920107E+02  0.15500000000E+01 0.  1.
<mgrwt>
<rscale>  2 0.12500225E+03</rscale>
<asrwt>0</asrwt>
<pdfrwt beam="1">  1       21 0.14099510E+00 0.12500225E+03</pdfrwt>
<pdfrwt beam="2">  1       21 0.65576000E-03 0.12500225E+03</pdfrwt>
<totfact> 0.25710315E+06</totfact>
</mgrwt>
</event>
<event>
 5    0  0.1280185E+000  0.1250192E+03  0.7546771E-02  0.1235039E+00
         21   -1    0    0  503  502  0.00000000000E+00  0.00000000000E+00  0.29768838273E+03  0.29768838273E+03  0.00000000000E+00 0. -1.
         21   -1    0    0  502  503 -0.00000000000E+00 -0.00000000000E+00 -0.13125980819E+02  0.13125980819E+02  0.00000000000E+00 0. -1.
         25    2    1    2    0    0  0.00000000000E+00  0.00000000000E+00  0.28456240191E+03  0.31081436355E+03  0.12501923055E+03 0.  0.
          4    1    3    3  501    0  0.24153102203E+02  0.32231663607E+01 -0.78029423389E+00  0.24428927658E+02  0.15500000000E+01 0.  1.
         -4    1    3    3    0  501 -0.24153102203E+02 -0.32231663607E+01  0.28534269614E+03  0.28638543589E+03  0.15500000000E+01 0.  1.
<mgrwt>
<rscale>  2 0.12501923E+03</rscale>
<asrwt>0</asrwt>
<pdfrwt beam="1">  1       21 0.45798208E-01 0.12501923E+03</pdfrwt>
<pdfrwt beam="2">  1       21 0.20193819E-02 0.12501923E+03</pdfrwt>
<totfact> 0.54542923E+06</totfact>
</mgrwt>
</event>
<event>
 5    0  0.1366474E+000  0.1249983E+03  0.7546771E-02  0.1235072E+00
         21   -1    0    0  503  502  0.00000000000E+00  0.00000000000E+00  0.85511202357E+01  0.85511202357E+01  0.00000000000E+00 0. -1.
         21   -1    0    0  502  503 -0.00000000000E+00 -0.00000000000E+00 -0.45679936262E+03  0.45679936262E+03  0.00000000000E+00 0. -1.
         25    2    1    2    0    0  0.00000000000E+00  0.00000000000E+00 -0.44824824239E+03  0.46535048286E+03  0.12499834036E+03 0.  0.
          4    1    3    3  501    0  0.47743416791E+02 -0.73034530164E+01 -0.37168111505E+03  0.37480932227E+03  0.15500000000E+01 0.  1.
         -4    1    3    3    0  501 -0.47743416791E+02  0.73034530164E+01 -0.76567127339E+02  0.90541160594E+02  0.15500000000E+01 0.  1.
<mgrwt>
<rscale>  2 0.12499834E+03</rscale>
<asrwt>0</asrwt>
<pdfrwt beam="1">  1       21 0.13155568E-02 0.12499834E+03</pdfrwt>
<pdfrwt beam="2">  1       21 0.70276834E-01 0.12499834E+03</pdfrwt>
<totfact> 0.43989570E+06</totfact>
</mgrwt>
</event>
<event>
 5    0  0.1222151E+000  0.1249871E+03  0.7546771E-02  0.1235089E+00
         21   -1    0    0  503  502  0.00000000000E+00  0.00000000000E+00  0.48891099904E+01  0.48891099904E+01  0.00000000000E+00 0.  1.
         21   -1    0    0  502  503 -0.00000000000E+00 -0.00000000000E+00 -0.79880457767E+03  0.79880457767E+03  0.00000000000E+00 0.  1.
         25    2    1    2    0    0  0.00000000000E+00  0.00000000000E+00 -0.79391546768E+03  0.80369368766E+03  0.12498709439E+03 0.  0.
          4    1    3    3  501    0 -0.61844017601E+02 -0.52128550398E+01 -0.44296166196E+03  0.44729106054E+03  0.15500000000E+01 0.  1.
         -4    1    3    3    0  501  0.61844017601E+02  0.52128550398E+01 -0.35095380572E+03  0.35640262712E+03  0.15500000000E+01 0.  1.
<mgrwt>
<rscale>  2 0.12498709E+03</rscale>
<asrwt>0</asrwt>
<pdfrwt beam="1">  1       21 0.75217059E-03 0.12498709E+03</pdfrwt>
<pdfrwt beam="2">  1       21 0.12289304E+00 0.12498709E+03</pdfrwt>
<totfact> 0.29250138E+06</totfact>
</mgrwt>
</event>
<event>
 5    0  0.1556021E+000  0.1249972E+03  0.7546771E-02  0.1235074E+00
         21   -1    0    0  503  502  0.00000000000E+00  0.00000000000E+00  0.33713217747E+02  0.33713217747E+02  0.00000000000E+00 0.  1.
         21   -1    0    0  502  503 -0.00000000000E+00 -0.00000000000E+00 -0.11586187265E+03  0.11586187265E+03  0.00000000000E+00 0.  1.
         25    2    1    2    0    0  0.00000000000E+00  0.00000000000E+00 -0.82148654906E+02  0.14957509040E+03  0.12499722463E+03 0.  0.
          4    1    3    3  501    0  0.56115255355E+02  0.12827096871E+02 -0.70145666386E+02  0.90753916226E+02  0.15500000000E+01 0. -1.
         -4    1    3    3    0  501 -0.56115255355E+02 -0.12827096871E+02 -0.12002988520E+02  0.58821174173E+02  0.15500000000E+01 0. -1.
<mgrwt>
<rscale>  2 0.12499722E+03</rscale>
<asrwt>0</asrwt>
<pdfrwt beam="1">  1       21 0.51866489E-02 0.12499722E+03</pdfrwt>
<pdfrwt beam="2">  1       21 0.17824903E-01 0.12499722E+03</pdfrwt>
<totfact> 0.70817621E+06</totfact>
</mgrwt>
</event>
<event>
 5    0  0.1328214E+000  0.1250014E+03  0.7546771E-02  0.1235067E+00
         21   -1    0    0  503  502  0.00000000000E+00  0.00000000000E+00  0.77278424955E+01  0.77278424955E+01  0.00000000000E+00 0.  1.
         21   -1    0    0  502  503 -0.00000000000E+00 -0.00000000000E+00 -0.50548838042E+03  0.50548838042E+03  0.00000000000E+00 0.  1.
         25    2    1    2    0    0  0.00000000000E+00  0.00000000000E+00 -0.49776053792E+03  0.51321622291E+03  0.12500135339E+03 0.  0.
          4    1    3    3  501    0 -0.44703510019E+02 -0.30687897770E+02 -0.37634055488E+03  0.38022988655E+03  0.15500000000E+01 0.  1.
         -4    1    3    3    0  501  0.44703510019E+02  0.30687897770E+02 -0.12141998304E+03  0.13298633636E+03  0.15500000000E+01 0.  1.
<mgrwt>
<rscale>  2 0.12500135E+03</rscale>
<asrwt>0</asrwt>
<pdfrwt beam="1">  1       21 0.11888991E-02 0.12500135E+03</pdfrwt>
<pdfrwt beam="2">  1       21 0.77767428E-01 0.12500135E+03</pdfrwt>
<totfact> 0.41334889E+06</totfact>
</mgrwt>
</event>
<event>
 5    0  0.1598718E+000  0.1249974E+03  0.7546771E-02  0.1235073E+00
         21   -1    0    0  503  502  0.00000000000E+00  0.00000000000E+00  0.23911119887E+03  0.23911119887E+03  0.00000000000E+00 0. -1.
         21   -1    0    0  502  503 -0.00000000000E+00 -0.00000000000E+00 -0.16335871586E+02  0.16335871586E+02  0.00000000000E+00 0. -1.
         25    2    1    2    0    0  0.00000000000E+00  0.00000000000E+00  0.22277532728E+03  0.25544707045E+03  0.12499743740E+03 0.  0.
          4    1    3    3  501    0 -0.62217884228E+02  0.42330264789E+01  0.11922400343E+03  0.13455760523E+03  0.15500000000E+01 0.  1.
         -4    1    3    3    0  501  0.62217884228E+02 -0.42330264789E+01  0.10355132385E+03  0.12088946522E+03  0.15500000000E+01 0.  1.
<mgrwt>
<rscale>  2 0.12499744E+03</rscale>
<asrwt>0</asrwt>
<pdfrwt beam="1">  1       21 0.36786336E-01 0.12499744E+03</pdfrwt>
<pdfrwt beam="2">  1       21 0.25132112E-02 0.12499744E+03</pdfrwt>
<totfact> 0.59372948E+06</totfact>
</mgrwt>
</event>
<event>
 5    0  0.1531872E+000  0.1250098E+03  0.7546771E-02  0.1235054E+00
         21   -1    0    0  503  502  0.00000000000E+00  0.00000000000E+00  0.22698782413E+03  0.22698782413E+03  0.00000000000E+00 0. -1.
         21   -1    0    0  502  503 -0.00000000000E+00 -0.00000000000E+00 -0.17211771217E+02  0.17211771217E+02  0.00000000000E+00 0. -1.
         25    2    1    2    0    0  0.00000000000E+00  0.00000000000E+00  0.20977605291E+03  0.24419959535E+03  0.12500979959E+03 0.  0.
          4    1    3    3  501    0  0.41324634050E+02 -0.25406490942E+02  0.18182605531E+03  0.18819227416E+03  0.15500000000E+01 0.  1.
         -4    1    3    3    0  501 -0.41324634050E+02  0.25406490942E+02  0.27949997601E+02  0.56007321193E+02  0.15500000000E+01 0.  1.
<mgrwt>
<rscale>  2 0.12500980E+03</rscale>
<asrwt>0</asrwt>
<pdfrwt beam="1">  1       21 0.34921202E-01 0.12500980E+03</pdfrwt>
<pdfrwt beam="2">  1       21 0.26479650E-02 0.12500980E+03</pdfrwt>
<totfact> 0.60413698E+06</totfact>
</mgrwt>
</event>
<event>
 4    0  0.1492701E+000  0.1251809E+03  0.7546771E-02  0.1234787E+00
         21   -1    0    0  503  502  0.00000000000E+00  0.00000000000E+00  0.10248820022E+03  0.10248820022E+03  0.00000000000E+00 0. -1.
         21   -1    0    0  502  503 -0.00000000000E+00 -0.00000000000E+00 -0.38224558783E+02  0.38224558783E+02  0.00000000000E+00 0. -1.
          4    1    1    2  501    0 -0.41736736549E+02 -0.34584887520E+02 -0.30050844789E+01  0.54309323834E+02  0.15500000000E+01 0. -1.
         -4    1    1    2    0  501  0.41736736549E+02  0.34584887520E+02  0.67268725915E+02  0.86403435168E+02  0.15500000000E+01 0. -1.
<mgrwt>
<rscale>  2 0.12518093E+03</rscale>
<asrwt>0</asrwt>
<pdfrwt beam="1">  1       21 0.15767415E-01 0.12518093E+03</pdfrwt>
<pdfrwt beam="2">  1       21 0.58807014E-02 0.12518093E+03</pdfrwt>
<totfact> 0.71615751E+06</totfact>
</mgrwt>
</event>
<event>
 5    0  0.1396209E+000  0.1250009E+03  0.7546771E-02  0.1235068E+00
         21   -1    0    0  503  502  0.00000000000E+00  0.00000000000E+00  0.34585700550E+02  0.34585700550E+02  0.00000000000E+00 0.  1.
         21   -1    0    0  502  503 -0.00000000000E+00 -0.00000000000E+00 -0.11294567233E+03  0.11294567233E+03  0.00000000000E+00 0.  1.
         25    2    1    2    0    0  0.00000000000E+00  0.00000000000E+00 -0.78359971780E+02  0.14753137288E+03  0.12500088322E+03 0.  0.
          4    1    3    3  501    0 -0.60109017876E+01  0.24198263592E+02 -0.10679682550E+03  0.10967976722E+03  0.15500000000E+01 0.  1.
         -4    1    3    3    0  501  0.60109017876E+01 -0.24198263592E+02  0.28436853721E+02  0.37851605656E+02  0.15500000000E+01 0.  1.
<mgrwt>
<rscale>  2 0.12500088E+03</rscale>
<asrwt>0</asrwt>
<pdfrwt beam="1">  1       21 0.53208769E-02 0.12500088E+03</pdfrwt>
<pdfrwt beam="2">  1       21 0.17376257E-01 0.12500088E+03</pdfrwt>
<totfact> 0.71069102E+06</totfact>
</mgrwt>
</event>
<event>
 5    0  0.1551148E+000  0.1249868E+03  0.7546771E-02  0.1235090E+00
         21   -1    0    0  503  502  0.00000000000E+00  0.00000000000E+00  0.25479471406E+03  0.25479471406E+03  0.00000000000E+00 0. -1.
         21   -1    0    0  502  503 -0.00000000000E+00 -0.00000000000E+00 -0.15327738783E+02  0.15327738783E+02  0.00000000000E+00 0. -1.
         25    2    1    2    0    0  0.00000000000E+00  0.00000000000E+00  0.23946697528E+03  0.27012245284E+03  0.12498682843E+03 0.  0.
          4    1    3    3  501    0  0.47735120631E+02 -0.31803558369E+02  0.17323881259E+03  0.18249437459E+03  0.15500000000E+01 0.  1.
         -4    1    3    3    0  501 -0.47735120631E+02  0.31803558369E+02  0.66228162682E+02  0.87628078256E+02  0.15500000000E+01 0.  1.
<mgrwt>
<rscale>  2 0.12498683E+03</rscale>
<asrwt>0</asrwt>
<pdfrwt beam="1">  1       21 0.39199184E-01 0.12498683E+03</pdfrwt>
<pdfrwt beam="2">  1       21 0.23581139E-02 0.12498683E+03</pdfrwt>
<totfact> 0.58052981E+06</totfact>
</mgrwt>
</event>
<event>
 5    0  0.1576672E+000  0.1249868E+03  0.7546771E-02  0.1235090E+00
         21   -1    0    0  503  502  0.00000000000E+00  0.00000000000E+00  0.11394475721E+03  0.11394475721E+03  0.00000000000E+00 0.  1.
         21   -1    0    0  502  503 -0.00000000000E+00 -0.00000000000E+00 -0.34274731588E+02  0.34274731588E+02  0.00000000000E+00 0.  1.
         25    2    1    2    0    0  0.00000000000E+00  0.00000000000E+00  0.79670025622E+02  0.14821948880E+03  0.12498681481E+03 0.  0.
          4    1    3    3  501    0 -0.49399441280E+02  0.81828991032E+01 -0.44693304210E+01  0.50295547028E+02  0.15500000000E+01 0. -1.
         -4    1    3    3    0  501  0.49399441280E+02 -0.81828991032E+01  0.84139356043E+02  0.97923941771E+02  0.15500000000E+01 0. -1.
<mgrwt>
<rscale>  2 0.12498681E+03</rscale>
<asrwt>0</asrwt>
<pdfrwt beam="1">  1       21 0.17529962E-01 0.12498681E+03</pdfrwt>
<pdfrwt beam="2">  1       21 0.52730357E-02 0.12498681E+03</pdfrwt>
<totfact> 0.71007422E+06</totfact>
</mgrwt>
</event>
<event>
 5    0  0.1567354E+000  0.1249996E+03  0.7546771E-02  0.1235070E+00
         21   -1    0    0  503  502  0.00000000000E+00  0.00000000000E+00  0.48374065099E+02  0.48374065099E+02  0.00000000000E+00 0.  1.
         21   -1    0    0  502  503 -0.00000000000E+00 -0.00000000000E+00 -0.80750365066E+02  0.80750365066E+02  0.00000000000E+00 0.  1.
         25    2    1    2    0    0  0.00000000000E+00  0.00000000000E+00 -0.32376299967E+02  0.12912443017E+03  0.12499957466E+03 0.  0.
          4    1    3    3  501    0 -0.38082041969E+02 -0.10684730677E+02  0.33775432055E+02  0.52034485686E+02  0.15500000000E+01 0.  1.
         -4    1    3    3    0  501  0.38082041969E+02  0.10684730677E+02 -0.66151732023E+02  0.77089944479E+02  0.15500000000E+01 0.  1.
<mgrwt>
<rscale>  2 0.12499957E+03</rscale>
<asrwt>0</asrwt>
<pdfrwt beam="1">  1       21 0.74421639E-02 0.12499957E+03</pdfrwt>
<pdfrwt beam="2">  1       21 0.12423133E-01 0.12499957E+03</pdfrwt>
<totfact> 0.73482973E+06</totfact>
</mgrwt>
</event>
<event>
 5    0  0.1298896E+000  0.1249939E+03  0.7546771E-02  0.1235079E+00
         21   -1    0    0  503  502  0.00000000000E+00  0.00000000000E+00  0.49665967602E+03  0.49665967602E+03  0.00000000000E+00 0.  1.
         21   -1    0    0  502  503 -0.00000000000E+00 -0.00000000000E+00 -0.78642785823E+01  0.78642785823E+01  0.00000000000E+00 0.  1.
         25    2    1    2    0    0  0.00000000000E+00  0.00000000000E+00  0.48879539744E+03  0.50452395460E+03  0.12499392070E+03 0.  0.
          4    1    3    3  501    0 -0.55292982348E+02 -0.21544500712E+02  0.16550844591E+03  0.17583210053E+03  0.15500000000E+01 0. -1.
         -4    1    3    3    0  501  0.55292982348E+02  0.21544500712E+02  0.32328695153E+03  0.32869185408E+03  0.15500000000E+01 0. -1.
<mgrwt>
<rscale>  2 0.12499392E+03</rscale>
<asrwt>0</asrwt>
<pdfrwt beam="1">  1       21 0.76409156E-01 0.12499392E+03</pdfrwt>
<pdfrwt beam="2">  1       21 0.12098894E-02 0.12499392E+03</pdfrwt>
<totfact> 0.41806120E+06</totfact>
</mgrwt>
</event>
<event>
 5    0  0.1495506E+000  0.1250076E+03  0.7546771E-02  0.1235057E+00
         21   -1    0    0  503  502  0.00000000000E+00  0.00000000000E+00  0.35720509179E+02  0.35720509179E+02  0.00000000000E+00 0. -1.
         21   -1    0    0  502  503 -0.00000000000E+00 -0.00000000000E+00 -0.10936926030E+03  0.10936926030E+03  0.00000000000E+00 0. -1.
         25    2    1    2    0    0  0.00000000000E+00  0.00000000000E+00 -0.73648751119E+02  0.14508976948E+03  0.12500761043E+03 0.  0.
          4    1    3    3  501    0  0.15292300769E+02  0.56704983655E+02 -0.12066550290E+02  0.59977610573E+02  0.15500000000E+01 0. -1.
         -4    1    3    3    0  501 -0.15292300769E+02 -0.56704983655E+02 -0.61582200829E+02  0.85112158903E+02  0.15500000000E+01 0. -1.
<mgrwt>
<rscale>  2 0.12500761E+03</rscale>
<asrwt>0</asrwt>
<pdfrwt beam="1">  1       21 0.54954631E-02 0.12500761E+03</pdfrwt>
<pdfrwt beam="2">  1       21 0.16826040E-01 0.12500761E+03</pdfrwt>
<totfact> 0.71367780E+06</totfact>
</mgrwt>
</event>
<event>
 5    0  0.1334651E+000  0.1250155E+03  0.7546771E-02  0.1235045E+00
         21   -1    0    0  503  502  0.00000000000E+00  0.00000000000E+00  0.53184932550E+03  0.53184932550E+03  0.00000000000E+00 0.  1.
         21   -1    0    0  502  503 -0.00000000000E+00 -0.00000000000E+00 -0.73464739799E+01  0.73464739799E+01  0.00000000000E+00 0.  1.
         25    2    1    2    0    0  0.00000000000E+00  0.00000000000E+00  0.52450285152E+03  0.53919579948E+03  0.12501547474E+03 0.  0.
          4    1    3    3  501    0 -0.51878627353E+02 -0.18478100668E+02  0.38961247345E+03  0.39348839138E+03  0.15500000000E+01 0.  1.
         -4    1    3    3    0  501  0.51878627353E+02  0.18478100668E+02  0.13489037807E+03  0.14570740810E+03  0.15500000000E+01 0.  1.
<mgrwt>
<rscale>  2 0.12501547E+03</rscale>
<asrwt>0</asrwt>
<pdfrwt beam="1">  1       21 0.81822943E-01 0.12501547E+03</pdfrwt>
<pdfrwt beam="2">  1       21 0.11302272E-02 0.12501547E+03</pdfrwt>
<totfact> 0.39979783E+06</totfact>
</mgrwt>
</event>
<event>
 5    0  0.1358253E+000  0.1249983E+03  0.7546771E-02  0.1235072E+00
         21   -1    0    0  503  502  0.00000000000E+00  0.00000000000E+00  0.60479335062E+03  0.60479335062E+03  0.00000000000E+00 0.  1.
         21   -1    0    0  502  503 -0.00000000000E+00 -0.00000000000E+00 -0.64586445617E+01  0.64586445617E+01  0.00000000000E+00 0.  1.
         25    2    1    2    0    0  0.00000000000E+00  0.00000000000E+00  0.59833470606E+03  0.61125199518E+03  0.12499832455E+03 0.  0.
          4    1    3    3  501    0 -0.53568714077E+02 -0.31746666134E+02  0.32423818929E+03  0.33016702414E+03  0.15500000000E+01 0. -1.
         -4    1    3    3    0  501  0.53568714077E+02  0.31746666134E+02  0.27409651677E+03  0.28108497104E+03  0.15500000000E+01 0. -1.
<mgrwt>
<rscale>  2 0.12499832E+03</rscale>
<asrwt>0</asrwt>
<pdfrwt beam="1">  1       21 0.93045087E-01 0.12499832E+03</pdfrwt>
<pdfrwt beam="2">  1       21 0.99363810E-03 0.12499832E+03</pdfrwt>
<totfact> 0.36590203E+06</totfact>
</mgrwt>
</event>
<event>
 5    0  0.1222151E+000  0.1249967E+03  0.7546771E-02  0.1235074E+00
         21   -1    0    0  503  502  0.00000000000E+00  0.00000000000E+00  0.36919775680E+01  0.36919775680E+01  0.00000000000E+00 0.  1.
         21   -1    0    0  502  503 -0.00000000000E+00 -0.00000000000E+00 -0.10579812887E+04  0.10579812887E+04  0.00000000000E+00 0.  1.
         25    2    1    2    0    0  0.00000000000E+00  0.00000000000E+00 -0.10542893112E+04  0.10616732663E+04  0.12499669092E+03 0.  0.
          4    1    3    3  501    0  0.60859347381E+02  0.14084141418E+02 -0.51703232695E+03  0.52079463593E+03  0.15500000000E+01 0. -1.
         -4    1    3    3    0  501 -0.60859347381E+02 -0.14084141418E+02 -0.53725698422E+03  0.54087863038E+03  0.15500000000E+01 0. -1.
<mgrwt>
<rscale>  2 0.12499669E+03</rscale>
<asrwt>0</asrwt>
<pdfrwt beam="1">  1       21 0.56799605E-03 0.12499669E+03</pdfrwt>
<pdfrwt beam="2">  1       21 0.16276649E+00 0.12499669E+03</pdfrwt>
<totfact> 0.22126337E+06</totfact>
</mgrwt>
</event>
<event>
 5    0  0.1498257E+000  0.1250016E+03  0.7546771E-02  0.1235067E+00
         21   -1    0    0  503  502  0.00000000000E+00  0.00000000000E+00  0.20892258950E+02  0.20892258950E+02  0.00000000000E+00 0. -1.
         21   -1    0    0  502  503 -0.00000000000E+00 -0.00000000000E+00 -0.18697602731E+03  0.18697602731E+03  0.00000000000E+00 0. -1.
         25    2    1    2    0    0  0.00000000000E+00  0.00000000000E+00 -0.16608376836E+03  0.20786828626E+03  0.12500162527E+03 0.  0.
          4    1    3    3  501    0 -0.49391299886E+02 -0.35736363761E+02 -0.10580396891E+03  0.12212072116E+03  0.15500000000E+01 0. -1.
         -4    1    3    3    0  501  0.49391299886E+02  0.35736363761E+02 -0.60279799453E+02  0.85747565105E+02  0.15500000000E+01 0. -1.
<mgrwt>
<rscale>  2 0.12500163E+03</rscale>
<asrwt>0</asrwt>
<pdfrwt beam="1">  1       21 0.32141937E-02 0.12500163E+03</pdfrwt>
<pdfrwt beam="2">  1       21 0.28765542E-01 0.12500163E+03</pdfrwt>
<totfact> 0.64081881E+06</totfact>
</mgrwt>
</event>
<event>
 5    0  0.1234267E+000  0.1249665E+03  0.7546771E-02  0.1235122E+00
         21   -1    0    0  503  502  0.00000000000E+00  0.00000000000E+00  0.64320464285E+01  0.64320464285E+01  0.00000000000E+00 0. -1.
         21   -1    0    0  502  503 -0.00000000000E+00 -0.00000000000E+00 -0.60698508610E+03  0.60698508610E+03  0.00000000000E+00 0. -1.
         25    2    1    2    0    0  0.00000000000E+00  0.00000000000E+00 -0.60055303967E+03  0.61341713253E+03  0.12496649559E+03 0.  0.
          4    1    3    3  501    0 -0.17656474983E+02 -0.20188699137E+02 -0.57718802145E+03  0.57781290162E+03  0.15500000000E+01 0.  1.
         -4    1    3    3    0  501  0.17656474983E+02  0.20188699137E+02 -0.23365018227E+02  0.35604230906E+02  0.15500000000E+01 0.  1.
<mgrwt>
<rscale>  2 0.12496650E+03</rscale>
<asrwt>0</asrwt>
<pdfrwt beam="1">  1       21 0.98954532E-03 0.12496650E+03</pdfrwt>
<pdfrwt beam="2">  1       21 0.93382348E-01 0.12496650E+03</pdfrwt>
<totfact> 0.36523173E+06</totfact>
</mgrwt>
</event>
<event>
 5    0  0.1260435E+000  0.1250084E+03  0.7546771E-02  0.1235056E+00
         21   -1    0    0  503  502  0.00000000000E+00  0.00000000000E+00  0.46215499456E+03  0.46215499456E+03  0.00000000000E+00 0. -1.
         21   -1    0    0  502  503 -0.00000000000E+00 -0.00000000000E+00 -0.84533825261E+01  0.84533825261E+01  0.00000000000E+00 0. -1.
         25    2    1    2    0    0  0.00000000000E+00  0.00000000000E+00  0.45370161204E+03  0.47060837709E+03  0.12500836701E+03 0.  0.
          4    1    3    3  501    0 -0.15067566750E+02  0.47449799690E+02  0.36900455362E+03  0.37235101471E+03  0.15500000000E+01 0. -1.
         -4    1    3    3    0  501  0.15067566750E+02 -0.47449799690E+02  0.84697058414E+02  0.98257362383E+02  0.15500000000E+01 0. -1.
<mgrwt>
<rscale>  2 0.12500837E+03</rscale>
<asrwt>0</asrwt>
<pdfrwt beam="1">  1       21 0.71100748E-01 0.12500837E+03</pdfrwt>
<pdfrwt beam="2">  1       21 0.13005208E-02 0.12500837E+03</pdfrwt>
<totfact> 0.43675149E+06</totfact>
</mgrwt>
</event>
<event>
 5    0  0.1306764E+000  0.1250057E+03  0.7546771E-02  0.1235060E+00
         21   -1    0    0  503  502  0.00000000000E+00  0.00000000000E+00  0.34412285577E+03  0.34412285577E+03  0.00000000000E+00 0.  1.
         21   -1    0    0  502  503 -0.00000000000E+00 -0.00000000000E+00 -0.11352351804E+02  0.11352351804E+02  0.00000000000E+00 0.  1.
         25    2    1    2    0    0  0.00000000000E+00  0.00000000000E+00  0.33277050396E+03  0.35547520757E+03  0.12500565943E+03 0.  0.
          4    1    3    3  501    0 -0.20325922058E+02 -0.32022769457E+02  0.30758729571E+03  0.30992087354E+03  0.15500000000E+01 0.  1.
         -4    1    3    3    0  501  0.20325922058E+02  0.32022769457E+02  0.25183208247E+02  0.45554334029E+02  0.15500000000E+01 0.  1.
<mgrwt>
<rscale>  2 0.12500566E+03</rscale>
<asrwt>0</asrwt>
<pdfrwt beam="1">  1       21 0.52941970E-01 0.12500566E+03</pdfrwt>
<pdfrwt beam="2">  1       21 0.17465159E-02 0.12500566E+03</pdfrwt>
<totfact> 0.51129354E+06</totfact>
</mgrwt>
</event>
<event>
 5    0  0.1543165E+000  0.1249974E+03  0.7546771E-02  0.1235073E+00
         21   -1    0    0  503  502  0.00000000000E+00  0.00000000000E+00  0.27532465673E+03  0.27532465673E+03  0.00000000000E+00 0.  1.
         21   -1    0    0  502  503 -0.00000000000E+00 -0.00000000000E+00 -0.14187213690E+02  0.14187213690E+02  0.00000000000E+00 0.  1.
         25    2    1    2    0    0  0.00000000000E+00  0.00000000000E+00  0.26113744304E+03  0.28951187042E+03  0.12499743580E+03 0.  0.
          4    1    3    3  501    0  0.36965732031E+02  0.47349865723E+02  0.17036407403E+03  0.18065103196E+03  0.15500000000E+01 0. -1.
         -4    1    3    3    0  501 -0.36965732031E+02 -0.47349865723E+02  0.90773369004E+02  0.10886083845E+03  0.15500000000E+01 0. -1.
<mgrwt>
<rscale>  2 0.12499744E+03</rscale>
<asrwt>0</asrwt>
<pdfrwt beam="1">  1       21 0.42357636E-01 0.12499744E+03</pdfrwt>
<pdfrwt beam="2">  1       21 0.21826485E-02 0.12499744E+03</pdfrwt>
<totfact> 0.56342833E+06</totfact>
</mgrwt>
</event>
<event>
 5    0  0.1673379E+000  0.1250128E+03  0.7546771E-02  0.1235049E+00
         21   -1    0    0  503  502  0.00000000000E+00  0.00000000000E+00  0.33324151138E+02  0.33324151138E+02  0.00000000000E+00 0. -1.
         21   -1    0    0  502  503 -0.00000000000E+00 -0.00000000000E+00 -0.11724371848E+03  0.11724371848E+03  0.00000000000E+00 0. -1.
         25    2    1    2    0    0  0.00000000000E+00  0.00000000000E+00 -0.83919567342E+02  0.15056786962E+03  0.12501275766E+03 0.  0.
          4    1    3    3  501    0  0.34102989074E+02  0.51962456131E+02 -0.49721911838E+02  0.79610186081E+02  0.15500000000E+01 0.  1.
         -4    1    3    3    0  501 -0.34102989074E+02 -0.51962456131E+02 -0.34197655504E+02  0.70957683537E+02  0.15500000000E+01 0.  1.
<mgrwt>
<rscale>  2 0.12501276E+03</rscale>
<asrwt>0</asrwt>
<pdfrwt beam="1">  1       21 0.51267925E-02 0.12501276E+03</pdfrwt>
<pdfrwt beam="2">  1       21 0.18037495E-01 0.12501276E+03</pdfrwt>
<totfact> 0.70664989E+06</totfact>
</mgrwt>
</event>
<event>
 5    0  0.1428116E+000  0.1250000E+03  0.7546771E-02  0.1235069E+00
         21   -1    0    0  503  502  0.00000000000E+00  0.00000000000E+00  0.27320174013E+02  0.27320174013E+02  0.00000000000E+00 0.  1.
         21   -1    0    0  502  503 -0.00000000000E+00 -0.00000000000E+00 -0.14298053433E+03  0.14298053433E+03  0.00000000000E+00 0.  1.
         25    2    1    2    0    0  0.00000000000E+00  0.00000000000E+00 -0.11566036032E+03  0.17030070834E+03  0.12500004925E+03 0.  0.
          4    1    3    3  501    0 -0.31817680151E+02 -0.44301092253E+01 -0.13084111312E+03  0.13473600121E+03  0.15500000000E+01 0.  1.
         -4    1    3    3    0  501  0.31817680151E+02  0.44301092253E+01  0.15180752805E+02  0.35564707136E+02  0.15500000000E+01 0.  1.
<mgrwt>
<rscale>  2 0.12500005E+03</rscale>
<asrwt>0</asrwt>
<pdfrwt beam="1">  1       21 0.42031036E-02 0.12500005E+03</pdfrwt>
<pdfrwt beam="2">  1       21 0.21997006E-01 0.12500005E+03</pdfrwt>
<totfact> 0.68281920E+06</totfact>
</mgrwt>
</event>
<event>
 5    0  0.1495408E+000  0.1250325E+03  0.7546771E-02  0.1235018E+00
         21   -1    0    0  503  502  0.00000000000E+00  0.00000000000E+00  0.50742559736E+02  0.50742559736E+02  0.00000000000E+00 0.  1.
         21   -1    0    0  502  503 -0.00000000000E+00 -0.00000000000E+00 -0.77021810909E+02  0.77021810909E+02  0.00000000000E+00 0.  1.
         25    2    1    2    0    0  0.00000000000E+00  0.00000000000E+00 -0.26279251173E+02  0.12776437064E+03  0.12503253722E+03 0.  0.
          4    1    3    3  501    0  0.35746133483E+02 -0.46931581485E+02 -0.34218513532E+02  0.68217802427E+02  0.15500000000E+01 0.  1.
         -4    1    3    3    0  501 -0.35746133483E+02  0.46931581485E+02  0.79392623583E+01  0.59546568217E+02  0.15500000000E+01 0.  1.
<mgrwt>
<rscale>  2 0.12503254E+03</rscale>
<asrwt>0</asrwt>
<pdfrwt beam="1">  1       21 0.78065476E-02 0.12503254E+03</pdfrwt>
<pdfrwt beam="2">  1       21 0.11849509E-01 0.12503254E+03</pdfrwt>
<totfact> 0.73604257E+06</totfact>
</mgrwt>
</event>
<event>
 5    0  0.1304025E+000  0.1250019E+03  0.7546771E-02  0.1235066E+00
         21   -1    0    0  503  502  0.00000000000E+00  0.00000000000E+00  0.43428882819E+03  0.43428882819E+03  0.00000000000E+00 0.  1.
         21   -1    0    0  502  503 -0.00000000000E+00 -0.00000000000E+00 -0.89948648476E+01  0.89948648476E+01  0.00000000000E+00 0.  1.
         25    2    1    2    0    0  0.00000000000E+00  0.00000000000E+00  0.42529396334E+03  0.44328369304E+03  0.12500190902E+03 0.  0.
          4    1    3    3  501    0  0.25242613791E+02  0.33730127218E+02  0.37627536134E+03  0.37862971501E+03  0.15500000000E+01 0. -1.
         -4    1    3    3    0  501 -0.25242613791E+02 -0.33730127218E+02  0.49018602000E+02  0.64653978030E+02  0.15500000000E+01 0. -1.
<mgrwt>
<rscale>  2 0.12500191E+03</rscale>
<asrwt>0</asrwt>
<pdfrwt beam="1">  1       21 0.66813649E-01 0.12500191E+03</pdfrwt>
<pdfrwt beam="2">  1       21 0.13838257E-02 0.12500191E+03</pdfrwt>
<totfact> 0.45294752E+06</totfact>
</mgrwt>
</event>
<event>
 5    0  0.1323347E+000  0.1249926E+03  0.7546771E-02  0.1235081E+00
         21   -1    0    0  503  502  0.00000000000E+00  0.00000000000E+00  0.13653810301E+02  0.13653810301E+02  0.00000000000E+00 0.  1.
         21   -1    0    0  502  503 -0.00000000000E+00 -0.00000000000E+00 -0.28605841537E+03  0.28605841537E+03  0.00000000000E+00 0.  1.
         25    2    1    2    0    0  0.00000000000E+00  0.00000000000E+00 -0.27240460507E+03  0.29971222567E+03  0.12499259720E+03 0.  0.
          4    1    3    3  501    0  0.22006023828E+02 -0.34816349032E+02 -0.23556351388E+02  0.47473649905E+02  0.15500000000E+01 0. -1.
         -4    1    3    3    0  501 -0.22006023828E+02  0.34816349032E+02 -0.24884825368E+03  0.25223857576E+03  0.15500000000E+01 0. -1.
<mgrwt>
<rscale>  2 0.12499260E+03</rscale>
<asrwt>0</asrwt>
<pdfrwt beam="1">  1       21 0.21005862E-02 0.12499260E+03</pdfrwt>
<pdfrwt beam="2">  1       21 0.44008986E-01 0.12499260E+03</pdfrwt>
<totfact> 0.55490418E+06</totfact>
</mgrwt>
</event>
<event>
 5    0  0.1537687E+000  0.1250012E+03  0.7546771E-02  0.1235067E+00
         21   -1    0    0  503  502  0.00000000000E+00  0.00000000000E+00  0.26567346446E+02  0.26567346446E+02  0.00000000000E+00 0. -1.
         21   -1    0    0  502  503 -0.00000000000E+00 -0.00000000000E+00 -0.14703480855E+03  0.14703480855E+03  0.00000000000E+00 0. -1.
         25    2    1    2    0    0  0.00000000000E+00  0.00000000000E+00 -0.12046746210E+03  0.17360215499E+03  0.12500119517E+03 0.  0.
          4    1    3    3  501    0  0.11370878954E+02  0.34305687030E+02 -0.13101840202E+03  0.13592056952E+03  0.15500000000E+01 0.  1.
         -4    1    3    3    0  501 -0.11370878954E+02 -0.34305687030E+02  0.10550939916E+02  0.37681585475E+02  0.15500000000E+01 0.  1.
<mgrwt>
<rscale>  2 0.12500120E+03</rscale>
<asrwt>0</asrwt>
<pdfrwt beam="1">  1       21 0.40872840E-02 0.12500120E+03</pdfrwt>
<pdfrwt beam="2">  1       21 0.22620740E-01 0.12500120E+03</pdfrwt>
<totfact> 0.67891106E+06</totfact>
</mgrwt>
</event>
<event>
 5    0  0.1537270E+000  0.1249993E+03  0.7546771E-02  0.1235070E+00
         21   -1    0    0  503  502  0.00000000000E+00  0.00000000000E+00  0.30507111463E+02  0.30507111463E+02  0.00000000000E+00 0.  1.
         21   -1    0    0  502  503 -0.00000000000E+00 -0.00000000000E+00 -0.12804258185E+03  0.12804258185E+03  0.00000000000E+00 0.  1.
         25    2    1    2    0    0  0.00000000000E+00  0.00000000000E+00 -0.97535470387E+02  0.15854969331E+03  0.12499934906E+03 0.  0.
          4    1    3    3  501    0  0.62418922151E+02  0.27355338017E+01 -0.49337570474E+02  0.79625393863E+02  0.15500000000E+01 0.  1.
         -4    1    3    3    0  501 -0.62418922151E+02 -0.27355338017E+01 -0.48197899913E+02  0.78924299450E+02  0.15500000000E+01 0.  1.
<mgrwt>
<rscale>  2 0.12499935E+03</rscale>
<asrwt>0</asrwt>
<pdfrwt beam="1">  1       21 0.46934018E-02 0.12499935E+03</pdfrwt>
<pdfrwt beam="2">  1       21 0.19698859E-01 0.12499935E+03</pdfrwt>
<totfact> 0.69698297E+06</totfact>
</mgrwt>
</event>
<event>
 5    0  0.1467796E+000  0.1249872E+03  0.7546771E-02  0.1235089E+00
         21   -1    0    0  503  502  0.00000000000E+00  0.00000000000E+00  0.16705238935E+02  0.16705238935E+02  0.00000000000E+00 0.  1.
         21   -1    0    0  502  503 -0.00000000000E+00 -0.00000000000E+00 -0.23378593604E+03  0.23378593604E+03  0.00000000000E+00 0.  1.
         25    2    1    2    0    0  0.00000000000E+00  0.00000000000E+00 -0.21708069711E+03  0.25049117498E+03  0.12498719809E+03 0.  0.
          4    1    3    3  501    0  0.41498920273E+02 -0.32274868233E+02 -0.40896130264E+02  0.66623745570E+02  0.15500000000E+01 0. -1.
         -4    1    3    3    0  501 -0.41498920273E+02  0.32274868233E+02 -0.17618456684E+03  0.18386742941E+03  0.15500000000E+01 0. -1.
<mgrwt>
<rscale>  2 0.12498720E+03</rscale>
<asrwt>0</asrwt>
<pdfrwt beam="1">  1       21 0.25700368E-02 0.12498720E+03</pdfrwt>
<pdfrwt beam="2">  1       21 0.35967066E-01 0.12498720E+03</pdfrwt>
<totfact> 0.59851288E+06</totfact>
</mgrwt>
</event>
<event>
 5    0  0.1452126E+000  0.1249768E+03  0.7546771E-02  0.1235105E+00
         21   -1    0    0  503  502  0.00000000000E+00  0.00000000000E+00  0.18567592070E+02  0.18567592070E+02  0.00000000000E+00 0. -1.
         21   -1    0    0  502  503 -0.00000000000E+00 -0.00000000000E+00 -0.21030204309E+03  0.21030204309E+03  0.00000000000E+00 0. -1.
         25    2    1    2    0    0  0.00000000000E+00  0.00000000000E+00 -0.19173445102E+03  0.22886963516E+03  0.12497683862E+03 0.  0.
          4    1    3    3  501    0  0.21175742958E+02 -0.46363794264E+02 -0.29727590057E+02  0.59026651768E+02  0.15500000000E+01 0.  1.
         -4    1    3    3    0  501 -0.21175742958E+02  0.46363794264E+02 -0.16200686097E+03  0.16984298340E+03  0.15500000000E+01 0.  1.
<mgrwt>
<rscale>  2 0.12497684E+03</rscale>
<asrwt>0</asrwt>
<pdfrwt beam="1">  1       21 0.28565525E-02 0.12497684E+03</pdfrwt>
<pdfrwt beam="2">  1       21 0.32354162E-01 0.12497684E+03</pdfrwt>
<totfact> 0.61962874E+06</totfact>
</mgrwt>
</event>
<event>
 5    0  0.1394794E+000  0.1250001E+03  0.7546771E-02  0.1235069E+00
         21   -1    0    0  503  502  0.00000000000E+00  0.00000000000E+00  0.10973982205E+02  0.10973982205E+02  0.00000000000E+00 0. -1.
         21   -1    0    0  502  503 -0.00000000000E+00 -0.00000000000E+00 -0.35595604679E+03  0.35595604679E+03  0.00000000000E+00 0. -1.
         25    2    1    2    0    0  0.00000000000E+00  0.00000000000E+00 -0.34498206459E+03  0.36693002900E+03  0.12500008517E+03 0.  0.
          4    1    3    3  501    0 -0.15689113929E+02  0.57412435208E+02 -0.22830426724E+03  0.23593977399E+03  0.15500000000E+01 0. -1.
         -4    1    3    3    0  501  0.15689113929E+02 -0.57412435208E+02 -0.11667779735E+03  0.13099025501E+03  0.15500000000E+01 0. -1.
<mgrwt>
<rscale>  2 0.12500009E+03</rscale>
<asrwt>0</asrwt>
<pdfrwt beam="1">  1       21 0.16883049E-02 0.12500009E+03</pdfrwt>
<pdfrwt beam="2">  1       21 0.54762470E-01 0.12500009E+03</pdfrwt>
<totfact> 0.50311785E+06</totfact>
</mgrwt>
</event>
<event>
 5    0  0.1540661E+000  0.1250045E+03  0.7546771E-02  0.1235062E+00
         21   -1    0    0  503  502  0.00000000000E+00  0.00000000000E+00  0.94342252077E+02  0.94342252077E+02  0.00000000000E+00 0.  1.
         21   -1    0    0  502  503 -0.00000000000E+00 -0.00000000000E+00 -0.41408107324E+02  0.41408107324E+02  0.00000000000E+00 0.  1.
         25    2    1    2    0    0  0.00000000000E+00  0.00000000000E+00  0.52934144753E+02  0.13575035940E+03  0.12500454550E+03 0.  0.
          4    1    3    3  501    0  0.18993514416E+02  0.57557511527E+02  0.42954803379E+02  0.74304362970E+02  0.15500000000E+01 0.  1.
         -4    1    3    3    0  501 -0.18993514416E+02 -0.57557511527E+02  0.99793413738E+01  0.61445996430E+02  0.15500000000E+01 0.  1.
<mgrwt>
<rscale>  2 0.12500455E+03</rscale>
<asrwt>0</asrwt>
<pdfrwt beam="1">  1       21 0.14514193E-01 0.12500455E+03</pdfrwt>
<pdfrwt beam="2">  1       21 0.63704781E-02 0.12500455E+03</pdfrwt>
<totfact> 0.72588856E+06</totfact>
</mgrwt>
</event>
<event>
 5    0  0.1314536E+000  0.1249963E+03  0.7546771E-02  0.1235075E+00
         21   -1    0    0  503  502  0.00000000000E+00  0.00000000000E+00  0.30303851375E+03  0.30303851375E+03  0.00000000000E+00 0. -1.
         21   -1    0    0  502  503 -0.00000000000E+00 -0.00000000000E+00 -0.12889522065E+02  0.12889522065E+02  0.00000000000E+00 0. -1.
         25    2    1    2    0    0  0.00000000000E+00  0.00000000000E+00  0.29014899168E+03  0.31592803581E+03  0.12499634570E+03 0.  0.
          4    1    3    3  501    0 -0.41217129564E+02 -0.36832875308E+01  0.26338735051E+03  0.26662279963E+03  0.15500000000E+01 0.  1.
         -4    1    3    3    0  501  0.41217129564E+02  0.36832875308E+01  0.26761641178E+02  0.49305236183E+02  0.15500000000E+01 0.  1.
<mgrwt>
<rscale>  2 0.12499635E+03</rscale>
<asrwt>0</asrwt>
<pdfrwt beam="1">  1       21 0.46621304E-01 0.12499635E+03</pdfrwt>
<pdfrwt beam="2">  1       21 0.19830036E-02 0.12499635E+03</pdfrwt>
<totfact> 0.54162580E+06</totfact>
</mgrwt>
</event>
<event>
 5    0  0.1682949E+000  0.1249991E+03  0.7546771E-02  0.1235071E+00
         21   -1    0    0  503  502  0.00000000000E+00  0.00000000000E+00  0.25091466107E+02  0.25091466107E+02  0.00000000000E+00 0.  1.
         21   -1    0    0  502  503 -0.00000000000E+00 -0.00000000000E+00 -0.15567809485E+03  0.15567809485E+03  0.00000000000E+00 0.  1.
         25    2    1    2    0    0  0.00000000000E+00  0.00000000000E+00 -0.13058662874E+03  0.18076956095E+03  0.12499906624E+03 0.  0.
          4    1    3    3  501    0 -0.39413042495E+02 -0.12136484013E+01  0.47962583882E+01  0.39752577975E+02  0.15500000000E+01 0.  1.
         -4    1    3    3    0  501  0.39413042495E+02  0.12136484013E+01 -0.13538288713E+03  0.14101698298E+03  0.15500000000E+01 0.  1.
<mgrwt>
<rscale>  2 0.12499907E+03</rscale>
<asrwt>0</asrwt>
<pdfrwt beam="1">  1       21 0.38602256E-02 0.12499907E+03</pdfrwt>
<pdfrwt beam="2">  1       21 0.23950476E-01 0.12499907E+03</pdfrwt>
<totfact> 0.67064953E+06</totfact>
</mgrwt>
</event>
<event>
 5    0  0.1487130E+000  0.1250035E+03  0.7546771E-02  0.1235064E+00
         21   -1    0    0  503  502  0.00000000000E+00  0.00000000000E+00  0.14655654446E+02  0.14655654446E+02  0.00000000000E+00 0. -1.
         21   -1    0    0  502  503 -0.00000000000E+00 -0.00000000000E+00 -0.26655034097E+03  0.26655034097E+03  0.00000000000E+00 0. -1.
         25    2    1    2    0    0  0.00000000000E+00  0.00000000000E+00 -0.25189468653E+03  0.28120599542E+03  0.12500351499E+03 0.  0.
          4    1    3    3  501    0 -0.47455424138E+02  0.37471431395E+02 -0.90525009402E+02  0.10887288587E+03  0.15500000000E+01 0. -1.
         -4    1    3    3    0  501  0.47455424138E+02 -0.37471431395E+02 -0.16136967713E+03  0.17233310955E+03  0.15500000000E+01 0. -1.
<mgrwt>
<rscale>  2 0.12500351E+03</rscale>
<asrwt>0</asrwt>
<pdfrwt beam="1">  1       21 0.22547161E-02 0.12500351E+03</pdfrwt>
<pdfrwt beam="2">  1       21 0.41007744E-01 0.12500351E+03</pdfrwt>
<totfact> 0.57050068E+06</totfact>
</mgrwt>
</event>
<event>
 5    0  0.1519897E+000  0.1250006E+03  0.7546771E-02  0.1235068E+00
         21   -1    0    0  503  502  0.00000000000E+00  0.00000000000E+00  0.28358969724E+02  0.28358969724E+02  0.00000000000E+00 0.  1.
         21   -1    0    0  502  503 -0.00000000000E+00 -0.00000000000E+00 -0.13774428747E+03  0.13774428747E+03  0.00000000000E+00 0.  1.
         25    2    1    2    0    0  0.00000000000E+00  0.00000000000E+00 -0.10938531775E+03  0.16610325720E+03  0.12500057725E+03 0.  0.
          4    1    3    3  501    0 -0.28484308807E+02  0.55574655882E+02 -0.57345428608E+02  0.84798578448E+02  0.15500000000E+01 0.  1.
         -4    1    3    3    0  501  0.28484308807E+02 -0.55574655882E+02 -0.52039889142E+02  0.81304678750E+02  0.15500000000E+01 0.  1.
<mgrwt>
<rscale>  2 0.12500058E+03</rscale>
<asrwt>0</asrwt>
<pdfrwt beam="1">  1       21 0.43629184E-02 0.12500058E+03</pdfrwt>
<pdfrwt beam="2">  1       21 0.21191429E-01 0.12500058E+03</pdfrwt>
<totfact> 0.68780318E+06</totfact>
</mgrwt>
</event>
<event>
 5    0  0.1222151E+000  0.1249969E+03  0.7546771E-02  0.1235074E+00
         21   -1    0    0  503  502  0.00000000000E+00  0.00000000000E+00  0.26279738756E+01  0.26279738756E+01  0.00000000000E+00 0.  1.
         21   -1    0    0  502  503 -0.00000000000E+00 -0.00000000000E+00 -0.14863385533E+04  0.14863385533E+04  0.00000000000E+00 0.  1.
         25    2    1    2    0    0  0.00000000000E+00  0.00000000000E+00 -0.14837105794E+04  0.14889665272E+04  0.12499694218E+03 0.  0.
          4    1    3    3  501    0 -0.29937009037E+02 -0.51480652833E+02 -0.51672930582E+03  0.52015195868E+03  0.15500000000E+01 0. -1.
         -4    1    3    3    0  501  0.29937009037E+02  0.51480652833E+02 -0.96698127359E+03  0.96881456848E+03  0.15500000000E+01 0. -1.
<mgrwt>
<rscale>  2 0.12499694E+03</rscale>
<asrwt>0</asrwt>
<pdfrwt beam="1">  1       21 0.40430468E-03 0.12499694E+03</pdfrwt>
<pdfrwt beam="2">  1       21 0.22866690E+00 0.12499694E+03</pdfrwt>
<totfact> 0.14158829E+06</totfact>
</mgrwt>
</event>
<event>
 5    0  0.1262956E+000  0.1249961E+03  0.7546771E-02  0.1235075E+00
         21   -1    0    0  503  502  0.00000000000E+00  0.00000000000E+00  0.84760319520E+01  0.84760319520E+01  0.00000000000E+00 0. -1.
         21   -1    0    0  502  503 -0.00000000000E+00 -0.00000000000E+00 -0.46082971211E+03  0.46082971211E+03  0.00000000000E+00 0. -1.
         25    2    1    2    0    0  0.00000000000E+00  0.00000000000E+00 -0.45235368015E+03  0.46930574406E+03  0.12499611777E+03 0.  0.
          4    1    3    3  501    0  0.20841984374E+02 -0.24571444501E+02 -0.42715856580E+03  0.42837482072E+03  0.15500000000E+01 0. -1.
         -4    1    3    3    0  501 -0.20841984374E+02  0.24571444501E+02 -0.25195114360E+02  0.40930923336E+02  0.15500000000E+01 0. -1.
<mgrwt>
<rscale>  2 0.12499612E+03</rscale>
<asrwt>0</asrwt>
<pdfrwt beam="1">  1       21 0.13040054E-02 0.12499612E+03</pdfrwt>
<pdfrwt beam="2">  1       21 0.70896855E-01 0.12499612E+03</pdfrwt>
<totfact> 0.43763390E+06</totfact>
</mgrwt>
</event>
<event>
 5    0  0.1222151E+000  0.1250025E+03  0.7546771E-02  0.1235065E+00
         21   -1    0    0  503  502  0.00000000000E+00  0.00000000000E+00  0.85073776968E+03  0.85073776968E+03  0.00000000000E+00 0. -1.
         21   -1    0    0  502  503 -0.00000000000E+00 -0.00000000000E+00 -0.45917833661E+01  0.45917833661E+01  0.00000000000E+00 0. -1.
         25    2    1    2    0    0  0.00000000000E+00  0.00000000000E+00  0.84614598631E+03  0.85532955305E+03  0.12500245661E+03 0.  0.
          4    1    3    3  501    0  0.22172993172E+02 -0.52444556529E+01  0.24979599349E+02  0.33845661833E+02  0.15500000000E+01 0.  1.
         -4    1    3    3    0  501 -0.22172993172E+02  0.52444556529E+01  0.82116638696E+03  0.82148389121E+03  0.15500000000E+01 0.  1.
<mgrwt>
<rscale>  2 0.12500246E+03</rscale>
<asrwt>0</asrwt>
<pdfrwt beam="1">  1       21 0.13088261E+00 0.12500246E+03</pdfrwt>
<pdfrwt beam="2">  1       21 0.70642889E-03 0.12500246E+03</pdfrwt>
<totfact> 0.27607941E+06</totfact>
</mgrwt>
</event>
<event>
 5    0  0.1222151E+000  0.1250034E+03  0.7546771E-02  0.1235064E+00
         21   -1    0    0  503  502  0.00000000000E+00  0.00000000000E+00  0.35616650521E+01  0.35616650521E+01  0.00000000000E+00 0. -1.
         21   -1    0    0  502  503 -0.00000000000E+00 -0.00000000000E+00 -0.10968083457E+04  0.10968083457E+04  0.00000000000E+00 0. -1.
         25    2    1    2    0    0  0.00000000000E+00  0.00000000000E+00 -0.10932466806E+04  0.11003700107E+04  0.12500342321E+03 0.  0.
          4    1    3    3  501    0 -0.58139605618E+02 -0.21599437352E+02 -0.61326406198E+03  0.61639432318E+03  0.15500000000E+01 0. -1.
         -4    1    3    3    0  501  0.58139605618E+02  0.21599437352E+02 -0.47998261866E+03  0.48397568756E+03  0.15500000000E+01 0. -1.
<mgrwt>
<rscale>  2 0.12500342E+03</rscale>
<asrwt>0</asrwt>
<pdfrwt beam="1">  1       21 0.54794830E-03 0.12500342E+03</pdfrwt>
<pdfrwt beam="2">  1       21 0.16873980E+00 0.12500342E+03</pdfrwt>
<totfact> 0.21241370E+06</totfact>
</mgrwt>
</event>
<event>
 5    0  0.1222151E+000  0.1250325E+03  0.7546771E-02  0.1235018E+00
         21   -1    0    0  503  502  0.00000000000E+00  0.00000000000E+00  0.10323831128E+02  0.10323831128E+02  0.00000000000E+00 0. -1.
         21   -1    0    0  502  503 -0.00000000000E+00 -0.00000000000E+00 -0.37856917976E+03  0.37856917976E+03  0.00000000000E+00 0. -1.
         25    2    1    2    0    0  0.00000000000E+00  0.00000000000E+00 -0.36824534863E+03  0.38889301089E+03  0.12503254428E+03 0.  0.
          4    1    3    3  501    0 -0.40348077064E+02 -0.46994866144E+01 -0.33184977848E+03  0.33433027155E+03  0.15500000000E+01 0. -1.
         -4    1    3    3    0  501  0.40348077064E+02  0.46994866144E+01 -0.36395570145E+02  0.54562739332E+02  0.15500000000E+01 0. -1.
<mgrwt>
<rscale>  2 0.12503254E+03</rscale>
<asrwt>0</asrwt>
<pdfrwt beam="1">  1       21 0.15882817E-02 0.12503254E+03</pdfrwt>
<pdfrwt beam="2">  1       21 0.58241413E-01 0.12503254E+03</pdfrwt>
<totfact> 0.48747215E+06</totfact>
</mgrwt>
</event>
<event>
 5    0  0.1222151E+000  0.1249582E+03  0.7546771E-02  0.1235135E+00
         21   -1    0    0  503  502  0.00000000000E+00  0.00000000000E+00  0.34864339790E+01  0.34864339790E+01  0.00000000000E+00 0.  1.
         21   -1    0    0  502  503 -0.00000000000E+00 -0.00000000000E+00 -0.11196652930E+04  0.11196652930E+04  0.00000000000E+00 0.  1.
         25    2    1    2    0    0  0.00000000000E+00  0.00000000000E+00 -0.11161788590E+04  0.11231517270E+04  0.12495821898E+03 0.  0.
          4    1    3    3  501    0  0.37355519589E+02 -0.10624087767E+02 -0.11840746786E+03  0.12462358135E+03  0.15500000000E+01 0.  1.
         -4    1    3    3    0  501 -0.37355519589E+02  0.10624087767E+02 -0.99777139119E+03  0.99852814566E+03  0.15500000000E+01 0.  1.
<mgrwt>
<rscale>  2 0.12495822E+03</rscale>
<asrwt>0</asrwt>
<pdfrwt beam="1">  1       21 0.53637441E-03 0.12495822E+03</pdfrwt>
<pdfrwt beam="2">  1       21 0.17225621E+00 0.12495822E+03</pdfrwt>
<totfact> 0.20765215E+06</totfact>
</mgrwt>
</event>
<event>
 5    0  0.1481454E+000  0.1250019E+03  0.7546771E-02  0.1235066E+00
         21   -1    0    0  503  502  0.00000000000E+00  0.00000000000E+00  0.71466678381E+02  0.71466678381E+02  0.00000000000E+00 0.  1.
         21   -1    0    0  502  503 -0.00000000000E+00 -0.00000000000E+00 -0.54659991916E+02  0.54659991916E+02  0.00000000000E+00 0.  1.
         25    2    1    2    0    0  0.00000000000E+00  0.00000000000E+00  0.16806686465E+02  0.12612667030E+03  0.12500188899E+03 0.  0.
          4    1    3    3  501    0  0.61489925761E+02  0.24589212052E+01 -0.25063622246E+01  0.61609590286E+02  0.15500000000E+01 0. -1.
         -4    1    3    3    0  501 -0.61489925761E+02 -0.24589212052E+01  0.19313048689E+02  0.64517080012E+02  0.15500000000E+01 0. -1.
<mgrwt>
<rscale>  2 0.12500189E+03</rscale>
<asrwt>0</asrwt>
<pdfrwt beam="1">  1       21 0.10994874E-01 0.12500189E+03</pdfrwt>
<pdfrwt beam="2">  1       21 0.84092295E-02 0.12500189E+03</pdfrwt>
<totfact> 0.73885031E+06</totfact>
</mgrwt>
</event>
<event>
 5    0  0.1395085E+000  0.1250028E+03  0.7546771E-02  0.1235065E+00
         21   -1    0    0  503  502  0.00000000000E+00  0.00000000000E+00  0.14023438010E+02  0.14023438010E+02  0.00000000000E+00 0.  1.
         21   -1    0    0  502  503 -0.00000000000E+00 -0.00000000000E+00 -0.27856411678E+03  0.27856411678E+03  0.00000000000E+00 0.  1.
         25    2    1    2    0    0  0.00000000000E+00  0.00000000000E+00 -0.26454067876E+03  0.29258755479E+03  0.12500282594E+03 0.  0.
          4    1    3    3  501    0  0.49043367913E+02 -0.16768765784E+02 -0.50596138749E+02  0.72448707363E+02  0.15500000000E+01 0. -1.
         -4    1    3    3    0  501 -0.49043367913E+02  0.16768765784E+02 -0.21394454002E+03  0.22013884742E+03  0.15500000000E+01 0. -1.
<mgrwt>
<rscale>  2 0.12500283E+03</rscale>
<asrwt>0</asrwt>
<pdfrwt beam="1">  1       21 0.21574522E-02 0.12500283E+03</pdfrwt>
<pdfrwt beam="2">  1       21 0.42856014E-01 0.12500283E+03</pdfrwt>
<totfact> 0.56073876E+06</totfact>
</mgrwt>
</event>
<event>
 5    0  0.1568073E+000  0.1249998E+03  0.7546771E-02  0.1235070E+00
         21   -1    0    0  503  502  0.00000000000E+00  0.00000000000E+00  0.49385723239E+02  0.49385723239E+02  0.00000000000E+00 0. -1.
         21   -1    0    0  502  503 -0.00000000000E+00 -0.00000000000E+00 -0.79096533907E+02  0.79096533907E+02  0.00000000000E+00 0. -1.
         25    2    1    2    0    0  0.00000000000E+00  0.00000000000E+00 -0.29710810668E+02  0.12848225715E+03  0.12499983252E+03 0.  0.
          4    1    3    3  501    0 -0.46500515579E+02 -0.36507507233E+02  0.59251824567E+01  0.59435732691E+02  0.15500000000E+01 0. -1.
         -4    1    3    3    0  501  0.46500515579E+02  0.36507507233E+02 -0.35635993125E+02  0.69046524456E+02  0.15500000000E+01 0. -1.
<mgrwt>
<rscale>  2 0.12499983E+03</rscale>
<asrwt>0</asrwt>
<pdfrwt beam="1">  1       21 0.75978037E-02 0.12499983E+03</pdfrwt>
<pdfrwt beam="2">  1       21 0.12168697E-01 0.12499983E+03</pdfrwt>
<totfact> 0.73568826E+06</totfact>
</mgrwt>
</event>
<event>
 5    0  0.1521232E+000  0.1250012E+03  0.7546771E-02  0.1235067E+00
         21   -1    0    0  503  502  0.00000000000E+00  0.00000000000E+00  0.65492427659E+02  0.65492427659E+02  0.00000000000E+00 0. -1.
         21   -1    0    0  502  503 -0.00000000000E+00 -0.00000000000E+00 -0.59645399029E+02  0.59645399029E+02  0.00000000000E+00 0. -1.
         25    2    1    2    0    0  0.00000000000E+00  0.00000000000E+00  0.58470286301E+01  0.12513782669E+03  0.12500115169E+03 0.  0.
          4    1    3    3  501    0  0.29044037475E+02  0.18466832971E+02 -0.49280789107E+02  0.60129682419E+02  0.15500000000E+01 0. -1.
         -4    1    3    3    0  501 -0.29044037475E+02 -0.18466832971E+02  0.55127817737E+02  0.65008144269E+02  0.15500000000E+01 0. -1.
<mgrwt>
<rscale>  2 0.12500115E+03</rscale>
<asrwt>0</asrwt>
<pdfrwt beam="1">  1       21 0.10075758E-01 0.12500115E+03</pdfrwt>
<pdfrwt beam="2">  1       21 0.91762152E-02 0.12500115E+03</pdfrwt>
<totfact> 0.74022788E+06</totfact>
</mgrwt>
</event>
<event>
 5    0  0.1257041E+000  0.1250020E+03  0.7546771E-02  0.1235066E+00
         21   -1    0    0  503  502  0.00000000000E+00  0.00000000000E+00  0.74936042173E+03  0.74936042173E+03  0.00000000000E+00 0. -1.
         21   -1    0    0  502  503 -0.00000000000E+00 -0.00000000000E+00 -0.52129487739E+01  0.52129487739E+01  0.00000000000E+00 0. -1.
         25    2    1    2    0    0  0.00000000000E+00  0.00000000000E+00  0.74414747295E+03  0.75457337050E+03  0.12500203985E+03 0.  0.
          4    1    3    3  501    0 -0.41934217318E+02  0.43919547044E+02  0.46090857540E+03  0.46489409824E+03  0.15500000000E+01 0. -1.
         -4    1    3    3    0  501  0.41934217318E+02 -0.43919547044E+02  0.28323889755E+03  0.28967927227E+03  0.15500000000E+01 0. -1.
<mgrwt>
<rscale>  2 0.12500204E+03</rscale>
<asrwt>0</asrwt>
<pdfrwt beam="1">  1       21 0.11528613E+00 0.12500204E+03</pdfrwt>
<pdfrwt beam="2">  1       21 0.80199271E-03 0.12500204E+03</pdfrwt>
<totfact> 0.30907115E+06</totfact>
</mgrwt>
</event>
<event>
 5    0  0.1222151E+000  0.1250035E+03  0.7546771E-02  0.1235064E+00
         21   -1    0    0  503  502  0.00000000000E+00  0.00000000000E+00  0.13931336018E+04  0.13931336018E+04  0.00000000000E+00 0.  1.
         21   -1    0    0  502  503 -0.00000000000E+00 -0.00000000000E+00 -0.28040882439E+01  0.28040882439E+01  0.00000000000E+00 0.  1.
         25    2    1    2    0    0  0.00000000000E+00  0.00000000000E+00  0.13903295135E+04  0.13959376900E+04  0.12500351283E+03 0.  0.
          4    1    3    3  501    0  0.24092656468E+02 -0.45229462392E+02  0.29596213245E+03  0.30037001633E+03  0.15500000000E+01 0. -1.
         -4    1    3    3    0  501 -0.24092656468E+02  0.45229462392E+02  0.10943673811E+04  0.10955676737E+04  0.15500000000E+01 0. -1.
<mgrwt>
<rscale>  2 0.12500351E+03</rscale>
<asrwt>0</asrwt>
<pdfrwt beam="1">  1       21 0.21432769E+00 0.12500351E+03</pdfrwt>
<pdfrwt beam="2">  1       21 0.43139930E-03 0.12500351E+03</pdfrwt>
<totfact> 0.15609721E+06</totfact>
</mgrwt>
</event>
<event>
 5    0  0.1222623E+000  0.1250055E+03  0.7546771E-02  0.1235061E+00
         21   -1    0    0  503  502  0.00000000000E+00  0.00000000000E+00  0.57059848602E+01  0.57059848602E+01  0.00000000000E+00 0. -1.
         21   -1    0    0  502  503 -0.00000000000E+00 -0.00000000000E+00 -0.68464820849E+03  0.68464820849E+03  0.00000000000E+00 0. -1.
         25    2    1    2    0    0  0.00000000000E+00  0.00000000000E+00 -0.67894222363E+03  0.69035419335E+03  0.12500547688E+03 0.  0.
          4    1    3    3  501    0  0.43834783452E+02 -0.39833121060E+02 -0.22956959153E+03  0.23709231457E+03  0.15500000000E+01 0. -1.
         -4    1    3    3    0  501 -0.43834783452E+02  0.39833121060E+02 -0.44937263210E+03  0.45326187878E+03  0.15500000000E+01 0. -1.
<mgrwt>
<rscale>  2 0.12500548E+03</rscale>
<asrwt>0</asrwt>
<pdfrwt beam="1">  1       21 0.87784385E-03 0.12500548E+03</pdfrwt>
<pdfrwt beam="2">  1       21 0.10533049E+00 0.12500548E+03</pdfrwt>
<totfact> 0.33280829E+06</totfact>
</mgrwt>
</event>
<event>
 5    0  0.1465417E+000  0.1250052E+03  0.7546771E-02  0.1235061E+00
         21   -1    0    0  503  502  0.00000000000E+00  0.00000000000E+00  0.27461181846E+03  0.27461181846E+03  0.00000000000E+00 0. -1.
         21   -1    0    0  502  503 -0.00000000000E+00 -0.00000000000E+00 -0.14225813535E+02  0.14225813535E+02  0.00000000000E+00 0. -1.
         25    2    1    2    0    0  0.00000000000E+00  0.00000000000E+00  0.26038600493E+03  0.28883763200E+03  0.12500522428E+03 0.  0.
          4    1    3    3  501    0 -0.50330678192E+02  0.32049472819E+02  0.87348379368E+02  0.10579455446E+03  0.15500000000E+01 0.  1.
         -4    1    3    3    0  501  0.50330678192E+02 -0.32049472819E+02  0.17303762556E+03  0.18304307754E+03  0.15500000000E+01 0.  1.
<mgrwt>
<rscale>  2 0.12500522E+03</rscale>
<asrwt>0</asrwt>
<pdfrwt beam="1">  1       21 0.42247968E-01 0.12500522E+03</pdfrwt>
<pdfrwt beam="2">  1       21 0.21885869E-02 0.12500522E+03</pdfrwt>
<totfact> 0.56389352E+06</totfact>
</mgrwt>
</event>
<event>
 5    0  0.1346666E+000  0.1249926E+03  0.7546771E-02  0.1235081E+00
         21   -1    0    0  503  502  0.00000000000E+00  0.00000000000E+00  0.99183030644E+01  0.99183030644E+01  0.00000000000E+00 0. -1.
         21   -1    0    0  502  503 -0.00000000000E+00 -0.00000000000E+00 -0.39379582845E+03  0.39379582845E+03  0.00000000000E+00 0. -1.
         25    2    1    2    0    0  0.00000000000E+00  0.00000000000E+00 -0.38387752539E+03  0.40371413151E+03  0.12499258173E+03 0.  0.
          4    1    3    3  501    0  0.28203346348E+02 -0.54056651927E+02 -0.23596907107E+03  0.24372393269E+03  0.15500000000E+01 0. -1.
         -4    1    3    3    0  501 -0.28203346348E+02  0.54056651927E+02 -0.14790845432E+03  0.15999019883E+03  0.15500000000E+01 0. -1.
<mgrwt>
<rscale>  2 0.12499258E+03</rscale>
<asrwt>0</asrwt>
<pdfrwt beam="1">  1       21 0.15258928E-02 0.12499258E+03</pdfrwt>
<pdfrwt beam="2">  1       21 0.60583973E-01 0.12499258E+03</pdfrwt>
<totfact> 0.47804830E+06</totfact>
</mgrwt>
</event>
<event>
 5    0  0.1222151E+000  0.1249980E+03  0.7546771E-02  0.1235072E+00
         21   -1    0    0  503  502  0.00000000000E+00  0.00000000000E+00  0.14681698734E+04  0.14681698734E+04  0.00000000000E+00 0. -1.
         21   -1    0    0  502  503 -0.00000000000E+00 -0.00000000000E+00 -0.26605421490E+01  0.26605421490E+01  0.00000000000E+00 0. -1.
         25    2    1    2    0    0  0.00000000000E+00  0.00000000000E+00  0.14655093313E+04  0.14708304156E+04  0.12499804527E+03 0.  0.
          4    1    3    3  501    0  0.29838368460E+02 -0.51902531923E+02  0.94308955220E+03  0.94498915710E+03  0.15500000000E+01 0.  1.
         -4    1    3    3    0  501 -0.29838368460E+02  0.51902531923E+02  0.52241977909E+03  0.52584125850E+03  0.15500000000E+01 0.  1.
<mgrwt>
<rscale>  2 0.12499805E+03</rscale>
<asrwt>0</asrwt>
<pdfrwt beam="1">  1       21 0.22587164E+00 0.12499805E+03</pdfrwt>
<pdfrwt beam="2">  1       21 0.40931535E-03 0.12499805E+03</pdfrwt>
<totfact> 0.14431762E+06</totfact>
</mgrwt>
</event>
<event>
 5    0  0.1629333E+000  0.1249853E+03  0.7546771E-02  0.1235092E+00
         21   -1    0    0  503  502  0.00000000000E+00  0.00000000000E+00  0.18778858483E+03  0.18778858483E+03  0.00000000000E+00 0. -1.
         21   -1    0    0  502  503 -0.00000000000E+00 -0.00000000000E+00 -0.20796430165E+02  0.20796430165E+02  0.00000000000E+00 0. -1.
         25    2    1    2    0    0  0.00000000000E+00  0.00000000000E+00  0.16699215466E+03  0.20858501499E+03  0.12498531418E+03 0.  0.
          4    1    3    3  501    0  0.36214453540E+02  0.49404088247E+02  0.10398176943E+03  0.12069325356E+03  0.15500000000E+01 0.  1.
         -4    1    3    3    0  501 -0.36214453540E+02 -0.49404088247E+02  0.63010385232E+02  0.87891761433E+02  0.15500000000E+01 0.  1.
<mgrwt>
<rscale>  2 0.12498531E+03</rscale>
<asrwt>0</asrwt>
<pdfrwt beam="1">  1       21 0.28890550E-01 0.12498531E+03</pdfrwt>
<pdfrwt beam="2">  1       21 0.31994509E-02 0.12498531E+03</pdfrwt>
<totfact> 0.64032503E+06</totfact>
</mgrwt>
</event>
<event>
 5    0  0.1222151E+000  0.1249821E+03  0.7546771E-02  0.1235097E+00
         21   -1    0    0  503  502  0.00000000000E+00  0.00000000000E+00  0.45070564779E+01  0.45070564779E+01  0.00000000000E+00 0. -1.
         21   -1    0    0  502  503 -0.00000000000E+00 -0.00000000000E+00 -0.86644774471E+03  0.86644774471E+03  0.00000000000E+00 0. -1.
         25    2    1    2    0    0  0.00000000000E+00  0.00000000000E+00 -0.86194068823E+03  0.87095480119E+03  0.12498206144E+03 0.  0.
          4    1    3    3  501    0 -0.53182974561E+02 -0.10044141754E+02 -0.21355185553E+03  0.22030912616E+03  0.15500000000E+01 0. -1.
         -4    1    3    3    0  501  0.53182974561E+02  0.10044141754E+02 -0.64838883270E+03  0.65064567503E+03  0.15500000000E+01 0. -1.
<mgrwt>
<rscale>  2 0.12498206E+03</rscale>
<asrwt>0</asrwt>
<pdfrwt beam="1">  1       21 0.69339290E-03 0.12498206E+03</pdfrwt>
<pdfrwt beam="2">  1       21 0.13329973E+00 0.12498206E+03</pdfrwt>
<totfact> 0.27154129E+06</totfact>
</mgrwt>
</event>
<event>
 5    0  0.1586444E+000  0.1249865E+03  0.7546771E-02  0.1235090E+00
         21   -1    0    0  503  502  0.00000000000E+00  0.00000000000E+00  0.21195061726E+02  0.21195061726E+02  0.00000000000E+00 0. -1.
         21   -1    0    0  502  503 -0.00000000000E+00 -0.00000000000E+00 -0.18426024301E+03  0.18426024301E+03  0.00000000000E+00 0. -1.
         25    2    1    2    0    0  0.00000000000E+00  0.00000000000E+00 -0.16306518128E+03  0.20545530473E+03  0.12498651486E+03 0.  0.
          4    1    3    3  501    0  0.18118783542E+02 -0.59198565814E+02 -0.95309743449E+02  0.11366226378E+03  0.15500000000E+01 0.  1.
         -4    1    3    3    0  501 -0.18118783542E+02  0.59198565814E+02 -0.67755437832E+02  0.91793040953E+02  0.15500000000E+01 0.  1.
<mgrwt>
<rscale>  2 0.12498651E+03</rscale>
<asrwt>0</asrwt>
<pdfrwt beam="1">  1       21 0.32607788E-02 0.12498651E+03</pdfrwt>
<pdfrwt beam="2">  1       21 0.28347729E-01 0.12498651E+03</pdfrwt>
<totfact> 0.64362845E+06</totfact>
</mgrwt>
</event>
<event>
 5    0  0.1537716E+000  0.1250038E+03  0.7546771E-02  0.1235063E+00
         21   -1    0    0  503  502  0.00000000000E+00  0.00000000000E+00  0.83249049445E+02  0.83249049445E+02  0.00000000000E+00 0.  1.
         21   -1    0    0  502  503 -0.00000000000E+00 -0.00000000000E+00 -0.46925340810E+02  0.46925340810E+02  0.00000000000E+00 0.  1.
         25    2    1    2    0    0  0.00000000000E+00  0.00000000000E+00  0.36323708635E+02  0.13017439026E+03  0.12500384022E+03 0.  0.
          4    1    3    3  501    0 -0.42585722981E+02  0.29842570266E+01  0.65674016296E+02  0.78344932882E+02  0.15500000000E+01 0.  1.
         -4    1    3    3    0  501  0.42585722981E+02 -0.29842570266E+01 -0.29350307661E+02  0.51829457373E+02  0.15500000000E+01 0.  1.
<mgrwt>
<rscale>  2 0.12500384E+03</rscale>
<asrwt>0</asrwt>
<pdfrwt beam="1">  1       21 0.12807546E-01 0.12500384E+03</pdfrwt>
<pdfrwt beam="2">  1       21 0.72192832E-02 0.12500384E+03</pdfrwt>
<totfact> 0.73334427E+06</totfact>
</mgrwt>
</event>
<event>
 5    0  0.1594635E+000  0.1250127E+03  0.7546771E-02  0.1235049E+00
         21   -1    0    0  503  502  0.00000000000E+00  0.00000000000E+00  0.33061034634E+02  0.33061034634E+02  0.00000000000E+00 0. -1.
         21   -1    0    0  502  503 -0.00000000000E+00 -0.00000000000E+00 -0.11817670973E+03  0.11817670973E+03  0.00000000000E+00 0. -1.
         25    2    1    2    0    0  0.00000000000E+00  0.00000000000E+00 -0.85115675095E+02  0.15123774436E+03  0.12501270805E+03 0.  0.
          4    1    3    3  501    0 -0.46111272981E+02  0.33150538148E+00  0.84581612458E+01  0.46907380906E+02  0.15500000000E+01 0.  1.
         -4    1    3    3    0  501  0.46111272981E+02 -0.33150538148E+00 -0.93573836341E+02  0.10433036346E+03  0.15500000000E+01 0.  1.
<mgrwt>
<rscale>  2 0.12501271E+03</rscale>
<asrwt>0</asrwt>
<pdfrwt beam="1">  1       21 0.50863130E-02 0.12501271E+03</pdfrwt>
<pdfrwt beam="2">  1       21 0.18181032E-01 0.12501271E+03</pdfrwt>
<totfact> 0.70581230E+06</totfact>
</mgrwt>
</event>
<event>
 5    0  0.1587108E+000  0.1249977E+03  0.7546771E-02  0.1235073E+00
         21   -1    0    0  503  502  0.00000000000E+00  0.00000000000E+00  0.32145207971E+02  0.32145207971E+02  0.00000000000E+00 0.  1.
         21   -1    0    0  502  503 -0.00000000000E+00 -0.00000000000E+00 -0.12151437662E+03  0.12151437662E+03  0.00000000000E+00 0.  1.
         25    2    1    2    0    0  0.00000000000E+00  0.00000000000E+00 -0.89369168649E+02  0.15365958459E+03  0.12499767851E+03 0.  0.
          4    1    3    3  501    0 -0.51073914518E+02  0.99475489601E+01 -0.87201359892E+02  0.10155775766E+03  0.15500000000E+01 0.  1.
         -4    1    3    3    0  501  0.51073914518E+02 -0.99475489601E+01 -0.21678087569E+01  0.52101826929E+02  0.15500000000E+01 0.  1.
<mgrwt>
<rscale>  2 0.12499768E+03</rscale>
<asrwt>0</asrwt>
<pdfrwt beam="1">  1       21 0.49454167E-02 0.12499768E+03</pdfrwt>
<pdfrwt beam="2">  1       21 0.18694519E-01 0.12499768E+03</pdfrwt>
<totfact> 0.70306614E+06</totfact>
</mgrwt>
</event>
<event>
 5    0  0.1448621E+000  0.1250023E+03  0.7546771E-02  0.1235066E+00
         21   -1    0    0  503  502  0.00000000000E+00  0.00000000000E+00  0.27705452255E+03  0.27705452255E+03  0.00000000000E+00 0.  1.
         21   -1    0    0  502  503 -0.00000000000E+00 -0.00000000000E+00 -0.14099740509E+02  0.14099740509E+02  0.00000000000E+00 0.  1.
         25    2    1    2    0    0  0.00000000000E+00  0.00000000000E+00  0.26295478204E+03  0.29115426305E+03  0.12500234997E+03 0.  0.
          4    1    3    3  501    0 -0.46696453676E+01 -0.49506424758E+02  0.43358155605E+02  0.65992604417E+02  0.15500000000E+01 0.  1.
         -4    1    3    3    0  501  0.46696453676E+01  0.49506424758E+02  0.21959662643E+03  0.22516165864E+03  0.15500000000E+01 0.  1.
<mgrwt>
<rscale>  2 0.12500235E+03</rscale>
<asrwt>0</asrwt>
<pdfrwt beam="1">  1       21 0.42623769E-01 0.12500235E+03</pdfrwt>
<pdfrwt beam="2">  1       21 0.21691910E-02 0.12500235E+03</pdfrwt>
<totfact> 0.56196077E+06</totfact>
</mgrwt>
</event>
<event>
 5    0  0.1222151E+000  0.1250018E+03  0.7546771E-02  0.1235067E+00
         21   -1    0    0  503  502  0.00000000000E+00  0.00000000000E+00  0.38731810775E+01  0.38731810775E+01  0.00000000000E+00 0.  1.
         21   -1    0    0  502  503 -0.00000000000E+00 -0.00000000000E+00 -0.10085663093E+04  0.10085663093E+04  0.00000000000E+00 0.  1.
         25    2    1    2    0    0  0.00000000000E+00  0.00000000000E+00 -0.10046931282E+04  0.10124394904E+04  0.12500175910E+03 0.  0.
          4    1    3    3  501    0  0.48157732711E+01  0.39150910884E+02 -0.10988294541E+03  0.11675893836E+03  0.15500000000E+01 0.  1.
         -4    1    3    3    0  501 -0.48157732711E+01 -0.39150910884E+02 -0.89481018281E+03  0.89568055201E+03  0.15500000000E+01 0.  1.
<mgrwt>
<rscale>  2 0.12500176E+03</rscale>
<asrwt>0</asrwt>
<pdfrwt beam="1">  1       21 0.59587413E-03 0.12500176E+03</pdfrwt>
<pdfrwt beam="2">  1       21 0.15516402E+00 0.12500176E+03</pdfrwt>
<totfact> 0.23309406E+06</totfact>
</mgrwt>
</event>
<event>
 5    0  0.1555208E+000  0.1250028E+03  0.7546771E-02  0.1235065E+00
         21   -1    0    0  503  502  0.00000000000E+00  0.00000000000E+00  0.50726482346E+02  0.50726482346E+02  0.00000000000E+00 0. -1.
         21   -1    0    0  502  503 -0.00000000000E+00 -0.00000000000E+00 -0.77009566195E+02  0.77009566195E+02  0.00000000000E+00 0. -1.
         25    2    1    2    0    0  0.00000000000E+00  0.00000000000E+00 -0.26283083849E+02  0.12773604854E+03  0.12500279037E+03 0.  0.
          4    1    3    3  501    0 -0.47640054256E+02 -0.38155016756E+02 -0.26799486483E+02  0.66678295186E+02  0.15500000000E+01 0. -1.
         -4    1    3    3    0  501  0.47640054256E+02  0.38155016756E+02  0.51640263392E+00  0.61057753355E+02  0.15500000000E+01 0. -1.
<mgrwt>
<rscale>  2 0.12500279E+03</rscale>
<asrwt>0</asrwt>
<pdfrwt beam="1">  1       21 0.78040743E-02 0.12500279E+03</pdfrwt>
<pdfrwt beam="2">  1       21 0.11847625E-01 0.12500279E+03</pdfrwt>
<totfact> 0.73663999E+06</totfact>
</mgrwt>
</event>
<event>
 5    0  0.1222151E+000  0.1250004E+03  0.7546771E-02  0.1235069E+00
         21   -1    0    0  503  502  0.00000000000E+00  0.00000000000E+00  0.21351009363E+01  0.21351009363E+01  0.00000000000E+00 0. -1.
         21   -1    0    0  502  503 -0.00000000000E+00 -0.00000000000E+00 -0.18295512035E+04  0.18295512035E+04  0.00000000000E+00 0. -1.
         25    2    1    2    0    0  0.00000000000E+00  0.00000000000E+00 -0.18274161025E+04  0.18316863044E+04  0.12500042380E+03 0.  0.
          4    1    3    3  501    0 -0.46110969755E+02  0.38666416859E+02 -0.11600256620E+04  0.11615865238E+04  0.15500000000E+01 0.  1.
         -4    1    3    3    0  501  0.46110969755E+02 -0.38666416859E+02 -0.66739044050E+03  0.67009978056E+03  0.15500000000E+01 0.  1.
<mgrwt>
<rscale>  2 0.12500042E+03</rscale>
<asrwt>0</asrwt>
<pdfrwt beam="1">  1       21 0.32847789E-03 0.12500042E+03</pdfrwt>
<pdfrwt beam="2">  1       21 0.28146871E+00 0.12500042E+03</pdfrwt>
<totfact> 0.97100395E+05</totfact>
</mgrwt>
</event>
<event>
 5    0  0.1477688E+000  0.1249987E+03  0.7546771E-02  0.1235071E+00
         21   -1    0    0  503  502  0.00000000000E+00  0.00000000000E+00  0.17159892285E+02  0.17159892285E+02  0.00000000000E+00 0. -1.
         21   -1    0    0  502  503 -0.00000000000E+00 -0.00000000000E+00 -0.22763367990E+03  0.22763367990E+03  0.00000000000E+00 0. -1.
         25    2    1    2    0    0  0.00000000000E+00  0.00000000000E+00 -0.21047378762E+03  0.24479357219E+03  0.12499871083E+03 0.  0.
          4    1    3    3  501    0 -0.21827518797E+02 -0.55627837296E+02 -0.69506989871E+02  0.91676174658E+02  0.15500000000E+01 0. -1.
         -4    1    3    3    0  501  0.21827518797E+02  0.55627837296E+02 -0.14096679775E+03  0.15311739753E+03  0.15500000000E+01 0. -1.
<mgrwt>
<rscale>  2 0.12499871E+03</rscale>
<asrwt>0</asrwt>
<pdfrwt beam="1">  1       21 0.26399834E-02 0.12499871E+03</pdfrwt>
<pdfrwt beam="2">  1       21 0.35020567E-01 0.12499871E+03</pdfrwt>
<totfact> 0.60373821E+06</totfact>
</mgrwt>
</event>
<event>
 5    0  0.1457487E+000  0.1250043E+03  0.7546771E-02  0.1235063E+00
         21   -1    0    0  503  502  0.00000000000E+00  0.00000000000E+00  0.12271430894E+02  0.12271430894E+02  0.00000000000E+00 0.  1.
         21   -1    0    0  502  503 -0.00000000000E+00 -0.00000000000E+00 -0.31834267227E+03  0.31834267227E+03  0.00000000000E+00 0.  1.
         25    2    1    2    0    0  0.00000000000E+00  0.00000000000E+00 -0.30607124138E+03  0.33061410316E+03  0.12500432158E+03 0.  0.
          4    1    3    3  501    0 -0.59382860716E+02  0.13812024885E+02 -0.11686616035E+03  0.13182260092E+03  0.15500000000E+01 0. -1.
         -4    1    3    3    0  501  0.59382860716E+02 -0.13812024885E+02 -0.18920508103E+03  0.19879150225E+03  0.15500000000E+01 0. -1.
<mgrwt>
<rscale>  2 0.12500432E+03</rscale>
<asrwt>0</asrwt>
<pdfrwt beam="1">  1       21 0.18879129E-02 0.12500432E+03</pdfrwt>
<pdfrwt beam="2">  1       21 0.48975785E-01 0.12500432E+03</pdfrwt>
<totfact> 0.52997066E+06</totfact>
</mgrwt>
</event>
<event>
 5    0  0.1235999E+000  0.1250017E+03  0.7546771E-02  0.1235067E+00
         21   -1    0    0  503  502  0.00000000000E+00  0.00000000000E+00  0.49739320838E+03  0.49739320838E+03  0.00000000000E+00 0.  1.
         21   -1    0    0  502  503 -0.00000000000E+00 -0.00000000000E+00 -0.78536577049E+01  0.78536577049E+01  0.00000000000E+00 0.  1.
         25    2    1    2    0    0  0.00000000000E+00  0.00000000000E+00  0.48953955067E+03  0.50524686608E+03  0.12500169604E+03 0.  0.
          4    1    3    3  501    0  0.36554932606E+02  0.67694532565E+01  0.44774761784E+03  0.44929101970E+03  0.15500000000E+01 0.  1.
         -4    1    3    3    0  501 -0.36554932606E+02 -0.67694532565E+01  0.41791932829E+02  0.55955846386E+02  0.15500000000E+01 0.  1.
<mgrwt>
<rscale>  2 0.12500170E+03</rscale>
<asrwt>0</asrwt>
<pdfrwt beam="1">  1       21 0.76522008E-01 0.12500170E+03</pdfrwt>
<pdfrwt beam="2">  1       21 0.12082554E-02 0.12500170E+03</pdfrwt>
<totfact> 0.41759188E+06</totfact>
</mgrwt>
</event>
<event>
 5    0  0.1616824E+000  0.1249893E+03  0.7546771E-02  0.1235086E+00
         21   -1    0    0  503  502  0.00000000000E+00  0.00000000000E+00  0.20229281845E+03  0.20229281845E+03  0.00000000000E+00 0. -1.
         21   -1    0    0  502  503 -0.00000000000E+00 -0.00000000000E+00 -0.19306579647E+02  0.19306579647E+02  0.00000000000E+00 0. -1.
         25    2    1    2    0    0  0.00000000000E+00  0.00000000000E+00  0.18298623880E+03  0.22159939809E+03  0.12498931812E+03 0.  0.
          4    1    3    3  501    0 -0.13300872543E+02 -0.59922436681E+02  0.11213621033E+03  0.12784578130E+03  0.15500000000E+01 0.  1.
         -4    1    3    3    0  501  0.13300872543E+02  0.59922436681E+02  0.70850028465E+02  0.93753616793E+02  0.15500000000E+01 0.  1.
<mgrwt>
<rscale>  2 0.12498932E+03</rscale>
<asrwt>0</asrwt>
<pdfrwt beam="1">  1       21 0.31121971E-01 0.12498932E+03</pdfrwt>
<pdfrwt beam="2">  1       21 0.29702432E-02 0.12498932E+03</pdfrwt>
<totfact> 0.62676346E+06</totfact>
</mgrwt>
</event>
