<event>
 3    0  0.1711369E+001  0.1250000E+03  0.7546771E-02  0.1235069E+00
         21   -1    0    0  502  501  0.00000000000E+00  0.00000000000E+00  0.53759316650E+02  0.53759316650E+02  0.00000000000E+00 0.  1.
         21   -1    0    0  501  502 -0.00000000000E+00 -0.00000000000E+00 -0.72661823910E+02  0.72661823910E+02  0.00000000000E+00 0.  1.
         25    1    1    2    0    0  0.00000000000E+00  0.00000000000E+00 -0.18902507260E+02  0.12642114056E+03  0.12500000000E+03 0.  0.
<mgrwt>
<rscale>  2 0.12500000E+03</rscale>
<asrwt>0</asrwt>
<pdfrwt beam="1">  1       21 0.82706641E-02 0.12500000E+03</pdfrwt>
<pdfrwt beam="2">  1       21 0.11178742E-01 0.12500000E+03</pdfrwt>
<totfact> 0.73848170E+06</totfact>
</mgrwt>
</event>
<event>
 3    0  0.1670464E+001  0.1250000E+03  0.7546771E-02  0.1235069E+00
         21   -1    0    0  502  501  0.00000000000E+00  0.00000000000E+00  0.10695188359E+03  0.10695188359E+03  0.00000000000E+00 0. -1.
         21   -1    0    0  501  502 -0.00000000000E+00 -0.00000000000E+00 -0.36523433425E+02  0.36523433425E+02  0.00000000000E+00 0. -1.
         25    1    1    2    0    0  0.00000000000E+00  0.00000000000E+00  0.70428450165E+02  0.14347531702E+03  0.12500000000E+03 0.  0.
<mgrwt>
<rscale>  2 0.12500000E+03</rscale>
<asrwt>0</asrwt>
<pdfrwt beam="1">  1       21 0.16454136E-01 0.12500000E+03</pdfrwt>
<pdfrwt beam="2">  1       21 0.56189898E-02 0.12500000E+03</pdfrwt>
<totfact> 0.71588796E+06</totfact>
</mgrwt>
</event>
<event>
 3    0  0.1660174E+001  0.1250000E+03  0.7546771E-02  0.1235069E+00
         21   -1    0    0  502  501  0.00000000000E+00  0.00000000000E+00  0.16023702877E+03  0.16023702877E+03  0.00000000000E+00 0.  1.
         21   -1    0    0  501  502 -0.00000000000E+00 -0.00000000000E+00 -0.24377948281E+02  0.24377948281E+02  0.00000000000E+00 0.  1.
         25    1    1    2    0    0  0.00000000000E+00  0.00000000000E+00  0.13585908049E+03  0.18461497705E+03  0.12500000000E+03 0.  0.
<mgrwt>
<rscale>  2 0.12500000E+03</rscale>
<asrwt>0</asrwt>
<pdfrwt beam="1">  1       21 0.24651850E-01 0.12500000E+03</pdfrwt>
<pdfrwt beam="2">  1       21 0.37504537E-02 0.12500000E+03</pdfrwt>
<totfact> 0.66626024E+06</totfact>
</mgrwt>
</event>
<event>
 3    0  0.1688060E+001  0.1250000E+03  0.7546771E-02  0.1235069E+00
         21   -1    0    0  502  501  0.00000000000E+00  0.00000000000E+00  0.61385729641E+02  0.61385729641E+02  0.00000000000E+00 0. -1.
         21   -1    0    0  501  502 -0.00000000000E+00 -0.00000000000E+00 -0.63634496533E+02  0.63634496533E+02  0.00000000000E+00 0. -1.
         25    1    1    2    0    0  0.00000000000E+00  0.00000000000E+00 -0.22487668915E+01  0.12502022617E+03  0.12500000000E+03 0.  0.
<mgrwt>
<rscale>  2 0.12500000E+03</rscale>
<asrwt>0</asrwt>
<pdfrwt beam="1">  1       21 0.94439584E-02 0.12500000E+03</pdfrwt>
<pdfrwt beam="2">  1       21 0.97899226E-02 0.12500000E+03</pdfrwt>
<totfact> 0.74040849E+06</totfact>
</mgrwt>
</event>
<event>
 3    0  0.1368989E+001  0.1250000E+03  0.7546771E-02  0.1235069E+00
         21   -1    0    0  502  501  0.00000000000E+00  0.00000000000E+00  0.43737840452E+01  0.43737840452E+01  0.00000000000E+00 0.  1.
         21   -1    0    0  501  502 -0.00000000000E+00 -0.00000000000E+00 -0.89310536588E+03  0.89310536588E+03  0.00000000000E+00 0.  1.
         25    1    1    2    0    0  0.00000000000E+00  0.00000000000E+00 -0.88873158184E+03  0.89747914993E+03  0.12500000000E+03 0.  0.
<mgrwt>
<rscale>  2 0.12500000E+03</rscale>
<asrwt>0</asrwt>
<pdfrwt beam="1">  1       21 0.67288993E-03 0.12500000E+03</pdfrwt>
<pdfrwt beam="2">  1       21 0.13740081E+00 0.12500000E+03</pdfrwt>
<totfact> 0.26371725E+06</totfact>
</mgrwt>
</event>
<event>
 3    0  0.1368989E+001  0.1250000E+03  0.7546771E-02  0.1235069E+00
         21   -1    0    0  502  501  0.00000000000E+00  0.00000000000E+00  0.29716122821E+01  0.29716122821E+01  0.00000000000E+00 0.  1.
         21   -1    0    0  501  502 -0.00000000000E+00 -0.00000000000E+00 -0.13145220941E+04  0.13145220941E+04  0.00000000000E+00 0.  1.
         25    1    1    2    0    0  0.00000000000E+00  0.00000000000E+00 -0.13115504818E+04  0.13174937064E+04  0.12500000000E+03 0.  0.
<mgrwt>
<rscale>  2 0.12500000E+03</rscale>
<asrwt>0</asrwt>
<pdfrwt beam="1">  1       21 0.45717069E-03 0.12500000E+03</pdfrwt>
<pdfrwt beam="2">  1       21 0.20223436E+00 0.12500000E+03</pdfrwt>
<totfact> 0.16941112E+06</totfact>
</mgrwt>
</event>
<event>
 3    0  0.1368989E+001  0.1250000E+03  0.7546771E-02  0.1235069E+00
         21   -1    0    0  502  501  0.00000000000E+00  0.00000000000E+00  0.38617537350E+01  0.38617537350E+01  0.00000000000E+00 0. -1.
         21   -1    0    0  501  502 -0.00000000000E+00 -0.00000000000E+00 -0.10115222948E+04  0.10115222948E+04  0.00000000000E+00 0. -1.
         25    1    1    2    0    0  0.00000000000E+00  0.00000000000E+00 -0.10076605411E+04  0.10153840485E+04  0.12500000000E+03 0.  0.
<mgrwt>
<rscale>  2 0.12500000E+03</rscale>
<asrwt>0</asrwt>
<pdfrwt beam="1">  1       21 0.59411604E-03 0.12500000E+03</pdfrwt>
<pdfrwt beam="2">  1       21 0.15561879E+00 0.12500000E+03</pdfrwt>
<totfact> 0.23237388E+06</totfact>
</mgrwt>
</event>
<event>
 3    0  0.1674707E+001  0.1250000E+03  0.7546771E-02  0.1235069E+00
         21   -1    0    0  502  501  0.00000000000E+00  0.00000000000E+00  0.39593249809E+02  0.39593249809E+02  0.00000000000E+00 0. -1.
         21   -1    0    0  501  502 -0.00000000000E+00 -0.00000000000E+00 -0.98659494202E+02  0.98659494202E+02  0.00000000000E+00 0. -1.
         25    1    1    2    0    0  0.00000000000E+00  0.00000000000E+00 -0.59066244393E+02  0.13825274401E+03  0.12500000000E+03 0.  0.
<mgrwt>
<rscale>  2 0.12500000E+03</rscale>
<asrwt>0</asrwt>
<pdfrwt beam="1">  1       21 0.60912693E-02 0.12500000E+03</pdfrwt>
<pdfrwt beam="2">  1       21 0.15178383E-01 0.12500000E+03</pdfrwt>
<totfact> 0.72268238E+06</totfact>
</mgrwt>
</event>
<event>
 3    0  0.1497433E+001  0.1250000E+03  0.7546771E-02  0.1235069E+00
         21   -1    0    0  502  501  0.00000000000E+00  0.00000000000E+00  0.94855407112E+01  0.94855407112E+01  0.00000000000E+00 0. -1.
         21   -1    0    0  501  502 -0.00000000000E+00 -0.00000000000E+00 -0.41181099939E+03  0.41181099939E+03  0.00000000000E+00 0. -1.
         25    1    1    2    0    0  0.00000000000E+00  0.00000000000E+00 -0.40232545867E+03  0.42129654010E+03  0.12500000000E+03 0.  0.
<mgrwt>
<rscale>  2 0.12500000E+03</rscale>
<asrwt>0</asrwt>
<pdfrwt beam="1">  1       21 0.14593137E-02 0.12500000E+03</pdfrwt>
<pdfrwt beam="2">  1       21 0.63355549E-01 0.12500000E+03</pdfrwt>
<totfact> 0.46660122E+06</totfact>
</mgrwt>
</event>
<event>
 3    0  0.1624748E+001  0.1250000E+03  0.7546771E-02  0.1235069E+00
         21   -1    0    0  502  501  0.00000000000E+00  0.00000000000E+00  0.18860620006E+03  0.18860620006E+03  0.00000000000E+00 0. -1.
         21   -1    0    0  501  502 -0.00000000000E+00 -0.00000000000E+00 -0.20711143105E+02  0.20711143105E+02  0.00000000000E+00 0. -1.
         25    1    1    2    0    0  0.00000000000E+00  0.00000000000E+00  0.16789505696E+03  0.20931734317E+03  0.12500000000E+03 0.  0.
<mgrwt>
<rscale>  2 0.12500000E+03</rscale>
<asrwt>0</asrwt>
<pdfrwt beam="1">  1       21 0.29016337E-01 0.12500000E+03</pdfrwt>
<pdfrwt beam="2">  1       21 0.31863298E-02 0.12500000E+03</pdfrwt>
<totfact> 0.63931431E+06</totfact>
</mgrwt>
</event>
<event>
 3    0  0.1626671E+001  0.1250000E+03  0.7546771E-02  0.1235069E+00
         21   -1    0    0  502  501  0.00000000000E+00  0.00000000000E+00  0.21639774641E+02  0.21639774641E+02  0.00000000000E+00 0. -1.
         21   -1    0    0  501  502 -0.00000000000E+00 -0.00000000000E+00 -0.18051250832E+03  0.18051250832E+03  0.00000000000E+00 0. -1.
         25    1    1    2    0    0  0.00000000000E+00  0.00000000000E+00 -0.15887273368E+03  0.20215228296E+03  0.12500000000E+03 0.  0.
<mgrwt>
<rscale>  2 0.12500000E+03</rscale>
<asrwt>0</asrwt>
<pdfrwt beam="1">  1       21 0.33291961E-02 0.12500000E+03</pdfrwt>
<pdfrwt beam="2">  1       21 0.27771155E-01 0.12500000E+03</pdfrwt>
<totfact> 0.64694781E+06</totfact>
</mgrwt>
</event>
<event>
 3    0  0.1630411E+001  0.1250000E+03  0.7546771E-02  0.1235069E+00
         21   -1    0    0  502  501  0.00000000000E+00  0.00000000000E+00  0.22272568359E+03  0.22272568359E+03  0.00000000000E+00 0.  1.
         21   -1    0    0  501  502 -0.00000000000E+00 -0.00000000000E+00 -0.17538390441E+02  0.17538390441E+02  0.00000000000E+00 0.  1.
         25    1    1    2    0    0  0.00000000000E+00  0.00000000000E+00  0.20518729315E+03  0.24026407403E+03  0.12500000000E+03 0.  0.
<mgrwt>
<rscale>  2 0.12500000E+03</rscale>
<asrwt>0</asrwt>
<pdfrwt beam="1">  1       21 0.34265488E-01 0.12500000E+03</pdfrwt>
<pdfrwt beam="2">  1       21 0.26982141E-02 0.12500000E+03</pdfrwt>
<totfact> 0.60807119E+06</totfact>
</mgrwt>
</event>
<event>
 3    0  0.1368989E+001  0.1250000E+03  0.7546771E-02  0.1235069E+00
         21   -1    0    0  502  501  0.00000000000E+00  0.00000000000E+00  0.69684879390E+03  0.69684879390E+03  0.00000000000E+00 0.  1.
         21   -1    0    0  501  502 -0.00000000000E+00 -0.00000000000E+00 -0.56055919651E+01  0.56055919651E+01  0.00000000000E+00 0.  1.
         25    1    1    2    0    0  0.00000000000E+00  0.00000000000E+00  0.69124320194E+03  0.70245438587E+03  0.12500000000E+03 0.  0.
<mgrwt>
<rscale>  2 0.12500000E+03</rscale>
<asrwt>0</asrwt>
<pdfrwt beam="1">  1       21 0.10720744E+00 0.12500000E+03</pdfrwt>
<pdfrwt beam="2">  1       21 0.86239932E-03 0.12500000E+03</pdfrwt>
<totfact> 0.32815746E+06</totfact>
</mgrwt>
</event>
<event>
 3    0  0.1683677E+001  0.1250000E+03  0.7546771E-02  0.1235069E+00
         21   -1    0    0  502  501  0.00000000000E+00  0.00000000000E+00  0.46393107870E+02  0.46393107870E+02  0.00000000000E+00 0. -1.
         21   -1    0    0  501  502 -0.00000000000E+00 -0.00000000000E+00 -0.84198929094E+02  0.84198929094E+02  0.00000000000E+00 0. -1.
         25    1    1    2    0    0  0.00000000000E+00  0.00000000000E+00 -0.37805821223E+02  0.13059203696E+03  0.12500000000E+03 0.  0.
<mgrwt>
<rscale>  2 0.12500000E+03</rscale>
<asrwt>0</asrwt>
<pdfrwt beam="1">  1       21 0.71374012E-02 0.12500000E+03</pdfrwt>
<pdfrwt beam="2">  1       21 0.12953681E-01 0.12500000E+03</pdfrwt>
<totfact> 0.73285702E+06</totfact>
</mgrwt>
</event>
<event>
 3    0  0.1590012E+001  0.1250000E+03  0.7546771E-02  0.1235069E+00
         21   -1    0    0  502  501  0.00000000000E+00  0.00000000000E+00  0.22185483048E+03  0.22185483048E+03  0.00000000000E+00 0. -1.
         21   -1    0    0  501  502 -0.00000000000E+00 -0.00000000000E+00 -0.17607234387E+02  0.17607234387E+02  0.00000000000E+00 0. -1.
         25    1    1    2    0    0  0.00000000000E+00  0.00000000000E+00  0.20424759609E+03  0.23946206486E+03  0.12500000000E+03 0.  0.
<mgrwt>
<rscale>  2 0.12500000E+03</rscale>
<asrwt>0</asrwt>
<pdfrwt beam="1">  1       21 0.34131510E-01 0.12500000E+03</pdfrwt>
<pdfrwt beam="2">  1       21 0.27088054E-02 0.12500000E+03</pdfrwt>
<totfact> 0.60884757E+06</totfact>
</mgrwt>
</event>
<event>
 3    0  0.1585316E+001  0.1250000E+03  0.7546771E-02  0.1235069E+00
         21   -1    0    0  502  501  0.00000000000E+00  0.00000000000E+00  0.25713249354E+03  0.25713249354E+03  0.00000000000E+00 0. -1.
         21   -1    0    0  501  502 -0.00000000000E+00 -0.00000000000E+00 -0.15191584487E+02  0.15191584487E+02  0.00000000000E+00 0. -1.
         25    1    1    2    0    0  0.00000000000E+00  0.00000000000E+00  0.24194090906E+03  0.27232407803E+03  0.12500000000E+03 0.  0.
<mgrwt>
<rscale>  2 0.12500000E+03</rscale>
<asrwt>0</asrwt>
<pdfrwt beam="1">  1       21 0.39558842E-01 0.12500000E+03</pdfrwt>
<pdfrwt beam="2">  1       21 0.23371670E-02 0.12500000E+03</pdfrwt>
<totfact> 0.57837536E+06</totfact>
</mgrwt>
</event>
<event>
 3    0  0.1640343E+001  0.1250000E+03  0.7546771E-02  0.1235069E+00
         21   -1    0    0  502  501  0.00000000000E+00  0.00000000000E+00  0.15259424381E+03  0.15259424381E+03  0.00000000000E+00 0. -1.
         21   -1    0    0  501  502 -0.00000000000E+00 -0.00000000000E+00 -0.25598934157E+02  0.25598934157E+02  0.00000000000E+00 0. -1.
         25    1    1    2    0    0  0.00000000000E+00  0.00000000000E+00  0.12699530965E+03  0.17819317796E+03  0.12500000000E+03 0.  0.
<mgrwt>
<rscale>  2 0.12500000E+03</rscale>
<asrwt>0</asrwt>
<pdfrwt beam="1">  1       21 0.23476037E-01 0.12500000E+03</pdfrwt>
<pdfrwt beam="2">  1       21 0.39382977E-02 0.12500000E+03</pdfrwt>
<totfact> 0.67359416E+06</totfact>
</mgrwt>
</event>
<event>
 3    0  0.1509945E+001  0.1250000E+03  0.7546771E-02  0.1235069E+00
         21   -1    0    0  502  501  0.00000000000E+00  0.00000000000E+00  0.10594994342E+02  0.10594994342E+02  0.00000000000E+00 0. -1.
         21   -1    0    0  501  502 -0.00000000000E+00 -0.00000000000E+00 -0.36868825728E+03  0.36868825728E+03  0.00000000000E+00 0. -1.
         25    1    1    2    0    0  0.00000000000E+00  0.00000000000E+00 -0.35809326294E+03  0.37928325162E+03  0.12500000000E+03 0.  0.
<mgrwt>
<rscale>  2 0.12500000E+03</rscale>
<asrwt>0</asrwt>
<pdfrwt beam="1">  1       21 0.16299990E-02 0.12500000E+03</pdfrwt>
<pdfrwt beam="2">  1       21 0.56721274E-01 0.12500000E+03</pdfrwt>
<totfact> 0.49445862E+06</totfact>
</mgrwt>
</event>
<event>
 3    0  0.1368989E+001  0.1250000E+03  0.7546771E-02  0.1235069E+00
         21   -1    0    0  502  501  0.00000000000E+00  0.00000000000E+00  0.23044633342E+01  0.23044633342E+01  0.00000000000E+00 0.  1.
         21   -1    0    0  501  502 -0.00000000000E+00 -0.00000000000E+00 -0.16950801265E+04  0.16950801265E+04  0.00000000000E+00 0.  1.
         25    1    1    2    0    0  0.00000000000E+00  0.00000000000E+00 -0.16927756632E+04  0.16973845898E+04  0.12500000000E+03 0.  0.
<mgrwt>
<rscale>  2 0.12500000E+03</rscale>
<asrwt>0</asrwt>
<pdfrwt beam="1">  1       21 0.35453230E-03 0.12500000E+03</pdfrwt>
<pdfrwt beam="2">  1       21 0.26078194E+00 0.12500000E+03</pdfrwt>
<totfact> 0.11302406E+06</totfact>
</mgrwt>
</event>
<event>
 3    0  0.1710585E+001  0.1250000E+03  0.7546771E-02  0.1235069E+00
         21   -1    0    0  502  501  0.00000000000E+00  0.00000000000E+00  0.50728429305E+02  0.50728429305E+02  0.00000000000E+00 0.  1.
         21   -1    0    0  501  502 -0.00000000000E+00 -0.00000000000E+00 -0.77003172650E+02  0.77003172650E+02  0.00000000000E+00 0.  1.
         25    1    1    2    0    0  0.00000000000E+00  0.00000000000E+00 -0.26274743345E+02  0.12773160195E+03  0.12500000000E+03 0.  0.
<mgrwt>
<rscale>  2 0.12500000E+03</rscale>
<asrwt>0</asrwt>
<pdfrwt beam="1">  1       21 0.78043738E-02 0.12500000E+03</pdfrwt>
<pdfrwt beam="2">  1       21 0.11846642E-01 0.12500000E+03</pdfrwt>
<totfact> 0.73669849E+06</totfact>
</mgrwt>
</event>
<event>
 3    0  0.1368989E+001  0.1250000E+03  0.7546771E-02  0.1235069E+00
         21   -1    0    0  502  501  0.00000000000E+00  0.00000000000E+00  0.78473780964E+03  0.78473780964E+03  0.00000000000E+00 0. -1.
         21   -1    0    0  501  502 -0.00000000000E+00 -0.00000000000E+00 -0.49777772295E+01  0.49777772295E+01  0.00000000000E+00 0. -1.
         25    1    1    2    0    0  0.00000000000E+00  0.00000000000E+00  0.77976003242E+03  0.78971558687E+03  0.12500000000E+03 0.  0.
<mgrwt>
<rscale>  2 0.12500000E+03</rscale>
<asrwt>0</asrwt>
<pdfrwt beam="1">  1       21 0.12072880E+00 0.12500000E+03</pdfrwt>
<pdfrwt beam="2">  1       21 0.76581251E-03 0.12500000E+03</pdfrwt>
<totfact> 0.29706433E+06</totfact>
</mgrwt>
</event>
<event>
 3    0  0.1469192E+001  0.1250000E+03  0.7546771E-02  0.1235069E+00
         21   -1    0    0  502  501  0.00000000000E+00  0.00000000000E+00  0.52254176887E+03  0.52254176887E+03  0.00000000000E+00 0.  1.
         21   -1    0    0  501  502 -0.00000000000E+00 -0.00000000000E+00 -0.74754789621E+01  0.74754789621E+01  0.00000000000E+00 0.  1.
         25    1    1    2    0    0  0.00000000000E+00  0.00000000000E+00  0.51506628991E+03  0.53001724783E+03  0.12500000000E+03 0.  0.
<mgrwt>
<rscale>  2 0.12500000E+03</rscale>
<asrwt>0</asrwt>
<pdfrwt beam="1">  1       21 0.80391013E-01 0.12500000E+03</pdfrwt>
<pdfrwt beam="2">  1       21 0.11500741E-02 0.12500000E+03</pdfrwt>
<totfact> 0.40461603E+06</totfact>
</mgrwt>
</event>
<event>
 3    0  0.1575242E+001  0.1250000E+03  0.7546771E-02  0.1235069E+00
         21   -1    0    0  502  501  0.00000000000E+00  0.00000000000E+00  0.15686058776E+02  0.15686058776E+02  0.00000000000E+00 0. -1.
         21   -1    0    0  501  502 -0.00000000000E+00 -0.00000000000E+00 -0.24902686237E+03  0.24902686237E+03  0.00000000000E+00 0. -1.
         25    1    1    2    0    0  0.00000000000E+00  0.00000000000E+00 -0.23334080359E+03  0.26471292115E+03  0.12500000000E+03 0.  0.
<mgrwt>
<rscale>  2 0.12500000E+03</rscale>
<asrwt>0</asrwt>
<pdfrwt beam="1">  1       21 0.24132400E-02 0.12500000E+03</pdfrwt>
<pdfrwt beam="2">  1       21 0.38311823E-01 0.12500000E+03</pdfrwt>
<totfact> 0.58519983E+06</totfact>
</mgrwt>
</event>
<event>
 3    0  0.1711354E+001  0.1250000E+03  0.7546771E-02  0.1235069E+00
         21   -1    0    0  502  501  0.00000000000E+00  0.00000000000E+00  0.67766116879E+02  0.67766116879E+02  0.00000000000E+00 0.  1.
         21   -1    0    0  501  502 -0.00000000000E+00 -0.00000000000E+00 -0.57643113991E+02  0.57643113991E+02  0.00000000000E+00 0.  1.
         25    1    1    2    0    0  0.00000000000E+00  0.00000000000E+00  0.10123002888E+02  0.12540923087E+03  0.12500000000E+03 0.  0.
<mgrwt>
<rscale>  2 0.12500000E+03</rscale>
<asrwt>0</asrwt>
<pdfrwt beam="1">  1       21 0.10425556E-01 0.12500000E+03</pdfrwt>
<pdfrwt beam="2">  1       21 0.88681714E-02 0.12500000E+03</pdfrwt>
<totfact> 0.73988115E+06</totfact>
</mgrwt>
</event>
<event>
 3    0  0.1626251E+001  0.1250000E+03  0.7546771E-02  0.1235069E+00
         21   -1    0    0  502  501  0.00000000000E+00  0.00000000000E+00  0.18029341907E+02  0.18029341907E+02  0.00000000000E+00 0.  1.
         21   -1    0    0  501  502 -0.00000000000E+00 -0.00000000000E+00 -0.21666070898E+03  0.21666070898E+03  0.00000000000E+00 0.  1.
         25    1    1    2    0    0  0.00000000000E+00  0.00000000000E+00 -0.19863136707E+03  0.23469005089E+03  0.12500000000E+03 0.  0.
<mgrwt>
<rscale>  2 0.12500000E+03</rscale>
<asrwt>0</asrwt>
<pdfrwt beam="1">  1       21 0.27737449E-02 0.12500000E+03</pdfrwt>
<pdfrwt beam="2">  1       21 0.33332417E-01 0.12500000E+03</pdfrwt>
<totfact> 0.61350311E+06</totfact>
</mgrwt>
</event>
<event>
 3    0  0.1368989E+001  0.1250000E+03  0.7546771E-02  0.1235069E+00
         21   -1    0    0  502  501  0.00000000000E+00  0.00000000000E+00  0.28348741559E+01  0.28348741559E+01  0.00000000000E+00 0. -1.
         21   -1    0    0  501  502 -0.00000000000E+00 -0.00000000000E+00 -0.13779271266E+04  0.13779271266E+04  0.00000000000E+00 0. -1.
         25    1    1    2    0    0  0.00000000000E+00  0.00000000000E+00 -0.13750922525E+04  0.13807620008E+04  0.12500000000E+03 0.  0.
<mgrwt>
<rscale>  2 0.12500000E+03</rscale>
<asrwt>0</asrwt>
<pdfrwt beam="1">  1       21 0.43613471E-03 0.12500000E+03</pdfrwt>
<pdfrwt beam="2">  1       21 0.21198868E+00 0.12500000E+03</pdfrwt>
<totfact> 0.15860895E+06</totfact>
</mgrwt>
</event>
<event>
 3    0  0.1644281E+001  0.1250000E+03  0.7546771E-02  0.1235069E+00
         21   -1    0    0  502  501  0.00000000000E+00  0.00000000000E+00  0.15091021078E+03  0.15091021078E+03  0.00000000000E+00 0. -1.
         21   -1    0    0  501  502 -0.00000000000E+00 -0.00000000000E+00 -0.25884597071E+02  0.25884597071E+02  0.00000000000E+00 0. -1.
         25    1    1    2    0    0  0.00000000000E+00  0.00000000000E+00  0.12502561371E+03  0.17679480785E+03  0.12500000000E+03 0.  0.
<mgrwt>
<rscale>  2 0.12500000E+03</rscale>
<asrwt>0</asrwt>
<pdfrwt beam="1">  1       21 0.23216955E-01 0.12500000E+03</pdfrwt>
<pdfrwt beam="2">  1       21 0.39822458E-02 0.12500000E+03</pdfrwt>
<totfact> 0.67521142E+06</totfact>
</mgrwt>
</event>
<event>
 3    0  0.1689582E+001  0.1250000E+03  0.7546771E-02  0.1235069E+00
         21   -1    0    0  502  501  0.00000000000E+00  0.00000000000E+00  0.10942953155E+03  0.10942953155E+03  0.00000000000E+00 0.  1.
         21   -1    0    0  501  502 -0.00000000000E+00 -0.00000000000E+00 -0.35696488367E+02  0.35696488367E+02  0.00000000000E+00 0.  1.
         25    1    1    2    0    0  0.00000000000E+00  0.00000000000E+00  0.73733043184E+02  0.14512601992E+03  0.12500000000E+03 0.  0.
<mgrwt>
<rscale>  2 0.12500000E+03</rscale>
<asrwt>0</asrwt>
<pdfrwt beam="1">  1       21 0.16835312E-01 0.12500000E+03</pdfrwt>
<pdfrwt beam="2">  1       21 0.54917675E-02 0.12500000E+03</pdfrwt>
<totfact> 0.71376975E+06</totfact>
</mgrwt>
</event>
<event>
 3    0  0.1368989E+001  0.1250000E+03  0.7546771E-02  0.1235069E+00
         21   -1    0    0  502  501  0.00000000000E+00  0.00000000000E+00  0.88729685391E+03  0.88729685391E+03  0.00000000000E+00 0.  1.
         21   -1    0    0  501  502 -0.00000000000E+00 -0.00000000000E+00 -0.44024161506E+01  0.44024161506E+01  0.00000000000E+00 0.  1.
         25    1    1    2    0    0  0.00000000000E+00  0.00000000000E+00  0.88289443776E+03  0.89169927006E+03  0.12500000000E+03 0.  0.
<mgrwt>
<rscale>  2 0.12500000E+03</rscale>
<asrwt>0</asrwt>
<pdfrwt beam="1">  1       21 0.13650707E+00 0.12500000E+03</pdfrwt>
<pdfrwt beam="2">  1       21 0.67729550E-03 0.12500000E+03</pdfrwt>
<totfact> 0.26538558E+06</totfact>
</mgrwt>
</event>
<event>
 3    0  0.1666360E+001  0.1250000E+03  0.7546771E-02  0.1235069E+00
         21   -1    0    0  502  501  0.00000000000E+00  0.00000000000E+00  0.24792288628E+02  0.24792288628E+02  0.00000000000E+00 0.  1.
         21   -1    0    0  501  502 -0.00000000000E+00 -0.00000000000E+00 -0.15755907244E+03  0.15755907244E+03  0.00000000000E+00 0.  1.
         25    1    1    2    0    0  0.00000000000E+00  0.00000000000E+00 -0.13276678382E+03  0.18235136107E+03  0.12500000000E+03 0.  0.
<mgrwt>
<rscale>  2 0.12500000E+03</rscale>
<asrwt>0</asrwt>
<pdfrwt beam="1">  1       21 0.38141984E-02 0.12500000E+03</pdfrwt>
<pdfrwt beam="2">  1       21 0.24239857E-01 0.12500000E+03</pdfrwt>
<totfact> 0.66882815E+06</totfact>
</mgrwt>
</event>
<event>
 3    0  0.1485379E+001  0.1250000E+03  0.7546771E-02  0.1235069E+00
         21   -1    0    0  502  501  0.00000000000E+00  0.00000000000E+00  0.44556918331E+03  0.44556918331E+03  0.00000000000E+00 0. -1.
         21   -1    0    0  501  502 -0.00000000000E+00 -0.00000000000E+00 -0.87668764949E+01  0.87668764949E+01  0.00000000000E+00 0. -1.
         25    1    1    2    0    0  0.00000000000E+00  0.00000000000E+00  0.43680230681E+03  0.45433605980E+03  0.12500000000E+03 0.  0.
<mgrwt>
<rscale>  2 0.12500000E+03</rscale>
<asrwt>0</asrwt>
<pdfrwt beam="1">  1       21 0.68549088E-01 0.12500000E+03</pdfrwt>
<pdfrwt beam="2">  1       21 0.13487506E-02 0.12500000E+03</pdfrwt>
<totfact> 0.44633947E+06</totfact>
</mgrwt>
</event>
<event>
 3    0  0.1646834E+001  0.1250000E+03  0.7546771E-02  0.1235069E+00
         21   -1    0    0  502  501  0.00000000000E+00  0.00000000000E+00  0.26007855694E+02  0.26007855694E+02  0.00000000000E+00 0. -1.
         21   -1    0    0  501  502 -0.00000000000E+00 -0.00000000000E+00 -0.15019500438E+03  0.15019500438E+03  0.00000000000E+00 0. -1.
         25    1    1    2    0    0  0.00000000000E+00  0.00000000000E+00 -0.12418714869E+03  0.17620286008E+03  0.12500000000E+03 0.  0.
<mgrwt>
<rscale>  2 0.12500000E+03</rscale>
<asrwt>0</asrwt>
<pdfrwt beam="1">  1       21 0.40012087E-02 0.12500000E+03</pdfrwt>
<pdfrwt beam="2">  1       21 0.23106923E-01 0.12500000E+03</pdfrwt>
<totfact> 0.67589825E+06</totfact>
</mgrwt>
</event>
<event>
 3    0  0.1687870E+001  0.1250000E+03  0.7546771E-02  0.1235069E+00
         21   -1    0    0  502  501  0.00000000000E+00  0.00000000000E+00  0.54599976991E+02  0.54599976991E+02  0.00000000000E+00 0. -1.
         21   -1    0    0  501  502 -0.00000000000E+00 -0.00000000000E+00 -0.71543070442E+02  0.71543070442E+02  0.00000000000E+00 0. -1.
         25    1    1    2    0    0  0.00000000000E+00  0.00000000000E+00 -0.16943093452E+02  0.12614304743E+03  0.12500000000E+03 0.  0.
<mgrwt>
<rscale>  2 0.12500000E+03</rscale>
<asrwt>0</asrwt>
<pdfrwt beam="1">  1       21 0.83999965E-02 0.12500000E+03</pdfrwt>
<pdfrwt beam="2">  1       21 0.11006626E-01 0.12500000E+03</pdfrwt>
<totfact> 0.73886340E+06</totfact>
</mgrwt>
</event>
<event>
 3    0  0.1368989E+001  0.1250000E+03  0.7546771E-02  0.1235069E+00
         21   -1    0    0  502  501  0.00000000000E+00  0.00000000000E+00  0.24754399571E+01  0.24754399571E+01  0.00000000000E+00 0. -1.
         21   -1    0    0  501  502 -0.00000000000E+00 -0.00000000000E+00 -0.15780023219E+04  0.15780023219E+04  0.00000000000E+00 0. -1.
         25    1    1    2    0    0  0.00000000000E+00  0.00000000000E+00 -0.15755268819E+04  0.15804777618E+04  0.12500000000E+03 0.  0.
<mgrwt>
<rscale>  2 0.12500000E+03</rscale>
<asrwt>0</asrwt>
<pdfrwt beam="1">  1       21 0.38083737E-03 0.12500000E+03</pdfrwt>
<pdfrwt beam="2">  1       21 0.24276930E+00 0.12500000E+03</pdfrwt>
<totfact> 0.12840961E+06</totfact>
</mgrwt>
</event>
<event>
 3    0  0.1613958E+001  0.1250000E+03  0.7546771E-02  0.1235069E+00
         21   -1    0    0  502  501  0.00000000000E+00  0.00000000000E+00  0.15322251355E+02  0.15322251355E+02  0.00000000000E+00 0.  1.
         21   -1    0    0  501  502 -0.00000000000E+00 -0.00000000000E+00 -0.25493968930E+03  0.25493968930E+03  0.00000000000E+00 0.  1.
         25    1    1    2    0    0  0.00000000000E+00  0.00000000000E+00 -0.23961743795E+03  0.27026194066E+03  0.12500000000E+03 0.  0.
<mgrwt>
<rscale>  2 0.12500000E+03</rscale>
<asrwt>0</asrwt>
<pdfrwt beam="1">  1       21 0.23572696E-02 0.12500000E+03</pdfrwt>
<pdfrwt beam="2">  1       21 0.39221489E-01 0.12500000E+03</pdfrwt>
<totfact> 0.58021285E+06</totfact>
</mgrwt>
</event>
<event>
 3    0  0.1685277E+001  0.1250000E+03  0.7546771E-02  0.1235069E+00
         21   -1    0    0  502  501  0.00000000000E+00  0.00000000000E+00  0.71348911334E+02  0.71348911334E+02  0.00000000000E+00 0. -1.
         21   -1    0    0  501  502 -0.00000000000E+00 -0.00000000000E+00 -0.54748557854E+02  0.54748557854E+02  0.00000000000E+00 0. -1.
         25    1    1    2    0    0  0.00000000000E+00  0.00000000000E+00  0.16600353481E+02  0.12609746919E+03  0.12500000000E+03 0.  0.
<mgrwt>
<rscale>  2 0.12500000E+03</rscale>
<asrwt>0</asrwt>
<pdfrwt beam="1">  1       21 0.10976756E-01 0.12500000E+03</pdfrwt>
<pdfrwt beam="2">  1       21 0.84228550E-02 0.12500000E+03</pdfrwt>
<totfact> 0.73892611E+06</totfact>
</mgrwt>
</event>
<event>
 3    0  0.1681757E+001  0.1250000E+03  0.7546771E-02  0.1235069E+00
         21   -1    0    0  502  501  0.00000000000E+00  0.00000000000E+00  0.46889833956E+02  0.46889833956E+02  0.00000000000E+00 0. -1.
         21   -1    0    0  501  502 -0.00000000000E+00 -0.00000000000E+00 -0.83306970199E+02  0.83306970199E+02  0.00000000000E+00 0. -1.
         25    1    1    2    0    0  0.00000000000E+00  0.00000000000E+00 -0.36417136243E+02  0.13019680415E+03  0.12500000000E+03 0.  0.
<mgrwt>
<rscale>  2 0.12500000E+03</rscale>
<asrwt>0</asrwt>
<pdfrwt beam="1">  1       21 0.72138207E-02 0.12500000E+03</pdfrwt>
<pdfrwt beam="2">  1       21 0.12816457E-01 0.12500000E+03</pdfrwt>
<totfact> 0.73338624E+06</totfact>
</mgrwt>
</event>
<event>
 3    0  0.1558722E+001  0.1250000E+03  0.7546771E-02  0.1235069E+00
         21   -1    0    0  502  501  0.00000000000E+00  0.00000000000E+00  0.12890485977E+02  0.12890485977E+02  0.00000000000E+00 0.  1.
         21   -1    0    0  501  502 -0.00000000000E+00 -0.00000000000E+00 -0.30303357119E+03  0.30303357119E+03  0.00000000000E+00 0.  1.
         25    1    1    2    0    0  0.00000000000E+00  0.00000000000E+00 -0.29014308521E+03  0.31592405717E+03  0.12500000000E+03 0.  0.
<mgrwt>
<rscale>  2 0.12500000E+03</rscale>
<asrwt>0</asrwt>
<pdfrwt beam="1">  1       21 0.19831517E-02 0.12500000E+03</pdfrwt>
<pdfrwt beam="2">  1       21 0.46620548E-01 0.12500000E+03</pdfrwt>
<totfact> 0.54157929E+06</totfact>
</mgrwt>
</event>
<event>
 3    0  0.1663931E+001  0.1250000E+03  0.7546771E-02  0.1235069E+00
         21   -1    0    0  502  501  0.00000000000E+00  0.00000000000E+00  0.23127480115E+02  0.23127480115E+02  0.00000000000E+00 0.  1.
         21   -1    0    0  501  502 -0.00000000000E+00 -0.00000000000E+00 -0.16890080461E+03  0.16890080461E+03  0.00000000000E+00 0.  1.
         25    1    1    2    0    0  0.00000000000E+00  0.00000000000E+00 -0.14577332450E+03  0.19202828473E+03  0.12500000000E+03 0.  0.
<mgrwt>
<rscale>  2 0.12500000E+03</rscale>
<asrwt>0</asrwt>
<pdfrwt beam="1">  1       21 0.35580740E-02 0.12500000E+03</pdfrwt>
<pdfrwt beam="2">  1       21 0.25984738E-01 0.12500000E+03</pdfrwt>
<totfact> 0.65797746E+06</totfact>
</mgrwt>
</event>
<event>
 3    0  0.1368989E+001  0.1250000E+03  0.7546771E-02  0.1235069E+00
         21   -1    0    0  502  501  0.00000000000E+00  0.00000000000E+00  0.29643115288E+01  0.29643115288E+01  0.00000000000E+00 0.  1.
         21   -1    0    0  501  502 -0.00000000000E+00 -0.00000000000E+00 -0.13177596086E+04  0.13177596086E+04  0.00000000000E+00 0.  1.
         25    1    1    2    0    0  0.00000000000E+00  0.00000000000E+00 -0.13147952971E+04  0.13207239201E+04  0.12500000000E+03 0.  0.
<mgrwt>
<rscale>  2 0.12500000E+03</rscale>
<asrwt>0</asrwt>
<pdfrwt beam="1">  1       21 0.45604730E-03 0.12500000E+03</pdfrwt>
<pdfrwt beam="2">  1       21 0.20273253E+00 0.12500000E+03</pdfrwt>
<totfact> 0.16884267E+06</totfact>
</mgrwt>
</event>
<event>
 3    0  0.1710092E+001  0.1250000E+03  0.7546771E-02  0.1235069E+00
         21   -1    0    0  502  501  0.00000000000E+00  0.00000000000E+00  0.73934329031E+02  0.73934329031E+02  0.00000000000E+00 0.  1.
         21   -1    0    0  501  502 -0.00000000000E+00 -0.00000000000E+00 -0.52834049503E+02  0.52834049503E+02  0.00000000000E+00 0.  1.
         25    1    1    2    0    0  0.00000000000E+00  0.00000000000E+00  0.21100279528E+02  0.12676837853E+03  0.12500000000E+03 0.  0.
<mgrwt>
<rscale>  2 0.12500000E+03</rscale>
<asrwt>0</asrwt>
<pdfrwt beam="1">  1       21 0.11374512E-01 0.12500000E+03</pdfrwt>
<pdfrwt beam="2">  1       21 0.81283153E-02 0.12500000E+03</pdfrwt>
<totfact> 0.73800702E+06</totfact>
</mgrwt>
</event>
<event>
 3    0  0.1368989E+001  0.1250000E+03  0.7546771E-02  0.1235069E+00
         21   -1    0    0  502  501  0.00000000000E+00  0.00000000000E+00  0.15410825618E+04  0.15410825618E+04  0.00000000000E+00 0.  1.
         21   -1    0    0  501  502 -0.00000000000E+00 -0.00000000000E+00 -0.25347441447E+01  0.25347441447E+01  0.00000000000E+00 0.  1.
         25    1    1    2    0    0  0.00000000000E+00  0.00000000000E+00  0.15385478177E+04  0.15436173060E+04  0.12500000000E+03 0.  0.
<mgrwt>
<rscale>  2 0.12500000E+03</rscale>
<asrwt>0</asrwt>
<pdfrwt beam="1">  1       21 0.23708888E+00 0.12500000E+03</pdfrwt>
<pdfrwt beam="2">  1       21 0.38996187E-03 0.12500000E+03</pdfrwt>
<totfact> 0.13358325E+06</totfact>
</mgrwt>
</event>
<event>
 3    0  0.1658615E+001  0.1250000E+03  0.7546771E-02  0.1235069E+00
         21   -1    0    0  502  501  0.00000000000E+00  0.00000000000E+00  0.24292411469E+02  0.24292411469E+02  0.00000000000E+00 0.  1.
         21   -1    0    0  501  502 -0.00000000000E+00 -0.00000000000E+00 -0.16080124466E+03  0.16080124466E+03  0.00000000000E+00 0.  1.
         25    1    1    2    0    0  0.00000000000E+00  0.00000000000E+00 -0.13650883319E+03  0.18509365613E+03  0.12500000000E+03 0.  0.
<mgrwt>
<rscale>  2 0.12500000E+03</rscale>
<asrwt>0</asrwt>
<pdfrwt beam="1">  1       21 0.37372941E-02 0.12500000E+03</pdfrwt>
<pdfrwt beam="2">  1       21 0.24738653E-01 0.12500000E+03</pdfrwt>
<totfact> 0.66571958E+06</totfact>
</mgrwt>
</event>
<event>
 3    0  0.1666569E+001  0.1250000E+03  0.7546771E-02  0.1235069E+00
         21   -1    0    0  502  501  0.00000000000E+00  0.00000000000E+00  0.12009475071E+03  0.12009475071E+03  0.00000000000E+00 0. -1.
         21   -1    0    0  501  502 -0.00000000000E+00 -0.00000000000E+00 -0.32526400837E+02  0.32526400837E+02  0.00000000000E+00 0. -1.
         25    1    1    2    0    0  0.00000000000E+00  0.00000000000E+00  0.87568349873E+02  0.15262115155E+03  0.12500000000E+03 0.  0.
<mgrwt>
<rscale>  2 0.12500000E+03</rscale>
<asrwt>0</asrwt>
<pdfrwt beam="1">  1       21 0.18476115E-01 0.12500000E+03</pdfrwt>
<pdfrwt beam="2">  1       21 0.50040617E-02 0.12500000E+03</pdfrwt>
<totfact> 0.70431469E+06</totfact>
</mgrwt>
</event>
<event>
 3    0  0.1368989E+001  0.1250000E+03  0.7546771E-02  0.1235069E+00
         21   -1    0    0  502  501  0.00000000000E+00  0.00000000000E+00  0.51818396132E+01  0.51818396132E+01  0.00000000000E+00 0. -1.
         21   -1    0    0  501  502 -0.00000000000E+00 -0.00000000000E+00 -0.75383460152E+03  0.75383460152E+03  0.00000000000E+00 0. -1.
         25    1    1    2    0    0  0.00000000000E+00  0.00000000000E+00 -0.74865276191E+03  0.75901644114E+03  0.12500000000E+03 0.  0.
<mgrwt>
<rscale>  2 0.12500000E+03</rscale>
<asrwt>0</asrwt>
<pdfrwt beam="1">  1       21 0.79720593E-03 0.12500000E+03</pdfrwt>
<pdfrwt beam="2">  1       21 0.11597458E+00 0.12500000E+03</pdfrwt>
<totfact> 0.30754245E+06</totfact>
</mgrwt>
</event>
<event>
 3    0  0.1486003E+001  0.1250000E+03  0.7546771E-02  0.1235069E+00
         21   -1    0    0  502  501  0.00000000000E+00  0.00000000000E+00  0.45628939174E+03  0.45628939174E+03  0.00000000000E+00 0.  1.
         21   -1    0    0  501  502 -0.00000000000E+00 -0.00000000000E+00 -0.85609047037E+01  0.85609047037E+01  0.00000000000E+00 0.  1.
         25    1    1    2    0    0  0.00000000000E+00  0.00000000000E+00  0.44772848704E+03  0.46485029645E+03  0.12500000000E+03 0.  0.
<mgrwt>
<rscale>  2 0.12500000E+03</rscale>
<asrwt>0</asrwt>
<pdfrwt beam="1">  1       21 0.70198349E-01 0.12500000E+03</pdfrwt>
<pdfrwt beam="2">  1       21 0.13170626E-02 0.12500000E+03</pdfrwt>
<totfact> 0.44016798E+06</totfact>
</mgrwt>
</event>
<event>
 3    0  0.1467733E+001  0.1250000E+03  0.7546771E-02  0.1235069E+00
         21   -1    0    0  502  501  0.00000000000E+00  0.00000000000E+00  0.86042386972E+01  0.86042386972E+01  0.00000000000E+00 0. -1.
         21   -1    0    0  501  502 -0.00000000000E+00 -0.00000000000E+00 -0.45399135676E+03  0.45399135676E+03  0.00000000000E+00 0. -1.
         25    1    1    2    0    0  0.00000000000E+00  0.00000000000E+00 -0.44538711806E+03  0.46259559545E+03  0.12500000000E+03 0.  0.
<mgrwt>
<rscale>  2 0.12500000E+03</rscale>
<asrwt>0</asrwt>
<pdfrwt beam="1">  1       21 0.13237294E-02 0.12500000E+03</pdfrwt>
<pdfrwt beam="2">  1       21 0.69844807E-01 0.12500000E+03</pdfrwt>
<totfact> 0.44148051E+06</totfact>
</mgrwt>
</event>
<event>
 3    0  0.1424890E+001  0.1250000E+03  0.7546771E-02  0.1235069E+00
         21   -1    0    0  502  501  0.00000000000E+00  0.00000000000E+00  0.51047968271E+03  0.51047968271E+03  0.00000000000E+00 0.  1.
         21   -1    0    0  501  502 -0.00000000000E+00 -0.00000000000E+00 -0.76521164942E+01  0.76521164942E+01  0.00000000000E+00 0.  1.
         25    1    1    2    0    0  0.00000000000E+00  0.00000000000E+00  0.50282756622E+03  0.51813179920E+03  0.12500000000E+03 0.  0.
<mgrwt>
<rscale>  2 0.12500000E+03</rscale>
<asrwt>0</asrwt>
<pdfrwt beam="1">  1       21 0.78535309E-01 0.12500000E+03</pdfrwt>
<pdfrwt beam="2">  1       21 0.11772491E-02 0.12500000E+03</pdfrwt>
<totfact> 0.41077519E+06</totfact>
</mgrwt>
</event>
<event>
 3    0  0.1712479E+001  0.1250000E+03  0.7546771E-02  0.1235069E+00
         21   -1    0    0  502  501  0.00000000000E+00  0.00000000000E+00  0.61719662407E+02  0.61719662407E+02  0.00000000000E+00 0.  1.
         21   -1    0    0  501  502 -0.00000000000E+00 -0.00000000000E+00 -0.63290203602E+02  0.63290203602E+02  0.00000000000E+00 0.  1.
         25    1    1    2    0    0  0.00000000000E+00  0.00000000000E+00 -0.15705411955E+01  0.12500986601E+03  0.12500000000E+03 0.  0.
<mgrwt>
<rscale>  2 0.12500000E+03</rscale>
<asrwt>0</asrwt>
<pdfrwt beam="1">  1       21 0.94953327E-02 0.12500000E+03</pdfrwt>
<pdfrwt beam="2">  1       21 0.97369544E-02 0.12500000E+03</pdfrwt>
<totfact> 0.74042249E+06</totfact>
</mgrwt>
</event>
<event>
 3    0  0.1368989E+001  0.1250000E+03  0.7546771E-02  0.1235069E+00
         21   -1    0    0  502  501  0.00000000000E+00  0.00000000000E+00  0.20609083917E+01  0.20609083917E+01  0.00000000000E+00 0. -1.
         21   -1    0    0  501  502 -0.00000000000E+00 -0.00000000000E+00 -0.18954020546E+04  0.18954020546E+04  0.00000000000E+00 0. -1.
         25    1    1    2    0    0  0.00000000000E+00  0.00000000000E+00 -0.18933411462E+04  0.18974629630E+04  0.12500000000E+03 0.  0.
<mgrwt>
<rscale>  2 0.12500000E+03</rscale>
<asrwt>0</asrwt>
<pdfrwt beam="1">  1       21 0.31706288E-03 0.12500000E+03</pdfrwt>
<pdfrwt beam="2">  1       21 0.29160027E+00 0.12500000E+03</pdfrwt>
<totfact> 0.89919274E+05</totfact>
</mgrwt>
</event>
<event>
 3    0  0.1685441E+001  0.1250000E+03  0.7546771E-02  0.1235069E+00
         21   -1    0    0  502  501  0.00000000000E+00  0.00000000000E+00  0.48567143421E+02  0.48567143421E+02  0.00000000000E+00 0. -1.
         21   -1    0    0  501  502 -0.00000000000E+00 -0.00000000000E+00 -0.80429889939E+02  0.80429889939E+02  0.00000000000E+00 0. -1.
         25    1    1    2    0    0  0.00000000000E+00  0.00000000000E+00 -0.31862746518E+02  0.12899703336E+03  0.12500000000E+03 0.  0.
<mgrwt>
<rscale>  2 0.12500000E+03</rscale>
<asrwt>0</asrwt>
<pdfrwt beam="1">  1       21 0.74718683E-02 0.12500000E+03</pdfrwt>
<pdfrwt beam="2">  1       21 0.12373829E-01 0.12500000E+03</pdfrwt>
<totfact> 0.73499279E+06</totfact>
</mgrwt>
</event>
<event>
 3    0  0.1582748E+001  0.1250000E+03  0.7546771E-02  0.1235069E+00
         21   -1    0    0  502  501  0.00000000000E+00  0.00000000000E+00  0.24537834660E+03  0.24537834660E+03  0.00000000000E+00 0. -1.
         21   -1    0    0  501  502 -0.00000000000E+00 -0.00000000000E+00 -0.15919293834E+02  0.15919293834E+02  0.00000000000E+00 0. -1.
         25    1    1    2    0    0  0.00000000000E+00  0.00000000000E+00  0.22945905276E+03  0.26129764043E+03  0.12500000000E+03 0.  0.
<mgrwt>
<rscale>  2 0.12500000E+03</rscale>
<asrwt>0</asrwt>
<pdfrwt beam="1">  1       21 0.37750512E-01 0.12500000E+03</pdfrwt>
<pdfrwt beam="2">  1       21 0.24491223E-02 0.12500000E+03</pdfrwt>
<totfact> 0.58830540E+06</totfact>
</mgrwt>
</event>
<event>
 3    0  0.1625507E+001  0.1250000E+03  0.7546771E-02  0.1235069E+00
         21   -1    0    0  502  501  0.00000000000E+00  0.00000000000E+00  0.18003440722E+02  0.18003440722E+02  0.00000000000E+00 0.  1.
         21   -1    0    0  501  502 -0.00000000000E+00 -0.00000000000E+00 -0.21697241435E+03  0.21697241435E+03  0.00000000000E+00 0.  1.
         25    1    1    2    0    0  0.00000000000E+00  0.00000000000E+00 -0.19896897363E+03  0.23497585507E+03  0.12500000000E+03 0.  0.
<mgrwt>
<rscale>  2 0.12500000E+03</rscale>
<asrwt>0</asrwt>
<pdfrwt beam="1">  1       21 0.27697601E-02 0.12500000E+03</pdfrwt>
<pdfrwt beam="2">  1       21 0.33380371E-01 0.12500000E+03</pdfrwt>
<totfact> 0.61322253E+06</totfact>
</mgrwt>
</event>
<event>
 3    0  0.1567309E+001  0.1250000E+03  0.7546771E-02  0.1235069E+00
         21   -1    0    0  502  501  0.00000000000E+00  0.00000000000E+00  0.12312012561E+02  0.12312012561E+02  0.00000000000E+00 0.  1.
         21   -1    0    0  501  502 -0.00000000000E+00 -0.00000000000E+00 -0.31727144369E+03  0.31727144369E+03  0.00000000000E+00 0.  1.
         25    1    1    2    0    0  0.00000000000E+00  0.00000000000E+00 -0.30495943113E+03  0.32958345625E+03  0.12500000000E+03 0.  0.
<mgrwt>
<rscale>  2 0.12500000E+03</rscale>
<asrwt>0</asrwt>
<pdfrwt beam="1">  1       21 0.18941558E-02 0.12500000E+03</pdfrwt>
<pdfrwt beam="2">  1       21 0.48810992E-01 0.12500000E+03</pdfrwt>
<totfact> 0.53082534E+06</totfact>
</mgrwt>
</event>
<event>
 3    0  0.1368989E+001  0.1250000E+03  0.7546771E-02  0.1235069E+00
         21   -1    0    0  502  501  0.00000000000E+00  0.00000000000E+00  0.46720082428E+01  0.46720082428E+01  0.00000000000E+00 0. -1.
         21   -1    0    0  501  502 -0.00000000000E+00 -0.00000000000E+00 -0.83609655570E+03  0.83609655570E+03  0.00000000000E+00 0. -1.
         25    1    1    2    0    0  0.00000000000E+00  0.00000000000E+00 -0.83142454746E+03  0.84076856394E+03  0.12500000000E+03 0.  0.
<mgrwt>
<rscale>  2 0.12500000E+03</rscale>
<asrwt>0</asrwt>
<pdfrwt beam="1">  1       21 0.71877123E-03 0.12500000E+03</pdfrwt>
<pdfrwt beam="2">  1       21 0.12863011E+00 0.12500000E+03</pdfrwt>
<totfact> 0.28055866E+06</totfact>
</mgrwt>
</event>
<event>
 3    0  0.1368989E+001  0.1250000E+03  0.7546771E-02  0.1235069E+00
         21   -1    0    0  502  501  0.00000000000E+00  0.00000000000E+00  0.36507795795E+01  0.36507795795E+01  0.00000000000E+00 0.  1.
         21   -1    0    0  501  502 -0.00000000000E+00 -0.00000000000E+00 -0.10699769501E+04  0.10699769501E+04  0.00000000000E+00 0.  1.
         25    1    1    2    0    0  0.00000000000E+00  0.00000000000E+00 -0.10663261705E+04  0.10736277297E+04  0.12500000000E+03 0.  0.
<mgrwt>
<rscale>  2 0.12500000E+03</rscale>
<asrwt>0</asrwt>
<pdfrwt beam="1">  1       21 0.56165838E-03 0.12500000E+03</pdfrwt>
<pdfrwt beam="2">  1       21 0.16461184E+00 0.12500000E+03</pdfrwt>
<totfact> 0.21847660E+06</totfact>
</mgrwt>
</event>
<event>
 3    0  0.1712494E+001  0.1250000E+03  0.7546771E-02  0.1235069E+00
         21   -1    0    0  502  501  0.00000000000E+00  0.00000000000E+00  0.59666612786E+02  0.59666612786E+02  0.00000000000E+00 0.  1.
         21   -1    0    0  501  502 -0.00000000000E+00 -0.00000000000E+00 -0.65467936214E+02  0.65467936214E+02  0.00000000000E+00 0.  1.
         25    1    1    2    0    0  0.00000000000E+00  0.00000000000E+00 -0.58013234281E+01  0.12513454900E+03  0.12500000000E+03 0.  0.
<mgrwt>
<rscale>  2 0.12500000E+03</rscale>
<asrwt>0</asrwt>
<pdfrwt beam="1">  1       21 0.91794790E-02 0.12500000E+03</pdfrwt>
<pdfrwt beam="2">  1       21 0.10071990E-01 0.12500000E+03</pdfrwt>
<totfact> 0.74025410E+06</totfact>
</mgrwt>
</event>
<event>
 3    0  0.1679298E+001  0.1250000E+03  0.7546771E-02  0.1235069E+00
         21   -1    0    0  502  501  0.00000000000E+00  0.00000000000E+00  0.44783797810E+02  0.44783797810E+02  0.00000000000E+00 0. -1.
         21   -1    0    0  501  502 -0.00000000000E+00 -0.00000000000E+00 -0.87224625668E+02  0.87224625668E+02  0.00000000000E+00 0. -1.
         25    1    1    2    0    0  0.00000000000E+00  0.00000000000E+00 -0.42440827858E+02  0.13200842348E+03  0.12500000000E+03 0.  0.
<mgrwt>
<rscale>  2 0.12500000E+03</rscale>
<asrwt>0</asrwt>
<pdfrwt beam="1">  1       21 0.68898151E-02 0.12500000E+03</pdfrwt>
<pdfrwt beam="2">  1       21 0.13419173E-01 0.12500000E+03</pdfrwt>
<totfact> 0.73095099E+06</totfact>
</mgrwt>
</event>
<event>
 3    0  0.1711759E+001  0.1250000E+03  0.7546771E-02  0.1235069E+00
         21   -1    0    0  502  501  0.00000000000E+00  0.00000000000E+00  0.57872902739E+02  0.57872902739E+02  0.00000000000E+00 0.  1.
         21   -1    0    0  501  502 -0.00000000000E+00 -0.00000000000E+00 -0.67497046375E+02  0.67497046375E+02  0.00000000000E+00 0.  1.
         25    1    1    2    0    0  0.00000000000E+00  0.00000000000E+00 -0.96241436359E+01  0.12536994911E+03  0.12500000000E+03 0.  0.
<mgrwt>
<rscale>  2 0.12500000E+03</rscale>
<asrwt>0</asrwt>
<pdfrwt beam="1">  1       21 0.89035235E-02 0.12500000E+03</pdfrwt>
<pdfrwt beam="2">  1       21 0.10384161E-01 0.12500000E+03</pdfrwt>
<totfact> 0.73993630E+06</totfact>
</mgrwt>
</event>
<event>
 3    0  0.1564417E+001  0.1250000E+03  0.7546771E-02  0.1235069E+00
         21   -1    0    0  502  501  0.00000000000E+00  0.00000000000E+00  0.27548391418E+03  0.27548391418E+03  0.00000000000E+00 0. -1.
         21   -1    0    0  501  502 -0.00000000000E+00 -0.00000000000E+00 -0.14179593794E+02  0.14179593794E+02  0.00000000000E+00 0. -1.
         25    1    1    2    0    0  0.00000000000E+00  0.00000000000E+00  0.26130432039E+03  0.28966350798E+03  0.12500000000E+03 0.  0.
<mgrwt>
<rscale>  2 0.12500000E+03</rscale>
<asrwt>0</asrwt>
<pdfrwt beam="1">  1       21 0.42382137E-01 0.12500000E+03</pdfrwt>
<pdfrwt beam="2">  1       21 0.21814762E-02 0.12500000E+03</pdfrwt>
<totfact> 0.56326269E+06</totfact>
</mgrwt>
</event>
<event>
 3    0  0.1674943E+001  0.1250000E+03  0.7546771E-02  0.1235069E+00
         21   -1    0    0  502  501  0.00000000000E+00  0.00000000000E+00  0.39645270516E+02  0.39645270516E+02  0.00000000000E+00 0. -1.
         21   -1    0    0  501  502 -0.00000000000E+00 -0.00000000000E+00 -0.98530037737E+02  0.98530037737E+02  0.00000000000E+00 0. -1.
         25    1    1    2    0    0  0.00000000000E+00  0.00000000000E+00 -0.58884767221E+02  0.13817530825E+03  0.12500000000E+03 0.  0.
<mgrwt>
<rscale>  2 0.12500000E+03</rscale>
<asrwt>0</asrwt>
<pdfrwt beam="1">  1       21 0.60992724E-02 0.12500000E+03</pdfrwt>
<pdfrwt beam="2">  1       21 0.15158467E-01 0.12500000E+03</pdfrwt>
<totfact> 0.72278422E+06</totfact>
</mgrwt>
</event>
<event>
 3    0  0.1654427E+001  0.1250000E+03  0.7546771E-02  0.1235069E+00
         21   -1    0    0  502  501  0.00000000000E+00  0.00000000000E+00  0.27110777283E+02  0.27110777283E+02  0.00000000000E+00 0. -1.
         21   -1    0    0  501  502 -0.00000000000E+00 -0.00000000000E+00 -0.14408476597E+03  0.14408476597E+03  0.00000000000E+00 0. -1.
         25    1    1    2    0    0  0.00000000000E+00  0.00000000000E+00 -0.11697398869E+03  0.17119554325E+03  0.12500000000E+03 0.  0.
<mgrwt>
<rscale>  2 0.12500000E+03</rscale>
<asrwt>0</asrwt>
<pdfrwt beam="1">  1       21 0.41708887E-02 0.12500000E+03</pdfrwt>
<pdfrwt beam="2">  1       21 0.22166887E-01 0.12500000E+03</pdfrwt>
<totfact> 0.68176192E+06</totfact>
</mgrwt>
</event>
<event>
 3    0  0.1415021E+001  0.1250000E+03  0.7546771E-02  0.1235069E+00
         21   -1    0    0  502  501  0.00000000000E+00  0.00000000000E+00  0.62850010637E+01  0.62850010637E+01  0.00000000000E+00 0.  1.
         21   -1    0    0  501  502 -0.00000000000E+00 -0.00000000000E+00 -0.62151938566E+03  0.62151938566E+03  0.00000000000E+00 0.  1.
         25    1    1    2    0    0  0.00000000000E+00  0.00000000000E+00 -0.61523438460E+03  0.62780438673E+03  0.12500000000E+03 0.  0.
<mgrwt>
<rscale>  2 0.12500000E+03</rscale>
<asrwt>0</asrwt>
<pdfrwt beam="1">  1       21 0.96692317E-03 0.12500000E+03</pdfrwt>
<pdfrwt beam="2">  1       21 0.95618374E-01 0.12500000E+03</pdfrwt>
<totfact> 0.35864652E+06</totfact>
</mgrwt>
</event>
<event>
 3    0  0.1686133E+001  0.1250000E+03  0.7546771E-02  0.1235069E+00
         21   -1    0    0  502  501  0.00000000000E+00  0.00000000000E+00  0.80091800639E+02  0.80091800639E+02  0.00000000000E+00 0. -1.
         21   -1    0    0  501  502 -0.00000000000E+00 -0.00000000000E+00 -0.48772158559E+02  0.48772158559E+02  0.00000000000E+00 0. -1.
         25    1    1    2    0    0  0.00000000000E+00  0.00000000000E+00  0.31319642080E+02  0.12886395920E+03  0.12500000000E+03 0.  0.
<mgrwt>
<rscale>  2 0.12500000E+03</rscale>
<asrwt>0</asrwt>
<pdfrwt beam="1">  1       21 0.12321815E-01 0.12500000E+03</pdfrwt>
<pdfrwt beam="2">  1       21 0.75034090E-02 0.12500000E+03</pdfrwt>
<totfact> 0.73517158E+06</totfact>
</mgrwt>
</event>
<event>
 3    0  0.1392864E+001  0.1250000E+03  0.7546771E-02  0.1235069E+00
         21   -1    0    0  502  501  0.00000000000E+00  0.00000000000E+00  0.62309612024E+03  0.62309612024E+03  0.00000000000E+00 0. -1.
         21   -1    0    0  501  502 -0.00000000000E+00 -0.00000000000E+00 -0.62690969709E+01  0.62690969709E+01  0.00000000000E+00 0. -1.
         25    1    1    2    0    0  0.00000000000E+00  0.00000000000E+00  0.61682702327E+03  0.62936521721E+03  0.12500000000E+03 0.  0.
<mgrwt>
<rscale>  2 0.12500000E+03</rscale>
<asrwt>0</asrwt>
<pdfrwt beam="1">  1       21 0.95860893E-01 0.12500000E+03</pdfrwt>
<pdfrwt beam="2">  1       21 0.96447695E-03 0.12500000E+03</pdfrwt>
<totfact> 0.35797434E+06</totfact>
</mgrwt>
</event>
<event>
 3    0  0.1623576E+001  0.1250000E+03  0.7546771E-02  0.1235069E+00
         21   -1    0    0  502  501  0.00000000000E+00  0.00000000000E+00  0.18158533250E+03  0.18158533250E+03  0.00000000000E+00 0. -1.
         21   -1    0    0  501  502 -0.00000000000E+00 -0.00000000000E+00 -0.21511924703E+02  0.21511924703E+02  0.00000000000E+00 0. -1.
         25    1    1    2    0    0  0.00000000000E+00  0.00000000000E+00  0.16007340780E+03  0.20309725721E+03  0.12500000000E+03 0.  0.
<mgrwt>
<rscale>  2 0.12500000E+03</rscale>
<asrwt>0</asrwt>
<pdfrwt beam="1">  1       21 0.27936204E-01 0.12500000E+03</pdfrwt>
<pdfrwt beam="2">  1       21 0.33095270E-02 0.12500000E+03</pdfrwt>
<totfact> 0.64593182E+06</totfact>
</mgrwt>
</event>
<event>
 3    0  0.1687625E+001  0.1250000E+03  0.7546771E-02  0.1235069E+00
         21   -1    0    0  502  501  0.00000000000E+00  0.00000000000E+00  0.13956279724E+03  0.13956279724E+03  0.00000000000E+00 0.  1.
         21   -1    0    0  501  502 -0.00000000000E+00 -0.00000000000E+00 -0.27989192517E+02  0.27989192517E+02  0.00000000000E+00 0.  1.
         25    1    1    2    0    0  0.00000000000E+00  0.00000000000E+00  0.11157360472E+03  0.16755198975E+03  0.12500000000E+03 0.  0.
<mgrwt>
<rscale>  2 0.12500000E+03</rscale>
<asrwt>0</asrwt>
<pdfrwt beam="1">  1       21 0.21471199E-01 0.12500000E+03</pdfrwt>
<pdfrwt beam="2">  1       21 0.43060297E-02 0.12500000E+03</pdfrwt>
<totfact> 0.68608296E+06</totfact>
</mgrwt>
</event>
<event>
 3    0  0.1368989E+001  0.1250000E+03  0.7546771E-02  0.1235069E+00
         21   -1    0    0  502  501  0.00000000000E+00  0.00000000000E+00  0.31232551428E+01  0.31232551428E+01  0.00000000000E+00 0. -1.
         21   -1    0    0  501  502 -0.00000000000E+00 -0.00000000000E+00 -0.12506983328E+04  0.12506983328E+04  0.00000000000E+00 0. -1.
         25    1    1    2    0    0  0.00000000000E+00  0.00000000000E+00 -0.12475750777E+04  0.12538215879E+04  0.12500000000E+03 0.  0.
<mgrwt>
<rscale>  2 0.12500000E+03</rscale>
<asrwt>0</asrwt>
<pdfrwt beam="1">  1       21 0.48050115E-03 0.12500000E+03</pdfrwt>
<pdfrwt beam="2">  1       21 0.19241499E+00 0.12500000E+03</pdfrwt>
<totfact> 0.18102365E+06</totfact>
</mgrwt>
</event>
<event>
 3    0  0.1712406E+001  0.1250000E+03  0.7546771E-02  0.1235069E+00
         21   -1    0    0  502  501  0.00000000000E+00  0.00000000000E+00  0.59392646965E+02  0.59392646965E+02  0.00000000000E+00 0.  1.
         21   -1    0    0  501  502 -0.00000000000E+00 -0.00000000000E+00 -0.65769926071E+02  0.65769926071E+02  0.00000000000E+00 0.  1.
         25    1    1    2    0    0  0.00000000000E+00  0.00000000000E+00 -0.63772791058E+01  0.12516257304E+03  0.12500000000E+03 0.  0.
<mgrwt>
<rscale>  2 0.12500000E+03</rscale>
<asrwt>0</asrwt>
<pdfrwt beam="1">  1       21 0.91373303E-02 0.12500000E+03</pdfrwt>
<pdfrwt beam="2">  1       21 0.10118450E-01 0.12500000E+03</pdfrwt>
<totfact> 0.74021626E+06</totfact>
</mgrwt>
</event>
<event>
 3    0  0.1646825E+001  0.1250000E+03  0.7546771E-02  0.1235069E+00
         21   -1    0    0  502  501  0.00000000000E+00  0.00000000000E+00  0.13772216582E+03  0.13772216582E+03  0.00000000000E+00 0. -1.
         21   -1    0    0  501  502 -0.00000000000E+00 -0.00000000000E+00 -0.28363262928E+02  0.28363262928E+02  0.00000000000E+00 0. -1.
         25    1    1    2    0    0  0.00000000000E+00  0.00000000000E+00  0.10935890289E+03  0.16608542874E+03  0.12500000000E+03 0.  0.
<mgrwt>
<rscale>  2 0.12500000E+03</rscale>
<asrwt>0</asrwt>
<pdfrwt beam="1">  1       21 0.21188025E-01 0.12500000E+03</pdfrwt>
<pdfrwt beam="2">  1       21 0.43635790E-02 0.12500000E+03</pdfrwt>
<totfact> 0.68783462E+06</totfact>
</mgrwt>
</event>
<event>
 3    0  0.1706296E+001  0.1250000E+03  0.7546771E-02  0.1235069E+00
         21   -1    0    0  502  501  0.00000000000E+00  0.00000000000E+00  0.43574644465E+02  0.43574644465E+02  0.00000000000E+00 0.  1.
         21   -1    0    0  501  502 -0.00000000000E+00 -0.00000000000E+00 -0.89645022879E+02  0.89645022879E+02  0.00000000000E+00 0.  1.
         25    1    1    2    0    0  0.00000000000E+00  0.00000000000E+00 -0.46070378414E+02  0.13321966734E+03  0.12500000000E+03 0.  0.
<mgrwt>
<rscale>  2 0.12500000E+03</rscale>
<asrwt>0</asrwt>
<pdfrwt beam="1">  1       21 0.67037915E-02 0.12500000E+03</pdfrwt>
<pdfrwt beam="2">  1       21 0.13791542E-01 0.12500000E+03</pdfrwt>
<totfact> 0.72933079E+06</totfact>
</mgrwt>
</event>
<event>
 3    0  0.1694533E+001  0.1250000E+03  0.7546771E-02  0.1235069E+00
         21   -1    0    0  502  501  0.00000000000E+00  0.00000000000E+00  0.36494157121E+02  0.36494157121E+02  0.00000000000E+00 0.  1.
         21   -1    0    0  501  502 -0.00000000000E+00 -0.00000000000E+00 -0.10703768242E+03  0.10703768242E+03  0.00000000000E+00 0.  1.
         25    1    1    2    0    0  0.00000000000E+00  0.00000000000E+00 -0.70543525297E+02  0.14353183954E+03  0.12500000000E+03 0.  0.
<mgrwt>
<rscale>  2 0.12500000E+03</rscale>
<asrwt>0</asrwt>
<pdfrwt beam="1">  1       21 0.56144857E-02 0.12500000E+03</pdfrwt>
<pdfrwt beam="2">  1       21 0.16467336E-01 0.12500000E+03</pdfrwt>
<totfact> 0.71581521E+06</totfact>
</mgrwt>
</event>
<event>
 3    0  0.1440013E+001  0.1250000E+03  0.7546771E-02  0.1235069E+00
         21   -1    0    0  502  501  0.00000000000E+00  0.00000000000E+00  0.83331668246E+01  0.83331668246E+01  0.00000000000E+00 0. -1.
         21   -1    0    0  501  502 -0.00000000000E+00 -0.00000000000E+00 -0.46875936631E+03  0.46875936631E+03  0.00000000000E+00 0. -1.
         25    1    1    2    0    0  0.00000000000E+00  0.00000000000E+00 -0.46042619948E+03  0.47709253313E+03  0.12500000000E+03 0.  0.
<mgrwt>
<rscale>  2 0.12500000E+03</rscale>
<asrwt>0</asrwt>
<pdfrwt beam="1">  1       21 0.12820253E-02 0.12500000E+03</pdfrwt>
<pdfrwt beam="2">  1       21 0.72116847E-01 0.12500000E+03</pdfrwt>
<totfact> 0.43314268E+06</totfact>
</mgrwt>
</event>
<event>
 3    0  0.1368989E+001  0.1250000E+03  0.7546771E-02  0.1235069E+00
         21   -1    0    0  502  501  0.00000000000E+00  0.00000000000E+00  0.15692534969E+04  0.15692534969E+04  0.00000000000E+00 0.  1.
         21   -1    0    0  501  502 -0.00000000000E+00 -0.00000000000E+00 -0.24892409083E+01  0.24892409083E+01  0.00000000000E+00 0.  1.
         25    1    1    2    0    0  0.00000000000E+00  0.00000000000E+00  0.15667642560E+04  0.15717427378E+04  0.12500000000E+03 0.  0.
<mgrwt>
<rscale>  2 0.12500000E+03</rscale>
<asrwt>0</asrwt>
<pdfrwt beam="1">  1       21 0.24142282E+00 0.12500000E+03</pdfrwt>
<pdfrwt beam="2">  1       21 0.38296139E-03 0.12500000E+03</pdfrwt>
<totfact> 0.12962064E+06</totfact>
</mgrwt>
</event>
<event>
 3    0  0.1675586E+001  0.1250000E+03  0.7546771E-02  0.1235069E+00
         21   -1    0    0  502  501  0.00000000000E+00  0.00000000000E+00  0.11132793083E+03  0.11132793083E+03  0.00000000000E+00 0. -1.
         21   -1    0    0  501  502 -0.00000000000E+00 -0.00000000000E+00 -0.35087780495E+02  0.35087780495E+02  0.00000000000E+00 0. -1.
         25    1    1    2    0    0  0.00000000000E+00  0.00000000000E+00  0.76240150338E+02  0.14641571133E+03  0.12500000000E+03 0.  0.
<mgrwt>
<rscale>  2 0.12500000E+03</rscale>
<asrwt>0</asrwt>
<pdfrwt beam="1">  1       21 0.17127374E-01 0.12500000E+03</pdfrwt>
<pdfrwt beam="2">  1       21 0.53981201E-02 0.12500000E+03</pdfrwt>
<totfact> 0.71212412E+06</totfact>
</mgrwt>
</event>
<event>
 3    0  0.1626896E+001  0.1250000E+03  0.7546771E-02  0.1235069E+00
         21   -1    0    0  502  501  0.00000000000E+00  0.00000000000E+00  0.20801613077E+02  0.20801613077E+02  0.00000000000E+00 0. -1.
         21   -1    0    0  501  502 -0.00000000000E+00 -0.00000000000E+00 -0.18778591763E+03  0.18778591763E+03  0.00000000000E+00 0. -1.
         25    1    1    2    0    0  0.00000000000E+00  0.00000000000E+00 -0.16698430456E+03  0.20858753071E+03  0.12500000000E+03 0.  0.
<mgrwt>
<rscale>  2 0.12500000E+03</rscale>
<asrwt>0</asrwt>
<pdfrwt beam="1">  1       21 0.32002481E-02 0.12500000E+03</pdfrwt>
<pdfrwt beam="2">  1       21 0.28890142E-01 0.12500000E+03</pdfrwt>
<totfact> 0.64008450E+06</totfact>
</mgrwt>
</event>
<event>
 3    0  0.1712508E+001  0.1250000E+03  0.7546771E-02  0.1235069E+00
         21   -1    0    0  502  501  0.00000000000E+00  0.00000000000E+00  0.62363850796E+02  0.62363850796E+02  0.00000000000E+00 0.  1.
         21   -1    0    0  501  502 -0.00000000000E+00 -0.00000000000E+00 -0.62636446437E+02  0.62636446437E+02  0.00000000000E+00 0.  1.
         25    1    1    2    0    0  0.00000000000E+00  0.00000000000E+00 -0.27259564075E+00  0.12500029723E+03  0.12500000000E+03 0.  0.
<mgrwt>
<rscale>  2 0.12500000E+03</rscale>
<asrwt>0</asrwt>
<pdfrwt beam="1">  1       21 0.95944386E-02 0.12500000E+03</pdfrwt>
<pdfrwt beam="2">  1       21 0.96363764E-02 0.12500000E+03</pdfrwt>
<totfact> 0.74043541E+06</totfact>
</mgrwt>
</event>
<event>
 3    0  0.1523802E+001  0.1250000E+03  0.7546771E-02  0.1235069E+00
         21   -1    0    0  502  501  0.00000000000E+00  0.00000000000E+00  0.10485869110E+02  0.10485869110E+02  0.00000000000E+00 0.  1.
         21   -1    0    0  501  502 -0.00000000000E+00 -0.00000000000E+00 -0.37252515351E+03  0.37252515351E+03  0.00000000000E+00 0.  1.
         25    1    1    2    0    0  0.00000000000E+00  0.00000000000E+00 -0.36203928440E+03  0.38301102262E+03  0.12500000000E+03 0.  0.
<mgrwt>
<rscale>  2 0.12500000E+03</rscale>
<asrwt>0</asrwt>
<pdfrwt beam="1">  1       21 0.16132110E-02 0.12500000E+03</pdfrwt>
<pdfrwt beam="2">  1       21 0.57311551E-01 0.12500000E+03</pdfrwt>
<totfact> 0.49189013E+06</totfact>
</mgrwt>
</event>
<event>
 3    0  0.1624720E+001  0.1250000E+03  0.7546771E-02  0.1235069E+00
         21   -1    0    0  502  501  0.00000000000E+00  0.00000000000E+00  0.21691051781E+03  0.21691051781E+03  0.00000000000E+00 0.  1.
         21   -1    0    0  501  502 -0.00000000000E+00 -0.00000000000E+00 -0.18008578097E+02  0.18008578097E+02  0.00000000000E+00 0.  1.
         25    1    1    2    0    0  0.00000000000E+00  0.00000000000E+00  0.19890193972E+03  0.23491909591E+03  0.12500000000E+03 0.  0.
<mgrwt>
<rscale>  2 0.12500000E+03</rscale>
<asrwt>0</asrwt>
<pdfrwt beam="1">  1       21 0.33370847E-01 0.12500000E+03</pdfrwt>
<pdfrwt beam="2">  1       21 0.27705506E-02 0.12500000E+03</pdfrwt>
<totfact> 0.61327825E+06</totfact>
</mgrwt>
</event>
<event>
 3    0  0.1368989E+001  0.1250000E+03  0.7546771E-02  0.1235069E+00
         21   -1    0    0  502  501  0.00000000000E+00  0.00000000000E+00  0.13979928789E+04  0.13979928789E+04  0.00000000000E+00 0. -1.
         21   -1    0    0  501  502 -0.00000000000E+00 -0.00000000000E+00 -0.27941844761E+01  0.27941844761E+01  0.00000000000E+00 0. -1.
         25    1    1    2    0    0  0.00000000000E+00  0.00000000000E+00  0.13951986944E+04  0.14007870634E+04  0.12500000000E+03 0.  0.
<mgrwt>
<rscale>  2 0.12500000E+03</rscale>
<asrwt>0</asrwt>
<pdfrwt beam="1">  1       21 0.21507527E+00 0.12500000E+03</pdfrwt>
<pdfrwt beam="2">  1       21 0.42987565E-03 0.12500000E+03</pdfrwt>
<totfact> 0.15532030E+06</totfact>
</mgrwt>
</event>
<event>
 3    0  0.1368989E+001  0.1250000E+03  0.7546771E-02  0.1235069E+00
         21   -1    0    0  502  501  0.00000000000E+00  0.00000000000E+00  0.92600720028E+03  0.92600720028E+03  0.00000000000E+00 0.  1.
         21   -1    0    0  501  502 -0.00000000000E+00 -0.00000000000E+00 -0.42183797262E+01  0.42183797262E+01  0.00000000000E+00 0.  1.
         25    1    1    2    0    0  0.00000000000E+00  0.00000000000E+00  0.92178882056E+03  0.93022558001E+03  0.12500000000E+03 0.  0.
<mgrwt>
<rscale>  2 0.12500000E+03</rscale>
<asrwt>0</asrwt>
<pdfrwt beam="1">  1       21 0.14246248E+00 0.12500000E+03</pdfrwt>
<pdfrwt beam="2">  1       21 0.64898223E-03 0.12500000E+03</pdfrwt>
<totfact> 0.25448447E+06</totfact>
</mgrwt>
</event>
<event>
 3    0  0.1712580E+001  0.1250000E+03  0.7546771E-02  0.1235069E+00
         21   -1    0    0  502  501  0.00000000000E+00  0.00000000000E+00  0.59968067022E+02  0.59968067022E+02  0.00000000000E+00 0.  1.
         21   -1    0    0  501  502 -0.00000000000E+00 -0.00000000000E+00 -0.65138834616E+02  0.65138834616E+02  0.00000000000E+00 0.  1.
         25    1    1    2    0    0  0.00000000000E+00  0.00000000000E+00 -0.51707675937E+01  0.12510690164E+03  0.12500000000E+03 0.  0.
<mgrwt>
<rscale>  2 0.12500000E+03</rscale>
<asrwt>0</asrwt>
<pdfrwt beam="1">  1       21 0.92258566E-02 0.12500000E+03</pdfrwt>
<pdfrwt beam="2">  1       21 0.10021359E-01 0.12500000E+03</pdfrwt>
<totfact> 0.74029143E+06</totfact>
</mgrwt>
</event>
<event>
 3    0  0.1450533E+001  0.1250000E+03  0.7546771E-02  0.1235069E+00
         21   -1    0    0  502  501  0.00000000000E+00  0.00000000000E+00  0.89604262645E+01  0.89604262645E+01  0.00000000000E+00 0. -1.
         21   -1    0    0  501  502 -0.00000000000E+00 -0.00000000000E+00 -0.43594466208E+03  0.43594466208E+03  0.00000000000E+00 0. -1.
         25    1    1    2    0    0  0.00000000000E+00  0.00000000000E+00 -0.42698423582E+03  0.44490508835E+03  0.12500000000E+03 0.  0.
<mgrwt>
<rscale>  2 0.12500000E+03</rscale>
<asrwt>0</asrwt>
<pdfrwt beam="1">  1       21 0.13785274E-02 0.12500000E+03</pdfrwt>
<pdfrwt beam="2">  1       21 0.67068398E-01 0.12500000E+03</pdfrwt>
<totfact> 0.45198718E+06</totfact>
</mgrwt>
</event>
<event>
 3    0  0.1659486E+001  0.1250000E+03  0.7546771E-02  0.1235069E+00
         21   -1    0    0  502  501  0.00000000000E+00  0.00000000000E+00  0.27526585695E+02  0.27526585695E+02  0.00000000000E+00 0. -1.
         21   -1    0    0  501  502 -0.00000000000E+00 -0.00000000000E+00 -0.14190826437E+03  0.14190826437E+03  0.00000000000E+00 0. -1.
         25    1    1    2    0    0  0.00000000000E+00  0.00000000000E+00 -0.11438167868E+03  0.16943485007E+03  0.12500000000E+03 0.  0.
<mgrwt>
<rscale>  2 0.12500000E+03</rscale>
<asrwt>0</asrwt>
<pdfrwt beam="1">  1       21 0.42348594E-02 0.12500000E+03</pdfrwt>
<pdfrwt beam="2">  1       21 0.21832041E-01 0.12500000E+03</pdfrwt>
<totfact> 0.68384640E+06</totfact>
</mgrwt>
</event>
<event>
 3    0  0.1560894E+001  0.1250000E+03  0.7546771E-02  0.1235069E+00
         21   -1    0    0  502  501  0.00000000000E+00  0.00000000000E+00  0.13380308843E+02  0.13380308843E+02  0.00000000000E+00 0. -1.
         21   -1    0    0  501  502 -0.00000000000E+00 -0.00000000000E+00 -0.29194019704E+03  0.29194019704E+03  0.00000000000E+00 0. -1.
         25    1    1    2    0    0  0.00000000000E+00  0.00000000000E+00 -0.27855988820E+03  0.30532050588E+03  0.12500000000E+03 0.  0.
<mgrwt>
<rscale>  2 0.12500000E+03</rscale>
<asrwt>0</asrwt>
<pdfrwt beam="1">  1       21 0.20585091E-02 0.12500000E+03</pdfrwt>
<pdfrwt beam="2">  1       21 0.44913875E-01 0.12500000E+03</pdfrwt>
<totfact> 0.55016898E+06</totfact>
</mgrwt>
</event>
<event>
 3    0  0.1542249E+001  0.1250000E+03  0.7546771E-02  0.1235069E+00
         21   -1    0    0  502  501  0.00000000000E+00  0.00000000000E+00  0.13003183501E+02  0.13003183501E+02  0.00000000000E+00 0. -1.
         21   -1    0    0  501  502 -0.00000000000E+00 -0.00000000000E+00 -0.30040720411E+03  0.30040720411E+03  0.00000000000E+00 0. -1.
         25    1    1    2    0    0  0.00000000000E+00  0.00000000000E+00 -0.28740402061E+03  0.31341038761E+03  0.12500000000E+03 0.  0.
<mgrwt>
<rscale>  2 0.12500000E+03</rscale>
<asrwt>0</asrwt>
<pdfrwt beam="1">  1       21 0.20004898E-02 0.12500000E+03</pdfrwt>
<pdfrwt beam="2">  1       21 0.46216491E-01 0.12500000E+03</pdfrwt>
<totfact> 0.54359702E+06</totfact>
</mgrwt>
</event>
<event>
 3    0  0.1589653E+001  0.1250000E+03  0.7546771E-02  0.1235069E+00
         21   -1    0    0  502  501  0.00000000000E+00  0.00000000000E+00  0.15287779896E+02  0.15287779896E+02  0.00000000000E+00 0. -1.
         21   -1    0    0  501  502 -0.00000000000E+00 -0.00000000000E+00 -0.25551453687E+03  0.25551453687E+03  0.00000000000E+00 0. -1.
         25    1    1    2    0    0  0.00000000000E+00  0.00000000000E+00 -0.24022675698E+03  0.27080231677E+03  0.12500000000E+03 0.  0.
<mgrwt>
<rscale>  2 0.12500000E+03</rscale>
<asrwt>0</asrwt>
<pdfrwt beam="1">  1       21 0.23519662E-02 0.12500000E+03</pdfrwt>
<pdfrwt beam="2">  1       21 0.39309927E-01 0.12500000E+03</pdfrwt>
<totfact> 0.57973104E+06</totfact>
</mgrwt>
</event>
<event>
 3    0  0.1580273E+001  0.1250000E+03  0.7546771E-02  0.1235069E+00
         21   -1    0    0  502  501  0.00000000000E+00  0.00000000000E+00  0.31172346409E+03  0.31172346409E+03  0.00000000000E+00 0.  1.
         21   -1    0    0  501  502 -0.00000000000E+00 -0.00000000000E+00 -0.12531138814E+02  0.12531138814E+02  0.00000000000E+00 0.  1.
         25    1    1    2    0    0  0.00000000000E+00  0.00000000000E+00  0.29919232528E+03  0.32425460290E+03  0.12500000000E+03 0.  0.
<mgrwt>
<rscale>  2 0.12500000E+03</rscale>
<asrwt>0</asrwt>
<pdfrwt beam="1">  1       21 0.47957450E-01 0.12500000E+03</pdfrwt>
<pdfrwt beam="2">  1       21 0.19278678E-02 0.12500000E+03</pdfrwt>
<totfact> 0.53497903E+06</totfact>
</mgrwt>
</event>
<event>
 3    0  0.1456990E+001  0.1250000E+03  0.7546771E-02  0.1235069E+00
         21   -1    0    0  502  501  0.00000000000E+00  0.00000000000E+00  0.46044465969E+03  0.46044465969E+03  0.00000000000E+00 0. -1.
         21   -1    0    0  501  502 -0.00000000000E+00 -0.00000000000E+00 -0.84836470959E+01  0.84836470959E+01  0.00000000000E+00 0. -1.
         25    1    1    2    0    0  0.00000000000E+00  0.00000000000E+00  0.45196101260E+03  0.46892830679E+03  0.12500000000E+03 0.  0.
<mgrwt>
<rscale>  2 0.12500000E+03</rscale>
<asrwt>0</asrwt>
<pdfrwt beam="1">  1       21 0.70837620E-01 0.12500000E+03</pdfrwt>
<pdfrwt beam="2">  1       21 0.13051768E-02 0.12500000E+03</pdfrwt>
<totfact> 0.43780892E+06</totfact>
</mgrwt>
</event>
<event>
 3    0  0.1675493E+001  0.1250000E+03  0.7546771E-02  0.1235069E+00
         21   -1    0    0  502  501  0.00000000000E+00  0.00000000000E+00  0.41725587729E+02  0.41725587729E+02  0.00000000000E+00 0. -1.
         21   -1    0    0  501  502 -0.00000000000E+00 -0.00000000000E+00 -0.93617614816E+02  0.93617614816E+02  0.00000000000E+00 0. -1.
         25    1    1    2    0    0  0.00000000000E+00  0.00000000000E+00 -0.51892027087E+02  0.13534320255E+03  0.12500000000E+03 0.  0.
<mgrwt>
<rscale>  2 0.12500000E+03</rscale>
<asrwt>0</asrwt>
<pdfrwt beam="1">  1       21 0.64193212E-02 0.12500000E+03</pdfrwt>
<pdfrwt beam="2">  1       21 0.14402710E-01 0.12500000E+03</pdfrwt>
<totfact> 0.72651062E+06</totfact>
</mgrwt>
</event>
<event>
 3    0  0.1368989E+001  0.1250000E+03  0.7546771E-02  0.1235069E+00
         21   -1    0    0  502  501  0.00000000000E+00  0.00000000000E+00  0.86238807167E+03  0.86238807167E+03  0.00000000000E+00 0. -1.
         21   -1    0    0  501  502 -0.00000000000E+00 -0.00000000000E+00 -0.45295733189E+01  0.45295733189E+01  0.00000000000E+00 0. -1.
         25    1    1    2    0    0  0.00000000000E+00  0.00000000000E+00  0.85785849835E+03  0.86691764499E+03  0.12500000000E+03 0.  0.
<mgrwt>
<rscale>  2 0.12500000E+03</rscale>
<asrwt>0</asrwt>
<pdfrwt beam="1">  1       21 0.13267496E+00 0.12500000E+03</pdfrwt>
<pdfrwt beam="2">  1       21 0.69685812E-03 0.12500000E+03</pdfrwt>
<totfact> 0.27261809E+06</totfact>
</mgrwt>
</event>
<event>
 3    0  0.1665246E+001  0.1250000E+03  0.7546771E-02  0.1235069E+00
         21   -1    0    0  502  501  0.00000000000E+00  0.00000000000E+00  0.12397561160E+03  0.12397561160E+03  0.00000000000E+00 0. -1.
         21   -1    0    0  501  502 -0.00000000000E+00 -0.00000000000E+00 -0.31508213184E+02  0.31508213184E+02  0.00000000000E+00 0. -1.
         25    1    1    2    0    0  0.00000000000E+00  0.00000000000E+00  0.92467398421E+02  0.15548382479E+03  0.12500000000E+03 0.  0.
<mgrwt>
<rscale>  2 0.12500000E+03</rscale>
<asrwt>0</asrwt>
<pdfrwt beam="1">  1       21 0.19073171E-01 0.12500000E+03</pdfrwt>
<pdfrwt beam="2">  1       21 0.48474175E-02 0.12500000E+03</pdfrwt>
<totfact> 0.70075576E+06</totfact>
</mgrwt>
</event>
<event>
 3    0  0.1687030E+001  0.1250000E+03  0.7546771E-02  0.1235069E+00
         21   -1    0    0  502  501  0.00000000000E+00  0.00000000000E+00  0.12499291018E+03  0.12499291018E+03  0.00000000000E+00 0.  1.
         21   -1    0    0  501  502 -0.00000000000E+00 -0.00000000000E+00 -0.31251772556E+02  0.31251772556E+02  0.00000000000E+00 0.  1.
         25    1    1    2    0    0  0.00000000000E+00  0.00000000000E+00  0.93741137621E+02  0.15624468273E+03  0.12500000000E+03 0.  0.
<mgrwt>
<rscale>  2 0.12500000E+03</rscale>
<asrwt>0</asrwt>
<pdfrwt beam="1">  1       21 0.19229678E-01 0.12500000E+03</pdfrwt>
<pdfrwt beam="2">  1       21 0.48079651E-02 0.12500000E+03</pdfrwt>
<totfact> 0.69981290E+06</totfact>
</mgrwt>
</event>
<event>
 3    0  0.1633718E+001  0.1250000E+03  0.7546771E-02  0.1235069E+00
         21   -1    0    0  502  501  0.00000000000E+00  0.00000000000E+00  0.21122390399E+02  0.21122390399E+02  0.00000000000E+00 0. -1.
         21   -1    0    0  501  502 -0.00000000000E+00 -0.00000000000E+00 -0.18493408777E+03  0.18493408777E+03  0.00000000000E+00 0. -1.
         25    1    1    2    0    0  0.00000000000E+00  0.00000000000E+00 -0.16381169737E+03  0.20605647817E+03  0.12500000000E+03 0.  0.
<mgrwt>
<rscale>  2 0.12500000E+03</rscale>
<asrwt>0</asrwt>
<pdfrwt beam="1">  1       21 0.32495985E-02 0.12500000E+03</pdfrwt>
<pdfrwt beam="2">  1       21 0.28451398E-01 0.12500000E+03</pdfrwt>
<totfact> 0.64276842E+06</totfact>
</mgrwt>
</event>
<event>
 3    0  0.1403910E+001  0.1250000E+03  0.7546771E-02  0.1235069E+00
         21   -1    0    0  502  501  0.00000000000E+00  0.00000000000E+00  0.61646616010E+03  0.61646616010E+03  0.00000000000E+00 0. -1.
         21   -1    0    0  501  502 -0.00000000000E+00 -0.00000000000E+00 -0.63365197521E+01  0.63365197521E+01  0.00000000000E+00 0. -1.
         25    1    1    2    0    0  0.00000000000E+00  0.00000000000E+00  0.61012964035E+03  0.62280267986E+03  0.12500000000E+03 0.  0.
<mgrwt>
<rscale>  2 0.12500000E+03</rscale>
<asrwt>0</asrwt>
<pdfrwt beam="1">  1       21 0.94840901E-01 0.12500000E+03</pdfrwt>
<pdfrwt beam="2">  1       21 0.97484968E-03 0.12500000E+03</pdfrwt>
<totfact> 0.36081312E+06</totfact>
</mgrwt>
</event>
<event>
 3    0  0.1580482E+001  0.1250000E+03  0.7546771E-02  0.1235069E+00
         21   -1    0    0  502  501  0.00000000000E+00  0.00000000000E+00  0.25924057317E+03  0.25924057317E+03  0.00000000000E+00 0. -1.
         21   -1    0    0  501  502 -0.00000000000E+00 -0.00000000000E+00 -0.15068050314E+02  0.15068050314E+02  0.00000000000E+00 0. -1.
         25    1    1    2    0    0  0.00000000000E+00  0.00000000000E+00  0.24417252285E+03  0.27430862348E+03  0.12500000000E+03 0.  0.
<mgrwt>
<rscale>  2 0.12500000E+03</rscale>
<asrwt>0</asrwt>
<pdfrwt beam="1">  1       21 0.39883162E-01 0.12500000E+03</pdfrwt>
<pdfrwt beam="2">  1       21 0.23181618E-02 0.12500000E+03</pdfrwt>
<totfact> 0.57661173E+06</totfact>
</mgrwt>
</event>
<event>
 3    0  0.1426079E+001  0.1250000E+03  0.7546771E-02  0.1235069E+00
         21   -1    0    0  502  501  0.00000000000E+00  0.00000000000E+00  0.57674157102E+03  0.57674157102E+03  0.00000000000E+00 0.  1.
         21   -1    0    0  501  502 -0.00000000000E+00 -0.00000000000E+00 -0.67729641772E+01  0.67729641772E+01  0.00000000000E+00 0.  1.
         25    1    1    2    0    0  0.00000000000E+00  0.00000000000E+00  0.56996860684E+03  0.58351453520E+03  0.12500000000E+03 0.  0.
<mgrwt>
<rscale>  2 0.12500000E+03</rscale>
<asrwt>0</asrwt>
<pdfrwt beam="1">  1       21 0.88729434E-01 0.12500000E+03</pdfrwt>
<pdfrwt beam="2">  1       21 0.10419949E-02 0.12500000E+03</pdfrwt>
<totfact> 0.37848948E+06</totfact>
</mgrwt>
</event>
<event>
 3    0  0.1570754E+001  0.1250000E+03  0.7546771E-02  0.1235069E+00
         21   -1    0    0  502  501  0.00000000000E+00  0.00000000000E+00  0.25062383357E+03  0.25062383357E+03  0.00000000000E+00 0. -1.
         21   -1    0    0  501  502 -0.00000000000E+00 -0.00000000000E+00 -0.15586107452E+02  0.15586107452E+02  0.00000000000E+00 0. -1.
         25    1    1    2    0    0  0.00000000000E+00  0.00000000000E+00  0.23503772612E+03  0.26620994103E+03  0.12500000000E+03 0.  0.
<mgrwt>
<rscale>  2 0.12500000E+03</rscale>
<asrwt>0</asrwt>
<pdfrwt beam="1">  1       21 0.38557510E-01 0.12500000E+03</pdfrwt>
<pdfrwt beam="2">  1       21 0.23978629E-02 0.12500000E+03</pdfrwt>
<totfact> 0.58384733E+06</totfact>
</mgrwt>
</event>
<event>
 3    0  0.1681197E+001  0.1250000E+03  0.7546771E-02  0.1235069E+00
         21   -1    0    0  502  501  0.00000000000E+00  0.00000000000E+00  0.30659539047E+02  0.30659539047E+02  0.00000000000E+00 0.  1.
         21   -1    0    0  501  502 -0.00000000000E+00 -0.00000000000E+00 -0.12740732970E+03  0.12740732970E+03  0.00000000000E+00 0.  1.
         25    1    1    2    0    0  0.00000000000E+00  0.00000000000E+00 -0.96747790657E+02  0.15806686875E+03  0.12500000000E+03 0.  0.
<mgrwt>
<rscale>  2 0.12500000E+03</rscale>
<asrwt>0</asrwt>
<pdfrwt beam="1">  1       21 0.47168521E-02 0.12500000E+03</pdfrwt>
<pdfrwt beam="2">  1       21 0.19601128E-01 0.12500000E+03</pdfrwt>
<totfact> 0.69756478E+06</totfact>
</mgrwt>
</event>
<event>
 3    0  0.1709834E+001  0.1250000E+03  0.7546771E-02  0.1235069E+00
         21   -1    0    0  502  501  0.00000000000E+00  0.00000000000E+00  0.71059759717E+02  0.71059759717E+02  0.00000000000E+00 0.  1.
         21   -1    0    0  501  502 -0.00000000000E+00 -0.00000000000E+00 -0.54971337021E+02  0.54971337021E+02  0.00000000000E+00 0.  1.
         25    1    1    2    0    0  0.00000000000E+00  0.00000000000E+00  0.16088422696E+02  0.12603109674E+03  0.12500000000E+03 0.  0.
<mgrwt>
<rscale>  2 0.12500000E+03</rscale>
<asrwt>0</asrwt>
<pdfrwt beam="1">  1       21 0.10932271E-01 0.12500000E+03</pdfrwt>
<pdfrwt beam="2">  1       21 0.84571288E-02 0.12500000E+03</pdfrwt>
<totfact> 0.73901752E+06</totfact>
</mgrwt>
</event>
<event>
 3    0  0.1712581E+001  0.1250000E+03  0.7546771E-02  0.1235069E+00
         21   -1    0    0  502  501  0.00000000000E+00  0.00000000000E+00  0.59972320528E+02  0.59972320528E+02  0.00000000000E+00 0.  1.
         21   -1    0    0  501  502 -0.00000000000E+00 -0.00000000000E+00 -0.65134214678E+02  0.65134214678E+02  0.00000000000E+00 0.  1.
         25    1    1    2    0    0  0.00000000000E+00  0.00000000000E+00 -0.51618941508E+01  0.12510653521E+03  0.12500000000E+03 0.  0.
<mgrwt>
<rscale>  2 0.12500000E+03</rscale>
<asrwt>0</asrwt>
<pdfrwt beam="1">  1       21 0.92265109E-02 0.12500000E+03</pdfrwt>
<pdfrwt beam="2">  1       21 0.10020648E-01 0.12500000E+03</pdfrwt>
<totfact> 0.74029193E+06</totfact>
</mgrwt>
</event>
<event>
 3    0  0.1635831E+001  0.1250000E+03  0.7546771E-02  0.1235069E+00
         21   -1    0    0  502  501  0.00000000000E+00  0.00000000000E+00  0.15452367022E+03  0.15452367022E+03  0.00000000000E+00 0. -1.
         21   -1    0    0  501  502 -0.00000000000E+00 -0.00000000000E+00 -0.25279298598E+02  0.25279298598E+02  0.00000000000E+00 0. -1.
         25    1    1    2    0    0  0.00000000000E+00  0.00000000000E+00  0.12924437162E+03  0.17980296882E+03  0.12500000000E+03 0.  0.
<mgrwt>
<rscale>  2 0.12500000E+03</rscale>
<asrwt>0</asrwt>
<pdfrwt beam="1">  1       21 0.23772872E-01 0.12500000E+03</pdfrwt>
<pdfrwt beam="2">  1       21 0.38891230E-02 0.12500000E+03</pdfrwt>
<totfact> 0.67174147E+06</totfact>
</mgrwt>
</event>
<event>
 3    0  0.1710942E+001  0.1250000E+03  0.7546771E-02  0.1235069E+00
         21   -1    0    0  502  501  0.00000000000E+00  0.00000000000E+00  0.53386199396E+02  0.53386199396E+02  0.00000000000E+00 0.  1.
         21   -1    0    0  501  502 -0.00000000000E+00 -0.00000000000E+00 -0.73169658904E+02  0.73169658904E+02  0.00000000000E+00 0.  1.
         25    1    1    2    0    0  0.00000000000E+00  0.00000000000E+00 -0.19783459508E+02  0.12655585830E+03  0.12500000000E+03 0.  0.
<mgrwt>
<rscale>  2 0.12500000E+03</rscale>
<asrwt>0</asrwt>
<pdfrwt beam="1">  1       21 0.82132614E-02 0.12500000E+03</pdfrwt>
<pdfrwt beam="2">  1       21 0.11256871E-01 0.12500000E+03</pdfrwt>
<totfact> 0.73829731E+06</totfact>
</mgrwt>
</event>
<event>
 3    0  0.1629759E+001  0.1250000E+03  0.7546771E-02  0.1235069E+00
         21   -1    0    0  502  501  0.00000000000E+00  0.00000000000E+00  0.21480094896E+03  0.21480094896E+03  0.00000000000E+00 0.  1.
         21   -1    0    0  501  502 -0.00000000000E+00 -0.00000000000E+00 -0.18185441075E+02  0.18185441075E+02  0.00000000000E+00 0.  1.
         25    1    1    2    0    0  0.00000000000E+00  0.00000000000E+00  0.19661550788E+03  0.23298639003E+03  0.12500000000E+03 0.  0.
<mgrwt>
<rscale>  2 0.12500000E+03</rscale>
<asrwt>0</asrwt>
<pdfrwt beam="1">  1       21 0.33046298E-01 0.12500000E+03</pdfrwt>
<pdfrwt beam="2">  1       21 0.27977603E-02 0.12500000E+03</pdfrwt>
<totfact> 0.61518032E+06</totfact>
</mgrwt>
</event>
<event>
 3    0  0.1368989E+001  0.1250000E+03  0.7546771E-02  0.1235069E+00
         21   -1    0    0  502  501  0.00000000000E+00  0.00000000000E+00  0.80040718150E+03  0.80040718150E+03  0.00000000000E+00 0. -1.
         21   -1    0    0  501  502 -0.00000000000E+00 -0.00000000000E+00 -0.48803285256E+01  0.48803285256E+01  0.00000000000E+00 0. -1.
         25    1    1    2    0    0  0.00000000000E+00  0.00000000000E+00  0.79552685298E+03  0.80528751003E+03  0.12500000000E+03 0.  0.
<mgrwt>
<rscale>  2 0.12500000E+03</rscale>
<asrwt>0</asrwt>
<pdfrwt beam="1">  1       21 0.12313946E+00 0.12500000E+03</pdfrwt>
<pdfrwt beam="2">  1       21 0.75082041E-03 0.12500000E+03</pdfrwt>
<totfact> 0.29188394E+06</totfact>
</mgrwt>
</event>
<event>
 3    0  0.1473834E+001  0.1250000E+03  0.7546771E-02  0.1235069E+00
         21   -1    0    0  502  501  0.00000000000E+00  0.00000000000E+00  0.46265163305E+03  0.46265163305E+03  0.00000000000E+00 0.  1.
         21   -1    0    0  501  502 -0.00000000000E+00 -0.00000000000E+00 -0.84431778058E+01  0.84431778058E+01  0.00000000000E+00 0.  1.
         25    1    1    2    0    0  0.00000000000E+00  0.00000000000E+00  0.45420845525E+03  0.47109481086E+03  0.12500000000E+03 0.  0.
<mgrwt>
<rscale>  2 0.12500000E+03</rscale>
<asrwt>0</asrwt>
<pdfrwt beam="1">  1       21 0.71177154E-01 0.12500000E+03</pdfrwt>
<pdfrwt beam="2">  1       21 0.12989508E-02 0.12500000E+03</pdfrwt>
<totfact> 0.43656337E+06</totfact>
</mgrwt>
</event>
<event>
 3    0  0.1650325E+001  0.1250000E+03  0.7546771E-02  0.1235069E+00
         21   -1    0    0  502  501  0.00000000000E+00  0.00000000000E+00  0.14528463208E+03  0.14528463208E+03  0.00000000000E+00 0. -1.
         21   -1    0    0  501  502 -0.00000000000E+00 -0.00000000000E+00 -0.26886876775E+02  0.26886876775E+02  0.00000000000E+00 0. -1.
         25    1    1    2    0    0  0.00000000000E+00  0.00000000000E+00  0.11839775530E+03  0.17217150885E+03  0.12500000000E+03 0.  0.
<mgrwt>
<rscale>  2 0.12500000E+03</rscale>
<asrwt>0</asrwt>
<pdfrwt beam="1">  1       21 0.22351481E-01 0.12500000E+03</pdfrwt>
<pdfrwt beam="2">  1       21 0.41364427E-02 0.12500000E+03</pdfrwt>
<totfact> 0.68061144E+06</totfact>
</mgrwt>
</event>
<event>
 3    0  0.1645928E+001  0.1250000E+03  0.7546771E-02  0.1235069E+00
         21   -1    0    0  502  501  0.00000000000E+00  0.00000000000E+00  0.25941006461E+02  0.25941006461E+02  0.00000000000E+00 0. -1.
         21   -1    0    0  501  502 -0.00000000000E+00 -0.00000000000E+00 -0.15058205262E+03  0.15058205262E+03  0.00000000000E+00 0. -1.
         25    1    1    2    0    0  0.00000000000E+00  0.00000000000E+00 -0.12464104616E+03  0.17652305908E+03  0.12500000000E+03 0.  0.
<mgrwt>
<rscale>  2 0.12500000E+03</rscale>
<asrwt>0</asrwt>
<pdfrwt beam="1">  1       21 0.39909240E-02 0.12500000E+03</pdfrwt>
<pdfrwt beam="2">  1       21 0.23166470E-01 0.12500000E+03</pdfrwt>
<totfact> 0.67552655E+06</totfact>
</mgrwt>
</event>
<event>
 3    0  0.1661838E+001  0.1250000E+03  0.7546771E-02  0.1235069E+00
         21   -1    0    0  502  501  0.00000000000E+00  0.00000000000E+00  0.22233482372E+02  0.22233482372E+02  0.00000000000E+00 0.  1.
         21   -1    0    0  501  502 -0.00000000000E+00 -0.00000000000E+00 -0.17569222556E+03  0.17569222556E+03  0.00000000000E+00 0.  1.
         25    1    1    2    0    0  0.00000000000E+00  0.00000000000E+00 -0.15345874319E+03  0.19792570793E+03  0.12500000000E+03 0.  0.
<mgrwt>
<rscale>  2 0.12500000E+03</rscale>
<asrwt>0</asrwt>
<pdfrwt beam="1">  1       21 0.34205357E-02 0.12500000E+03</pdfrwt>
<pdfrwt beam="2">  1       21 0.27029574E-01 0.12500000E+03</pdfrwt>
<totfact> 0.65152226E+06</totfact>
</mgrwt>
</event>
<event>
 3    0  0.1674744E+001  0.1250000E+03  0.7546771E-02  0.1235069E+00
         21   -1    0    0  502  501  0.00000000000E+00  0.00000000000E+00  0.38471209274E+02  0.38471209274E+02  0.00000000000E+00 0. -1.
         21   -1    0    0  501  502 -0.00000000000E+00 -0.00000000000E+00 -0.10153696943E+03  0.10153696943E+03  0.00000000000E+00 0. -1.
         25    1    1    2    0    0  0.00000000000E+00  0.00000000000E+00 -0.63065760157E+02  0.14000817870E+03  0.12500000000E+03 0.  0.
<mgrwt>
<rscale>  2 0.12500000E+03</rscale>
<asrwt>0</asrwt>
<pdfrwt beam="1">  1       21 0.59186477E-02 0.12500000E+03</pdfrwt>
<pdfrwt beam="2">  1       21 0.15621072E-01 0.12500000E+03</pdfrwt>
<totfact> 0.72038241E+06</totfact>
</mgrwt>
</event>
<event>
 3    0  0.1687344E+001  0.1250000E+03  0.7546771E-02  0.1235069E+00
         21   -1    0    0  502  501  0.00000000000E+00  0.00000000000E+00  0.72006714815E+02  0.72006714815E+02  0.00000000000E+00 0. -1.
         21   -1    0    0  501  502 -0.00000000000E+00 -0.00000000000E+00 -0.54248412944E+02  0.54248412944E+02  0.00000000000E+00 0. -1.
         25    1    1    2    0    0  0.00000000000E+00  0.00000000000E+00  0.17758301872E+02  0.12625512776E+03  0.12500000000E+03 0.  0.
<mgrwt>
<rscale>  2 0.12500000E+03</rscale>
<asrwt>0</asrwt>
<pdfrwt beam="1">  1       21 0.11077956E-01 0.12500000E+03</pdfrwt>
<pdfrwt beam="2">  1       21 0.83459096E-02 0.12500000E+03</pdfrwt>
<totfact> 0.73870938E+06</totfact>
</mgrwt>
</event>
<event>
 3    0  0.1709521E+001  0.1250000E+03  0.7546771E-02  0.1235069E+00
         21   -1    0    0  502  501  0.00000000000E+00  0.00000000000E+00  0.77937682160E+02  0.77937682160E+02  0.00000000000E+00 0.  1.
         21   -1    0    0  501  502 -0.00000000000E+00 -0.00000000000E+00 -0.50120171549E+02  0.50120171549E+02  0.00000000000E+00 0.  1.
         25    1    1    2    0    0  0.00000000000E+00  0.00000000000E+00  0.27817510611E+02  0.12805785371E+03  0.12500000000E+03 0.  0.
<mgrwt>
<rscale>  2 0.12500000E+03</rscale>
<asrwt>0</asrwt>
<pdfrwt beam="1">  1       21 0.11990413E-01 0.12500000E+03</pdfrwt>
<pdfrwt beam="2">  1       21 0.77107956E-02 0.12500000E+03</pdfrwt>
<totfact> 0.73625745E+06</totfact>
</mgrwt>
</event>
<event>
 3    0  0.1682949E+001  0.1250000E+03  0.7546771E-02  0.1235069E+00
         21   -1    0    0  502  501  0.00000000000E+00  0.00000000000E+00  0.12681222296E+03  0.12681222296E+03  0.00000000000E+00 0.  1.
         21   -1    0    0  501  502 -0.00000000000E+00 -0.00000000000E+00 -0.30803418699E+02  0.30803418699E+02  0.00000000000E+00 0.  1.
         25    1    1    2    0    0  0.00000000000E+00  0.00000000000E+00  0.96008804263E+02  0.15761564166E+03  0.12500000000E+03 0.  0.
<mgrwt>
<rscale>  2 0.12500000E+03</rscale>
<asrwt>0</asrwt>
<pdfrwt beam="1">  1       21 0.19509572E-01 0.12500000E+03</pdfrwt>
<pdfrwt beam="2">  1       21 0.47389876E-02 0.12500000E+03</pdfrwt>
<totfact> 0.69812019E+06</totfact>
</mgrwt>
</event>
<event>
 3    0  0.1407240E+001  0.1250000E+03  0.7546771E-02  0.1235069E+00
         21   -1    0    0  502  501  0.00000000000E+00  0.00000000000E+00  0.50898497023E+03  0.50898497023E+03  0.00000000000E+00 0. -1.
         21   -1    0    0  501  502 -0.00000000000E+00 -0.00000000000E+00 -0.76745881086E+01  0.76745881086E+01  0.00000000000E+00 0. -1.
         25    1    1    2    0    0  0.00000000000E+00  0.00000000000E+00  0.50131038212E+03  0.51665955834E+03  0.12500000000E+03 0.  0.
<mgrwt>
<rscale>  2 0.12500000E+03</rscale>
<asrwt>0</asrwt>
<pdfrwt beam="1">  1       21 0.78305353E-01 0.12500000E+03</pdfrwt>
<pdfrwt beam="2">  1       21 0.11807063E-02 0.12500000E+03</pdfrwt>
<totfact> 0.41154770E+06</totfact>
</mgrwt>
</event>
<event>
 3    0  0.1688116E+001  0.1250000E+03  0.7546771E-02  0.1235069E+00
         21   -1    0    0  502  501  0.00000000000E+00  0.00000000000E+00  0.62864469587E+02  0.62864469587E+02  0.00000000000E+00 0. -1.
         21   -1    0    0  501  502 -0.00000000000E+00 -0.00000000000E+00 -0.62137643500E+02  0.62137643500E+02  0.00000000000E+00 0. -1.
         25    1    1    2    0    0  0.00000000000E+00  0.00000000000E+00  0.72682608685E+00  0.12500211309E+03  0.12500000000E+03 0.  0.
<mgrwt>
<rscale>  2 0.12500000E+03</rscale>
<asrwt>0</asrwt>
<pdfrwt beam="1">  1       21 0.96714569E-02 0.12500000E+03</pdfrwt>
<pdfrwt beam="2">  1       21 0.95596374E-02 0.12500000E+03</pdfrwt>
<totfact> 0.74043296E+06</totfact>
</mgrwt>
</event>
<event>
 3    0  0.1464445E+001  0.1250000E+03  0.7546771E-02  0.1235069E+00
         21   -1    0    0  502  501  0.00000000000E+00  0.00000000000E+00  0.48881473201E+03  0.48881473201E+03  0.00000000000E+00 0.  1.
         21   -1    0    0  501  502 -0.00000000000E+00 -0.00000000000E+00 -0.79912689699E+01  0.79912689699E+01  0.00000000000E+00 0.  1.
         25    1    1    2    0    0  0.00000000000E+00  0.00000000000E+00  0.48082346304E+03  0.49680600098E+03  0.12500000000E+03 0.  0.
<mgrwt>
<rscale>  2 0.12500000E+03</rscale>
<asrwt>0</asrwt>
<pdfrwt beam="1">  1       21 0.75202243E-01 0.12500000E+03</pdfrwt>
<pdfrwt beam="2">  1       21 0.12294264E-02 0.12500000E+03</pdfrwt>
<totfact> 0.42217828E+06</totfact>
</mgrwt>
</event>
<event>
 3    0  0.1519794E+001  0.1250000E+03  0.7546771E-02  0.1235069E+00
         21   -1    0    0  502  501  0.00000000000E+00  0.00000000000E+00  0.34000845426E+03  0.34000845426E+03  0.00000000000E+00 0. -1.
         21   -1    0    0  501  502 -0.00000000000E+00 -0.00000000000E+00 -0.11488684917E+02  0.11488684917E+02  0.00000000000E+00 0. -1.
         25    1    1    2    0    0  0.00000000000E+00  0.00000000000E+00  0.32851976934E+03  0.35149713918E+03  0.12500000000E+03 0.  0.
<mgrwt>
<rscale>  2 0.12500000E+03</rscale>
<asrwt>0</asrwt>
<pdfrwt beam="1">  1       21 0.52308985E-01 0.12500000E+03</pdfrwt>
<pdfrwt beam="2">  1       21 0.17674903E-02 0.12500000E+03</pdfrwt>
<totfact> 0.51428057E+06</totfact>
</mgrwt>
</event>
<event>
 3    0  0.1712489E+001  0.1250000E+03  0.7546771E-02  0.1235069E+00
         21   -1    0    0  502  501  0.00000000000E+00  0.00000000000E+00  0.63144850607E+02  0.63144850607E+02  0.00000000000E+00 0.  1.
         21   -1    0    0  501  502 -0.00000000000E+00 -0.00000000000E+00 -0.61861734765E+02  0.61861734765E+02  0.00000000000E+00 0.  1.
         25    1    1    2    0    0  0.00000000000E+00  0.00000000000E+00  0.12831158419E+01  0.12500658537E+03  0.12500000000E+03 0.  0.
<mgrwt>
<rscale>  2 0.12500000E+03</rscale>
<asrwt>0</asrwt>
<pdfrwt beam="1">  1       21 0.97145925E-02 0.12500000E+03</pdfrwt>
<pdfrwt beam="2">  1       21 0.95171899E-02 0.12500000E+03</pdfrwt>
<totfact> 0.74042692E+06</totfact>
</mgrwt>
</event>
<event>
 3    0  0.1707599E+001  0.1250000E+03  0.7546771E-02  0.1235069E+00
         21   -1    0    0  502  501  0.00000000000E+00  0.00000000000E+00  0.79596131315E+02  0.79596131315E+02  0.00000000000E+00 0.  1.
         21   -1    0    0  501  502 -0.00000000000E+00 -0.00000000000E+00 -0.49075877627E+02  0.49075877627E+02  0.00000000000E+00 0.  1.
         25    1    1    2    0    0  0.00000000000E+00  0.00000000000E+00  0.30520253689E+02  0.12867200894E+03  0.12500000000E+03 0.  0.
<mgrwt>
<rscale>  2 0.12500000E+03</rscale>
<asrwt>0</asrwt>
<pdfrwt beam="1">  1       21 0.12245559E-01 0.12500000E+03</pdfrwt>
<pdfrwt beam="2">  1       21 0.75501350E-02 0.12500000E+03</pdfrwt>
<totfact> 0.73542969E+06</totfact>
</mgrwt>
</event>
<event>
 3    0  0.1449589E+001  0.1250000E+03  0.7546771E-02  0.1235069E+00
         21   -1    0    0  502  501  0.00000000000E+00  0.00000000000E+00  0.75079739426E+01  0.75079739426E+01  0.00000000000E+00 0. -1.
         21   -1    0    0  501  502 -0.00000000000E+00 -0.00000000000E+00 -0.52028017543E+03  0.52028017543E+03  0.00000000000E+00 0. -1.
         25    1    1    2    0    0  0.00000000000E+00  0.00000000000E+00 -0.51277220149E+03  0.52778814937E+03  0.12500000000E+03 0.  0.
<mgrwt>
<rscale>  2 0.12500000E+03</rscale>
<asrwt>0</asrwt>
<pdfrwt beam="1">  1       21 0.11550731E-02 0.12500000E+03</pdfrwt>
<pdfrwt beam="2">  1       21 0.80043092E-01 0.12500000E+03</pdfrwt>
<totfact> 0.40576075E+06</totfact>
</mgrwt>
</event>
<event>
 3    0  0.1711558E+001  0.1250000E+03  0.7546771E-02  0.1235069E+00
         21   -1    0    0  502  501  0.00000000000E+00  0.00000000000E+00  0.72211829358E+02  0.72211829358E+02  0.00000000000E+00 0.  1.
         21   -1    0    0  501  502 -0.00000000000E+00 -0.00000000000E+00 -0.54094322699E+02  0.54094322699E+02  0.00000000000E+00 0.  1.
         25    1    1    2    0    0  0.00000000000E+00  0.00000000000E+00  0.18117506658E+02  0.12630615206E+03  0.12500000000E+03 0.  0.
<mgrwt>
<rscale>  2 0.12500000E+03</rscale>
<asrwt>0</asrwt>
<pdfrwt beam="1">  1       21 0.11109512E-01 0.12500000E+03</pdfrwt>
<pdfrwt beam="2">  1       21 0.83222034E-02 0.12500000E+03</pdfrwt>
<totfact> 0.73863935E+06</totfact>
</mgrwt>
</event>
<event>
 3    0  0.1587383E+001  0.1250000E+03  0.7546771E-02  0.1235069E+00
         21   -1    0    0  502  501  0.00000000000E+00  0.00000000000E+00  0.29030048396E+03  0.29030048396E+03  0.00000000000E+00 0.  1.
         21   -1    0    0  501  502 -0.00000000000E+00 -0.00000000000E+00 -0.13455885249E+02  0.13455885249E+02  0.00000000000E+00 0.  1.
         25    1    1    2    0    0  0.00000000000E+00  0.00000000000E+00  0.27684459871E+03  0.30375636921E+03  0.12500000000E+03 0.  0.
<mgrwt>
<rscale>  2 0.12500000E+03</rscale>
<asrwt>0</asrwt>
<pdfrwt beam="1">  1       21 0.44661608E-01 0.12500000E+03</pdfrwt>
<pdfrwt beam="2">  1       21 0.20701364E-02 0.12500000E+03</pdfrwt>
<totfact> 0.55145445E+06</totfact>
</mgrwt>
</event>
<event>
 3    0  0.1427367E+001  0.1250000E+03  0.7546771E-02  0.1235069E+00
         21   -1    0    0  502  501  0.00000000000E+00  0.00000000000E+00  0.56423374996E+03  0.56423374996E+03  0.00000000000E+00 0. -1.
         21   -1    0    0  501  502 -0.00000000000E+00 -0.00000000000E+00 -0.69231058941E+01  0.69231058941E+01  0.00000000000E+00 0. -1.
         25    1    1    2    0    0  0.00000000000E+00  0.00000000000E+00  0.55731064407E+03  0.57115685585E+03  0.12500000000E+03 0.  0.
<mgrwt>
<rscale>  2 0.12500000E+03</rscale>
<asrwt>0</asrwt>
<pdfrwt beam="1">  1       21 0.86805156E-01 0.12500000E+03</pdfrwt>
<pdfrwt beam="2">  1       21 0.10650937E-02 0.12500000E+03</pdfrwt>
<totfact> 0.38430392E+06</totfact>
</mgrwt>
</event>
<event>
 3    0  0.1384303E+001  0.1250000E+03  0.7546771E-02  0.1235069E+00
         21   -1    0    0  502  501  0.00000000000E+00  0.00000000000E+00  0.66390322428E+01  0.66390322428E+01  0.00000000000E+00 0. -1.
         21   -1    0    0  501  502 -0.00000000000E+00 -0.00000000000E+00 -0.58837641649E+03  0.58837641649E+03  0.00000000000E+00 0. -1.
         25    1    1    2    0    0  0.00000000000E+00  0.00000000000E+00 -0.58173738425E+03  0.59501544874E+03  0.12500000000E+03 0.  0.
<mgrwt>
<rscale>  2 0.12500000E+03</rscale>
<asrwt>0</asrwt>
<pdfrwt beam="1">  1       21 0.10213892E-02 0.12500000E+03</pdfrwt>
<pdfrwt beam="2">  1       21 0.90519480E-01 0.12500000E+03</pdfrwt>
<totfact> 0.37319016E+06</totfact>
</mgrwt>
</event>
<event>
 3    0  0.1649947E+001  0.1250000E+03  0.7546771E-02  0.1235069E+00
         21   -1    0    0  502  501  0.00000000000E+00  0.00000000000E+00  0.18037760446E+03  0.18037760446E+03  0.00000000000E+00 0.  1.
         21   -1    0    0  501  502 -0.00000000000E+00 -0.00000000000E+00 -0.21655958963E+02  0.21655958963E+02  0.00000000000E+00 0.  1.
         25    1    1    2    0    0  0.00000000000E+00  0.00000000000E+00  0.15872164550E+03  0.20203356342E+03  0.12500000000E+03 0.  0.
<mgrwt>
<rscale>  2 0.12500000E+03</rscale>
<asrwt>0</asrwt>
<pdfrwt beam="1">  1       21 0.27750400E-01 0.12500000E+03</pdfrwt>
<pdfrwt beam="2">  1       21 0.33316861E-02 0.12500000E+03</pdfrwt>
<totfact> 0.64707567E+06</totfact>
</mgrwt>
</event>
<event>
 3    0  0.1712493E+001  0.1250000E+03  0.7546771E-02  0.1235069E+00
         21   -1    0    0  502  501  0.00000000000E+00  0.00000000000E+00  0.61929999006E+02  0.61929999006E+02  0.00000000000E+00 0.  1.
         21   -1    0    0  501  502 -0.00000000000E+00 -0.00000000000E+00 -0.63075247258E+02  0.63075247258E+02  0.00000000000E+00 0.  1.
         25    1    1    2    0    0  0.00000000000E+00  0.00000000000E+00 -0.11452482515E+01  0.12500524626E+03  0.12500000000E+03 0.  0.
<mgrwt>
<rscale>  2 0.12500000E+03</rscale>
<asrwt>0</asrwt>
<pdfrwt beam="1">  1       21 0.95276922E-02 0.12500000E+03</pdfrwt>
<pdfrwt beam="2">  1       21 0.97038841E-02 0.12500000E+03</pdfrwt>
<totfact> 0.74042873E+06</totfact>
</mgrwt>
</event>
<event>
 3    0  0.1520737E+001  0.1250000E+03  0.7546771E-02  0.1235069E+00
         21   -1    0    0  502  501  0.00000000000E+00  0.00000000000E+00  0.39026965688E+03  0.39026965688E+03  0.00000000000E+00 0.  1.
         21   -1    0    0  501  502 -0.00000000000E+00 -0.00000000000E+00 -0.10009105066E+02  0.10009105066E+02  0.00000000000E+00 0.  1.
         25    1    1    2    0    0  0.00000000000E+00  0.00000000000E+00  0.38026055182E+03  0.40027876195E+03  0.12500000000E+03 0.  0.
<mgrwt>
<rscale>  2 0.12500000E+03</rscale>
<asrwt>0</asrwt>
<pdfrwt beam="1">  1       21 0.60041474E-01 0.12500000E+03</pdfrwt>
<pdfrwt beam="2">  1       21 0.15398626E-02 0.12500000E+03</pdfrwt>
<totfact> 0.48022871E+06</totfact>
</mgrwt>
</event>
<event>
 3    0  0.1388321E+001  0.1250000E+03  0.7546771E-02  0.1235069E+00
         21   -1    0    0  502  501  0.00000000000E+00  0.00000000000E+00  0.62452442371E+01  0.62452442371E+01  0.00000000000E+00 0. -1.
         21   -1    0    0  501  502 -0.00000000000E+00 -0.00000000000E+00 -0.62547593844E+03  0.62547593844E+03  0.00000000000E+00 0. -1.
         25    1    1    2    0    0  0.00000000000E+00  0.00000000000E+00 -0.61923069420E+03  0.63172118268E+03  0.12500000000E+03 0.  0.
<mgrwt>
<rscale>  2 0.12500000E+03</rscale>
<asrwt>0</asrwt>
<pdfrwt beam="1">  1       21 0.96080686E-03 0.12500000E+03</pdfrwt>
<pdfrwt beam="2">  1       21 0.96227062E-01 0.12500000E+03</pdfrwt>
<totfact> 0.35696270E+06</totfact>
</mgrwt>
</event>
<event>
 3    0  0.1658949E+001  0.1250000E+03  0.7546771E-02  0.1235069E+00
         21   -1    0    0  502  501  0.00000000000E+00  0.00000000000E+00  0.24313595720E+02  0.24313595720E+02  0.00000000000E+00 0.  1.
         21   -1    0    0  501  502 -0.00000000000E+00 -0.00000000000E+00 -0.16066113976E+03  0.16066113976E+03  0.00000000000E+00 0.  1.
         25    1    1    2    0    0  0.00000000000E+00  0.00000000000E+00 -0.13634754404E+03  0.18497473548E+03  0.12500000000E+03 0.  0.
<mgrwt>
<rscale>  2 0.12500000E+03</rscale>
<asrwt>0</asrwt>
<pdfrwt beam="1">  1       21 0.37405531E-02 0.12500000E+03</pdfrwt>
<pdfrwt beam="2">  1       21 0.24717099E-01 0.12500000E+03</pdfrwt>
<totfact> 0.66585382E+06</totfact>
</mgrwt>
</event>
<event>
 3    0  0.1679536E+001  0.1250000E+03  0.7546771E-02  0.1235069E+00
         21   -1    0    0  502  501  0.00000000000E+00  0.00000000000E+00  0.26674846562E+02  0.26674846562E+02  0.00000000000E+00 0.  1.
         21   -1    0    0  501  502 -0.00000000000E+00 -0.00000000000E+00 -0.14643945527E+03  0.14643945527E+03  0.00000000000E+00 0.  1.
         25    1    1    2    0    0  0.00000000000E+00  0.00000000000E+00 -0.11976460871E+03  0.17311430183E+03  0.12500000000E+03 0.  0.
<mgrwt>
<rscale>  2 0.12500000E+03</rscale>
<asrwt>0</asrwt>
<pdfrwt beam="1">  1       21 0.41038226E-02 0.12500000E+03</pdfrwt>
<pdfrwt beam="2">  1       21 0.22529146E-01 0.12500000E+03</pdfrwt>
<totfact> 0.67950357E+06</totfact>
</mgrwt>
</event>
<event>
 3    0  0.1573184E+001  0.1250000E+03  0.7546771E-02  0.1235069E+00
         21   -1    0    0  502  501  0.00000000000E+00  0.00000000000E+00  0.14869080263E+02  0.14869080263E+02  0.00000000000E+00 0. -1.
         21   -1    0    0  501  502 -0.00000000000E+00 -0.00000000000E+00 -0.26270959137E+03  0.26270959137E+03  0.00000000000E+00 0. -1.
         25    1    1    2    0    0  0.00000000000E+00  0.00000000000E+00 -0.24784051111E+03  0.27757867163E+03  0.12500000000E+03 0.  0.
<mgrwt>
<rscale>  2 0.12500000E+03</rscale>
<asrwt>0</asrwt>
<pdfrwt beam="1">  1       21 0.22875509E-02 0.12500000E+03</pdfrwt>
<pdfrwt beam="2">  1       21 0.40416859E-01 0.12500000E+03</pdfrwt>
<totfact> 0.57372512E+06</totfact>
</mgrwt>
</event>
<event>
 3    0  0.1707644E+001  0.1250000E+03  0.7546771E-02  0.1235069E+00
         21   -1    0    0  502  501  0.00000000000E+00  0.00000000000E+00  0.94137046843E+02  0.94137046843E+02  0.00000000000E+00 0.  1.
         21   -1    0    0  501  502 -0.00000000000E+00 -0.00000000000E+00 -0.41495353115E+02  0.41495353115E+02  0.00000000000E+00 0.  1.
         25    1    1    2    0    0  0.00000000000E+00  0.00000000000E+00  0.52641693728E+02  0.13563239996E+03  0.12500000000E+03 0.  0.
<mgrwt>
<rscale>  2 0.12500000E+03</rscale>
<asrwt>0</asrwt>
<pdfrwt beam="1">  1       21 0.14482623E-01 0.12500000E+03</pdfrwt>
<pdfrwt beam="2">  1       21 0.63839005E-02 0.12500000E+03</pdfrwt>
<totfact> 0.72612846E+06</totfact>
</mgrwt>
</event>
<event>
 3    0  0.1683470E+001  0.1250000E+03  0.7546771E-02  0.1235069E+00
         21   -1    0    0  502  501  0.00000000000E+00  0.00000000000E+00  0.41697123795E+02  0.41697123795E+02  0.00000000000E+00 0. -1.
         21   -1    0    0  501  502 -0.00000000000E+00 -0.00000000000E+00 -0.93681521517E+02  0.93681521517E+02  0.00000000000E+00 0. -1.
         25    1    1    2    0    0  0.00000000000E+00  0.00000000000E+00 -0.51984397722E+02  0.13537864531E+03  0.12500000000E+03 0.  0.
<mgrwt>
<rscale>  2 0.12500000E+03</rscale>
<asrwt>0</asrwt>
<pdfrwt beam="1">  1       21 0.64149422E-02 0.12500000E+03</pdfrwt>
<pdfrwt beam="2">  1       21 0.14412542E-01 0.12500000E+03</pdfrwt>
<totfact> 0.72646376E+06</totfact>
</mgrwt>
</event>
<event>
 3    0  0.1660742E+001  0.1250000E+03  0.7546771E-02  0.1235069E+00
         21   -1    0    0  502  501  0.00000000000E+00  0.00000000000E+00  0.14079620850E+03  0.14079620850E+03  0.00000000000E+00 0. -1.
         21   -1    0    0  501  502 -0.00000000000E+00 -0.00000000000E+00 -0.27743999938E+02  0.27743999938E+02  0.00000000000E+00 0. -1.
         25    1    1    2    0    0  0.00000000000E+00  0.00000000000E+00  0.11305220857E+03  0.16854020844E+03  0.12500000000E+03 0.  0.
<mgrwt>
<rscale>  2 0.12500000E+03</rscale>
<asrwt>0</asrwt>
<pdfrwt beam="1">  1       21 0.21660955E-01 0.12500000E+03</pdfrwt>
<pdfrwt beam="2">  1       21 0.42683078E-02 0.12500000E+03</pdfrwt>
<totfact> 0.68490739E+06</totfact>
</mgrwt>
</event>
<event>
 3    0  0.1682406E+001  0.1250000E+03  0.7546771E-02  0.1235069E+00
         21   -1    0    0  502  501  0.00000000000E+00  0.00000000000E+00  0.41421652944E+02  0.41421652944E+02  0.00000000000E+00 0. -1.
         21   -1    0    0  501  502 -0.00000000000E+00 -0.00000000000E+00 -0.94304541764E+02  0.94304541764E+02  0.00000000000E+00 0. -1.
         25    1    1    2    0    0  0.00000000000E+00  0.00000000000E+00 -0.52882888820E+02  0.13572619471E+03  0.12500000000E+03 0.  0.
<mgrwt>
<rscale>  2 0.12500000E+03</rscale>
<asrwt>0</asrwt>
<pdfrwt beam="1">  1       21 0.63725621E-02 0.12500000E+03</pdfrwt>
<pdfrwt beam="2">  1       21 0.14508391E-01 0.12500000E+03</pdfrwt>
<totfact> 0.72600462E+06</totfact>
</mgrwt>
</event>
<event>
 3    0  0.1462160E+001  0.1250000E+03  0.7546771E-02  0.1235069E+00
         21   -1    0    0  502  501  0.00000000000E+00  0.00000000000E+00  0.79999825823E+01  0.79999825823E+01  0.00000000000E+00 0.  1.
         21   -1    0    0  501  502 -0.00000000000E+00 -0.00000000000E+00 -0.48828231309E+03  0.48828231309E+03  0.00000000000E+00 0.  1.
         25    1    1    2    0    0  0.00000000000E+00  0.00000000000E+00 -0.48028233051E+03  0.49628229567E+03  0.12500000000E+03 0.  0.
<mgrwt>
<rscale>  2 0.12500000E+03</rscale>
<asrwt>0</asrwt>
<pdfrwt beam="1">  1       21 0.12307669E-02 0.12500000E+03</pdfrwt>
<pdfrwt beam="2">  1       21 0.75120336E-01 0.12500000E+03</pdfrwt>
<totfact> 0.42246417E+06</totfact>
</mgrwt>
</event>
<event>
 3    0  0.1368989E+001  0.1250000E+03  0.7546771E-02  0.1235069E+00
         21   -1    0    0  502  501  0.00000000000E+00  0.00000000000E+00  0.43421334979E+01  0.43421334979E+01  0.00000000000E+00 0. -1.
         21   -1    0    0  501  502 -0.00000000000E+00 -0.00000000000E+00 -0.89961536232E+03  0.89961536232E+03  0.00000000000E+00 0. -1.
         25    1    1    2    0    0  0.00000000000E+00  0.00000000000E+00 -0.89527322882E+03  0.90395749582E+03  0.12500000000E+03 0.  0.
<mgrwt>
<rscale>  2 0.12500000E+03</rscale>
<asrwt>0</asrwt>
<pdfrwt beam="1">  1       21 0.66801979E-03 0.12500000E+03</pdfrwt>
<pdfrwt beam="2">  1       21 0.13840252E+00 0.12500000E+03</pdfrwt>
<totfact> 0.26185613E+06</totfact>
</mgrwt>
</event>
<event>
 3    0  0.1710867E+001  0.1250000E+03  0.7546771E-02  0.1235069E+00
         21   -1    0    0  502  501  0.00000000000E+00  0.00000000000E+00  0.50903671099E+02  0.50903671099E+02  0.00000000000E+00 0.  1.
         21   -1    0    0  501  502 -0.00000000000E+00 -0.00000000000E+00 -0.76738080292E+02  0.76738080292E+02  0.00000000000E+00 0.  1.
         25    1    1    2    0    0  0.00000000000E+00  0.00000000000E+00 -0.25834409193E+02  0.12764175139E+03  0.12500000000E+03 0.  0.
<mgrwt>
<rscale>  2 0.12500000E+03</rscale>
<asrwt>0</asrwt>
<pdfrwt beam="1">  1       21 0.78313340E-02 0.12500000E+03</pdfrwt>
<pdfrwt beam="2">  1       21 0.11805858E-01 0.12500000E+03</pdfrwt>
<totfact> 0.73682012E+06</totfact>
</mgrwt>
</event>
<event>
 3    0  0.1623914E+001  0.1250000E+03  0.7546771E-02  0.1235069E+00
         21   -1    0    0  502  501  0.00000000000E+00  0.00000000000E+00  0.19878552308E+03  0.19878552308E+03  0.00000000000E+00 0. -1.
         21   -1    0    0  501  502 -0.00000000000E+00 -0.00000000000E+00 -0.19650575854E+02  0.19650575854E+02  0.00000000000E+00 0. -1.
         25    1    1    2    0    0  0.00000000000E+00  0.00000000000E+00  0.17913494723E+03  0.21843609894E+03  0.12500000000E+03 0.  0.
<mgrwt>
<rscale>  2 0.12500000E+03</rscale>
<asrwt>0</asrwt>
<pdfrwt beam="1">  1       21 0.30582387E-01 0.12500000E+03</pdfrwt>
<pdfrwt beam="2">  1       21 0.30231657E-02 0.12500000E+03</pdfrwt>
<totfact> 0.62982746E+06</totfact>
</mgrwt>
</event>
<event>
 3    0  0.1591931E+001  0.1250000E+03  0.7546771E-02  0.1235069E+00
         21   -1    0    0  502  501  0.00000000000E+00  0.00000000000E+00  0.25425321938E+03  0.25425321938E+03  0.00000000000E+00 0. -1.
         21   -1    0    0  501  502 -0.00000000000E+00 -0.00000000000E+00 -0.15363620604E+02  0.15363620604E+02  0.00000000000E+00 0. -1.
         25    1    1    2    0    0  0.00000000000E+00  0.00000000000E+00  0.23888959878E+03  0.26961683999E+03  0.12500000000E+03 0.  0.
<mgrwt>
<rscale>  2 0.12500000E+03</rscale>
<asrwt>0</asrwt>
<pdfrwt beam="1">  1       21 0.39115877E-01 0.12500000E+03</pdfrwt>
<pdfrwt beam="2">  1       21 0.23636341E-02 0.12500000E+03</pdfrwt>
<totfact> 0.58078893E+06</totfact>
</mgrwt>
</event>
<event>
 3    0  0.1703719E+001  0.1250000E+03  0.7546771E-02  0.1235069E+00
         21   -1    0    0  502  501  0.00000000000E+00  0.00000000000E+00  0.87531928785E+02  0.87531928785E+02  0.00000000000E+00 0.  1.
         21   -1    0    0  501  502 -0.00000000000E+00 -0.00000000000E+00 -0.44626572888E+02  0.44626572888E+02  0.00000000000E+00 0.  1.
         25    1    1    2    0    0  0.00000000000E+00  0.00000000000E+00  0.42905355897E+02  0.13215850167E+03  0.12500000000E+03 0.  0.
<mgrwt>
<rscale>  2 0.12500000E+03</rscale>
<asrwt>0</asrwt>
<pdfrwt beam="1">  1       21 0.13466451E-01 0.12500000E+03</pdfrwt>
<pdfrwt beam="2">  1       21 0.68656266E-02 0.12500000E+03</pdfrwt>
<totfact> 0.73074976E+06</totfact>
</mgrwt>
</event>
<event>
 3    0  0.1646004E+001  0.1250000E+03  0.7546771E-02  0.1235069E+00
         21   -1    0    0  502  501  0.00000000000E+00  0.00000000000E+00  0.25946607367E+02  0.25946607367E+02  0.00000000000E+00 0. -1.
         21   -1    0    0  501  502 -0.00000000000E+00 -0.00000000000E+00 -0.15054954757E+03  0.15054954757E+03  0.00000000000E+00 0. -1.
         25    1    1    2    0    0  0.00000000000E+00  0.00000000000E+00 -0.12460294020E+03  0.17649615493E+03  0.12500000000E+03 0.  0.
<mgrwt>
<rscale>  2 0.12500000E+03</rscale>
<asrwt>0</asrwt>
<pdfrwt beam="1">  1       21 0.39917859E-02 0.12500000E+03</pdfrwt>
<pdfrwt beam="2">  1       21 0.23161468E-01 0.12500000E+03</pdfrwt>
<totfact> 0.67555778E+06</totfact>
</mgrwt>
</event>
<event>
 3    0  0.1651666E+001  0.1250000E+03  0.7546771E-02  0.1235069E+00
         21   -1    0    0  502  501  0.00000000000E+00  0.00000000000E+00  0.17386802273E+03  0.17386802273E+03  0.00000000000E+00 0.  1.
         21   -1    0    0  501  502 -0.00000000000E+00 -0.00000000000E+00 -0.22466753452E+02  0.22466753452E+02  0.00000000000E+00 0.  1.
         25    1    1    2    0    0  0.00000000000E+00  0.00000000000E+00  0.15140126928E+03  0.19633477619E+03  0.12500000000E+03 0.  0.
<mgrwt>
<rscale>  2 0.12500000E+03</rscale>
<asrwt>0</asrwt>
<pdfrwt beam="1">  1       21 0.26748926E-01 0.12500000E+03</pdfrwt>
<pdfrwt beam="2">  1       21 0.34564237E-02 0.12500000E+03</pdfrwt>
<totfact> 0.65325231E+06</totfact>
</mgrwt>
</event>
<event>
 3    0  0.1405332E+001  0.1250000E+03  0.7546771E-02  0.1235069E+00
         21   -1    0    0  502  501  0.00000000000E+00  0.00000000000E+00  0.66458844521E+01  0.66458844521E+01  0.00000000000E+00 0.  1.
         21   -1    0    0  501  502 -0.00000000000E+00 -0.00000000000E+00 -0.58776977363E+03  0.58776977363E+03  0.00000000000E+00 0.  1.
         25    1    1    2    0    0  0.00000000000E+00  0.00000000000E+00 -0.58112388918E+03  0.59441565808E+03  0.12500000000E+03 0.  0.
<mgrwt>
<rscale>  2 0.12500000E+03</rscale>
<asrwt>0</asrwt>
<pdfrwt beam="1">  1       21 0.10224436E-02 0.12500000E+03</pdfrwt>
<pdfrwt beam="2">  1       21 0.90426130E-01 0.12500000E+03</pdfrwt>
<totfact> 0.37346396E+06</totfact>
</mgrwt>
</event>
<event>
 3    0  0.1695183E+001  0.1250000E+03  0.7546771E-02  0.1235069E+00
         21   -1    0    0  502  501  0.00000000000E+00  0.00000000000E+00  0.10364429520E+03  0.10364429520E+03  0.00000000000E+00 0.  1.
         21   -1    0    0  501  502 -0.00000000000E+00 -0.00000000000E+00 -0.37689001526E+02  0.37689001526E+02  0.00000000000E+00 0.  1.
         25    1    1    2    0    0  0.00000000000E+00  0.00000000000E+00  0.65955293675E+02  0.14133329673E+03  0.12500000000E+03 0.  0.
<mgrwt>
<rscale>  2 0.12500000E+03</rscale>
<asrwt>0</asrwt>
<pdfrwt beam="1">  1       21 0.15945276E-01 0.12500000E+03</pdfrwt>
<pdfrwt beam="2">  1       21 0.57983080E-02 0.12500000E+03</pdfrwt>
<totfact> 0.71865724E+06</totfact>
</mgrwt>
</event>
<event>
 3    0  0.1558524E+001  0.1250000E+03  0.7546771E-02  0.1235069E+00
         21   -1    0    0  502  501  0.00000000000E+00  0.00000000000E+00  0.32160098844E+03  0.32160098844E+03  0.00000000000E+00 0.  1.
         21   -1    0    0  501  502 -0.00000000000E+00 -0.00000000000E+00 -0.12146262420E+02  0.12146262420E+02  0.00000000000E+00 0.  1.
         25    1    1    2    0    0  0.00000000000E+00  0.00000000000E+00  0.30945472602E+03  0.33374725086E+03  0.12500000000E+03 0.  0.
<mgrwt>
<rscale>  2 0.12500000E+03</rscale>
<asrwt>0</asrwt>
<pdfrwt beam="1">  1       21 0.49477069E-01 0.12500000E+03</pdfrwt>
<pdfrwt beam="2">  1       21 0.18686560E-02 0.12500000E+03</pdfrwt>
<totfact> 0.52761615E+06</totfact>
</mgrwt>
</event>
<event>
 3    0  0.1660854E+001  0.1250000E+03  0.7546771E-02  0.1235069E+00
         21   -1    0    0  502  501  0.00000000000E+00  0.00000000000E+00  0.31858865373E+02  0.31858865373E+02  0.00000000000E+00 0. -1.
         21   -1    0    0  501  502 -0.00000000000E+00 -0.00000000000E+00 -0.12261108342E+03  0.12261108342E+03  0.00000000000E+00 0. -1.
         25    1    1    2    0    0  0.00000000000E+00  0.00000000000E+00 -0.90752218047E+02  0.15446994879E+03  0.12500000000E+03 0.  0.
<mgrwt>
<rscale>  2 0.12500000E+03</rscale>
<asrwt>0</asrwt>
<pdfrwt beam="1">  1       21 0.49013640E-02 0.12500000E+03</pdfrwt>
<pdfrwt beam="2">  1       21 0.18863243E-01 0.12500000E+03</pdfrwt>
<totfact> 0.70201597E+06</totfact>
</mgrwt>
</event>
<event>
 3    0  0.1440777E+001  0.1250000E+03  0.7546771E-02  0.1235069E+00
         21   -1    0    0  502  501  0.00000000000E+00  0.00000000000E+00  0.52670058371E+03  0.52670058371E+03  0.00000000000E+00 0. -1.
         21   -1    0    0  501  502 -0.00000000000E+00 -0.00000000000E+00 -0.74164527643E+01  0.74164527643E+01  0.00000000000E+00 0. -1.
         25    1    1    2    0    0  0.00000000000E+00  0.00000000000E+00  0.51928413094E+03  0.53411703647E+03  0.12500000000E+03 0.  0.
<mgrwt>
<rscale>  2 0.12500000E+03</rscale>
<asrwt>0</asrwt>
<pdfrwt beam="1">  1       21 0.81030829E-01 0.12500000E+03</pdfrwt>
<pdfrwt beam="2">  1       21 0.11409932E-02 0.12500000E+03</pdfrwt>
<totfact> 0.40252286E+06</totfact>
</mgrwt>
</event>
<event>
 3    0  0.1597319E+001  0.1250000E+03  0.7546771E-02  0.1235069E+00
         21   -1    0    0  502  501  0.00000000000E+00  0.00000000000E+00  0.26182943342E+03  0.26182943342E+03  0.00000000000E+00 0.  1.
         21   -1    0    0  501  502 -0.00000000000E+00 -0.00000000000E+00 -0.14919063716E+02  0.14919063716E+02  0.00000000000E+00 0.  1.
         25    1    1    2    0    0  0.00000000000E+00  0.00000000000E+00  0.24691036970E+03  0.27674849714E+03  0.12500000000E+03 0.  0.
<mgrwt>
<rscale>  2 0.12500000E+03</rscale>
<asrwt>0</asrwt>
<pdfrwt beam="1">  1       21 0.40281448E-01 0.12500000E+03</pdfrwt>
<pdfrwt beam="2">  1       21 0.22952408E-02 0.12500000E+03</pdfrwt>
<totfact> 0.57445568E+06</totfact>
</mgrwt>
</event>
<event>
 3    0  0.1368989E+001  0.1250000E+03  0.7546771E-02  0.1235069E+00
         21   -1    0    0  502  501  0.00000000000E+00  0.00000000000E+00  0.13222935831E+04  0.13222935831E+04  0.00000000000E+00 0. -1.
         21   -1    0    0  501  502 -0.00000000000E+00 -0.00000000000E+00 -0.29541472861E+01  0.29541472861E+01  0.00000000000E+00 0. -1.
         25    1    1    2    0    0  0.00000000000E+00  0.00000000000E+00  0.13193394358E+04  0.13252477304E+04  0.12500000000E+03 0.  0.
<mgrwt>
<rscale>  2 0.12500000E+03</rscale>
<asrwt>0</asrwt>
<pdfrwt beam="1">  1       21 0.20342931E+00 0.12500000E+03</pdfrwt>
<pdfrwt beam="2">  1       21 0.45448525E-03 0.12500000E+03</pdfrwt>
<totfact> 0.16805082E+06</totfact>
</mgrwt>
</event>
<event>
 3    0  0.1368989E+001  0.1250000E+03  0.7546771E-02  0.1235069E+00
         21   -1    0    0  502  501  0.00000000000E+00  0.00000000000E+00  0.28179215724E+01  0.28179215724E+01  0.00000000000E+00 0.  1.
         21   -1    0    0  501  502 -0.00000000000E+00 -0.00000000000E+00 -0.13862167202E+04  0.13862167202E+04  0.00000000000E+00 0.  1.
         25    1    1    2    0    0  0.00000000000E+00  0.00000000000E+00 -0.13833987987E+04  0.13890346418E+04  0.12500000000E+03 0.  0.
<mgrwt>
<rscale>  2 0.12500000E+03</rscale>
<asrwt>0</asrwt>
<pdfrwt beam="1">  1       21 0.43352669E-03 0.12500000E+03</pdfrwt>
<pdfrwt beam="2">  1       21 0.21326397E+00 0.12500000E+03</pdfrwt>
<totfact> 0.15724229E+06</totfact>
</mgrwt>
</event>
<event>
 3    0  0.1670846E+001  0.1250000E+03  0.7546771E-02  0.1235069E+00
         21   -1    0    0  502  501  0.00000000000E+00  0.00000000000E+00  0.16590297297E+03  0.16590297297E+03  0.00000000000E+00 0.  1.
         21   -1    0    0  501  502 -0.00000000000E+00 -0.00000000000E+00 -0.23545388790E+02  0.23545388790E+02  0.00000000000E+00 0.  1.
         25    1    1    2    0    0  0.00000000000E+00  0.00000000000E+00  0.14235758418E+03  0.18944836176E+03  0.12500000000E+03 0.  0.
<mgrwt>
<rscale>  2 0.12500000E+03</rscale>
<asrwt>0</asrwt>
<pdfrwt beam="1">  1       21 0.25523534E-01 0.12500000E+03</pdfrwt>
<pdfrwt beam="2">  1       21 0.36223676E-02 0.12500000E+03</pdfrwt>
<totfact> 0.66083826E+06</totfact>
</mgrwt>
</event>
<event>
 3    0  0.1453545E+001  0.1250000E+03  0.7546771E-02  0.1235069E+00
         21   -1    0    0  502  501  0.00000000000E+00  0.00000000000E+00  0.84642544509E+01  0.84642544509E+01  0.00000000000E+00 0. -1.
         21   -1    0    0  501  502 -0.00000000000E+00 -0.00000000000E+00 -0.46149959487E+03  0.46149959487E+03  0.00000000000E+00 0. -1.
         25    1    1    2    0    0  0.00000000000E+00  0.00000000000E+00 -0.45303534042E+03  0.46996384933E+03  0.12500000000E+03 0.  0.
<mgrwt>
<rscale>  2 0.12500000E+03</rscale>
<asrwt>0</asrwt>
<pdfrwt beam="1">  1       21 0.13021929E-02 0.12500000E+03</pdfrwt>
<pdfrwt beam="2">  1       21 0.70999943E-01 0.12500000E+03</pdfrwt>
<totfact> 0.43721282E+06</totfact>
</mgrwt>
</event>
<event>
 3    0  0.1633241E+001  0.1250000E+03  0.7546771E-02  0.1235069E+00
         21   -1    0    0  502  501  0.00000000000E+00  0.00000000000E+00  0.16163544861E+03  0.16163544861E+03  0.00000000000E+00 0. -1.
         21   -1    0    0  501  502 -0.00000000000E+00 -0.00000000000E+00 -0.24167037823E+02  0.24167037823E+02  0.00000000000E+00 0. -1.
         25    1    1    2    0    0  0.00000000000E+00  0.00000000000E+00  0.13746841078E+03  0.18580248643E+03  0.12500000000E+03 0.  0.
<mgrwt>
<rscale>  2 0.12500000E+03</rscale>
<asrwt>0</asrwt>
<pdfrwt beam="1">  1       21 0.24866991E-01 0.12500000E+03</pdfrwt>
<pdfrwt beam="2">  1       21 0.37180059E-02 0.12500000E+03</pdfrwt>
<totfact> 0.66492047E+06</totfact>
</mgrwt>
</event>
<event>
 3    0  0.1368989E+001  0.1250000E+03  0.7546771E-02  0.1235069E+00
         21   -1    0    0  502  501  0.00000000000E+00  0.00000000000E+00  0.69486973917E+03  0.69486973917E+03  0.00000000000E+00 0.  1.
         21   -1    0    0  501  502 -0.00000000000E+00 -0.00000000000E+00 -0.56215572212E+01  0.56215572212E+01  0.00000000000E+00 0.  1.
         25    1    1    2    0    0  0.00000000000E+00  0.00000000000E+00  0.68924818195E+03  0.70049129639E+03  0.12500000000E+03 0.  0.
<mgrwt>
<rscale>  2 0.12500000E+03</rscale>
<asrwt>0</asrwt>
<pdfrwt beam="1">  1       21 0.10690297E+00 0.12500000E+03</pdfrwt>
<pdfrwt beam="2">  1       21 0.86485551E-03 0.12500000E+03</pdfrwt>
<totfact> 0.32891224E+06</totfact>
</mgrwt>
</event>
<event>
 3    0  0.1706012E+001  0.1250000E+03  0.7546771E-02  0.1235069E+00
         21   -1    0    0  502  501  0.00000000000E+00  0.00000000000E+00  0.46873347002E+02  0.46873347002E+02  0.00000000000E+00 0.  1.
         21   -1    0    0  501  502 -0.00000000000E+00 -0.00000000000E+00 -0.83336272099E+02  0.83336272099E+02  0.00000000000E+00 0.  1.
         25    1    1    2    0    0  0.00000000000E+00  0.00000000000E+00 -0.36462925097E+02  0.13020961910E+03  0.12500000000E+03 0.  0.
<mgrwt>
<rscale>  2 0.12500000E+03</rscale>
<asrwt>0</asrwt>
<pdfrwt beam="1">  1       21 0.72112842E-02 0.12500000E+03</pdfrwt>
<pdfrwt beam="2">  1       21 0.12820965E-01 0.12500000E+03</pdfrwt>
<totfact> 0.73336913E+06</totfact>
</mgrwt>
</event>
<event>
 3    0  0.1500882E+001  0.1250000E+03  0.7546771E-02  0.1235069E+00
         21   -1    0    0  502  501  0.00000000000E+00  0.00000000000E+00  0.34908980451E+03  0.34908980451E+03  0.00000000000E+00 0. -1.
         21   -1    0    0  501  502 -0.00000000000E+00 -0.00000000000E+00 -0.11189814052E+02  0.11189814052E+02  0.00000000000E+00 0. -1.
         25    1    1    2    0    0  0.00000000000E+00  0.00000000000E+00  0.33789999046E+03  0.36027961857E+03  0.12500000000E+03 0.  0.
<mgrwt>
<rscale>  2 0.12500000E+03</rscale>
<asrwt>0</asrwt>
<pdfrwt beam="1">  1       21 0.53706116E-01 0.12500000E+03</pdfrwt>
<pdfrwt beam="2">  1       21 0.17215101E-02 0.12500000E+03</pdfrwt>
<totfact> 0.50788102E+06</totfact>
</mgrwt>
</event>
<event>
 3    0  0.1456643E+001  0.1250000E+03  0.7546771E-02  0.1235069E+00
         21   -1    0    0  502  501  0.00000000000E+00  0.00000000000E+00  0.52942446507E+03  0.52942446507E+03  0.00000000000E+00 0.  1.
         21   -1    0    0  501  502 -0.00000000000E+00 -0.00000000000E+00 -0.73782952200E+01  0.73782952200E+01  0.00000000000E+00 0.  1.
         25    1    1    2    0    0  0.00000000000E+00  0.00000000000E+00  0.52204616985E+03  0.53680276029E+03  0.12500000000E+03 0.  0.
<mgrwt>
<rscale>  2 0.12500000E+03</rscale>
<asrwt>0</asrwt>
<pdfrwt beam="1">  1       21 0.81449888E-01 0.12500000E+03</pdfrwt>
<pdfrwt beam="2">  1       21 0.11351228E-02 0.12500000E+03</pdfrwt>
<totfact> 0.40116022E+06</totfact>
</mgrwt>
</event>
<event>
 3    0  0.1368989E+001  0.1250000E+03  0.7546771E-02  0.1235069E+00
         21   -1    0    0  502  501  0.00000000000E+00  0.00000000000E+00  0.11483098571E+04  0.11483098571E+04  0.00000000000E+00 0.  1.
         21   -1    0    0  501  502 -0.00000000000E+00 -0.00000000000E+00 -0.34017386298E+01  0.34017386298E+01  0.00000000000E+00 0.  1.
         25    1    1    2    0    0  0.00000000000E+00  0.00000000000E+00  0.11449081185E+04  0.11517115958E+04  0.12500000000E+03 0.  0.
<mgrwt>
<rscale>  2 0.12500000E+03</rscale>
<asrwt>0</asrwt>
<pdfrwt beam="1">  1       21 0.17666275E+00 0.12500000E+03</pdfrwt>
<pdfrwt beam="2">  1       21 0.52334532E-03 0.12500000E+03</pdfrwt>
<totfact> 0.20133086E+06</totfact>
</mgrwt>
</event>
<event>
 3    0  0.1368989E+001  0.1250000E+03  0.7546771E-02  0.1235069E+00
         21   -1    0    0  502  501  0.00000000000E+00  0.00000000000E+00  0.54224520186E+01  0.54224520186E+01  0.00000000000E+00 0.  1.
         21   -1    0    0  501  502 -0.00000000000E+00 -0.00000000000E+00 -0.72038442878E+03  0.72038442878E+03  0.00000000000E+00 0.  1.
         25    1    1    2    0    0  0.00000000000E+00  0.00000000000E+00 -0.71496197676E+03  0.72580688080E+03  0.12500000000E+03 0.  0.
<mgrwt>
<rscale>  2 0.12500000E+03</rscale>
<asrwt>0</asrwt>
<pdfrwt beam="1">  1       21 0.83422398E-03 0.12500000E+03</pdfrwt>
<pdfrwt beam="2">  1       21 0.11082829E+00 0.12500000E+03</pdfrwt>
<totfact> 0.31938647E+06</totfact>
</mgrwt>
</event>
<event>
 3    0  0.1649464E+001  0.1250000E+03  0.7546771E-02  0.1235069E+00
         21   -1    0    0  502  501  0.00000000000E+00  0.00000000000E+00  0.28583745906E+02  0.28583745906E+02  0.00000000000E+00 0. -1.
         21   -1    0    0  501  502 -0.00000000000E+00 -0.00000000000E+00 -0.13665983503E+03  0.13665983503E+03  0.00000000000E+00 0. -1.
         25    1    1    2    0    0  0.00000000000E+00  0.00000000000E+00 -0.10807608912E+03  0.16524358094E+03  0.12500000000E+03 0.  0.
<mgrwt>
<rscale>  2 0.12500000E+03</rscale>
<asrwt>0</asrwt>
<pdfrwt beam="1">  1       21 0.43974994E-02 0.12500000E+03</pdfrwt>
<pdfrwt beam="2">  1       21 0.21024590E-01 0.12500000E+03</pdfrwt>
<totfact> 0.68884396E+06</totfact>
</mgrwt>
</event>
<event>
 3    0  0.1646856E+001  0.1250000E+03  0.7546771E-02  0.1235069E+00
         21   -1    0    0  502  501  0.00000000000E+00  0.00000000000E+00  0.18165747649E+03  0.18165747649E+03  0.00000000000E+00 0.  1.
         21   -1    0    0  501  502 -0.00000000000E+00 -0.00000000000E+00 -0.21503381394E+02  0.21503381394E+02  0.00000000000E+00 0.  1.
         25    1    1    2    0    0  0.00000000000E+00  0.00000000000E+00  0.16015409510E+03  0.20316085789E+03  0.12500000000E+03 0.  0.
<mgrwt>
<rscale>  2 0.12500000E+03</rscale>
<asrwt>0</asrwt>
<pdfrwt beam="1">  1       21 0.27947303E-01 0.12500000E+03</pdfrwt>
<pdfrwt beam="2">  1       21 0.33082126E-02 0.12500000E+03</pdfrwt>
<totfact> 0.64586354E+06</totfact>
</mgrwt>
</event>
<event>
 3    0  0.1368989E+001  0.1250000E+03  0.7546771E-02  0.1235069E+00
         21   -1    0    0  502  501  0.00000000000E+00  0.00000000000E+00  0.79535333208E+03  0.79535333208E+03  0.00000000000E+00 0.  1.
         21   -1    0    0  501  502 -0.00000000000E+00 -0.00000000000E+00 -0.49113392029E+01  0.49113392029E+01  0.00000000000E+00 0.  1.
         25    1    1    2    0    0  0.00000000000E+00  0.00000000000E+00  0.79044199288E+03  0.80026467128E+03  0.12500000000E+03 0.  0.
<mgrwt>
<rscale>  2 0.12500000E+03</rscale>
<asrwt>0</asrwt>
<pdfrwt beam="1">  1       21 0.12236195E+00 0.12500000E+03</pdfrwt>
<pdfrwt beam="2">  1       21 0.75559128E-03 0.12500000E+03</pdfrwt>
<totfact> 0.29354069E+06</totfact>
</mgrwt>
</event>
<event>
 3    0  0.1708274E+001  0.1250000E+03  0.7546771E-02  0.1235069E+00
         21   -1    0    0  502  501  0.00000000000E+00  0.00000000000E+00  0.84451272809E+02  0.84451272809E+02  0.00000000000E+00 0.  1.
         21   -1    0    0  501  502 -0.00000000000E+00 -0.00000000000E+00 -0.46254483444E+02  0.46254483444E+02  0.00000000000E+00 0.  1.
         25    1    1    2    0    0  0.00000000000E+00  0.00000000000E+00  0.38196789365E+02  0.13070575625E+03  0.12500000000E+03 0.  0.
<mgrwt>
<rscale>  2 0.12500000E+03</rscale>
<asrwt>0</asrwt>
<pdfrwt beam="1">  1       21 0.12992504E-01 0.12500000E+03</pdfrwt>
<pdfrwt beam="2">  1       21 0.71160744E-02 0.12500000E+03</pdfrwt>
<totfact> 0.73270351E+06</totfact>
</mgrwt>
</event>
<event>
 3    0  0.1591379E+001  0.1250000E+03  0.7546771E-02  0.1235069E+00
         21   -1    0    0  502  501  0.00000000000E+00  0.00000000000E+00  0.26440719215E+03  0.26440719215E+03  0.00000000000E+00 0.  1.
         21   -1    0    0  501  502 -0.00000000000E+00 -0.00000000000E+00 -0.14773614773E+02  0.14773614773E+02  0.00000000000E+00 0.  1.
         25    1    1    2    0    0  0.00000000000E+00  0.00000000000E+00  0.24963357738E+03  0.27918080693E+03  0.12500000000E+03 0.  0.
<mgrwt>
<rscale>  2 0.12500000E+03</rscale>
<asrwt>0</asrwt>
<pdfrwt beam="1">  1       21 0.40678026E-01 0.12500000E+03</pdfrwt>
<pdfrwt beam="2">  1       21 0.22728640E-02 0.12500000E+03</pdfrwt>
<totfact> 0.57231962E+06</totfact>
</mgrwt>
</event>
<event>
 3    0  0.1368989E+001  0.1250000E+03  0.7546771E-02  0.1235069E+00
         21   -1    0    0  502  501  0.00000000000E+00  0.00000000000E+00  0.59475021817E+01  0.59475021817E+01  0.00000000000E+00 0.  1.
         21   -1    0    0  501  502 -0.00000000000E+00 -0.00000000000E+00 -0.65678832569E+03  0.65678832569E+03  0.00000000000E+00 0.  1.
         25    1    1    2    0    0  0.00000000000E+00  0.00000000000E+00 -0.65084082351E+03  0.66273582787E+03  0.12500000000E+03 0.  0.
<mgrwt>
<rscale>  2 0.12500000E+03</rscale>
<asrwt>0</asrwt>
<pdfrwt beam="1">  1       21 0.91500031E-03 0.12500000E+03</pdfrwt>
<pdfrwt beam="2">  1       21 0.10104436E+00 0.12500000E+03</pdfrwt>
<totfact> 0.34396798E+06</totfact>
</mgrwt>
</event>
<event>
 3    0  0.1368989E+001  0.1250000E+03  0.7546771E-02  0.1235069E+00
         21   -1    0    0  502  501  0.00000000000E+00  0.00000000000E+00  0.99369367938E+03  0.99369367938E+03  0.00000000000E+00 0.  1.
         21   -1    0    0  501  502 -0.00000000000E+00 -0.00000000000E+00 -0.39310404012E+01  0.39310404012E+01  0.00000000000E+00 0.  1.
         25    1    1    2    0    0  0.00000000000E+00  0.00000000000E+00  0.98976263898E+03  0.99762471978E+03  0.12500000000E+03 0.  0.
<mgrwt>
<rscale>  2 0.12500000E+03</rscale>
<asrwt>0</asrwt>
<pdfrwt beam="1">  1       21 0.15287575E+00 0.12500000E+03</pdfrwt>
<pdfrwt beam="2">  1       21 0.60477624E-03 0.12500000E+03</pdfrwt>
<totfact> 0.23678144E+06</totfact>
</mgrwt>
</event>
<event>
 3    0  0.1675316E+001  0.1250000E+03  0.7546771E-02  0.1235069E+00
         21   -1    0    0  502  501  0.00000000000E+00  0.00000000000E+00  0.39727882428E+02  0.39727882428E+02  0.00000000000E+00 0. -1.
         21   -1    0    0  501  502 -0.00000000000E+00 -0.00000000000E+00 -0.98325150028E+02  0.98325150028E+02  0.00000000000E+00 0. -1.
         25    1    1    2    0    0  0.00000000000E+00  0.00000000000E+00 -0.58597267601E+02  0.13805303246E+03  0.12500000000E+03 0.  0.
<mgrwt>
<rscale>  2 0.12500000E+03</rscale>
<asrwt>0</asrwt>
<pdfrwt beam="1">  1       21 0.61119820E-02 0.12500000E+03</pdfrwt>
<pdfrwt beam="2">  1       21 0.15126946E-01 0.12500000E+03</pdfrwt>
<totfact> 0.72294511E+06</totfact>
</mgrwt>
</event>
<event>
 3    0  0.1706509E+001  0.1250000E+03  0.7546771E-02  0.1235069E+00
         21   -1    0    0  502  501  0.00000000000E+00  0.00000000000E+00  0.47081158564E+02  0.47081158564E+02  0.00000000000E+00 0.  1.
         21   -1    0    0  501  502 -0.00000000000E+00 -0.00000000000E+00 -0.82968434065E+02  0.82968434065E+02  0.00000000000E+00 0.  1.
         25    1    1    2    0    0  0.00000000000E+00  0.00000000000E+00 -0.35887275500E+02  0.13004959263E+03  0.12500000000E+03 0.  0.
<mgrwt>
<rscale>  2 0.12500000E+03</rscale>
<asrwt>0</asrwt>
<pdfrwt beam="1">  1       21 0.72432552E-02 0.12500000E+03</pdfrwt>
<pdfrwt beam="2">  1       21 0.12764374E-01 0.12500000E+03</pdfrwt>
<totfact> 0.73358288E+06</totfact>
</mgrwt>
</event>
<event>
 3    0  0.1501263E+001  0.1250000E+03  0.7546771E-02  0.1235069E+00
         21   -1    0    0  502  501  0.00000000000E+00  0.00000000000E+00  0.44841656041E+03  0.44841656041E+03  0.00000000000E+00 0.  1.
         21   -1    0    0  501  502 -0.00000000000E+00 -0.00000000000E+00 -0.87112081597E+01  0.87112081597E+01  0.00000000000E+00 0.  1.
         25    1    1    2    0    0  0.00000000000E+00  0.00000000000E+00  0.43970535225E+03  0.45712776857E+03  0.12500000000E+03 0.  0.
<mgrwt>
<rscale>  2 0.12500000E+03</rscale>
<asrwt>0</asrwt>
<pdfrwt beam="1">  1       21 0.68987146E-01 0.12500000E+03</pdfrwt>
<pdfrwt beam="2">  1       21 0.13401862E-02 0.12500000E+03</pdfrwt>
<totfact> 0.44468815E+06</totfact>
</mgrwt>
</event>
<event>
 3    0  0.1643343E+001  0.1250000E+03  0.7546771E-02  0.1235069E+00
         21   -1    0    0  502  501  0.00000000000E+00  0.00000000000E+00  0.15131159061E+03  0.15131159061E+03  0.00000000000E+00 0. -1.
         21   -1    0    0  501  502 -0.00000000000E+00 -0.00000000000E+00 -0.25815933758E+02  0.25815933758E+02  0.00000000000E+00 0. -1.
         25    1    1    2    0    0  0.00000000000E+00  0.00000000000E+00  0.12549565685E+03  0.17712752437E+03  0.12500000000E+03 0.  0.
<mgrwt>
<rscale>  2 0.12500000E+03</rscale>
<asrwt>0</asrwt>
<pdfrwt beam="1">  1       21 0.23278706E-01 0.12500000E+03</pdfrwt>
<pdfrwt beam="2">  1       21 0.39716822E-02 0.12500000E+03</pdfrwt>
<totfact> 0.67482595E+06</totfact>
</mgrwt>
</event>
<event>
 3    0  0.1661086E+001  0.1250000E+03  0.7546771E-02  0.1235069E+00
         21   -1    0    0  502  501  0.00000000000E+00  0.00000000000E+00  0.22966897489E+02  0.22966897489E+02  0.00000000000E+00 0.  1.
         21   -1    0    0  501  502 -0.00000000000E+00 -0.00000000000E+00 -0.17008174491E+03  0.17008174491E+03  0.00000000000E+00 0.  1.
         25    1    1    2    0    0  0.00000000000E+00  0.00000000000E+00 -0.14711484742E+03  0.19304864240E+03  0.12500000000E+03 0.  0.
<mgrwt>
<rscale>  2 0.12500000E+03</rscale>
<asrwt>0</asrwt>
<pdfrwt beam="1">  1       21 0.35333687E-02 0.12500000E+03</pdfrwt>
<pdfrwt beam="2">  1       21 0.26166423E-01 0.12500000E+03</pdfrwt>
<totfact> 0.65685227E+06</totfact>
</mgrwt>
</event>
<event>
 3    0  0.1712687E+001  0.1250000E+03  0.7546771E-02  0.1235069E+00
         21   -1    0    0  502  501  0.00000000000E+00  0.00000000000E+00  0.60403201435E+02  0.60403201435E+02  0.00000000000E+00 0.  1.
         21   -1    0    0  501  502 -0.00000000000E+00 -0.00000000000E+00 -0.64669585506E+02  0.64669585506E+02  0.00000000000E+00 0.  1.
         25    1    1    2    0    0  0.00000000000E+00  0.00000000000E+00 -0.42663840711E+01  0.12507278694E+03  0.12500000000E+03 0.  0.
<mgrwt>
<rscale>  2 0.12500000E+03</rscale>
<asrwt>0</asrwt>
<pdfrwt beam="1">  1       21 0.92928002E-02 0.12500000E+03</pdfrwt>
<pdfrwt beam="2">  1       21 0.99491670E-02 0.12500000E+03</pdfrwt>
<totfact> 0.74033750E+06</totfact>
</mgrwt>
</event>
<event>
 3    0  0.1368989E+001  0.1250000E+03  0.7546771E-02  0.1235069E+00
         21   -1    0    0  502  501  0.00000000000E+00  0.00000000000E+00  0.45229148871E+01  0.45229148871E+01  0.00000000000E+00 0. -1.
         21   -1    0    0  501  502 -0.00000000000E+00 -0.00000000000E+00 -0.86365764059E+03  0.86365764059E+03  0.00000000000E+00 0. -1.
         25    1    1    2    0    0  0.00000000000E+00  0.00000000000E+00 -0.85913472570E+03  0.86818055548E+03  0.12500000000E+03 0.  0.
<mgrwt>
<rscale>  2 0.12500000E+03</rscale>
<asrwt>0</asrwt>
<pdfrwt beam="1">  1       21 0.69583308E-03 0.12500000E+03</pdfrwt>
<pdfrwt beam="2">  1       21 0.13287040E+00 0.12500000E+03</pdfrwt>
<totfact> 0.27224261E+06</totfact>
</mgrwt>
</event>
<event>
 3    0  0.1678712E+001  0.1250000E+03  0.7546771E-02  0.1235069E+00
         21   -1    0    0  502  501  0.00000000000E+00  0.00000000000E+00  0.30396453437E+02  0.30396453437E+02  0.00000000000E+00 0.  1.
         21   -1    0    0  501  502 -0.00000000000E+00 -0.00000000000E+00 -0.12851005819E+03  0.12851005819E+03  0.00000000000E+00 0.  1.
         25    1    1    2    0    0  0.00000000000E+00  0.00000000000E+00 -0.98113604753E+02  0.15890651163E+03  0.12500000000E+03 0.  0.
<mgrwt>
<rscale>  2 0.12500000E+03</rscale>
<asrwt>0</asrwt>
<pdfrwt beam="1">  1       21 0.46763774E-02 0.12500000E+03</pdfrwt>
<pdfrwt beam="2">  1       21 0.19770778E-01 0.12500000E+03</pdfrwt>
<totfact> 0.69653356E+06</totfact>
</mgrwt>
</event>
<event>
 3    0  0.1368989E+001  0.1250000E+03  0.7546771E-02  0.1235069E+00
         21   -1    0    0  502  501  0.00000000000E+00  0.00000000000E+00  0.59944016966E+01  0.59944016966E+01  0.00000000000E+00 0. -1.
         21   -1    0    0  501  502 -0.00000000000E+00 -0.00000000000E+00 -0.65164968878E+03  0.65164968878E+03  0.00000000000E+00 0. -1.
         25    1    1    2    0    0  0.00000000000E+00  0.00000000000E+00 -0.64565528708E+03  0.65764409048E+03  0.12500000000E+03 0.  0.
<mgrwt>
<rscale>  2 0.12500000E+03</rscale>
<asrwt>0</asrwt>
<pdfrwt beam="1">  1       21 0.92221613E-03 0.12500000E+03</pdfrwt>
<pdfrwt beam="2">  1       21 0.10025375E+00 0.12500000E+03</pdfrwt>
<totfact> 0.34607738E+06</totfact>
</mgrwt>
</event>
<event>
 3    0  0.1368989E+001  0.1250000E+03  0.7546771E-02  0.1235069E+00
         21   -1    0    0  502  501  0.00000000000E+00  0.00000000000E+00  0.12124631511E+04  0.12124631511E+04  0.00000000000E+00 0. -1.
         21   -1    0    0  501  502 -0.00000000000E+00 -0.00000000000E+00 -0.32217473962E+01  0.32217473962E+01  0.00000000000E+00 0. -1.
         25    1    1    2    0    0  0.00000000000E+00  0.00000000000E+00  0.12092414037E+04  0.12156848985E+04  0.12500000000E+03 0.  0.
<mgrwt>
<rscale>  2 0.12500000E+03</rscale>
<asrwt>0</asrwt>
<pdfrwt beam="1">  1       21 0.18653243E+00 0.12500000E+03</pdfrwt>
<pdfrwt beam="2">  1       21 0.49565441E-03 0.12500000E+03</pdfrwt>
<totfact> 0.18833624E+06</totfact>
</mgrwt>
</event>
<event>
 3    0  0.1368989E+001  0.1250000E+03  0.7546771E-02  0.1235069E+00
         21   -1    0    0  502  501  0.00000000000E+00  0.00000000000E+00  0.10782118475E+04  0.10782118475E+04  0.00000000000E+00 0. -1.
         21   -1    0    0  501  502 -0.00000000000E+00 -0.00000000000E+00 -0.36228965662E+01  0.36228965662E+01  0.00000000000E+00 0. -1.
         25    1    1    2    0    0  0.00000000000E+00  0.00000000000E+00  0.10745889509E+04  0.10818347441E+04  0.12500000000E+03 0.  0.
<mgrwt>
<rscale>  2 0.12500000E+03</rscale>
<asrwt>0</asrwt>
<pdfrwt beam="1">  1       21 0.16587849E+00 0.12500000E+03</pdfrwt>
<pdfrwt beam="2">  1       21 0.55736956E-03 0.12500000E+03</pdfrwt>
<totfact> 0.21660024E+06</totfact>
</mgrwt>
</event>
<event>
 3    0  0.1594380E+001  0.1250000E+03  0.7546771E-02  0.1235069E+00
         21   -1    0    0  502  501  0.00000000000E+00  0.00000000000E+00  0.24034067186E+03  0.24034067186E+03  0.00000000000E+00 0. -1.
         21   -1    0    0  501  502 -0.00000000000E+00 -0.00000000000E+00 -0.16252971125E+02  0.16252971125E+02  0.00000000000E+00 0. -1.
         25    1    1    2    0    0  0.00000000000E+00  0.00000000000E+00  0.22408770074E+03  0.25659364299E+03  0.12500000000E+03 0.  0.
<mgrwt>
<rscale>  2 0.12500000E+03</rscale>
<asrwt>0</asrwt>
<pdfrwt beam="1">  1       21 0.36975485E-01 0.12500000E+03</pdfrwt>
<pdfrwt beam="2">  1       21 0.25004573E-02 0.12500000E+03</pdfrwt>
<totfact> 0.59262903E+06</totfact>
</mgrwt>
</event>
<event>
 3    0  0.1711546E+001  0.1250000E+03  0.7546771E-02  0.1235069E+00
         21   -1    0    0  502  501  0.00000000000E+00  0.00000000000E+00  0.68330791227E+02  0.68330791227E+02  0.00000000000E+00 0.  1.
         21   -1    0    0  501  502 -0.00000000000E+00 -0.00000000000E+00 -0.57166760839E+02  0.57166760839E+02  0.00000000000E+00 0.  1.
         25    1    1    2    0    0  0.00000000000E+00  0.00000000000E+00  0.11164030388E+02  0.12549755207E+03  0.12500000000E+03 0.  0.
<mgrwt>
<rscale>  2 0.12500000E+03</rscale>
<asrwt>0</asrwt>
<pdfrwt beam="1">  1       21 0.10512429E-01 0.12500000E+03</pdfrwt>
<pdfrwt beam="2">  1       21 0.87948863E-02 0.12500000E+03</pdfrwt>
<totfact> 0.73975739E+06</totfact>
</mgrwt>
</event>
<event>
 3    0  0.1368989E+001  0.1250000E+03  0.7546771E-02  0.1235069E+00
         21   -1    0    0  502  501  0.00000000000E+00  0.00000000000E+00  0.39633676203E+01  0.39633676203E+01  0.00000000000E+00 0. -1.
         21   -1    0    0  501  502 -0.00000000000E+00 -0.00000000000E+00 -0.98558861409E+03  0.98558861409E+03  0.00000000000E+00 0. -1.
         25    1    1    2    0    0  0.00000000000E+00  0.00000000000E+00 -0.98162524647E+03  0.98955198171E+03  0.12500000000E+03 0.  0.
<mgrwt>
<rscale>  2 0.12500000E+03</rscale>
<asrwt>0</asrwt>
<pdfrwt beam="1">  1       21 0.60974849E-03 0.12500000E+03</pdfrwt>
<pdfrwt beam="2">  1       21 0.15162911E+00 0.12500000E+03</pdfrwt>
<totfact> 0.23881469E+06</totfact>
</mgrwt>
</event>
<event>
 3    0  0.1653926E+001  0.1250000E+03  0.7546771E-02  0.1235069E+00
         21   -1    0    0  502  501  0.00000000000E+00  0.00000000000E+00  0.17873254812E+03  0.17873254812E+03  0.00000000000E+00 0.  1.
         21   -1    0    0  501  502 -0.00000000000E+00 -0.00000000000E+00 -0.21855280647E+02  0.21855280647E+02  0.00000000000E+00 0.  1.
         25    1    1    2    0    0  0.00000000000E+00  0.00000000000E+00  0.15687726747E+03  0.20058782877E+03  0.12500000000E+03 0.  0.
<mgrwt>
<rscale>  2 0.12500000E+03</rscale>
<asrwt>0</asrwt>
<pdfrwt beam="1">  1       21 0.27497314E-01 0.12500000E+03</pdfrwt>
<pdfrwt beam="2">  1       21 0.33623510E-02 0.12500000E+03</pdfrwt>
<totfact> 0.64863613E+06</totfact>
</mgrwt>
</event>
<event>
 3    0  0.1674777E+001  0.1250000E+03  0.7546771E-02  0.1235069E+00
         21   -1    0    0  502  501  0.00000000000E+00  0.00000000000E+00  0.26830692897E+02  0.26830692897E+02  0.00000000000E+00 0.  1.
         21   -1    0    0  501  502 -0.00000000000E+00 -0.00000000000E+00 -0.14558886030E+03  0.14558886030E+03  0.00000000000E+00 0.  1.
         25    1    1    2    0    0  0.00000000000E+00  0.00000000000E+00 -0.11875816740E+03  0.17241955320E+03  0.12500000000E+03 0.  0.
<mgrwt>
<rscale>  2 0.12500000E+03</rscale>
<asrwt>0</asrwt>
<pdfrwt beam="1">  1       21 0.41277989E-02 0.12500000E+03</pdfrwt>
<pdfrwt beam="2">  1       21 0.22398286E-01 0.12500000E+03</pdfrwt>
<totfact> 0.68031962E+06</totfact>
</mgrwt>
</event>
<event>
 3    0  0.1368989E+001  0.1250000E+03  0.7546771E-02  0.1235069E+00
         21   -1    0    0  502  501  0.00000000000E+00  0.00000000000E+00  0.53908928992E+01  0.53908928992E+01  0.00000000000E+00 0. -1.
         21   -1    0    0  501  502 -0.00000000000E+00 -0.00000000000E+00 -0.72460167046E+03  0.72460167046E+03  0.00000000000E+00 0. -1.
         25    1    1    2    0    0  0.00000000000E+00  0.00000000000E+00 -0.71921077756E+03  0.72999256336E+03  0.12500000000E+03 0.  0.
<mgrwt>
<rscale>  2 0.12500000E+03</rscale>
<asrwt>0</asrwt>
<pdfrwt beam="1">  1       21 0.82936830E-03 0.12500000E+03</pdfrwt>
<pdfrwt beam="2">  1       21 0.11147716E+00 0.12500000E+03</pdfrwt>
<totfact> 0.31785392E+06</totfact>
</mgrwt>
</event>
<event>
 3    0  0.1686229E+001  0.1250000E+03  0.7546771E-02  0.1235069E+00
         21   -1    0    0  502  501  0.00000000000E+00  0.00000000000E+00  0.48965067887E+02  0.48965067887E+02  0.00000000000E+00 0. -1.
         21   -1    0    0  501  502 -0.00000000000E+00 -0.00000000000E+00 -0.79776260271E+02  0.79776260271E+02  0.00000000000E+00 0. -1.
         25    1    1    2    0    0  0.00000000000E+00  0.00000000000E+00 -0.30811192384E+02  0.12874132816E+03  0.12500000000E+03 0.  0.
<mgrwt>
<rscale>  2 0.12500000E+03</rscale>
<asrwt>0</asrwt>
<pdfrwt beam="1">  1       21 0.75330874E-02 0.12500000E+03</pdfrwt>
<pdfrwt beam="2">  1       21 0.12273271E-01 0.12500000E+03</pdfrwt>
<totfact> 0.73533644E+06</totfact>
</mgrwt>
</event>
<event>
 3    0  0.1681817E+001  0.1250000E+03  0.7546771E-02  0.1235069E+00
         21   -1    0    0  502  501  0.00000000000E+00  0.00000000000E+00  0.12731559654E+03  0.12731559654E+03  0.00000000000E+00 0.  1.
         21   -1    0    0  501  502 -0.00000000000E+00 -0.00000000000E+00 -0.30681629794E+02  0.30681629794E+02  0.00000000000E+00 0.  1.
         25    1    1    2    0    0  0.00000000000E+00  0.00000000000E+00  0.96633966744E+02  0.15799722633E+03  0.12500000000E+03 0.  0.
<mgrwt>
<rscale>  2 0.12500000E+03</rscale>
<asrwt>0</asrwt>
<pdfrwt beam="1">  1       21 0.19587015E-01 0.12500000E+03</pdfrwt>
<pdfrwt beam="2">  1       21 0.47202508E-02 0.12500000E+03</pdfrwt>
<totfact> 0.69765045E+06</totfact>
</mgrwt>
</event>
<event>
 3    0  0.1368989E+001  0.1250000E+03  0.7546771E-02  0.1235069E+00
         21   -1    0    0  502  501  0.00000000000E+00  0.00000000000E+00  0.11100919852E+04  0.11100919852E+04  0.00000000000E+00 0.  1.
         21   -1    0    0  501  502 -0.00000000000E+00 -0.00000000000E+00 -0.35188525383E+01  0.35188525383E+01  0.00000000000E+00 0.  1.
         25    1    1    2    0    0  0.00000000000E+00  0.00000000000E+00  0.11065731327E+04  0.11136108378E+04  0.12500000000E+03 0.  0.
<mgrwt>
<rscale>  2 0.12500000E+03</rscale>
<asrwt>0</asrwt>
<pdfrwt beam="1">  1       21 0.17078310E+00 0.12500000E+03</pdfrwt>
<pdfrwt beam="2">  1       21 0.54136281E-03 0.12500000E+03</pdfrwt>
<totfact> 0.20951264E+06</totfact>
</mgrwt>
</event>
<event>
 3    0  0.1703535E+001  0.1250000E+03  0.7546771E-02  0.1235069E+00
         21   -1    0    0  502  501  0.00000000000E+00  0.00000000000E+00  0.99272764208E+02  0.99272764208E+02  0.00000000000E+00 0.  1.
         21   -1    0    0  501  502 -0.00000000000E+00 -0.00000000000E+00 -0.39348657521E+02  0.39348657521E+02  0.00000000000E+00 0.  1.
         25    1    1    2    0    0  0.00000000000E+00  0.00000000000E+00  0.59924106687E+02  0.13862142173E+03  0.12500000000E+03 0.  0.
<mgrwt>
<rscale>  2 0.12500000E+03</rscale>
<asrwt>0</asrwt>
<pdfrwt beam="1">  1       21 0.15272733E-01 0.12500000E+03</pdfrwt>
<pdfrwt beam="2">  1       21 0.60536397E-02 0.12500000E+03</pdfrwt>
<totfact> 0.72219793E+06</totfact>
</mgrwt>
</event>
<event>
 3    0  0.1592995E+001  0.1250000E+03  0.7546771E-02  0.1235069E+00
         21   -1    0    0  502  501  0.00000000000E+00  0.00000000000E+00  0.17035535672E+02  0.17035535672E+02  0.00000000000E+00 0. -1.
         21   -1    0    0  501  502 -0.00000000000E+00 -0.00000000000E+00 -0.22930009805E+03  0.22930009805E+03  0.00000000000E+00 0. -1.
         25    1    1    2    0    0  0.00000000000E+00  0.00000000000E+00 -0.21226456238E+03  0.24633563372E+03  0.12500000000E+03 0.  0.
<mgrwt>
<rscale>  2 0.12500000E+03</rscale>
<asrwt>0</asrwt>
<pdfrwt beam="1">  1       21 0.26208516E-02 0.12500000E+03</pdfrwt>
<pdfrwt beam="2">  1       21 0.35276939E-01 0.12500000E+03</pdfrwt>
<totfact> 0.60224909E+06</totfact>
</mgrwt>
</event>
<event>
 3    0  0.1672620E+001  0.1250000E+03  0.7546771E-02  0.1235069E+00
         21   -1    0    0  502  501  0.00000000000E+00  0.00000000000E+00  0.13685380440E+03  0.13685380440E+03  0.00000000000E+00 0.  1.
         21   -1    0    0  501  502 -0.00000000000E+00 -0.00000000000E+00 -0.28543232811E+02  0.28543232811E+02  0.00000000000E+00 0.  1.
         25    1    1    2    0    0  0.00000000000E+00  0.00000000000E+00  0.10831057159E+03  0.16539703721E+03  0.12500000000E+03 0.  0.
<mgrwt>
<rscale>  2 0.12500000E+03</rscale>
<asrwt>0</asrwt>
<pdfrwt beam="1">  1       21 0.21054431E-01 0.12500000E+03</pdfrwt>
<pdfrwt beam="2">  1       21 0.43912667E-02 0.12500000E+03</pdfrwt>
<totfact> 0.68865976E+06</totfact>
</mgrwt>
</event>
<event>
 3    0  0.1687944E+001  0.1250000E+03  0.7546771E-02  0.1235069E+00
         21   -1    0    0  502  501  0.00000000000E+00  0.00000000000E+00  0.65035949081E+02  0.65035949081E+02  0.00000000000E+00 0. -1.
         21   -1    0    0  501  502 -0.00000000000E+00 -0.00000000000E+00 -0.60062935272E+02  0.60062935272E+02  0.00000000000E+00 0. -1.
         25    1    1    2    0    0  0.00000000000E+00  0.00000000000E+00  0.49730138086E+01  0.12509888435E+03  0.12500000000E+03 0.  0.
<mgrwt>
<rscale>  2 0.12500000E+03</rscale>
<asrwt>0</asrwt>
<pdfrwt beam="1">  1       21 0.10005531E-01 0.12500000E+03</pdfrwt>
<pdfrwt beam="2">  1       21 0.92404516E-02 0.12500000E+03</pdfrwt>
<totfact> 0.74030226E+06</totfact>
</mgrwt>
</event>
<event>
 3    0  0.1589033E+001  0.1250000E+03  0.7546771E-02  0.1235069E+00
         21   -1    0    0  502  501  0.00000000000E+00  0.00000000000E+00  0.24265066607E+03  0.24265066607E+03  0.00000000000E+00 0. -1.
         21   -1    0    0  501  502 -0.00000000000E+00 -0.00000000000E+00 -0.16098245529E+02  0.16098245529E+02  0.00000000000E+00 0. -1.
         25    1    1    2    0    0  0.00000000000E+00  0.00000000000E+00  0.22655242054E+03  0.25874891159E+03  0.12500000000E+03 0.  0.
<mgrwt>
<rscale>  2 0.12500000E+03</rscale>
<asrwt>0</asrwt>
<pdfrwt beam="1">  1       21 0.37330869E-01 0.12500000E+03</pdfrwt>
<pdfrwt beam="2">  1       21 0.24766533E-02 0.12500000E+03</pdfrwt>
<totfact> 0.59064133E+06</totfact>
</mgrwt>
</event>
<event>
 3    0  0.1680847E+001  0.1250000E+03  0.7546771E-02  0.1235069E+00
         21   -1    0    0  502  501  0.00000000000E+00  0.00000000000E+00  0.30622130773E+02  0.30622130773E+02  0.00000000000E+00 0.  1.
         21   -1    0    0  501  502 -0.00000000000E+00 -0.00000000000E+00 -0.12756297166E+03  0.12756297166E+03  0.00000000000E+00 0.  1.
         25    1    1    2    0    0  0.00000000000E+00  0.00000000000E+00 -0.96940840888E+02  0.15818510243E+03  0.12500000000E+03 0.  0.
<mgrwt>
<rscale>  2 0.12500000E+03</rscale>
<asrwt>0</asrwt>
<pdfrwt beam="1">  1       21 0.47110970E-02 0.12500000E+03</pdfrwt>
<pdfrwt beam="2">  1       21 0.19625073E-01 0.12500000E+03</pdfrwt>
<totfact> 0.69741939E+06</totfact>
</mgrwt>
</event>
<event>
 3    0  0.1517016E+001  0.1250000E+03  0.7546771E-02  0.1235069E+00
         21   -1    0    0  502  501  0.00000000000E+00  0.00000000000E+00  0.36501504417E+03  0.36501504417E+03  0.00000000000E+00 0. -1.
         21   -1    0    0  501  502 -0.00000000000E+00 -0.00000000000E+00 -0.10701613707E+02  0.10701613707E+02  0.00000000000E+00 0. -1.
         25    1    1    2    0    0  0.00000000000E+00  0.00000000000E+00  0.35431343046E+03  0.37571665787E+03  0.12500000000E+03 0.  0.
<mgrwt>
<rscale>  2 0.12500000E+03</rscale>
<asrwt>0</asrwt>
<pdfrwt beam="1">  1       21 0.56156151E-01 0.12500000E+03</pdfrwt>
<pdfrwt beam="2">  1       21 0.16464024E-02 0.12500000E+03</pdfrwt>
<totfact> 0.49693480E+06</totfact>
</mgrwt>
</event>
<event>
 3    0  0.1368989E+001  0.1250000E+03  0.7546771E-02  0.1235069E+00
         21   -1    0    0  502  501  0.00000000000E+00  0.00000000000E+00  0.23574872862E+01  0.23574872862E+01  0.00000000000E+00 0.  1.
         21   -1    0    0  501  502 -0.00000000000E+00 -0.00000000000E+00 -0.16569548531E+04  0.16569548531E+04  0.00000000000E+00 0.  1.
         25    1    1    2    0    0  0.00000000000E+00  0.00000000000E+00 -0.16545973658E+04  0.16593123404E+04  0.12500000000E+03 0.  0.
<mgrwt>
<rscale>  2 0.12500000E+03</rscale>
<asrwt>0</asrwt>
<pdfrwt beam="1">  1       21 0.36269197E-03 0.12500000E+03</pdfrwt>
<pdfrwt beam="2">  1       21 0.25491500E+00 0.12500000E+03</pdfrwt>
<totfact> 0.11787041E+06</totfact>
</mgrwt>
</event>
<event>
 3    0  0.1539515E+001  0.1250000E+03  0.7546771E-02  0.1235069E+00
         21   -1    0    0  502  501  0.00000000000E+00  0.00000000000E+00  0.35423714883E+03  0.35423714883E+03  0.00000000000E+00 0. -1.
         21   -1    0    0  501  502 -0.00000000000E+00 -0.00000000000E+00 -0.11027217255E+02  0.11027217255E+02  0.00000000000E+00 0. -1.
         25    1    1    2    0    0  0.00000000000E+00  0.00000000000E+00  0.34320993158E+03  0.36526436609E+03  0.12500000000E+03 0.  0.
<mgrwt>
<rscale>  2 0.12500000E+03</rscale>
<asrwt>0</asrwt>
<pdfrwt beam="1">  1       21 0.54498014E-01 0.12500000E+03</pdfrwt>
<pdfrwt beam="2">  1       21 0.16964952E-02 0.12500000E+03</pdfrwt>
<totfact> 0.50430500E+06</totfact>
</mgrwt>
</event>
<event>
 3    0  0.1368989E+001  0.1250000E+03  0.7546771E-02  0.1235069E+00
         21   -1    0    0  502  501  0.00000000000E+00  0.00000000000E+00  0.30066994371E+01  0.30066994371E+01  0.00000000000E+00 0. -1.
         21   -1    0    0  501  502 -0.00000000000E+00 -0.00000000000E+00 -0.12991820705E+04  0.12991820705E+04  0.00000000000E+00 0. -1.
         25    1    1    2    0    0  0.00000000000E+00  0.00000000000E+00 -0.12961753711E+04  0.13021887699E+04  0.12500000000E+03 0.  0.
<mgrwt>
<rscale>  2 0.12500000E+03</rscale>
<asrwt>0</asrwt>
<pdfrwt beam="1">  1       21 0.46256801E-03 0.12500000E+03</pdfrwt>
<pdfrwt beam="2">  1       21 0.19987465E+00 0.12500000E+03</pdfrwt>
<totfact> 0.17213026E+06</totfact>
</mgrwt>
</event>
<event>
 3    0  0.1368989E+001  0.1250000E+03  0.7546771E-02  0.1235069E+00
         21   -1    0    0  502  501  0.00000000000E+00  0.00000000000E+00  0.47070747726E+01  0.47070747726E+01  0.00000000000E+00 0. -1.
         21   -1    0    0  501  502 -0.00000000000E+00 -0.00000000000E+00 -0.82986784547E+03  0.82986784547E+03  0.00000000000E+00 0. -1.
         25    1    1    2    0    0  0.00000000000E+00  0.00000000000E+00 -0.82516077070E+03  0.83457492024E+03  0.12500000000E+03 0.  0.
<mgrwt>
<rscale>  2 0.12500000E+03</rscale>
<asrwt>0</asrwt>
<pdfrwt beam="1">  1       21 0.72416480E-03 0.12500000E+03</pdfrwt>
<pdfrwt beam="2">  1       21 0.12767207E+00 0.12500000E+03</pdfrwt>
<totfact> 0.28248835E+06</totfact>
</mgrwt>
</event>
<event>
 3    0  0.1681354E+001  0.1250000E+03  0.7546771E-02  0.1235069E+00
         21   -1    0    0  502  501  0.00000000000E+00  0.00000000000E+00  0.14223584421E+03  0.14223584421E+03  0.00000000000E+00 0.  1.
         21   -1    0    0  501  502 -0.00000000000E+00 -0.00000000000E+00 -0.27463189899E+02  0.27463189899E+02  0.00000000000E+00 0.  1.
         25    1    1    2    0    0  0.00000000000E+00  0.00000000000E+00  0.11477265431E+03  0.16969903411E+03  0.12500000000E+03 0.  0.
<mgrwt>
<rscale>  2 0.12500000E+03</rscale>
<asrwt>0</asrwt>
<pdfrwt beam="1">  1       21 0.21882437E-01 0.12500000E+03</pdfrwt>
<pdfrwt beam="2">  1       21 0.42251062E-02 0.12500000E+03</pdfrwt>
<totfact> 0.68353331E+06</totfact>
</mgrwt>
</event>
<event>
 3    0  0.1653860E+001  0.1250000E+03  0.7546771E-02  0.1235069E+00
         21   -1    0    0  502  501  0.00000000000E+00  0.00000000000E+00  0.12911775982E+03  0.12911775982E+03  0.00000000000E+00 0. -1.
         21   -1    0    0  501  502 -0.00000000000E+00 -0.00000000000E+00 -0.30253390435E+02  0.30253390435E+02  0.00000000000E+00 0. -1.
         25    1    1    2    0    0  0.00000000000E+00  0.00000000000E+00  0.98864369385E+02  0.15937115026E+03  0.12500000000E+03 0.  0.
<mgrwt>
<rscale>  2 0.12500000E+03</rscale>
<asrwt>0</asrwt>
<pdfrwt beam="1">  1       21 0.19864270E-01 0.12500000E+03</pdfrwt>
<pdfrwt beam="2">  1       21 0.46543678E-02 0.12500000E+03</pdfrwt>
<totfact> 0.69596416E+06</totfact>
</mgrwt>
</event>
<event>
 3    0  0.1431938E+001  0.1250000E+03  0.7546771E-02  0.1235069E+00
         21   -1    0    0  502  501  0.00000000000E+00  0.00000000000E+00  0.47392322781E+03  0.47392322781E+03  0.00000000000E+00 0. -1.
         21   -1    0    0  501  502 -0.00000000000E+00 -0.00000000000E+00 -0.82423687440E+01  0.82423687440E+01  0.00000000000E+00 0. -1.
         25    1    1    2    0    0  0.00000000000E+00  0.00000000000E+00  0.46568085907E+03  0.48216559656E+03  0.12500000000E+03 0.  0.
<mgrwt>
<rscale>  2 0.12500000E+03</rscale>
<asrwt>0</asrwt>
<pdfrwt beam="1">  1       21 0.72911245E-01 0.12500000E+03</pdfrwt>
<pdfrwt beam="2">  1       21 0.12680571E-02 0.12500000E+03</pdfrwt>
<totfact> 0.43028091E+06</totfact>
</mgrwt>
</event>
<event>
 3    0  0.1678040E+001  0.1250000E+03  0.7546771E-02  0.1235069E+00
         21   -1    0    0  502  501  0.00000000000E+00  0.00000000000E+00  0.13450067470E+03  0.13450067470E+03  0.00000000000E+00 0.  1.
         21   -1    0    0  501  502 -0.00000000000E+00 -0.00000000000E+00 -0.29042605240E+02  0.29042605240E+02  0.00000000000E+00 0.  1.
         25    1    1    2    0    0  0.00000000000E+00  0.00000000000E+00  0.10545806946E+03  0.16354327995E+03  0.12500000000E+03 0.  0.
<mgrwt>
<rscale>  2 0.12500000E+03</rscale>
<asrwt>0</asrwt>
<pdfrwt beam="1">  1       21 0.20692411E-01 0.12500000E+03</pdfrwt>
<pdfrwt beam="2">  1       21 0.44680932E-02 0.12500000E+03</pdfrwt>
<totfact> 0.69089117E+06</totfact>
</mgrwt>
</event>
<event>
 3    0  0.1620370E+001  0.1250000E+03  0.7546771E-02  0.1235069E+00
         21   -1    0    0  502  501  0.00000000000E+00  0.00000000000E+00  0.17173622377E+02  0.17173622377E+02  0.00000000000E+00 0.  1.
         21   -1    0    0  501  502 -0.00000000000E+00 -0.00000000000E+00 -0.22745638131E+03  0.22745638131E+03  0.00000000000E+00 0.  1.
         25    1    1    2    0    0  0.00000000000E+00  0.00000000000E+00 -0.21028275894E+03  0.24463000369E+03  0.12500000000E+03 0.  0.
<mgrwt>
<rscale>  2 0.12500000E+03</rscale>
<asrwt>0</asrwt>
<pdfrwt beam="1">  1       21 0.26420957E-02 0.12500000E+03</pdfrwt>
<pdfrwt beam="2">  1       21 0.34993290E-01 0.12500000E+03</pdfrwt>
<totfact> 0.60387482E+06</totfact>
</mgrwt>
</event>
<event>
 3    0  0.1449722E+001  0.1250000E+03  0.7546771E-02  0.1235069E+00
         21   -1    0    0  502  501  0.00000000000E+00  0.00000000000E+00  0.49677978701E+03  0.49677978701E+03  0.00000000000E+00 0.  1.
         21   -1    0    0  501  502 -0.00000000000E+00 -0.00000000000E+00 -0.78631419840E+01  0.78631419840E+01  0.00000000000E+00 0.  1.
         25    1    1    2    0    0  0.00000000000E+00  0.00000000000E+00  0.48891664502E+03  0.50464292899E+03  0.12500000000E+03 0.  0.
<mgrwt>
<rscale>  2 0.12500000E+03</rscale>
<asrwt>0</asrwt>
<pdfrwt beam="1">  1       21 0.76427635E-01 0.12500000E+03</pdfrwt>
<pdfrwt beam="2">  1       21 0.12097145E-02 0.12500000E+03</pdfrwt>
<totfact> 0.41793397E+06</totfact>
</mgrwt>
</event>
<event>
 3    0  0.1657573E+001  0.1250000E+03  0.7546771E-02  0.1235069E+00
         21   -1    0    0  502  501  0.00000000000E+00  0.00000000000E+00  0.16132658724E+03  0.16132658724E+03  0.00000000000E+00 0.  1.
         21   -1    0    0  501  502 -0.00000000000E+00 -0.00000000000E+00 -0.24213305859E+02  0.24213305859E+02  0.00000000000E+00 0.  1.
         25    1    1    2    0    0  0.00000000000E+00  0.00000000000E+00  0.13711328138E+03  0.18553989310E+03  0.12500000000E+03 0.  0.
<mgrwt>
<rscale>  2 0.12500000E+03</rscale>
<asrwt>0</asrwt>
<pdfrwt beam="1">  1       21 0.24819474E-01 0.12500000E+03</pdfrwt>
<pdfrwt beam="2">  1       21 0.37251241E-02 0.12500000E+03</pdfrwt>
<totfact> 0.66521630E+06</totfact>
</mgrwt>
</event>
<event>
 3    0  0.1521797E+001  0.1250000E+03  0.7546771E-02  0.1235069E+00
         21   -1    0    0  502  501  0.00000000000E+00  0.00000000000E+00  0.10278674322E+02  0.10278674322E+02  0.00000000000E+00 0. -1.
         21   -1    0    0  501  502 -0.00000000000E+00 -0.00000000000E+00 -0.38003441664E+03  0.38003441664E+03  0.00000000000E+00 0. -1.
         25    1    1    2    0    0  0.00000000000E+00  0.00000000000E+00 -0.36975574232E+03  0.39031309097E+03  0.12500000000E+03 0.  0.
<mgrwt>
<rscale>  2 0.12500000E+03</rscale>
<asrwt>0</asrwt>
<pdfrwt beam="1">  1       21 0.15813345E-02 0.12500000E+03</pdfrwt>
<pdfrwt beam="2">  1       21 0.58466834E-01 0.12500000E+03</pdfrwt>
<totfact> 0.48690579E+06</totfact>
</mgrwt>
</event>
<event>
 3    0  0.1651294E+001  0.1250000E+03  0.7546771E-02  0.1235069E+00
         21   -1    0    0  502  501  0.00000000000E+00  0.00000000000E+00  0.23837430338E+02  0.23837430338E+02  0.00000000000E+00 0.  1.
         21   -1    0    0  501  502 -0.00000000000E+00 -0.00000000000E+00 -0.16387043170E+03  0.16387043170E+03  0.00000000000E+00 0.  1.
         25    1    1    2    0    0  0.00000000000E+00  0.00000000000E+00 -0.14003300136E+03  0.18770786204E+03  0.12500000000E+03 0.  0.
<mgrwt>
<rscale>  2 0.12500000E+03</rscale>
<asrwt>0</asrwt>
<pdfrwt beam="1">  1       21 0.36672969E-02 0.12500000E+03</pdfrwt>
<pdfrwt beam="2">  1       21 0.25210836E-01 0.12500000E+03</pdfrwt>
<totfact> 0.66278124E+06</totfact>
</mgrwt>
</event>
<event>
 3    0  0.1671924E+001  0.1250000E+03  0.7546771E-02  0.1235069E+00
         21   -1    0    0  502  501  0.00000000000E+00  0.00000000000E+00  0.26103039106E+02  0.26103039106E+02  0.00000000000E+00 0.  1.
         21   -1    0    0  501  502 -0.00000000000E+00 -0.00000000000E+00 -0.14964732590E+03  0.14964732590E+03  0.00000000000E+00 0.  1.
         25    1    1    2    0    0  0.00000000000E+00  0.00000000000E+00 -0.12354428679E+03  0.17575036500E+03  0.12500000000E+03 0.  0.
<mgrwt>
<rscale>  2 0.12500000E+03</rscale>
<asrwt>0</asrwt>
<pdfrwt beam="1">  1       21 0.40158521E-02 0.12500000E+03</pdfrwt>
<pdfrwt beam="2">  1       21 0.23022666E-01 0.12500000E+03</pdfrwt>
<totfact> 0.67642416E+06</totfact>
</mgrwt>
</event>
<event>
 3    0  0.1466012E+001  0.1250000E+03  0.7546771E-02  0.1235069E+00
         21   -1    0    0  502  501  0.00000000000E+00  0.00000000000E+00  0.42765231601E+03  0.42765231601E+03  0.00000000000E+00 0. -1.
         21   -1    0    0  501  502 -0.00000000000E+00 -0.00000000000E+00 -0.91341724428E+01  0.91341724428E+01  0.00000000000E+00 0. -1.
         25    1    1    2    0    0  0.00000000000E+00  0.00000000000E+00  0.41851814357E+03  0.43678648845E+03  0.12500000000E+03 0.  0.
<mgrwt>
<rscale>  2 0.12500000E+03</rscale>
<asrwt>0</asrwt>
<pdfrwt beam="1">  1       21 0.65792648E-01 0.12500000E+03</pdfrwt>
<pdfrwt beam="2">  1       21 0.14052576E-02 0.12500000E+03</pdfrwt>
<totfact> 0.45693368E+06</totfact>
</mgrwt>
</event>
<event>
 3    0  0.1567969E+001  0.1250000E+03  0.7546771E-02  0.1235069E+00
         21   -1    0    0  502  501  0.00000000000E+00  0.00000000000E+00  0.28391306452E+03  0.28391306452E+03  0.00000000000E+00 0.  1.
         21   -1    0    0  501  502 -0.00000000000E+00 -0.00000000000E+00 -0.13758613069E+02  0.13758613069E+02  0.00000000000E+00 0.  1.
         25    1    1    2    0    0  0.00000000000E+00  0.00000000000E+00  0.27015445145E+03  0.29767167759E+03  0.12500000000E+03 0.  0.
<mgrwt>
<rscale>  2 0.12500000E+03</rscale>
<asrwt>0</asrwt>
<pdfrwt beam="1">  1       21 0.43678929E-01 0.12500000E+03</pdfrwt>
<pdfrwt beam="2">  1       21 0.21167099E-02 0.12500000E+03</pdfrwt>
<totfact> 0.55650225E+06</totfact>
</mgrwt>
</event>
<event>
 3    0  0.1685728E+001  0.1250000E+03  0.7546771E-02  0.1235069E+00
         21   -1    0    0  502  501  0.00000000000E+00  0.00000000000E+00  0.50423576914E+02  0.50423576914E+02  0.00000000000E+00 0. -1.
         21   -1    0    0  501  502 -0.00000000000E+00 -0.00000000000E+00 -0.77468720766E+02  0.77468720766E+02  0.00000000000E+00 0. -1.
         25    1    1    2    0    0  0.00000000000E+00  0.00000000000E+00 -0.27045143852E+02  0.12789229768E+03  0.12500000000E+03 0.  0.
<mgrwt>
<rscale>  2 0.12500000E+03</rscale>
<asrwt>0</asrwt>
<pdfrwt beam="1">  1       21 0.77574733E-02 0.12500000E+03</pdfrwt>
<pdfrwt beam="2">  1       21 0.11918265E-01 0.12500000E+03</pdfrwt>
<totfact> 0.73648113E+06</totfact>
</mgrwt>
</event>
<event>
 3    0  0.1368989E+001  0.1250000E+03  0.7546771E-02  0.1235069E+00
         21   -1    0    0  502  501  0.00000000000E+00  0.00000000000E+00  0.60311656611E+01  0.60311656611E+01  0.00000000000E+00 0. -1.
         21   -1    0    0  501  502 -0.00000000000E+00 -0.00000000000E+00 -0.64767745068E+03  0.64767745068E+03  0.00000000000E+00 0. -1.
         25    1    1    2    0    0  0.00000000000E+00  0.00000000000E+00 -0.64164628502E+03  0.65370861634E+03  0.12500000000E+03 0.  0.
<mgrwt>
<rscale>  2 0.12500000E+03</rscale>
<asrwt>0</asrwt>
<pdfrwt beam="1">  1       21 0.92787145E-03 0.12500000E+03</pdfrwt>
<pdfrwt beam="2">  1       21 0.99642705E-01 0.12500000E+03</pdfrwt>
<totfact> 0.34770758E+06</totfact>
</mgrwt>
</event>
<event>
 3    0  0.1684154E+001  0.1250000E+03  0.7546771E-02  0.1235069E+00
         21   -1    0    0  502  501  0.00000000000E+00  0.00000000000E+00  0.31777612033E+02  0.31777612033E+02  0.00000000000E+00 0.  1.
         21   -1    0    0  501  502 -0.00000000000E+00 -0.00000000000E+00 -0.12292459219E+03  0.12292459219E+03  0.00000000000E+00 0.  1.
         25    1    1    2    0    0  0.00000000000E+00  0.00000000000E+00 -0.91146980160E+02  0.15470220423E+03  0.12500000000E+03 0.  0.
<mgrwt>
<rscale>  2 0.12500000E+03</rscale>
<asrwt>0</asrwt>
<pdfrwt beam="1">  1       21 0.48888635E-02 0.12500000E+03</pdfrwt>
<pdfrwt beam="2">  1       21 0.18911475E-01 0.12500000E+03</pdfrwt>
<totfact> 0.70172690E+06</totfact>
</mgrwt>
</event>
<event>
 3    0  0.1603123E+001  0.1250000E+03  0.7546771E-02  0.1235069E+00
         21   -1    0    0  502  501  0.00000000000E+00  0.00000000000E+00  0.15826376439E+02  0.15826376439E+02  0.00000000000E+00 0.  1.
         21   -1    0    0  501  502 -0.00000000000E+00 -0.00000000000E+00 -0.24681897433E+03  0.24681897433E+03  0.00000000000E+00 0.  1.
         25    1    1    2    0    0  0.00000000000E+00  0.00000000000E+00 -0.23099259789E+03  0.26264535077E+03  0.12500000000E+03 0.  0.
<mgrwt>
<rscale>  2 0.12500000E+03</rscale>
<asrwt>0</asrwt>
<pdfrwt beam="1">  1       21 0.24348272E-02 0.12500000E+03</pdfrwt>
<pdfrwt beam="2">  1       21 0.37972149E-01 0.12500000E+03</pdfrwt>
<totfact> 0.58707656E+06</totfact>
</mgrwt>
</event>
<event>
 3    0  0.1672147E+001  0.1250000E+03  0.7546771E-02  0.1235069E+00
         21   -1    0    0  502  501  0.00000000000E+00  0.00000000000E+00  0.37959490521E+02  0.37959490521E+02  0.00000000000E+00 0. -1.
         21   -1    0    0  501  502 -0.00000000000E+00 -0.00000000000E+00 -0.10290575417E+03  0.10290575417E+03  0.00000000000E+00 0. -1.
         25    1    1    2    0    0  0.00000000000E+00  0.00000000000E+00 -0.64946263649E+02  0.14086524469E+03  0.12500000000E+03 0.  0.
<mgrwt>
<rscale>  2 0.12500000E+03</rscale>
<asrwt>0</asrwt>
<pdfrwt beam="1">  1       21 0.58399216E-02 0.12500000E+03</pdfrwt>
<pdfrwt beam="2">  1       21 0.15831655E-01 0.12500000E+03</pdfrwt>
<totfact> 0.71926553E+06</totfact>
</mgrwt>
</event>
<event>
 3    0  0.1393845E+001  0.1250000E+03  0.7546771E-02  0.1235069E+00
         21   -1    0    0  502  501  0.00000000000E+00  0.00000000000E+00  0.62787576958E+01  0.62787576958E+01  0.00000000000E+00 0. -1.
         21   -1    0    0  501  502 -0.00000000000E+00 -0.00000000000E+00 -0.62213740189E+03  0.62213740189E+03  0.00000000000E+00 0. -1.
         25    1    1    2    0    0  0.00000000000E+00  0.00000000000E+00 -0.61585864420E+03  0.62841615959E+03  0.12500000000E+03 0.  0.
<mgrwt>
<rscale>  2 0.12500000E+03</rscale>
<asrwt>0</asrwt>
<pdfrwt beam="1">  1       21 0.96596293E-03 0.12500000E+03</pdfrwt>
<pdfrwt beam="2">  1       21 0.95713426E-01 0.12500000E+03</pdfrwt>
<totfact> 0.35838287E+06</totfact>
</mgrwt>
</event>
<event>
 3    0  0.1695612E+001  0.1250000E+03  0.7546771E-02  0.1235069E+00
         21   -1    0    0  502  501  0.00000000000E+00  0.00000000000E+00  0.10644464609E+03  0.10644464609E+03  0.00000000000E+00 0.  1.
         21   -1    0    0  501  502 -0.00000000000E+00 -0.00000000000E+00 -0.36697477456E+02  0.36697477456E+02  0.00000000000E+00 0.  1.
         25    1    1    2    0    0  0.00000000000E+00  0.00000000000E+00  0.69747168629E+02  0.14314212354E+03  0.12500000000E+03 0.  0.
<mgrwt>
<rscale>  2 0.12500000E+03</rscale>
<asrwt>0</asrwt>
<pdfrwt beam="1">  1       21 0.16376099E-01 0.12500000E+03</pdfrwt>
<pdfrwt beam="2">  1       21 0.56457658E-02 0.12500000E+03</pdfrwt>
<totfact> 0.71631718E+06</totfact>
</mgrwt>
</event>
<event>
 3    0  0.1681813E+001  0.1250000E+03  0.7546771E-02  0.1235069E+00
         21   -1    0    0  502  501  0.00000000000E+00  0.00000000000E+00  0.46913649340E+02  0.46913649340E+02  0.00000000000E+00 0. -1.
         21   -1    0    0  501  502 -0.00000000000E+00 -0.00000000000E+00 -0.83264680001E+02  0.83264680001E+02  0.00000000000E+00 0. -1.
         25    1    1    2    0    0  0.00000000000E+00  0.00000000000E+00 -0.36351030661E+02  0.13017832934E+03  0.12500000000E+03 0.  0.
<mgrwt>
<rscale>  2 0.12500000E+03</rscale>
<asrwt>0</asrwt>
<pdfrwt beam="1">  1       21 0.72174846E-02 0.12500000E+03</pdfrwt>
<pdfrwt beam="2">  1       21 0.12809951E-01 0.12500000E+03</pdfrwt>
<totfact> 0.73341091E+06</totfact>
</mgrwt>
</event>
<event>
 3    0  0.1711962E+001  0.1250000E+03  0.7546771E-02  0.1235069E+00
         21   -1    0    0  502  501  0.00000000000E+00  0.00000000000E+00  0.66283759741E+02  0.66283759741E+02  0.00000000000E+00 0.  1.
         21   -1    0    0  501  502 -0.00000000000E+00 -0.00000000000E+00 -0.58932233405E+02  0.58932233405E+02  0.00000000000E+00 0.  1.
         25    1    1    2    0    0  0.00000000000E+00  0.00000000000E+00  0.73515263358E+01  0.12521599315E+03  0.12500000000E+03 0.  0.
<mgrwt>
<rscale>  2 0.12500000E+03</rscale>
<asrwt>0</asrwt>
<pdfrwt beam="1">  1       21 0.10197501E-01 0.12500000E+03</pdfrwt>
<pdfrwt beam="2">  1       21 0.90664975E-02 0.12500000E+03</pdfrwt>
<totfact> 0.74014413E+06</totfact>
</mgrwt>
</event>
<event>
 3    0  0.1458420E+001  0.1250000E+03  0.7546771E-02  0.1235069E+00
         21   -1    0    0  502  501  0.00000000000E+00  0.00000000000E+00  0.81543073204E+01  0.81543073204E+01  0.00000000000E+00 0. -1.
         21   -1    0    0  501  502 -0.00000000000E+00 -0.00000000000E+00 -0.47904130253E+03  0.47904130253E+03  0.00000000000E+00 0. -1.
         25    1    1    2    0    0  0.00000000000E+00  0.00000000000E+00 -0.47088699521E+03  0.48719560985E+03  0.12500000000E+03 0.  0.
<mgrwt>
<rscale>  2 0.12500000E+03</rscale>
<asrwt>0</asrwt>
<pdfrwt beam="1">  1       21 0.12545083E-02 0.12500000E+03</pdfrwt>
<pdfrwt beam="2">  1       21 0.73698695E-01 0.12500000E+03</pdfrwt>
<totfact> 0.42747092E+06</totfact>
</mgrwt>
</event>
<event>
 3    0  0.1480303E+001  0.1250000E+03  0.7546771E-02  0.1235069E+00
         21   -1    0    0  502  501  0.00000000000E+00  0.00000000000E+00  0.92895772954E+01  0.92895772954E+01  0.00000000000E+00 0. -1.
         21   -1    0    0  501  502 -0.00000000000E+00 -0.00000000000E+00 -0.42049814279E+03  0.42049814279E+03  0.00000000000E+00 0. -1.
         25    1    1    2    0    0  0.00000000000E+00  0.00000000000E+00 -0.41120856549E+03  0.42978772008E+03  0.12500000000E+03 0.  0.
<mgrwt>
<rscale>  2 0.12500000E+03</rscale>
<asrwt>0</asrwt>
<pdfrwt beam="1">  1       21 0.14291662E-02 0.12500000E+03</pdfrwt>
<pdfrwt beam="2">  1       21 0.64692002E-01 0.12500000E+03</pdfrwt>
<totfact> 0.46126356E+06</totfact>
</mgrwt>
</event>
<event>
 3    0  0.1687213E+001  0.1250000E+03  0.7546771E-02  0.1235069E+00
         21   -1    0    0  502  501  0.00000000000E+00  0.00000000000E+00  0.56754308113E+02  0.56754308113E+02  0.00000000000E+00 0. -1.
         21   -1    0    0  501  502 -0.00000000000E+00 -0.00000000000E+00 -0.68827374166E+02  0.68827374166E+02  0.00000000000E+00 0. -1.
         25    1    1    2    0    0  0.00000000000E+00  0.00000000000E+00 -0.12073066053E+02  0.12558168228E+03  0.12500000000E+03 0.  0.
<mgrwt>
<rscale>  2 0.12500000E+03</rscale>
<asrwt>0</asrwt>
<pdfrwt beam="1">  1       21 0.87314320E-02 0.12500000E+03</pdfrwt>
<pdfrwt beam="2">  1       21 0.10588827E-01 0.12500000E+03</pdfrwt>
<totfact> 0.73963995E+06</totfact>
</mgrwt>
</event>
<event>
 3    0  0.1682601E+001  0.1250000E+03  0.7546771E-02  0.1235069E+00
         21   -1    0    0  502  501  0.00000000000E+00  0.00000000000E+00  0.82884118094E+02  0.82884118094E+02  0.00000000000E+00 0. -1.
         21   -1    0    0  501  502 -0.00000000000E+00 -0.00000000000E+00 -0.47129053066E+02  0.47129053066E+02  0.00000000000E+00 0. -1.
         25    1    1    2    0    0  0.00000000000E+00  0.00000000000E+00  0.35755065028E+02  0.13001317116E+03  0.12500000000E+03 0.  0.
<mgrwt>
<rscale>  2 0.12500000E+03</rscale>
<asrwt>0</asrwt>
<pdfrwt beam="1">  1       21 0.12751403E-01 0.12500000E+03</pdfrwt>
<pdfrwt beam="2">  1       21 0.72506235E-02 0.12500000E+03</pdfrwt>
<totfact> 0.73363155E+06</totfact>
</mgrwt>
</event>
<event>
 3    0  0.1368989E+001  0.1250000E+03  0.7546771E-02  0.1235069E+00
         21   -1    0    0  502  501  0.00000000000E+00  0.00000000000E+00  0.14742738939E+01  0.14742738939E+01  0.00000000000E+00 0. -1.
         21   -1    0    0  501  502 -0.00000000000E+00 -0.00000000000E+00 -0.26496094221E+04  0.26496094221E+04  0.00000000000E+00 0. -1.
         25    1    1    2    0    0  0.00000000000E+00  0.00000000000E+00 -0.26481351482E+04  0.26510836960E+04  0.12500000000E+03 0.  0.
<mgrwt>
<rscale>  2 0.12500000E+03</rscale>
<asrwt>0</asrwt>
<pdfrwt beam="1">  1       21 0.22681395E-03 0.12500000E+03</pdfrwt>
<pdfrwt beam="2">  1       21 0.40762757E+00 0.12500000E+03</pdfrwt>
<totfact> 0.31765927E+05</totfact>
</mgrwt>
</event>
<event>
 3    0  0.1624424E+001  0.1250000E+03  0.7546771E-02  0.1235069E+00
         21   -1    0    0  502  501  0.00000000000E+00  0.00000000000E+00  0.18122875148E+03  0.18122875148E+03  0.00000000000E+00 0. -1.
         21   -1    0    0  501  502 -0.00000000000E+00 -0.00000000000E+00 -0.21554251012E+02  0.21554251012E+02  0.00000000000E+00 0. -1.
         25    1    1    2    0    0  0.00000000000E+00  0.00000000000E+00  0.15967450046E+03  0.20278300249E+03  0.12500000000E+03 0.  0.
<mgrwt>
<rscale>  2 0.12500000E+03</rscale>
<asrwt>0</asrwt>
<pdfrwt beam="1">  1       21 0.27881345E-01 0.12500000E+03</pdfrwt>
<pdfrwt beam="2">  1       21 0.33160387E-02 0.12500000E+03</pdfrwt>
<totfact> 0.64626938E+06</totfact>
</mgrwt>
</event>
<event>
 3    0  0.1585604E+001  0.1250000E+03  0.7546771E-02  0.1235069E+00
         21   -1    0    0  502  501  0.00000000000E+00  0.00000000000E+00  0.29108800330E+03  0.29108800330E+03  0.00000000000E+00 0.  1.
         21   -1    0    0  501  502 -0.00000000000E+00 -0.00000000000E+00 -0.13419481242E+02  0.13419481242E+02  0.00000000000E+00 0.  1.
         25    1    1    2    0    0  0.00000000000E+00  0.00000000000E+00  0.27766852206E+03  0.30450748454E+03  0.12500000000E+03 0.  0.
<mgrwt>
<rscale>  2 0.12500000E+03</rscale>
<asrwt>0</asrwt>
<pdfrwt beam="1">  1       21 0.44782765E-01 0.12500000E+03</pdfrwt>
<pdfrwt beam="2">  1       21 0.20645358E-02 0.12500000E+03</pdfrwt>
<totfact> 0.55083654E+06</totfact>
</mgrwt>
</event>
<event>
 3    0  0.1697335E+001  0.1250000E+03  0.7546771E-02  0.1235069E+00
         21   -1    0    0  502  501  0.00000000000E+00  0.00000000000E+00  0.34798480381E+02  0.34798480381E+02  0.00000000000E+00 0.  1.
         21   -1    0    0  501  502 -0.00000000000E+00 -0.00000000000E+00 -0.11225346501E+03  0.11225346501E+03  0.00000000000E+00 0.  1.
         25    1    1    2    0    0  0.00000000000E+00  0.00000000000E+00 -0.77454984633E+02  0.14705194540E+03  0.12500000000E+03 0.  0.
<mgrwt>
<rscale>  2 0.12500000E+03</rscale>
<asrwt>0</asrwt>
<pdfrwt beam="1">  1       21 0.53536124E-02 0.12500000E+03</pdfrwt>
<pdfrwt beam="2">  1       21 0.17269764E-01 0.12500000E+03</pdfrwt>
<totfact> 0.71131525E+06</totfact>
</mgrwt>
</event>
<event>
 3    0  0.1692873E+001  0.1250000E+03  0.7546771E-02  0.1235069E+00
         21   -1    0    0  502  501  0.00000000000E+00  0.00000000000E+00  0.11462413404E+03  0.11462413404E+03  0.00000000000E+00 0.  1.
         21   -1    0    0  501  502 -0.00000000000E+00 -0.00000000000E+00 -0.34078774357E+02  0.34078774357E+02  0.00000000000E+00 0.  1.
         25    1    1    2    0    0  0.00000000000E+00  0.00000000000E+00  0.80545359687E+02  0.14870290840E+03  0.12500000000E+03 0.  0.
<mgrwt>
<rscale>  2 0.12500000E+03</rscale>
<asrwt>0</asrwt>
<pdfrwt beam="1">  1       21 0.17634482E-01 0.12500000E+03</pdfrwt>
<pdfrwt beam="2">  1       21 0.52428884E-02 0.12500000E+03</pdfrwt>
<totfact> 0.70922521E+06</totfact>
</mgrwt>
</event>
<event>
 3    0  0.1660224E+001  0.1250000E+03  0.7546771E-02  0.1235069E+00
         21   -1    0    0  502  501  0.00000000000E+00  0.00000000000E+00  0.25270609218E+02  0.25270609218E+02  0.00000000000E+00 0.  1.
         21   -1    0    0  501  502 -0.00000000000E+00 -0.00000000000E+00 -0.15457680368E+03  0.15457680368E+03  0.00000000000E+00 0.  1.
         25    1    1    2    0    0  0.00000000000E+00  0.00000000000E+00 -0.12930619446E+03  0.17984741290E+03  0.12500000000E+03 0.  0.
<mgrwt>
<rscale>  2 0.12500000E+03</rscale>
<asrwt>0</asrwt>
<pdfrwt beam="1">  1       21 0.38877861E-02 0.12500000E+03</pdfrwt>
<pdfrwt beam="2">  1       21 0.23781047E-01 0.12500000E+03</pdfrwt>
<totfact> 0.67169045E+06</totfact>
</mgrwt>
</event>
<event>
 3    0  0.1504450E+001  0.1250000E+03  0.7546771E-02  0.1235069E+00
         21   -1    0    0  502  501  0.00000000000E+00  0.00000000000E+00  0.39829483853E+03  0.39829483853E+03  0.00000000000E+00 0.  1.
         21   -1    0    0  501  502 -0.00000000000E+00 -0.00000000000E+00 -0.98074331427E+01  0.98074331427E+01  0.00000000000E+00 0.  1.
         25    1    1    2    0    0  0.00000000000E+00  0.00000000000E+00  0.38848740539E+03  0.40810227168E+03  0.12500000000E+03 0.  0.
<mgrwt>
<rscale>  2 0.12500000E+03</rscale>
<asrwt>0</asrwt>
<pdfrwt beam="1">  1       21 0.61276116E-01 0.12500000E+03</pdfrwt>
<pdfrwt beam="2">  1       21 0.15088362E-02 0.12500000E+03</pdfrwt>
<totfact> 0.47508544E+06</totfact>
</mgrwt>
</event>
<event>
 3    0  0.1368989E+001  0.1250000E+03  0.7546771E-02  0.1235069E+00
         21   -1    0    0  502  501  0.00000000000E+00  0.00000000000E+00  0.48396027232E+01  0.48396027232E+01  0.00000000000E+00 0.  1.
         21   -1    0    0  501  502 -0.00000000000E+00 -0.00000000000E+00 -0.80714269816E+03  0.80714269816E+03  0.00000000000E+00 0.  1.
         25    1    1    2    0    0  0.00000000000E+00  0.00000000000E+00 -0.80230309543E+03  0.81198230088E+03  0.12500000000E+03 0.  0.
<mgrwt>
<rscale>  2 0.12500000E+03</rscale>
<asrwt>0</asrwt>
<pdfrwt beam="1">  1       21 0.74455413E-03 0.12500000E+03</pdfrwt>
<pdfrwt beam="2">  1       21 0.12417582E+00 0.12500000E+03</pdfrwt>
<totfact> 0.28969634E+06</totfact>
</mgrwt>
</event>
<event>
 3    0  0.1600831E+001  0.1250000E+03  0.7546771E-02  0.1235069E+00
         21   -1    0    0  502  501  0.00000000000E+00  0.00000000000E+00  0.21723072578E+03  0.21723072578E+03  0.00000000000E+00 0. -1.
         21   -1    0    0  501  502 -0.00000000000E+00 -0.00000000000E+00 -0.17982032633E+02  0.17982032633E+02  0.00000000000E+00 0. -1.
         25    1    1    2    0    0  0.00000000000E+00  0.00000000000E+00  0.19924869315E+03  0.23521275842E+03  0.12500000000E+03 0.  0.
<mgrwt>
<rscale>  2 0.12500000E+03</rscale>
<asrwt>0</asrwt>
<pdfrwt beam="1">  1       21 0.33420110E-01 0.12500000E+03</pdfrwt>
<pdfrwt beam="2">  1       21 0.27664667E-02 0.12500000E+03</pdfrwt>
<totfact> 0.61299014E+06</totfact>
</mgrwt>
</event>
<event>
 3    0  0.1645812E+001  0.1250000E+03  0.7546771E-02  0.1235069E+00
         21   -1    0    0  502  501  0.00000000000E+00  0.00000000000E+00  0.25006587417E+02  0.25006587417E+02  0.00000000000E+00 0. -1.
         21   -1    0    0  501  502 -0.00000000000E+00 -0.00000000000E+00 -0.15620883949E+03  0.15620883949E+03  0.00000000000E+00 0. -1.
         25    1    1    2    0    0  0.00000000000E+00  0.00000000000E+00 -0.13120225207E+03  0.18121542691E+03  0.12500000000E+03 0.  0.
<mgrwt>
<rscale>  2 0.12500000E+03</rscale>
<asrwt>0</asrwt>
<pdfrwt beam="1">  1       21 0.38471673E-02 0.12500000E+03</pdfrwt>
<pdfrwt beam="2">  1       21 0.24032129E-01 0.12500000E+03</pdfrwt>
<totfact> 0.67012379E+06</totfact>
</mgrwt>
</event>
<event>
 3    0  0.1520402E+001  0.1250000E+03  0.7546771E-02  0.1235069E+00
         21   -1    0    0  502  501  0.00000000000E+00  0.00000000000E+00  0.37980191837E+03  0.37980191837E+03  0.00000000000E+00 0. -1.
         21   -1    0    0  501  502 -0.00000000000E+00 -0.00000000000E+00 -0.10284966481E+02  0.10284966481E+02  0.00000000000E+00 0. -1.
         25    1    1    2    0    0  0.00000000000E+00  0.00000000000E+00  0.36951695189E+03  0.39008688485E+03  0.12500000000E+03 0.  0.
<mgrwt>
<rscale>  2 0.12500000E+03</rscale>
<asrwt>0</asrwt>
<pdfrwt beam="1">  1       21 0.58431053E-01 0.12500000E+03</pdfrwt>
<pdfrwt beam="2">  1       21 0.15823028E-02 0.12500000E+03</pdfrwt>
<totfact> 0.48705907E+06</totfact>
</mgrwt>
</event>
<event>
 3    0  0.1373317E+001  0.1250000E+03  0.7546771E-02  0.1235069E+00
         21   -1    0    0  502  501  0.00000000000E+00  0.00000000000E+00  0.61551096978E+01  0.61551096978E+01  0.00000000000E+00 0. -1.
         21   -1    0    0  501  502 -0.00000000000E+00 -0.00000000000E+00 -0.63463531794E+03  0.63463531794E+03  0.00000000000E+00 0. -1.
         25    1    1    2    0    0  0.00000000000E+00  0.00000000000E+00 -0.62848020824E+03  0.64079042764E+03  0.12500000000E+03 0.  0.
<mgrwt>
<rscale>  2 0.12500000E+03</rscale>
<asrwt>0</asrwt>
<pdfrwt beam="1">  1       21 0.94693994E-03 0.12500000E+03</pdfrwt>
<pdfrwt beam="2">  1       21 0.97636205E-01 0.12500000E+03</pdfrwt>
<totfact> 0.35310476E+06</totfact>
</mgrwt>
</event>
<event>
 3    0  0.1524297E+001  0.1250000E+03  0.7546771E-02  0.1235069E+00
         21   -1    0    0  502  501  0.00000000000E+00  0.00000000000E+00  0.95455107327E+01  0.95455107327E+01  0.00000000000E+00 0.  1.
         21   -1    0    0  501  502 -0.00000000000E+00 -0.00000000000E+00 -0.40922378167E+03  0.40922378167E+03  0.00000000000E+00 0.  1.
         25    1    1    2    0    0  0.00000000000E+00  0.00000000000E+00 -0.39967827094E+03  0.41876929240E+03  0.12500000000E+03 0.  0.
<mgrwt>
<rscale>  2 0.12500000E+03</rscale>
<asrwt>0</asrwt>
<pdfrwt beam="1">  1       21 0.14685404E-02 0.12500000E+03</pdfrwt>
<pdfrwt beam="2">  1       21 0.62957494E-01 0.12500000E+03</pdfrwt>
<totfact> 0.46820827E+06</totfact>
</mgrwt>
</event>
<event>
 3    0  0.1686488E+001  0.1250000E+03  0.7546771E-02  0.1235069E+00
         21   -1    0    0  502  501  0.00000000000E+00  0.00000000000E+00  0.53310024202E+02  0.53310024202E+02  0.00000000000E+00 0. -1.
         21   -1    0    0  501  502 -0.00000000000E+00 -0.00000000000E+00 -0.73274211717E+02  0.73274211717E+02  0.00000000000E+00 0. -1.
         25    1    1    2    0    0  0.00000000000E+00  0.00000000000E+00 -0.19964187516E+02  0.12658423592E+03  0.12500000000E+03 0.  0.
<mgrwt>
<rscale>  2 0.12500000E+03</rscale>
<asrwt>0</asrwt>
<pdfrwt beam="1">  1       21 0.82015422E-02 0.12500000E+03</pdfrwt>
<pdfrwt beam="2">  1       21 0.11272956E-01 0.12500000E+03</pdfrwt>
<totfact> 0.73825851E+06</totfact>
</mgrwt>
</event>
<event>
 3    0  0.1686647E+001  0.1250000E+03  0.7546771E-02  0.1235069E+00
         21   -1    0    0  502  501  0.00000000000E+00  0.00000000000E+00  0.55975314202E+02  0.55975314202E+02  0.00000000000E+00 0. -1.
         21   -1    0    0  501  502 -0.00000000000E+00 -0.00000000000E+00 -0.69785226858E+02  0.69785226858E+02  0.00000000000E+00 0. -1.
         25    1    1    2    0    0  0.00000000000E+00  0.00000000000E+00 -0.13809912656E+02  0.12576054106E+03  0.12500000000E+03 0.  0.
<mgrwt>
<rscale>  2 0.12500000E+03</rscale>
<asrwt>0</asrwt>
<pdfrwt beam="1">  1       21 0.86115868E-02 0.12500000E+03</pdfrwt>
<pdfrwt beam="2">  1       21 0.10736189E-01 0.12500000E+03</pdfrwt>
<totfact> 0.73939139E+06</totfact>
</mgrwt>
</event>
<event>
 3    0  0.1597163E+001  0.1250000E+03  0.7546771E-02  0.1235069E+00
         21   -1    0    0  502  501  0.00000000000E+00  0.00000000000E+00  0.24901582474E+03  0.24901582474E+03  0.00000000000E+00 0.  1.
         21   -1    0    0  501  502 -0.00000000000E+00 -0.00000000000E+00 -0.15686754061E+02  0.15686754061E+02  0.00000000000E+00 0.  1.
         25    1    1    2    0    0  0.00000000000E+00  0.00000000000E+00  0.23332907068E+03  0.26470257880E+03  0.12500000000E+03 0.  0.
<mgrwt>
<rscale>  2 0.12500000E+03</rscale>
<asrwt>0</asrwt>
<pdfrwt beam="1">  1       21 0.38310124E-01 0.12500000E+03</pdfrwt>
<pdfrwt beam="2">  1       21 0.24133470E-02 0.12500000E+03</pdfrwt>
<totfact> 0.58520920E+06</totfact>
</mgrwt>
</event>
<event>
 3    0  0.1413963E+001  0.1250000E+03  0.7546771E-02  0.1235069E+00
         21   -1    0    0  502  501  0.00000000000E+00  0.00000000000E+00  0.50519893578E+03  0.50519893578E+03  0.00000000000E+00 0. -1.
         21   -1    0    0  501  502 -0.00000000000E+00 -0.00000000000E+00 -0.77321025904E+01  0.77321025904E+01  0.00000000000E+00 0. -1.
         25    1    1    2    0    0  0.00000000000E+00  0.00000000000E+00  0.49746683319E+03  0.51293103837E+03  0.12500000000E+03 0.  0.
<mgrwt>
<rscale>  2 0.12500000E+03</rscale>
<asrwt>0</asrwt>
<pdfrwt beam="1">  1       21 0.77722888E-01 0.12500000E+03</pdfrwt>
<pdfrwt beam="2">  1       21 0.11895546E-02 0.12500000E+03</pdfrwt>
<totfact> 0.41351372E+06</totfact>
</mgrwt>
</event>
<event>
 3    0  0.1368989E+001  0.1250000E+03  0.7546771E-02  0.1235069E+00
         21   -1    0    0  502  501  0.00000000000E+00  0.00000000000E+00  0.20005768563E+01  0.20005768563E+01  0.00000000000E+00 0.  1.
         21   -1    0    0  501  502 -0.00000000000E+00 -0.00000000000E+00 -0.19525618262E+04  0.19525618262E+04  0.00000000000E+00 0.  1.
         25    1    1    2    0    0  0.00000000000E+00  0.00000000000E+00 -0.19505612494E+04  0.19545624031E+04  0.12500000000E+03 0.  0.
<mgrwt>
<rscale>  2 0.12500000E+03</rscale>
<asrwt>0</asrwt>
<pdfrwt beam="1">  1       21 0.30778294E-03 0.12500000E+03</pdfrwt>
<pdfrwt beam="2">  1       21 0.30039228E+00 0.12500000E+03</pdfrwt>
<totfact> 0.83997662E+05</totfact>
</mgrwt>
</event>
<event>
 3    0  0.1452544E+001  0.1250000E+03  0.7546771E-02  0.1235069E+00
         21   -1    0    0  502  501  0.00000000000E+00  0.00000000000E+00  0.43468137844E+03  0.43468137844E+03  0.00000000000E+00 0. -1.
         21   -1    0    0  501  502 -0.00000000000E+00 -0.00000000000E+00 -0.89864673156E+01  0.89864673156E+01  0.00000000000E+00 0. -1.
         25    1    1    2    0    0  0.00000000000E+00  0.00000000000E+00  0.42569491112E+03  0.44366784575E+03  0.12500000000E+03 0.  0.
<mgrwt>
<rscale>  2 0.12500000E+03</rscale>
<asrwt>0</asrwt>
<pdfrwt beam="1">  1       21 0.66874042E-01 0.12500000E+03</pdfrwt>
<pdfrwt beam="2">  1       21 0.13825338E-02 0.12500000E+03</pdfrwt>
<totfact> 0.45273616E+06</totfact>
</mgrwt>
</event>
<event>
 3    0  0.1687295E+001  0.1250000E+03  0.7546771E-02  0.1235069E+00
         21   -1    0    0  502  501  0.00000000000E+00  0.00000000000E+00  0.12487442688E+03  0.12487442688E+03  0.00000000000E+00 0.  1.
         21   -1    0    0  501  502 -0.00000000000E+00 -0.00000000000E+00 -0.31281424849E+02  0.31281424849E+02  0.00000000000E+00 0.  1.
         25    1    1    2    0    0  0.00000000000E+00  0.00000000000E+00  0.93593002033E+02  0.15615585173E+03  0.12500000000E+03 0.  0.
<mgrwt>
<rscale>  2 0.12500000E+03</rscale>
<asrwt>0</asrwt>
<pdfrwt beam="1">  1       21 0.19211450E-01 0.12500000E+03</pdfrwt>
<pdfrwt beam="2">  1       21 0.48125270E-02 0.12500000E+03</pdfrwt>
<totfact> 0.69992286E+06</totfact>
</mgrwt>
</event>
<event>
 3    0  0.1368989E+001  0.1250000E+03  0.7546771E-02  0.1235069E+00
         21   -1    0    0  502  501  0.00000000000E+00  0.00000000000E+00  0.31178805426E+01  0.31178805426E+01  0.00000000000E+00 0. -1.
         21   -1    0    0  501  502 -0.00000000000E+00 -0.00000000000E+00 -0.12528542857E+04  0.12528542857E+04  0.00000000000E+00 0. -1.
         25    1    1    2    0    0  0.00000000000E+00  0.00000000000E+00 -0.12497364051E+04  0.12559721662E+04  0.12500000000E+03 0.  0.
<mgrwt>
<rscale>  2 0.12500000E+03</rscale>
<asrwt>0</asrwt>
<pdfrwt beam="1">  1       21 0.47967469E-03 0.12500000E+03</pdfrwt>
<pdfrwt beam="2">  1       21 0.19274651E+00 0.12500000E+03</pdfrwt>
<totfact> 0.18061857E+06</totfact>
</mgrwt>
</event>
<event>
 3    0  0.1368989E+001  0.1250000E+03  0.7546771E-02  0.1235069E+00
         21   -1    0    0  502  501  0.00000000000E+00  0.00000000000E+00  0.85415359379E+03  0.85415359379E+03  0.00000000000E+00 0. -1.
         21   -1    0    0  501  502 -0.00000000000E+00 -0.00000000000E+00 -0.45732407244E+01  0.45732407244E+01  0.00000000000E+00 0. -1.
         25    1    1    2    0    0  0.00000000000E+00  0.00000000000E+00  0.84958035307E+03  0.85872683451E+03  0.12500000000E+03 0.  0.
<mgrwt>
<rscale>  2 0.12500000E+03</rscale>
<asrwt>0</asrwt>
<pdfrwt beam="1">  1       21 0.13140812E+00 0.12500000E+03</pdfrwt>
<pdfrwt beam="2">  1       21 0.70357618E-03 0.12500000E+03</pdfrwt>
<totfact> 0.27506993E+06</totfact>
</mgrwt>
</event>
<event>
 3    0  0.1545700E+001  0.1250000E+03  0.7546771E-02  0.1235069E+00
         21   -1    0    0  502  501  0.00000000000E+00  0.00000000000E+00  0.36179462364E+03  0.36179462364E+03  0.00000000000E+00 0.  1.
         21   -1    0    0  501  502 -0.00000000000E+00 -0.00000000000E+00 -0.10796871332E+02  0.10796871332E+02  0.00000000000E+00 0.  1.
         25    1    1    2    0    0  0.00000000000E+00  0.00000000000E+00  0.35099775231E+03  0.37259149498E+03  0.12500000000E+03 0.  0.
<mgrwt>
<rscale>  2 0.12500000E+03</rscale>
<asrwt>0</asrwt>
<pdfrwt beam="1">  1       21 0.55660702E-01 0.12500000E+03</pdfrwt>
<pdfrwt beam="2">  1       21 0.16610574E-02 0.12500000E+03</pdfrwt>
<totfact> 0.49912053E+06</totfact>
</mgrwt>
</event>
<event>
 3    0  0.1707149E+001  0.1250000E+03  0.7546771E-02  0.1235069E+00
         21   -1    0    0  502  501  0.00000000000E+00  0.00000000000E+00  0.46066195680E+02  0.46066195680E+02  0.00000000000E+00 0.  1.
         21   -1    0    0  501  502 -0.00000000000E+00 -0.00000000000E+00 -0.84796453067E+02  0.84796453067E+02  0.00000000000E+00 0.  1.
         25    1    1    2    0    0  0.00000000000E+00  0.00000000000E+00 -0.38730257387E+02  0.13086264875E+03  0.12500000000E+03 0.  0.
<mgrwt>
<rscale>  2 0.12500000E+03</rscale>
<asrwt>0</asrwt>
<pdfrwt beam="1">  1       21 0.70871071E-02 0.12500000E+03</pdfrwt>
<pdfrwt beam="2">  1       21 0.13045608E-01 0.12500000E+03</pdfrwt>
<totfact> 0.73249186E+06</totfact>
</mgrwt>
</event>
<event>
 3    0  0.1628585E+001  0.1250000E+03  0.7546771E-02  0.1235069E+00
         21   -1    0    0  502  501  0.00000000000E+00  0.00000000000E+00  0.23887478042E+02  0.23887478042E+02  0.00000000000E+00 0. -1.
         21   -1    0    0  501  502 -0.00000000000E+00 -0.00000000000E+00 -0.16352709956E+03  0.16352709956E+03  0.00000000000E+00 0. -1.
         25    1    1    2    0    0  0.00000000000E+00  0.00000000000E+00 -0.13963962152E+03  0.18741457760E+03  0.12500000000E+03 0.  0.
<mgrwt>
<rscale>  2 0.12500000E+03</rscale>
<asrwt>0</asrwt>
<pdfrwt beam="1">  1       21 0.36749965E-02 0.12500000E+03</pdfrwt>
<pdfrwt beam="2">  1       21 0.25158016E-01 0.12500000E+03</pdfrwt>
<totfact> 0.66310968E+06</totfact>
</mgrwt>
</event>
<event>
 3    0  0.1664095E+001  0.1250000E+03  0.7546771E-02  0.1235069E+00
         21   -1    0    0  502  501  0.00000000000E+00  0.00000000000E+00  0.16870098625E+03  0.16870098625E+03  0.00000000000E+00 0.  1.
         21   -1    0    0  501  502 -0.00000000000E+00 -0.00000000000E+00 -0.23154873524E+02  0.23154873524E+02  0.00000000000E+00 0.  1.
         25    1    1    2    0    0  0.00000000000E+00  0.00000000000E+00  0.14554611273E+03  0.19185585977E+03  0.12500000000E+03 0.  0.
<mgrwt>
<rscale>  2 0.12500000E+03</rscale>
<asrwt>0</asrwt>
<pdfrwt beam="1">  1       21 0.25953997E-01 0.12500000E+03</pdfrwt>
<pdfrwt beam="2">  1       21 0.35622883E-02 0.12500000E+03</pdfrwt>
<totfact> 0.65816795E+06</totfact>
</mgrwt>
</event>
<event>
 3    0  0.1678414E+001  0.1250000E+03  0.7546771E-02  0.1235069E+00
         21   -1    0    0  502  501  0.00000000000E+00  0.00000000000E+00  0.88217123123E+02  0.88217123123E+02  0.00000000000E+00 0. -1.
         21   -1    0    0  501  502 -0.00000000000E+00 -0.00000000000E+00 -0.44279952255E+02  0.44279952255E+02  0.00000000000E+00 0. -1.
         25    1    1    2    0    0  0.00000000000E+00  0.00000000000E+00  0.43937170868E+02  0.13249707538E+03  0.12500000000E+03 0.  0.
<mgrwt>
<rscale>  2 0.12500000E+03</rscale>
<asrwt>0</asrwt>
<pdfrwt beam="1">  1       21 0.13571865E-01 0.12500000E+03</pdfrwt>
<pdfrwt beam="2">  1       21 0.68123004E-02 0.12500000E+03</pdfrwt>
<totfact> 0.73029630E+06</totfact>
</mgrwt>
</event>
<event>
 3    0  0.1560713E+001  0.1250000E+03  0.7546771E-02  0.1235069E+00
         21   -1    0    0  502  501  0.00000000000E+00  0.00000000000E+00  0.12928980449E+02  0.12928980449E+02  0.00000000000E+00 0.  1.
         21   -1    0    0  501  502 -0.00000000000E+00 -0.00000000000E+00 -0.30213132546E+03  0.30213132546E+03  0.00000000000E+00 0.  1.
         25    1    1    2    0    0  0.00000000000E+00  0.00000000000E+00 -0.28920234501E+03  0.31506030591E+03  0.12500000000E+03 0.  0.
<mgrwt>
<rscale>  2 0.12500000E+03</rscale>
<asrwt>0</asrwt>
<pdfrwt beam="1">  1       21 0.19890738E-02 0.12500000E+03</pdfrwt>
<pdfrwt beam="2">  1       21 0.46481746E-01 0.12500000E+03</pdfrwt>
<totfact> 0.54227122E+06</totfact>
</mgrwt>
</event>
<event>
 3    0  0.1670043E+001  0.1250000E+03  0.7546771E-02  0.1235069E+00
         21   -1    0    0  502  501  0.00000000000E+00  0.00000000000E+00  0.11401057204E+03  0.11401057204E+03  0.00000000000E+00 0. -1.
         21   -1    0    0  501  502 -0.00000000000E+00 -0.00000000000E+00 -0.34262173499E+02  0.34262173499E+02  0.00000000000E+00 0. -1.
         25    1    1    2    0    0  0.00000000000E+00  0.00000000000E+00  0.79748398543E+02  0.14827274554E+03  0.12500000000E+03 0.  0.
<mgrwt>
<rscale>  2 0.12500000E+03</rscale>
<asrwt>0</asrwt>
<pdfrwt beam="1">  1       21 0.17540088E-01 0.12500000E+03</pdfrwt>
<pdfrwt beam="2">  1       21 0.52711037E-02 0.12500000E+03</pdfrwt>
<totfact> 0.70976855E+06</totfact>
</mgrwt>
</event>
<event>
 3    0  0.1540202E+001  0.1250000E+03  0.7546771E-02  0.1235069E+00
         21   -1    0    0  502  501  0.00000000000E+00  0.00000000000E+00  0.38083999391E+03  0.38083999391E+03  0.00000000000E+00 0.  1.
         21   -1    0    0  501  502 -0.00000000000E+00 -0.00000000000E+00 -0.10256932209E+02  0.10256932209E+02  0.00000000000E+00 0.  1.
         25    1    1    2    0    0  0.00000000000E+00  0.00000000000E+00  0.37058306170E+03  0.39109692612E+03  0.12500000000E+03 0.  0.
<mgrwt>
<rscale>  2 0.12500000E+03</rscale>
<asrwt>0</asrwt>
<pdfrwt beam="1">  1       21 0.58590757E-01 0.12500000E+03</pdfrwt>
<pdfrwt beam="2">  1       21 0.15779899E-02 0.12500000E+03</pdfrwt>
<totfact> 0.48637547E+06</totfact>
</mgrwt>
</event>
<event>
 3    0  0.1368989E+001  0.1250000E+03  0.7546771E-02  0.1235069E+00
         21   -1    0    0  502  501  0.00000000000E+00  0.00000000000E+00  0.30081743701E+01  0.30081743701E+01  0.00000000000E+00 0. -1.
         21   -1    0    0  501  502 -0.00000000000E+00 -0.00000000000E+00 -0.12985450707E+04  0.12985450707E+04  0.00000000000E+00 0. -1.
         25    1    1    2    0    0  0.00000000000E+00  0.00000000000E+00 -0.12955368963E+04  0.13015532450E+04  0.12500000000E+03 0.  0.
<mgrwt>
<rscale>  2 0.12500000E+03</rscale>
<asrwt>0</asrwt>
<pdfrwt beam="1">  1       21 0.46279515E-03 0.12500000E+03</pdfrwt>
<pdfrwt beam="2">  1       21 0.19977655E+00 0.12500000E+03</pdfrwt>
<totfact> 0.17224426E+06</totfact>
</mgrwt>
</event>
<event>
 3    0  0.1592525E+001  0.1250000E+03  0.7546771E-02  0.1235069E+00
         21   -1    0    0  502  501  0.00000000000E+00  0.00000000000E+00  0.13566902781E+02  0.13566902781E+02  0.00000000000E+00 0.  1.
         21   -1    0    0  501  502 -0.00000000000E+00 -0.00000000000E+00 -0.28792496439E+03  0.28792496439E+03  0.00000000000E+00 0.  1.
         25    1    1    2    0    0  0.00000000000E+00  0.00000000000E+00 -0.27435806161E+03  0.30149186717E+03  0.12500000000E+03 0.  0.
<mgrwt>
<rscale>  2 0.12500000E+03</rscale>
<asrwt>0</asrwt>
<pdfrwt beam="1">  1       21 0.20872159E-02 0.12500000E+03</pdfrwt>
<pdfrwt beam="2">  1       21 0.44296147E-01 0.12500000E+03</pdfrwt>
<totfact> 0.55332422E+06</totfact>
</mgrwt>
</event>
<event>
 3    0  0.1666753E+001  0.1250000E+03  0.7546771E-02  0.1235069E+00
         21   -1    0    0  502  501  0.00000000000E+00  0.00000000000E+00  0.33867397606E+02  0.33867397606E+02  0.00000000000E+00 0. -1.
         21   -1    0    0  501  502 -0.00000000000E+00 -0.00000000000E+00 -0.11533953820E+03  0.11533953820E+03  0.00000000000E+00 0. -1.
         25    1    1    2    0    0  0.00000000000E+00  0.00000000000E+00 -0.81472140598E+02  0.14920693581E+03  0.12500000000E+03 0.  0.
<mgrwt>
<rscale>  2 0.12500000E+03</rscale>
<asrwt>0</asrwt>
<pdfrwt beam="1">  1       21 0.52103688E-02 0.12500000E+03</pdfrwt>
<pdfrwt beam="2">  1       21 0.17744544E-01 0.12500000E+03</pdfrwt>
<totfact> 0.70858966E+06</totfact>
</mgrwt>
</event>
<event>
 3    0  0.1368989E+001  0.1250000E+03  0.7546771E-02  0.1235069E+00
         21   -1    0    0  502  501  0.00000000000E+00  0.00000000000E+00  0.99767474299E+03  0.99767474299E+03  0.00000000000E+00 0.  1.
         21   -1    0    0  501  502 -0.00000000000E+00 -0.00000000000E+00 -0.39153542048E+01  0.39153542048E+01  0.00000000000E+00 0.  1.
         25    1    1    2    0    0  0.00000000000E+00  0.00000000000E+00  0.99375938879E+03  0.10015900972E+04  0.12500000000E+03 0.  0.
<mgrwt>
<rscale>  2 0.12500000E+03</rscale>
<asrwt>0</asrwt>
<pdfrwt beam="1">  1       21 0.15348822E+00 0.12500000E+03</pdfrwt>
<pdfrwt beam="2">  1       21 0.60236298E-03 0.12500000E+03</pdfrwt>
<totfact> 0.23579051E+06</totfact>
</mgrwt>
</event>
<event>
 3    0  0.1368989E+001  0.1250000E+03  0.7546771E-02  0.1235069E+00
         21   -1    0    0  502  501  0.00000000000E+00  0.00000000000E+00  0.54967464660E+01  0.54967464660E+01  0.00000000000E+00 0.  1.
         21   -1    0    0  501  502 -0.00000000000E+00 -0.00000000000E+00 -0.71064765751E+03  0.71064765751E+03  0.00000000000E+00 0.  1.
         25    1    1    2    0    0  0.00000000000E+00  0.00000000000E+00 -0.70515091104E+03  0.71614440397E+03  0.12500000000E+03 0.  0.
<mgrwt>
<rscale>  2 0.12500000E+03</rscale>
<asrwt>0</asrwt>
<pdfrwt beam="1">  1       21 0.84565322E-03 0.12500000E+03</pdfrwt>
<pdfrwt beam="2">  1       21 0.10933042E+00 0.12500000E+03</pdfrwt>
<totfact> 0.32296939E+06</totfact>
</mgrwt>
</event>
<event>
 3    0  0.1504643E+001  0.1250000E+03  0.7546771E-02  0.1235069E+00
         21   -1    0    0  502  501  0.00000000000E+00  0.00000000000E+00  0.87600549109E+01  0.87600549109E+01  0.00000000000E+00 0.  1.
         21   -1    0    0  501  502 -0.00000000000E+00 -0.00000000000E+00 -0.44591615460E+03  0.44591615460E+03  0.00000000000E+00 0.  1.
         25    1    1    2    0    0  0.00000000000E+00  0.00000000000E+00 -0.43715609969E+03  0.45467620951E+03  0.12500000000E+03 0.  0.
<mgrwt>
<rscale>  2 0.12500000E+03</rscale>
<asrwt>0</asrwt>
<pdfrwt beam="1">  1       21 0.13477004E-02 0.12500000E+03</pdfrwt>
<pdfrwt beam="2">  1       21 0.68602506E-01 0.12500000E+03</pdfrwt>
<totfact> 0.44613763E+06</totfact>
</mgrwt>
</event>
<event>
 3    0  0.1692615E+001  0.1250000E+03  0.7546771E-02  0.1235069E+00
         21   -1    0    0  502  501  0.00000000000E+00  0.00000000000E+00  0.34116374322E+02  0.34116374322E+02  0.00000000000E+00 0.  1.
         21   -1    0    0  501  502 -0.00000000000E+00 -0.00000000000E+00 -0.11449780575E+03  0.11449780575E+03  0.00000000000E+00 0.  1.
         25    1    1    2    0    0  0.00000000000E+00  0.00000000000E+00 -0.80381431428E+02  0.14861418007E+03  0.12500000000E+03 0.  0.
<mgrwt>
<rscale>  2 0.12500000E+03</rscale>
<asrwt>0</asrwt>
<pdfrwt beam="1">  1       21 0.52486730E-02 0.12500000E+03</pdfrwt>
<pdfrwt beam="2">  1       21 0.17615047E-01 0.12500000E+03</pdfrwt>
<totfact> 0.70933722E+06</totfact>
</mgrwt>
</event>
<event>
 3    0  0.1441124E+001  0.1250000E+03  0.7546771E-02  0.1235069E+00
         21   -1    0    0  502  501  0.00000000000E+00  0.00000000000E+00  0.50148547164E+03  0.50148547164E+03  0.00000000000E+00 0.  1.
         21   -1    0    0  501  502 -0.00000000000E+00 -0.00000000000E+00 -0.77893582585E+01  0.77893582585E+01  0.00000000000E+00 0.  1.
         25    1    1    2    0    0  0.00000000000E+00  0.00000000000E+00  0.49369611338E+03  0.50927482990E+03  0.12500000000E+03 0.  0.
<mgrwt>
<rscale>  2 0.12500000E+03</rscale>
<asrwt>0</asrwt>
<pdfrwt beam="1">  1       21 0.77151585E-01 0.12500000E+03</pdfrwt>
<pdfrwt beam="2">  1       21 0.11983632E-02 0.12500000E+03</pdfrwt>
<totfact> 0.41545510E+06</totfact>
</mgrwt>
</event>
<event>
 3    0  0.1682638E+001  0.1250000E+03  0.7546771E-02  0.1235069E+00
         21   -1    0    0  502  501  0.00000000000E+00  0.00000000000E+00  0.41481168684E+02  0.41481168684E+02  0.00000000000E+00 0. -1.
         21   -1    0    0  501  502 -0.00000000000E+00 -0.00000000000E+00 -0.94169236884E+02  0.94169236884E+02  0.00000000000E+00 0. -1.
         25    1    1    2    0    0  0.00000000000E+00  0.00000000000E+00 -0.52688068200E+02  0.13565040557E+03  0.12500000000E+03 0.  0.
<mgrwt>
<rscale>  2 0.12500000E+03</rscale>
<asrwt>0</asrwt>
<pdfrwt beam="1">  1       21 0.63817183E-02 0.12500000E+03</pdfrwt>
<pdfrwt beam="2">  1       21 0.14487575E-01 0.12500000E+03</pdfrwt>
<totfact> 0.72610469E+06</totfact>
</mgrwt>
</event>
<event>
 3    0  0.1672501E+001  0.1250000E+03  0.7546771E-02  0.1235069E+00
         21   -1    0    0  502  501  0.00000000000E+00  0.00000000000E+00  0.38028057074E+02  0.38028057074E+02  0.00000000000E+00 0. -1.
         21   -1    0    0  501  502 -0.00000000000E+00 -0.00000000000E+00 -0.10272020977E+03  0.10272020977E+03  0.00000000000E+00 0. -1.
         25    1    1    2    0    0  0.00000000000E+00  0.00000000000E+00 -0.64692152700E+02  0.14074826685E+03  0.12500000000E+03 0.  0.
<mgrwt>
<rscale>  2 0.12500000E+03</rscale>
<asrwt>0</asrwt>
<pdfrwt beam="1">  1       21 0.58504704E-02 0.12500000E+03</pdfrwt>
<pdfrwt beam="2">  1       21 0.15803109E-01 0.12500000E+03</pdfrwt>
<totfact> 0.71941774E+06</totfact>
</mgrwt>
</event>
<event>
 3    0  0.1652953E+001  0.1250000E+03  0.7546771E-02  0.1235069E+00
         21   -1    0    0  502  501  0.00000000000E+00  0.00000000000E+00  0.23939088198E+02  0.23939088198E+02  0.00000000000E+00 0.  1.
         21   -1    0    0  501  502 -0.00000000000E+00 -0.00000000000E+00 -0.16317455233E+03  0.16317455233E+03  0.00000000000E+00 0.  1.
         25    1    1    2    0    0  0.00000000000E+00  0.00000000000E+00 -0.13923546414E+03  0.18711364053E+03  0.12500000000E+03 0.  0.
<mgrwt>
<rscale>  2 0.12500000E+03</rscale>
<asrwt>0</asrwt>
<pdfrwt beam="1">  1       21 0.36829367E-02 0.12500000E+03</pdfrwt>
<pdfrwt beam="2">  1       21 0.25103777E-01 0.12500000E+03</pdfrwt>
<totfact> 0.66344702E+06</totfact>
</mgrwt>
</event>
<event>
 3    0  0.1651741E+001  0.1250000E+03  0.7546771E-02  0.1235069E+00
         21   -1    0    0  502  501  0.00000000000E+00  0.00000000000E+00  0.14467587142E+03  0.14467587142E+03  0.00000000000E+00 0. -1.
         21   -1    0    0  501  502 -0.00000000000E+00 -0.00000000000E+00 -0.27000010172E+02  0.27000010172E+02  0.00000000000E+00 0. -1.
         25    1    1    2    0    0  0.00000000000E+00  0.00000000000E+00  0.11767586125E+03  0.17167588159E+03  0.12500000000E+03 0.  0.
<mgrwt>
<rscale>  2 0.12500000E+03</rscale>
<asrwt>0</asrwt>
<pdfrwt beam="1">  1       21 0.22257826E-01 0.12500000E+03</pdfrwt>
<pdfrwt beam="2">  1       21 0.41538478E-02 0.12500000E+03</pdfrwt>
<totfact> 0.68119523E+06</totfact>
</mgrwt>
</event>
<event>
 3    0  0.1684867E+001  0.1250000E+03  0.7546771E-02  0.1235069E+00
         21   -1    0    0  502  501  0.00000000000E+00  0.00000000000E+00  0.49919192805E+02  0.49919192805E+02  0.00000000000E+00 0. -1.
         21   -1    0    0  501  502 -0.00000000000E+00 -0.00000000000E+00 -0.78251465628E+02  0.78251465628E+02  0.00000000000E+00 0. -1.
         25    1    1    2    0    0  0.00000000000E+00  0.00000000000E+00 -0.28332272823E+02  0.12817065843E+03  0.12500000000E+03 0.  0.
<mgrwt>
<rscale>  2 0.12500000E+03</rscale>
<asrwt>0</asrwt>
<pdfrwt beam="1">  1       21 0.76798758E-02 0.12500000E+03</pdfrwt>
<pdfrwt beam="2">  1       21 0.12038687E-01 0.12500000E+03</pdfrwt>
<totfact> 0.73610518E+06</totfact>
</mgrwt>
</event>
<event>
 3    0  0.1651774E+001  0.1250000E+03  0.7546771E-02  0.1235069E+00
         21   -1    0    0  502  501  0.00000000000E+00  0.00000000000E+00  0.20864690990E+02  0.20864690990E+02  0.00000000000E+00 0.  1.
         21   -1    0    0  501  502 -0.00000000000E+00 -0.00000000000E+00 -0.18721820524E+03  0.18721820524E+03  0.00000000000E+00 0.  1.
         25    1    1    2    0    0  0.00000000000E+00  0.00000000000E+00 -0.16635351425E+03  0.20808289623E+03  0.12500000000E+03 0.  0.
<mgrwt>
<rscale>  2 0.12500000E+03</rscale>
<asrwt>0</asrwt>
<pdfrwt beam="1">  1       21 0.32099524E-02 0.12500000E+03</pdfrwt>
<pdfrwt beam="2">  1       21 0.28802801E-01 0.12500000E+03</pdfrwt>
<totfact> 0.64061802E+06</totfact>
</mgrwt>
</event>
<event>
 3    0  0.1671302E+001  0.1250000E+03  0.7546771E-02  0.1235069E+00
         21   -1    0    0  502  501  0.00000000000E+00  0.00000000000E+00  0.16571416562E+03  0.16571416562E+03  0.00000000000E+00 0.  1.
         21   -1    0    0  501  502 -0.00000000000E+00 -0.00000000000E+00 -0.23572215358E+02  0.23572215358E+02  0.00000000000E+00 0.  1.
         25    1    1    2    0    0  0.00000000000E+00  0.00000000000E+00  0.14214195026E+03  0.18928638098E+03  0.12500000000E+03 0.  0.
<mgrwt>
<rscale>  2 0.12500000E+03</rscale>
<asrwt>0</asrwt>
<pdfrwt beam="1">  1       21 0.25494486E-01 0.12500000E+03</pdfrwt>
<pdfrwt beam="2">  1       21 0.36264948E-02 0.12500000E+03</pdfrwt>
<totfact> 0.66101864E+06</totfact>
</mgrwt>
</event>
<event>
 3    0  0.1701599E+001  0.1250000E+03  0.7546771E-02  0.1235069E+00
         21   -1    0    0  502  501  0.00000000000E+00  0.00000000000E+00  0.42229999772E+02  0.42229999772E+02  0.00000000000E+00 0.  1.
         21   -1    0    0  501  502 -0.00000000000E+00 -0.00000000000E+00 -0.92499408502E+02  0.92499408502E+02  0.00000000000E+00 0.  1.
         25    1    1    2    0    0  0.00000000000E+00  0.00000000000E+00 -0.50269408730E+02  0.13472940827E+03  0.12500000000E+03 0.  0.
<mgrwt>
<rscale>  2 0.12500000E+03</rscale>
<asrwt>0</asrwt>
<pdfrwt beam="1">  1       21 0.64969231E-02 0.12500000E+03</pdfrwt>
<pdfrwt beam="2">  1       21 0.14230678E-01 0.12500000E+03</pdfrwt>
<totfact> 0.72732320E+06</totfact>
</mgrwt>
</event>
<event>
 3    0  0.1588559E+001  0.1250000E+03  0.7546771E-02  0.1235069E+00
         21   -1    0    0  502  501  0.00000000000E+00  0.00000000000E+00  0.27480735248E+03  0.27480735248E+03  0.00000000000E+00 0.  1.
         21   -1    0    0  501  502 -0.00000000000E+00 -0.00000000000E+00 -0.14214503232E+02  0.14214503232E+02  0.00000000000E+00 0.  1.
         25    1    1    2    0    0  0.00000000000E+00  0.00000000000E+00  0.26059284925E+03  0.28902185571E+03  0.12500000000E+03 0.  0.
<mgrwt>
<rscale>  2 0.12500000E+03</rscale>
<asrwt>0</asrwt>
<pdfrwt beam="1">  1       21 0.42278050E-01 0.12500000E+03</pdfrwt>
<pdfrwt beam="2">  1       21 0.21868469E-02 0.12500000E+03</pdfrwt>
<totfact> 0.56381023E+06</totfact>
</mgrwt>
</event>
<event>
 3    0  0.1647207E+001  0.1250000E+03  0.7546771E-02  0.1235069E+00
         21   -1    0    0  502  501  0.00000000000E+00  0.00000000000E+00  0.14965903057E+03  0.14965903057E+03  0.00000000000E+00 0. -1.
         21   -1    0    0  501  502 -0.00000000000E+00 -0.00000000000E+00 -0.26100997615E+02  0.26100997615E+02  0.00000000000E+00 0. -1.
         25    1    1    2    0    0  0.00000000000E+00  0.00000000000E+00  0.12355803295E+03  0.17576002818E+03  0.12500000000E+03 0.  0.
<mgrwt>
<rscale>  2 0.12500000E+03</rscale>
<asrwt>0</asrwt>
<pdfrwt beam="1">  1       21 0.23024466E-01 0.12500000E+03</pdfrwt>
<pdfrwt beam="2">  1       21 0.40155382E-02 0.12500000E+03</pdfrwt>
<totfact> 0.67641293E+06</totfact>
</mgrwt>
</event>
<event>
 3    0  0.1705988E+001  0.1250000E+03  0.7546771E-02  0.1235069E+00
         21   -1    0    0  502  501  0.00000000000E+00  0.00000000000E+00  0.45635138793E+02  0.45635138793E+02  0.00000000000E+00 0.  1.
         21   -1    0    0  501  502 -0.00000000000E+00 -0.00000000000E+00 -0.85597416889E+02  0.85597416889E+02  0.00000000000E+00 0.  1.
         25    1    1    2    0    0  0.00000000000E+00  0.00000000000E+00 -0.39962278096E+02  0.13123255568E+03  0.12500000000E+03 0.  0.
<mgrwt>
<rscale>  2 0.12500000E+03</rscale>
<asrwt>0</asrwt>
<pdfrwt beam="1">  1       21 0.70207907E-02 0.12500000E+03</pdfrwt>
<pdfrwt beam="2">  1       21 0.13168833E-01 0.12500000E+03</pdfrwt>
<totfact> 0.73199350E+06</totfact>
</mgrwt>
</event>
<event>
 3    0  0.1677043E+001  0.1250000E+03  0.7546771E-02  0.1235069E+00
         21   -1    0    0  502  501  0.00000000000E+00  0.00000000000E+00  0.13493411003E+03  0.13493411003E+03  0.00000000000E+00 0.  1.
         21   -1    0    0  501  502 -0.00000000000E+00 -0.00000000000E+00 -0.28949314589E+02  0.28949314589E+02  0.00000000000E+00 0.  1.
         25    1    1    2    0    0  0.00000000000E+00  0.00000000000E+00  0.10598479544E+03  0.16388342462E+03  0.12500000000E+03 0.  0.
<mgrwt>
<rscale>  2 0.12500000E+03</rscale>
<asrwt>0</asrwt>
<pdfrwt beam="1">  1       21 0.20759093E-01 0.12500000E+03</pdfrwt>
<pdfrwt beam="2">  1       21 0.44537408E-02 0.12500000E+03</pdfrwt>
<totfact> 0.69048070E+06</totfact>
</mgrwt>
</event>
<event>
 3    0  0.1368989E+001  0.1250000E+03  0.7546771E-02  0.1235069E+00
         21   -1    0    0  502  501  0.00000000000E+00  0.00000000000E+00  0.36397217140E+01  0.36397217140E+01  0.00000000000E+00 0. -1.
         21   -1    0    0  501  502 -0.00000000000E+00 -0.00000000000E+00 -0.10732276550E+04  0.10732276550E+04  0.00000000000E+00 0. -1.
         25    1    1    2    0    0  0.00000000000E+00  0.00000000000E+00 -0.10695879333E+04  0.10768673767E+04  0.12500000000E+03 0.  0.
<mgrwt>
<rscale>  2 0.12500000E+03</rscale>
<asrwt>0</asrwt>
<pdfrwt beam="1">  1       21 0.55995739E-03 0.12500000E+03</pdfrwt>
<pdfrwt beam="2">  1       21 0.16511189E+00 0.12500000E+03</pdfrwt>
<totfact> 0.21773354E+06</totfact>
</mgrwt>
</event>
<event>
 3    0  0.1706719E+001  0.1250000E+03  0.7546771E-02  0.1235069E+00
         21   -1    0    0  502  501  0.00000000000E+00  0.00000000000E+00  0.41423920638E+02  0.41423920638E+02  0.00000000000E+00 0.  1.
         21   -1    0    0  501  502 -0.00000000000E+00 -0.00000000000E+00 -0.94299379196E+02  0.94299379196E+02  0.00000000000E+00 0.  1.
         25    1    1    2    0    0  0.00000000000E+00  0.00000000000E+00 -0.52875458558E+02  0.13572329983E+03  0.12500000000E+03 0.  0.
<mgrwt>
<rscale>  2 0.12500000E+03</rscale>
<asrwt>0</asrwt>
<pdfrwt beam="1">  1       21 0.63729110E-02 0.12500000E+03</pdfrwt>
<pdfrwt beam="2">  1       21 0.14507597E-01 0.12500000E+03</pdfrwt>
<totfact> 0.72600844E+06</totfact>
</mgrwt>
</event>
<event>
 3    0  0.1625294E+001  0.1250000E+03  0.7546771E-02  0.1235069E+00
         21   -1    0    0  502  501  0.00000000000E+00  0.00000000000E+00  0.22487183109E+03  0.22487183109E+03  0.00000000000E+00 0.  1.
         21   -1    0    0  501  502 -0.00000000000E+00 -0.00000000000E+00 -0.17371006324E+02  0.17371006324E+02  0.00000000000E+00 0.  1.
         25    1    1    2    0    0  0.00000000000E+00  0.00000000000E+00  0.20750082477E+03  0.24224283742E+03  0.12500000000E+03 0.  0.
<mgrwt>
<rscale>  2 0.12500000E+03</rscale>
<asrwt>0</asrwt>
<pdfrwt beam="1">  1       21 0.34595664E-01 0.12500000E+03</pdfrwt>
<pdfrwt beam="2">  1       21 0.26724627E-02 0.12500000E+03</pdfrwt>
<totfact> 0.60616302E+06</totfact>
</mgrwt>
</event>
<event>
 3    0  0.1536489E+001  0.1250000E+03  0.7546771E-02  0.1235069E+00
         21   -1    0    0  502  501  0.00000000000E+00  0.00000000000E+00  0.11775813660E+02  0.11775813660E+02  0.00000000000E+00 0. -1.
         21   -1    0    0  501  502 -0.00000000000E+00 -0.00000000000E+00 -0.33171805473E+03  0.33171805473E+03  0.00000000000E+00 0. -1.
         25    1    1    2    0    0  0.00000000000E+00  0.00000000000E+00 -0.31994224107E+03  0.34349386839E+03  0.12500000000E+03 0.  0.
<mgrwt>
<rscale>  2 0.12500000E+03</rscale>
<asrwt>0</asrwt>
<pdfrwt beam="1">  1       21 0.18116638E-02 0.12500000E+03</pdfrwt>
<pdfrwt beam="2">  1       21 0.51033541E-01 0.12500000E+03</pdfrwt>
<totfact> 0.52022549E+06</totfact>
</mgrwt>
</event>
<event>
 3    0  0.1493730E+001  0.1250000E+03  0.7546771E-02  0.1235069E+00
         21   -1    0    0  502  501  0.00000000000E+00  0.00000000000E+00  0.44127131285E+03  0.44127131285E+03  0.00000000000E+00 0. -1.
         21   -1    0    0  501  502 -0.00000000000E+00 -0.00000000000E+00 -0.88522636443E+01  0.88522636443E+01  0.00000000000E+00 0. -1.
         25    1    1    2    0    0  0.00000000000E+00  0.00000000000E+00  0.43241904921E+03  0.45012357649E+03  0.12500000000E+03 0.  0.
<mgrwt>
<rscale>  2 0.12500000E+03</rscale>
<asrwt>0</asrwt>
<pdfrwt beam="1">  1       21 0.67887877E-01 0.12500000E+03</pdfrwt>
<pdfrwt beam="2">  1       21 0.13618871E-02 0.12500000E+03</pdfrwt>
<totfact> 0.44884882E+06</totfact>
</mgrwt>
</event>
<event>
 3    0  0.1368989E+001  0.1250000E+03  0.7546771E-02  0.1235069E+00
         21   -1    0    0  502  501  0.00000000000E+00  0.00000000000E+00  0.46077421615E+01  0.46077421615E+01  0.00000000000E+00 0.  1.
         21   -1    0    0  501  502 -0.00000000000E+00 -0.00000000000E+00 -0.84775793937E+03  0.84775793937E+03  0.00000000000E+00 0.  1.
         25    1    1    2    0    0  0.00000000000E+00  0.00000000000E+00 -0.84315019721E+03  0.85236568153E+03  0.12500000000E+03 0.  0.
<mgrwt>
<rscale>  2 0.12500000E+03</rscale>
<asrwt>0</asrwt>
<pdfrwt beam="1">  1       21 0.70888384E-03 0.12500000E+03</pdfrwt>
<pdfrwt beam="2">  1       21 0.13042422E+00 0.12500000E+03</pdfrwt>
<totfact> 0.27699601E+06</totfact>
</mgrwt>
</event>
<event>
 3    0  0.1566251E+001  0.1250000E+03  0.7546771E-02  0.1235069E+00
         21   -1    0    0  502  501  0.00000000000E+00  0.00000000000E+00  0.30786977062E+03  0.30786977062E+03  0.00000000000E+00 0. -1.
         21   -1    0    0  501  502 -0.00000000000E+00 -0.00000000000E+00 -0.12687994642E+02  0.12687994642E+02  0.00000000000E+00 0. -1.
         25    1    1    2    0    0  0.00000000000E+00  0.00000000000E+00  0.29518177598E+03  0.32055776527E+03  0.12500000000E+03 0.  0.
<mgrwt>
<rscale>  2 0.12500000E+03</rscale>
<asrwt>0</asrwt>
<pdfrwt beam="1">  1       21 0.47364575E-01 0.12500000E+03</pdfrwt>
<pdfrwt beam="2">  1       21 0.19519994E-02 0.12500000E+03</pdfrwt>
<totfact> 0.53789175E+06</totfact>
</mgrwt>
</event>
<event>
 3    0  0.1711800E+001  0.1250000E+03  0.7546771E-02  0.1235069E+00
         21   -1    0    0  502  501  0.00000000000E+00  0.00000000000E+00  0.54156471200E+02  0.54156471200E+02  0.00000000000E+00 0.  1.
         21   -1    0    0  501  502 -0.00000000000E+00 -0.00000000000E+00 -0.72128961017E+02  0.72128961017E+02  0.00000000000E+00 0.  1.
         25    1    1    2    0    0  0.00000000000E+00  0.00000000000E+00 -0.17972489817E+02  0.12628543222E+03  0.12500000000E+03 0.  0.
<mgrwt>
<rscale>  2 0.12500000E+03</rscale>
<asrwt>0</asrwt>
<pdfrwt beam="1">  1       21 0.83317648E-02 0.12500000E+03</pdfrwt>
<pdfrwt beam="2">  1       21 0.11096763E-01 0.12500000E+03</pdfrwt>
<totfact> 0.73866778E+06</totfact>
</mgrwt>
</event>
<event>
 3    0  0.1703463E+001  0.1250000E+03  0.7546771E-02  0.1235069E+00
         21   -1    0    0  502  501  0.00000000000E+00  0.00000000000E+00  0.87698751941E+02  0.87698751941E+02  0.00000000000E+00 0.  1.
         21   -1    0    0  501  502 -0.00000000000E+00 -0.00000000000E+00 -0.44541682904E+02  0.44541682904E+02  0.00000000000E+00 0.  1.
         25    1    1    2    0    0  0.00000000000E+00  0.00000000000E+00  0.43157069038E+02  0.13224043484E+03  0.12500000000E+03 0.  0.
<mgrwt>
<rscale>  2 0.12500000E+03</rscale>
<asrwt>0</asrwt>
<pdfrwt beam="1">  1       21 0.13492116E-01 0.12500000E+03</pdfrwt>
<pdfrwt beam="2">  1       21 0.68525666E-02 0.12500000E+03</pdfrwt>
<totfact> 0.73063996E+06</totfact>
</mgrwt>
</event>
<event>
 3    0  0.1368989E+001  0.1250000E+03  0.7546771E-02  0.1235069E+00
         21   -1    0    0  502  501  0.00000000000E+00  0.00000000000E+00  0.40812329392E+01  0.40812329392E+01  0.00000000000E+00 0.  1.
         21   -1    0    0  501  502 -0.00000000000E+00 -0.00000000000E+00 -0.95712498114E+03  0.95712498114E+03  0.00000000000E+00 0.  1.
         25    1    1    2    0    0  0.00000000000E+00  0.00000000000E+00 -0.95304374820E+03  0.96120621408E+03  0.12500000000E+03 0.  0.
<mgrwt>
<rscale>  2 0.12500000E+03</rscale>
<asrwt>0</asrwt>
<pdfrwt beam="1">  1       21 0.62788135E-03 0.12500000E+03</pdfrwt>
<pdfrwt beam="2">  1       21 0.14725015E+00 0.12500000E+03</pdfrwt>
<totfact> 0.24613728E+06</totfact>
</mgrwt>
</event>
<event>
 3    0  0.1368989E+001  0.1250000E+03  0.7546771E-02  0.1235069E+00
         21   -1    0    0  502  501  0.00000000000E+00  0.00000000000E+00  0.55627390089E+01  0.55627390089E+01  0.00000000000E+00 0.  1.
         21   -1    0    0  501  502 -0.00000000000E+00 -0.00000000000E+00 -0.70221701823E+03  0.70221701823E+03  0.00000000000E+00 0.  1.
         25    1    1    2    0    0  0.00000000000E+00  0.00000000000E+00 -0.69665427922E+03  0.70777975724E+03  0.12500000000E+03 0.  0.
<mgrwt>
<rscale>  2 0.12500000E+03</rscale>
<asrwt>0</asrwt>
<pdfrwt beam="1">  1       21 0.85580606E-03 0.12500000E+03</pdfrwt>
<pdfrwt beam="2">  1       21 0.10803338E+00 0.12500000E+03</pdfrwt>
<totfact> 0.32612356E+06</totfact>
</mgrwt>
</event>
<event>
 3    0  0.1689717E+001  0.1250000E+03  0.7546771E-02  0.1235069E+00
         21   -1    0    0  502  501  0.00000000000E+00  0.00000000000E+00  0.32446179188E+02  0.32446179188E+02  0.00000000000E+00 0.  1.
         21   -1    0    0  501  502 -0.00000000000E+00 -0.00000000000E+00 -0.12039167932E+03  0.12039167932E+03  0.00000000000E+00 0.  1.
         25    1    1    2    0    0  0.00000000000E+00  0.00000000000E+00 -0.87945500132E+02  0.15283785851E+03  0.12500000000E+03 0.  0.
<mgrwt>
<rscale>  2 0.12500000E+03</rscale>
<asrwt>0</asrwt>
<pdfrwt beam="1">  1       21 0.49917200E-02 0.12500000E+03</pdfrwt>
<pdfrwt beam="2">  1       21 0.18521796E-01 0.12500000E+03</pdfrwt>
<totfact> 0.70404508E+06</totfact>
</mgrwt>
</event>
<event>
 3    0  0.1368989E+001  0.1250000E+03  0.7546771E-02  0.1235069E+00
         21   -1    0    0  502  501  0.00000000000E+00  0.00000000000E+00  0.65305029947E+01  0.65305029947E+01  0.00000000000E+00 0. -1.
         21   -1    0    0  501  502 -0.00000000000E+00 -0.00000000000E+00 -0.59815453774E+03  0.59815453774E+03  0.00000000000E+00 0. -1.
         25    1    1    2    0    0  0.00000000000E+00  0.00000000000E+00 -0.59162403475E+03  0.60468504074E+03  0.12500000000E+03 0.  0.
<mgrwt>
<rscale>  2 0.12500000E+03</rscale>
<asrwt>0</asrwt>
<pdfrwt beam="1">  1       21 0.10046927E-02 0.12500000E+03</pdfrwt>
<pdfrwt beam="2">  1       21 0.92023783E-01 0.12500000E+03</pdfrwt>
<totfact> 0.36881607E+06</totfact>
</mgrwt>
</event>
<event>
 3    0  0.1459478E+001  0.1250000E+03  0.7546771E-02  0.1235069E+00
         21   -1    0    0  502  501  0.00000000000E+00  0.00000000000E+00  0.45912471791E+03  0.45912471791E+03  0.00000000000E+00 0. -1.
         21   -1    0    0  501  502 -0.00000000000E+00 -0.00000000000E+00 -0.85080368093E+01  0.85080368093E+01  0.00000000000E+00 0. -1.
         25    1    1    2    0    0  0.00000000000E+00  0.00000000000E+00  0.45061668110E+03  0.46763275472E+03  0.12500000000E+03 0.  0.
<mgrwt>
<rscale>  2 0.12500000E+03</rscale>
<asrwt>0</asrwt>
<pdfrwt beam="1">  1       21 0.70634552E-01 0.12500000E+03</pdfrwt>
<pdfrwt beam="2">  1       21 0.13089291E-02 0.12500000E+03</pdfrwt>
<totfact> 0.43855631E+06</totfact>
</mgrwt>
</event>
<event>
 3    0  0.1643992E+001  0.1250000E+03  0.7546771E-02  0.1235069E+00
         21   -1    0    0  502  501  0.00000000000E+00  0.00000000000E+00  0.15103372398E+03  0.15103372398E+03  0.00000000000E+00 0. -1.
         21   -1    0    0  501  502 -0.00000000000E+00 -0.00000000000E+00 -0.25863429021E+02  0.25863429021E+02  0.00000000000E+00 0. -1.
         25    1    1    2    0    0  0.00000000000E+00  0.00000000000E+00  0.12517029496E+03  0.17689715300E+03  0.12500000000E+03 0.  0.
<mgrwt>
<rscale>  2 0.12500000E+03</rscale>
<asrwt>0</asrwt>
<pdfrwt beam="1">  1       21 0.23235957E-01 0.12500000E+03</pdfrwt>
<pdfrwt beam="2">  1       21 0.39789892E-02 0.12500000E+03</pdfrwt>
<totfact> 0.67509280E+06</totfact>
</mgrwt>
</event>
<event>
 3    0  0.1698943E+001  0.1250000E+03  0.7546771E-02  0.1235069E+00
         21   -1    0    0  502  501  0.00000000000E+00  0.00000000000E+00  0.37265034068E+02  0.37265034068E+02  0.00000000000E+00 0.  1.
         21   -1    0    0  501  502 -0.00000000000E+00 -0.00000000000E+00 -0.10482346515E+03  0.10482346515E+03  0.00000000000E+00 0.  1.
         25    1    1    2    0    0  0.00000000000E+00  0.00000000000E+00 -0.67558431085E+02  0.14208849922E+03  0.12500000000E+03 0.  0.
<mgrwt>
<rscale>  2 0.12500000E+03</rscale>
<asrwt>0</asrwt>
<pdfrwt beam="1">  1       21 0.57330821E-02 0.12500000E+03</pdfrwt>
<pdfrwt beam="2">  1       21 0.16126687E-01 0.12500000E+03</pdfrwt>
<totfact> 0.71767818E+06</totfact>
</mgrwt>
</event>
<event>
 3    0  0.1685480E+001  0.1250000E+03  0.7546771E-02  0.1235069E+00
         21   -1    0    0  502  501  0.00000000000E+00  0.00000000000E+00  0.77660529226E+02  0.77660529226E+02  0.00000000000E+00 0. -1.
         21   -1    0    0  501  502 -0.00000000000E+00 -0.00000000000E+00 -0.50299039151E+02  0.50299039151E+02  0.00000000000E+00 0. -1.
         25    1    1    2    0    0  0.00000000000E+00  0.00000000000E+00  0.27361490075E+02  0.12795956838E+03  0.12500000000E+03 0.  0.
<mgrwt>
<rscale>  2 0.12500000E+03</rscale>
<asrwt>0</asrwt>
<pdfrwt beam="1">  1       21 0.11947774E-01 0.12500000E+03</pdfrwt>
<pdfrwt beam="2">  1       21 0.77383137E-02 0.12500000E+03</pdfrwt>
<totfact> 0.73639022E+06</totfact>
</mgrwt>
</event>
<event>
 3    0  0.1710761E+001  0.1250000E+03  0.7546771E-02  0.1235069E+00
         21   -1    0    0  502  501  0.00000000000E+00  0.00000000000E+00  0.73174195893E+02  0.73174195893E+02  0.00000000000E+00 0.  1.
         21   -1    0    0  501  502 -0.00000000000E+00 -0.00000000000E+00 -0.53382889314E+02  0.53382889314E+02  0.00000000000E+00 0.  1.
         25    1    1    2    0    0  0.00000000000E+00  0.00000000000E+00  0.19791306579E+02  0.12655708521E+03  0.12500000000E+03 0.  0.
<mgrwt>
<rscale>  2 0.12500000E+03</rscale>
<asrwt>0</asrwt>
<pdfrwt beam="1">  1       21 0.11257569E-01 0.12500000E+03</pdfrwt>
<pdfrwt beam="2">  1       21 0.82127522E-02 0.12500000E+03</pdfrwt>
<totfact> 0.73829564E+06</totfact>
</mgrwt>
</event>
<event>
 3    0  0.1636983E+001  0.1250000E+03  0.7546771E-02  0.1235069E+00
         21   -1    0    0  502  501  0.00000000000E+00  0.00000000000E+00  0.22170476105E+02  0.22170476105E+02  0.00000000000E+00 0. -1.
         21   -1    0    0  501  502 -0.00000000000E+00 -0.00000000000E+00 -0.17619152523E+03  0.17619152523E+03  0.00000000000E+00 0. -1.
         25    1    1    2    0    0  0.00000000000E+00  0.00000000000E+00 -0.15402104913E+03  0.19836200134E+03  0.12500000000E+03 0.  0.
<mgrwt>
<rscale>  2 0.12500000E+03</rscale>
<asrwt>0</asrwt>
<pdfrwt beam="1">  1       21 0.34108425E-02 0.12500000E+03</pdfrwt>
<pdfrwt beam="2">  1       21 0.27106389E-01 0.12500000E+03</pdfrwt>
<totfact> 0.65104927E+06</totfact>
</mgrwt>
</event>
<event>
 3    0  0.1654517E+001  0.1250000E+03  0.7546771E-02  0.1235069E+00
         21   -1    0    0  502  501  0.00000000000E+00  0.00000000000E+00  0.14348126769E+03  0.14348126769E+03  0.00000000000E+00 0. -1.
         21   -1    0    0  501  502 -0.00000000000E+00 -0.00000000000E+00 -0.27224808247E+02  0.27224808247E+02  0.00000000000E+00 0. -1.
         25    1    1    2    0    0  0.00000000000E+00  0.00000000000E+00  0.11625645944E+03  0.17070607594E+03  0.12500000000E+03 0.  0.
<mgrwt>
<rscale>  2 0.12500000E+03</rscale>
<asrwt>0</asrwt>
<pdfrwt beam="1">  1       21 0.22074041E-01 0.12500000E+03</pdfrwt>
<pdfrwt beam="2">  1       21 0.41884321E-02 0.12500000E+03</pdfrwt>
<totfact> 0.68234033E+06</totfact>
</mgrwt>
</event>
<event>
 3    0  0.1709021E+001  0.1250000E+03  0.7546771E-02  0.1235069E+00
         21   -1    0    0  502  501  0.00000000000E+00  0.00000000000E+00  0.51902526096E+02  0.51902526096E+02  0.00000000000E+00 0.  1.
         21   -1    0    0  501  502 -0.00000000000E+00 -0.00000000000E+00 -0.75261269418E+02  0.75261269418E+02  0.00000000000E+00 0.  1.
         25    1    1    2    0    0  0.00000000000E+00  0.00000000000E+00 -0.23358743321E+02  0.12716379551E+03  0.12500000000E+03 0.  0.
<mgrwt>
<rscale>  2 0.12500000E+03</rscale>
<asrwt>0</asrwt>
<pdfrwt beam="1">  1       21 0.79850041E-02 0.12500000E+03</pdfrwt>
<pdfrwt beam="2">  1       21 0.11578657E-01 0.12500000E+03</pdfrwt>
<totfact> 0.73746855E+06</totfact>
</mgrwt>
</event>
<event>
 3    0  0.1712401E+001  0.1250000E+03  0.7546771E-02  0.1235069E+00
         21   -1    0    0  502  501  0.00000000000E+00  0.00000000000E+00  0.61047584257E+02  0.61047584257E+02  0.00000000000E+00 0.  1.
         21   -1    0    0  501  502 -0.00000000000E+00 -0.00000000000E+00 -0.63986970943E+02  0.63986970943E+02  0.00000000000E+00 0.  1.
         25    1    1    2    0    0  0.00000000000E+00  0.00000000000E+00 -0.29393866860E+01  0.12503455520E+03  0.12500000000E+03 0.  0.
<mgrwt>
<rscale>  2 0.12500000E+03</rscale>
<asrwt>0</asrwt>
<pdfrwt beam="1">  1       21 0.93919360E-02 0.12500000E+03</pdfrwt>
<pdfrwt beam="2">  1       21 0.98441494E-02 0.12500000E+03</pdfrwt>
<totfact> 0.74038914E+06</totfact>
</mgrwt>
</event>
<event>
 3    0  0.1368989E+001  0.1250000E+03  0.7546771E-02  0.1235069E+00
         21   -1    0    0  502  501  0.00000000000E+00  0.00000000000E+00  0.50979958248E+01  0.50979958248E+01  0.00000000000E+00 0.  1.
         21   -1    0    0  501  502 -0.00000000000E+00 -0.00000000000E+00 -0.76623248317E+03  0.76623248317E+03  0.00000000000E+00 0.  1.
         25    1    1    2    0    0  0.00000000000E+00  0.00000000000E+00 -0.76113448734E+03  0.77133047899E+03  0.12500000000E+03 0.  0.
<mgrwt>
<rscale>  2 0.12500000E+03</rscale>
<asrwt>0</asrwt>
<pdfrwt beam="1">  1       21 0.78430667E-03 0.12500000E+03</pdfrwt>
<pdfrwt beam="2">  1       21 0.11788198E+00 0.12500000E+03</pdfrwt>
<totfact> 0.30332415E+06</totfact>
</mgrwt>
</event>
<event>
 3    0  0.1551058E+001  0.1250000E+03  0.7546771E-02  0.1235069E+00
         21   -1    0    0  502  501  0.00000000000E+00  0.00000000000E+00  0.28146608702E+03  0.28146608702E+03  0.00000000000E+00 0. -1.
         21   -1    0    0  501  502 -0.00000000000E+00 -0.00000000000E+00 -0.13878226117E+02  0.13878226117E+02  0.00000000000E+00 0. -1.
         25    1    1    2    0    0  0.00000000000E+00  0.00000000000E+00  0.26758786091E+03  0.29534431314E+03  0.12500000000E+03 0.  0.
<mgrwt>
<rscale>  2 0.12500000E+03</rscale>
<asrwt>0</asrwt>
<pdfrwt beam="1">  1       21 0.43302471E-01 0.12500000E+03</pdfrwt>
<pdfrwt beam="2">  1       21 0.21351119E-02 0.12500000E+03</pdfrwt>
<totfact> 0.55845314E+06</totfact>
</mgrwt>
</event>
<event>
 3    0  0.1494150E+001  0.1250000E+03  0.7546771E-02  0.1235069E+00
         21   -1    0    0  502  501  0.00000000000E+00  0.00000000000E+00  0.94476031296E+01  0.94476031296E+01  0.00000000000E+00 0. -1.
         21   -1    0    0  501  502 -0.00000000000E+00 -0.00000000000E+00 -0.41346465833E+03  0.41346465833E+03  0.00000000000E+00 0. -1.
         25    1    1    2    0    0  0.00000000000E+00  0.00000000000E+00 -0.40401705520E+03  0.42291226146E+03  0.12500000000E+03 0.  0.
<mgrwt>
<rscale>  2 0.12500000E+03</rscale>
<asrwt>0</asrwt>
<pdfrwt beam="1">  1       21 0.14534770E-02 0.12500000E+03</pdfrwt>
<pdfrwt beam="2">  1       21 0.63609964E-01 0.12500000E+03</pdfrwt>
<totfact> 0.46557826E+06</totfact>
</mgrwt>
</event>
<event>
 3    0  0.1615670E+001  0.1250000E+03  0.7546771E-02  0.1235069E+00
         21   -1    0    0  502  501  0.00000000000E+00  0.00000000000E+00  0.20225038422E+03  0.20225038422E+03  0.00000000000E+00 0. -1.
         21   -1    0    0  501  502 -0.00000000000E+00 -0.00000000000E+00 -0.19313931171E+02  0.19313931171E+02  0.00000000000E+00 0. -1.
         25    1    1    2    0    0  0.00000000000E+00  0.00000000000E+00  0.18293645305E+03  0.22156431539E+03  0.12500000000E+03 0.  0.
<mgrwt>
<rscale>  2 0.12500000E+03</rscale>
<asrwt>0</asrwt>
<pdfrwt beam="1">  1       21 0.31115442E-01 0.12500000E+03</pdfrwt>
<pdfrwt beam="2">  1       21 0.29713742E-02 0.12500000E+03</pdfrwt>
<totfact> 0.62662999E+06</totfact>
</mgrwt>
</event>
<event>
 3    0  0.1707403E+001  0.1250000E+03  0.7546771E-02  0.1235069E+00
         21   -1    0    0  502  501  0.00000000000E+00  0.00000000000E+00  0.46162748773E+02  0.46162748773E+02  0.00000000000E+00 0.  1.
         21   -1    0    0  501  502 -0.00000000000E+00 -0.00000000000E+00 -0.84619094482E+02  0.84619094482E+02  0.00000000000E+00 0.  1.
         25    1    1    2    0    0  0.00000000000E+00  0.00000000000E+00 -0.38456345709E+02  0.13078184326E+03  0.12500000000E+03 0.  0.
<mgrwt>
<rscale>  2 0.12500000E+03</rscale>
<asrwt>0</asrwt>
<pdfrwt beam="1">  1       21 0.71019614E-02 0.12500000E+03</pdfrwt>
<pdfrwt beam="2">  1       21 0.13018322E-01 0.12500000E+03</pdfrwt>
<totfact> 0.73260085E+06</totfact>
</mgrwt>
</event>
<event>
 3    0  0.1546284E+001  0.1250000E+03  0.7546771E-02  0.1235069E+00
         21   -1    0    0  502  501  0.00000000000E+00  0.00000000000E+00  0.31699019857E+03  0.31699019857E+03  0.00000000000E+00 0. -1.
         21   -1    0    0  501  502 -0.00000000000E+00 -0.00000000000E+00 -0.12322936222E+02  0.12322936222E+02  0.00000000000E+00 0. -1.
         25    1    1    2    0    0  0.00000000000E+00  0.00000000000E+00  0.30466726234E+03  0.32931313479E+03  0.12500000000E+03 0.  0.
<mgrwt>
<rscale>  2 0.12500000E+03</rscale>
<asrwt>0</asrwt>
<pdfrwt beam="1">  1       21 0.48767717E-01 0.12500000E+03</pdfrwt>
<pdfrwt beam="2">  1       21 0.18958366E-02 0.12500000E+03</pdfrwt>
<totfact> 0.53103482E+06</totfact>
</mgrwt>
</event>
<event>
 3    0  0.1368989E+001  0.1250000E+03  0.7546771E-02  0.1235069E+00
         21   -1    0    0  502  501  0.00000000000E+00  0.00000000000E+00  0.46452059167E+01  0.46452059167E+01  0.00000000000E+00 0.  1.
         21   -1    0    0  501  502 -0.00000000000E+00 -0.00000000000E+00 -0.84092074066E+03  0.84092074066E+03  0.00000000000E+00 0.  1.
         25    1    1    2    0    0  0.00000000000E+00  0.00000000000E+00 -0.83627553475E+03  0.84556594658E+03  0.12500000000E+03 0.  0.
<mgrwt>
<rscale>  2 0.12500000E+03</rscale>
<asrwt>0</asrwt>
<pdfrwt beam="1">  1       21 0.71464635E-03 0.12500000E+03</pdfrwt>
<pdfrwt beam="2">  1       21 0.12937255E+00 0.12500000E+03</pdfrwt>
<totfact> 0.27907635E+06</totfact>
</mgrwt>
</event>
<event>
 3    0  0.1688134E+001  0.1250000E+03  0.7546771E-02  0.1235069E+00
         21   -1    0    0  502  501  0.00000000000E+00  0.00000000000E+00  0.59759798662E+02  0.59759798662E+02  0.00000000000E+00 0. -1.
         21   -1    0    0  501  502 -0.00000000000E+00 -0.00000000000E+00 -0.65365849408E+02  0.65365849408E+02  0.00000000000E+00 0. -1.
         25    1    1    2    0    0  0.00000000000E+00  0.00000000000E+00 -0.56060507468E+01  0.12512564807E+03  0.12500000000E+03 0.  0.
<mgrwt>
<rscale>  2 0.12500000E+03</rscale>
<asrwt>0</asrwt>
<pdfrwt beam="1">  1       21 0.91938152E-02 0.12500000E+03</pdfrwt>
<pdfrwt beam="2">  1       21 0.10056285E-01 0.12500000E+03</pdfrwt>
<totfact> 0.74026612E+06</totfact>
</mgrwt>
</event>
<event>
 3    0  0.1651112E+001  0.1250000E+03  0.7546771E-02  0.1235069E+00
         21   -1    0    0  502  501  0.00000000000E+00  0.00000000000E+00  0.18741146131E+03  0.18741146131E+03  0.00000000000E+00 0.  1.
         21   -1    0    0  501  502 -0.00000000000E+00 -0.00000000000E+00 -0.20843175613E+02  0.20843175613E+02  0.00000000000E+00 0.  1.
         25    1    1    2    0    0  0.00000000000E+00  0.00000000000E+00  0.16656828570E+03  0.20825463692E+03  0.12500000000E+03 0.  0.
<mgrwt>
<rscale>  2 0.12500000E+03</rscale>
<asrwt>0</asrwt>
<pdfrwt beam="1">  1       21 0.28832531E-01 0.12500000E+03</pdfrwt>
<pdfrwt beam="2">  1       21 0.32066425E-02 0.12500000E+03</pdfrwt>
<totfact> 0.64043637E+06</totfact>
</mgrwt>
</event>
<event>
 3    0  0.1687796E+001  0.1250000E+03  0.7546771E-02  0.1235069E+00
         21   -1    0    0  502  501  0.00000000000E+00  0.00000000000E+00  0.58780257439E+02  0.58780257439E+02  0.00000000000E+00 0. -1.
         21   -1    0    0  501  502 -0.00000000000E+00 -0.00000000000E+00 -0.66455135962E+02  0.66455135962E+02  0.00000000000E+00 0. -1.
         25    1    1    2    0    0  0.00000000000E+00  0.00000000000E+00 -0.76748785221E+01  0.12523539340E+03  0.12500000000E+03 0.  0.
<mgrwt>
<rscale>  2 0.12500000E+03</rscale>
<asrwt>0</asrwt>
<pdfrwt beam="1">  1       21 0.90431166E-02 0.12500000E+03</pdfrwt>
<pdfrwt beam="2">  1       21 0.10223867E-01 0.12500000E+03</pdfrwt>
<totfact> 0.74011793E+06</totfact>
</mgrwt>
</event>
<event>
 3    0  0.1368989E+001  0.1250000E+03  0.7546771E-02  0.1235069E+00
         21   -1    0    0  502  501  0.00000000000E+00  0.00000000000E+00  0.16050563323E+04  0.16050563323E+04  0.00000000000E+00 0. -1.
         21   -1    0    0  501  502 -0.00000000000E+00 -0.00000000000E+00 -0.24337152045E+01  0.24337152045E+01  0.00000000000E+00 0. -1.
         25    1    1    2    0    0  0.00000000000E+00  0.00000000000E+00  0.16026226171E+04  0.16074900475E+04  0.12500000000E+03 0.  0.
<mgrwt>
<rscale>  2 0.12500000E+03</rscale>
<asrwt>0</asrwt>
<pdfrwt beam="1">  1       21 0.24693090E+00 0.12500000E+03</pdfrwt>
<pdfrwt beam="2">  1       21 0.37441901E-03 0.12500000E+03</pdfrwt>
<totfact> 0.12472475E+06</totfact>
</mgrwt>
</event>
<event>
 3    0  0.1688034E+001  0.1250000E+03  0.7546771E-02  0.1235069E+00
         21   -1    0    0  502  501  0.00000000000E+00  0.00000000000E+00  0.63850490515E+02  0.63850490515E+02  0.00000000000E+00 0. -1.
         21   -1    0    0  501  502 -0.00000000000E+00 -0.00000000000E+00 -0.61178073473E+02  0.61178073473E+02  0.00000000000E+00 0. -1.
         25    1    1    2    0    0  0.00000000000E+00  0.00000000000E+00  0.26724170422E+01  0.12502856399E+03  0.12500000000E+03 0.  0.
<mgrwt>
<rscale>  2 0.12500000E+03</rscale>
<asrwt>0</asrwt>
<pdfrwt beam="1">  1       21 0.98231524E-02 0.12500000E+03</pdfrwt>
<pdfrwt beam="2">  1       21 0.94120113E-02 0.12500000E+03</pdfrwt>
<totfact> 0.74039723E+06</totfact>
</mgrwt>
</event>
<event>
 3    0  0.1368989E+001  0.1250000E+03  0.7546771E-02  0.1235069E+00
         21   -1    0    0  502  501  0.00000000000E+00  0.00000000000E+00  0.92338140302E+03  0.92338140302E+03  0.00000000000E+00 0.  1.
         21   -1    0    0  501  502 -0.00000000000E+00 -0.00000000000E+00 -0.42303754301E+01  0.42303754301E+01  0.00000000000E+00 0.  1.
         25    1    1    2    0    0  0.00000000000E+00  0.00000000000E+00  0.91915102759E+03  0.92761177845E+03  0.12500000000E+03 0.  0.
<mgrwt>
<rscale>  2 0.12500000E+03</rscale>
<asrwt>0</asrwt>
<pdfrwt beam="1">  1       21 0.14205852E+00 0.12500000E+03</pdfrwt>
<pdfrwt beam="2">  1       21 0.65082772E-03 0.12500000E+03</pdfrwt>
<totfact> 0.25520578E+06</totfact>
</mgrwt>
</event>
<event>
 3    0  0.1603493E+001  0.1250000E+03  0.7546771E-02  0.1235069E+00
         21   -1    0    0  502  501  0.00000000000E+00  0.00000000000E+00  0.16496208399E+02  0.16496208399E+02  0.00000000000E+00 0. -1.
         21   -1    0    0  501  502 -0.00000000000E+00 -0.00000000000E+00 -0.23679683873E+03  0.23679683873E+03  0.00000000000E+00 0. -1.
         25    1    1    2    0    0  0.00000000000E+00  0.00000000000E+00 -0.22030063033E+03  0.25329304713E+03  0.12500000000E+03 0.  0.
<mgrwt>
<rscale>  2 0.12500000E+03</rscale>
<asrwt>0</asrwt>
<pdfrwt beam="1">  1       21 0.25378785E-02 0.12500000E+03</pdfrwt>
<pdfrwt beam="2">  1       21 0.36430279E-01 0.12500000E+03</pdfrwt>
<totfact> 0.59569534E+06</totfact>
</mgrwt>
</event>
<event>
 3    0  0.1673944E+001  0.1250000E+03  0.7546771E-02  0.1235069E+00
         21   -1    0    0  502  501  0.00000000000E+00  0.00000000000E+00  0.10518122147E+03  0.10518122147E+03  0.00000000000E+00 0. -1.
         21   -1    0    0  501  502 -0.00000000000E+00 -0.00000000000E+00 -0.37138283293E+02  0.37138283293E+02  0.00000000000E+00 0. -1.
         25    1    1    2    0    0  0.00000000000E+00  0.00000000000E+00  0.68042938175E+02  0.14231950476E+03  0.12500000000E+03 0.  0.
<mgrwt>
<rscale>  2 0.12500000E+03</rscale>
<asrwt>0</asrwt>
<pdfrwt beam="1">  1       21 0.16181726E-01 0.12500000E+03</pdfrwt>
<pdfrwt beam="2">  1       21 0.57135821E-02 0.12500000E+03</pdfrwt>
<totfact> 0.71737930E+06</totfact>
</mgrwt>
</event>
<event>
 3    0  0.1586885E+001  0.1250000E+03  0.7546771E-02  0.1235069E+00
         21   -1    0    0  502  501  0.00000000000E+00  0.00000000000E+00  0.12664325764E+02  0.12664325764E+02  0.00000000000E+00 0.  1.
         21   -1    0    0  501  502 -0.00000000000E+00 -0.00000000000E+00 -0.30844516105E+03  0.30844516105E+03  0.00000000000E+00 0.  1.
         25    1    1    2    0    0  0.00000000000E+00  0.00000000000E+00 -0.29578083529E+03  0.32110948682E+03  0.12500000000E+03 0.  0.
<mgrwt>
<rscale>  2 0.12500000E+03</rscale>
<asrwt>0</asrwt>
<pdfrwt beam="1">  1       21 0.19483580E-02 0.12500000E+03</pdfrwt>
<pdfrwt beam="2">  1       21 0.47453097E-01 0.12500000E+03</pdfrwt>
<totfact> 0.53745540E+06</totfact>
</mgrwt>
</event>
<event>
 3    0  0.1662315E+001  0.1250000E+03  0.7546771E-02  0.1235069E+00
         21   -1    0    0  502  501  0.00000000000E+00  0.00000000000E+00  0.31219792998E+02  0.31219792998E+02  0.00000000000E+00 0. -1.
         21   -1    0    0  501  502 -0.00000000000E+00 -0.00000000000E+00 -0.12512094491E+03  0.12512094491E+03  0.00000000000E+00 0. -1.
         25    1    1    2    0    0  0.00000000000E+00  0.00000000000E+00 -0.93901151916E+02  0.15634073791E+03  0.12500000000E+03 0.  0.
<mgrwt>
<rscale>  2 0.12500000E+03</rscale>
<asrwt>0</asrwt>
<pdfrwt beam="1">  1       21 0.48030450E-02 0.12500000E+03</pdfrwt>
<pdfrwt beam="2">  1       21 0.19249376E-01 0.12500000E+03</pdfrwt>
<totfact> 0.69969404E+06</totfact>
</mgrwt>
</event>
<event>
 3    0  0.1368989E+001  0.1250000E+03  0.7546771E-02  0.1235069E+00
         21   -1    0    0  502  501  0.00000000000E+00  0.00000000000E+00  0.11861637194E+04  0.11861637194E+04  0.00000000000E+00 0. -1.
         21   -1    0    0  501  502 -0.00000000000E+00 -0.00000000000E+00 -0.32931794627E+01  0.32931794627E+01  0.00000000000E+00 0. -1.
         25    1    1    2    0    0  0.00000000000E+00  0.00000000000E+00  0.11828705399E+04  0.11894568988E+04  0.12500000000E+03 0.  0.
<mgrwt>
<rscale>  2 0.12500000E+03</rscale>
<asrwt>0</asrwt>
<pdfrwt beam="1">  1       21 0.18248639E+00 0.12500000E+03</pdfrwt>
<pdfrwt beam="2">  1       21 0.50664394E-03 0.12500000E+03</pdfrwt>
<totfact> 0.19354793E+06</totfact>
</mgrwt>
</event>
<event>
 3    0  0.1368989E+001  0.1250000E+03  0.7546771E-02  0.1235069E+00
         21   -1    0    0  502  501  0.00000000000E+00  0.00000000000E+00  0.53021867782E+01  0.53021867782E+01  0.00000000000E+00 0. -1.
         21   -1    0    0  501  502 -0.00000000000E+00 -0.00000000000E+00 -0.73672432968E+03  0.73672432968E+03  0.00000000000E+00 0. -1.
         25    1    1    2    0    0  0.00000000000E+00  0.00000000000E+00 -0.73142214290E+03  0.74202651645E+03  0.12500000000E+03 0.  0.
<mgrwt>
<rscale>  2 0.12500000E+03</rscale>
<asrwt>0</asrwt>
<pdfrwt beam="1">  1       21 0.81572073E-03 0.12500000E+03</pdfrwt>
<pdfrwt beam="2">  1       21 0.11334225E+00 0.12500000E+03</pdfrwt>
<totfact> 0.31351295E+06</totfact>
</mgrwt>
</event>
<event>
 3    0  0.1582723E+001  0.1250000E+03  0.7546771E-02  0.1235069E+00
         21   -1    0    0  502  501  0.00000000000E+00  0.00000000000E+00  0.13365665567E+02  0.13365665567E+02  0.00000000000E+00 0.  1.
         21   -1    0    0  501  502 -0.00000000000E+00 -0.00000000000E+00 -0.29226004351E+03  0.29226004351E+03  0.00000000000E+00 0.  1.
         25    1    1    2    0    0  0.00000000000E+00  0.00000000000E+00 -0.27889437794E+03  0.30562570907E+03  0.12500000000E+03 0.  0.
<mgrwt>
<rscale>  2 0.12500000E+03</rscale>
<asrwt>0</asrwt>
<pdfrwt beam="1">  1       21 0.20562560E-02 0.12500000E+03</pdfrwt>
<pdfrwt beam="2">  1       21 0.44963089E-01 0.12500000E+03</pdfrwt>
<totfact> 0.54991869E+06</totfact>
</mgrwt>
</event>
<event>
 3    0  0.1680500E+001  0.1250000E+03  0.7546771E-02  0.1235069E+00
         21   -1    0    0  502  501  0.00000000000E+00  0.00000000000E+00  0.27285149729E+02  0.27285149729E+02  0.00000000000E+00 0.  1.
         21   -1    0    0  501  502 -0.00000000000E+00 -0.00000000000E+00 -0.14316395690E+03  0.14316395690E+03  0.00000000000E+00 0.  1.
         25    1    1    2    0    0  0.00000000000E+00  0.00000000000E+00 -0.11587880718E+03  0.17044910663E+03  0.12500000000E+03 0.  0.
<mgrwt>
<rscale>  2 0.12500000E+03</rscale>
<asrwt>0</asrwt>
<pdfrwt beam="1">  1       21 0.41977153E-02 0.12500000E+03</pdfrwt>
<pdfrwt beam="2">  1       21 0.22025224E-01 0.12500000E+03</pdfrwt>
<totfact> 0.68264436E+06</totfact>
</mgrwt>
</event>
<event>
 3    0  0.1681413E+001  0.1250000E+03  0.7546771E-02  0.1235069E+00
         21   -1    0    0  502  501  0.00000000000E+00  0.00000000000E+00  0.83771479304E+02  0.83771479304E+02  0.00000000000E+00 0. -1.
         21   -1    0    0  501  502 -0.00000000000E+00 -0.00000000000E+00 -0.46629831924E+02  0.46629831924E+02  0.00000000000E+00 0. -1.
         25    1    1    2    0    0  0.00000000000E+00  0.00000000000E+00  0.37141647380E+02  0.13040131123E+03  0.12500000000E+03 0.  0.
<mgrwt>
<rscale>  2 0.12500000E+03</rscale>
<asrwt>0</asrwt>
<pdfrwt beam="1">  1       21 0.12887920E-01 0.12500000E+03</pdfrwt>
<pdfrwt beam="2">  1       21 0.71738203E-02 0.12500000E+03</pdfrwt>
<totfact> 0.73311328E+06</totfact>
</mgrwt>
</event>
<event>
 3    0  0.1685975E+001  0.1250000E+03  0.7546771E-02  0.1235069E+00
         21   -1    0    0  502  501  0.00000000000E+00  0.00000000000E+00  0.52883445965E+02  0.52883445965E+02  0.00000000000E+00 0. -1.
         21   -1    0    0  501  502 -0.00000000000E+00 -0.00000000000E+00 -0.73865269722E+02  0.73865269722E+02  0.00000000000E+00 0. -1.
         25    1    1    2    0    0  0.00000000000E+00  0.00000000000E+00 -0.20981823757E+02  0.12674871569E+03  0.12500000000E+03 0.  0.
<mgrwt>
<rscale>  2 0.12500000E+03</rscale>
<asrwt>0</asrwt>
<pdfrwt beam="1">  1       21 0.81359148E-02 0.12500000E+03</pdfrwt>
<pdfrwt beam="2">  1       21 0.11363888E-01 0.12500000E+03</pdfrwt>
<totfact> 0.73803385E+06</totfact>
</mgrwt>
</event>
<event>
 3    0  0.1566049E+001  0.1250000E+03  0.7546771E-02  0.1235069E+00
         21   -1    0    0  502  501  0.00000000000E+00  0.00000000000E+00  0.28477045668E+03  0.28477045668E+03  0.00000000000E+00 0.  1.
         21   -1    0    0  501  502 -0.00000000000E+00 -0.00000000000E+00 -0.13717188382E+02  0.13717188382E+02  0.00000000000E+00 0.  1.
         25    1    1    2    0    0  0.00000000000E+00  0.00000000000E+00  0.27105326830E+03  0.29848764507E+03  0.12500000000E+03 0.  0.
<mgrwt>
<rscale>  2 0.12500000E+03</rscale>
<asrwt>0</asrwt>
<pdfrwt beam="1">  1       21 0.43810835E-01 0.12500000E+03</pdfrwt>
<pdfrwt beam="2">  1       21 0.21103369E-02 0.12500000E+03</pdfrwt>
<totfact> 0.55582093E+06</totfact>
</mgrwt>
</event>
<event>
 3    0  0.1711274E+001  0.1250000E+03  0.7546771E-02  0.1235069E+00
         21   -1    0    0  502  501  0.00000000000E+00  0.00000000000E+00  0.72562442045E+02  0.72562442045E+02  0.00000000000E+00 0.  1.
         21   -1    0    0  501  502 -0.00000000000E+00 -0.00000000000E+00 -0.53832945666E+02  0.53832945666E+02  0.00000000000E+00 0.  1.
         25    1    1    2    0    0  0.00000000000E+00  0.00000000000E+00  0.18729496379E+02  0.12639538771E+03  0.12500000000E+03 0.  0.
<mgrwt>
<rscale>  2 0.12500000E+03</rscale>
<asrwt>0</asrwt>
<pdfrwt beam="1">  1       21 0.11163453E-01 0.12500000E+03</pdfrwt>
<pdfrwt beam="2">  1       21 0.82819917E-02 0.12500000E+03</pdfrwt>
<totfact> 0.73851699E+06</totfact>
</mgrwt>
</event>
<event>
 3    0  0.1413462E+001  0.1250000E+03  0.7546771E-02  0.1235069E+00
         21   -1    0    0  502  501  0.00000000000E+00  0.00000000000E+00  0.50548008185E+03  0.50548008185E+03  0.00000000000E+00 0. -1.
         21   -1    0    0  501  502 -0.00000000000E+00 -0.00000000000E+00 -0.77278020248E+01  0.77278020248E+01  0.00000000000E+00 0. -1.
         25    1    1    2    0    0  0.00000000000E+00  0.00000000000E+00  0.49775227982E+03  0.51320788387E+03  0.12500000000E+03 0.  0.
<mgrwt>
<rscale>  2 0.12500000E+03</rscale>
<asrwt>0</asrwt>
<pdfrwt beam="1">  1       21 0.77766141E-01 0.12500000E+03</pdfrwt>
<pdfrwt beam="2">  1       21 0.11888930E-02 0.12500000E+03</pdfrwt>
<totfact> 0.41336727E+06</totfact>
</mgrwt>
</event>
<event>
 3    0  0.1418094E+001  0.1250000E+03  0.7546771E-02  0.1235069E+00
         21   -1    0    0  502  501  0.00000000000E+00  0.00000000000E+00  0.76218864020E+01  0.76218864020E+01  0.00000000000E+00 0.  1.
         21   -1    0    0  501  502 -0.00000000000E+00 -0.00000000000E+00 -0.51250435837E+03  0.51250435837E+03  0.00000000000E+00 0.  1.
         25    1    1    2    0    0  0.00000000000E+00  0.00000000000E+00 -0.50488247196E+03  0.52012624477E+03  0.12500000000E+03 0.  0.
<mgrwt>
<rscale>  2 0.12500000E+03</rscale>
<asrwt>0</asrwt>
<pdfrwt beam="1">  1       21 0.11725981E-02 0.12500000E+03</pdfrwt>
<pdfrwt beam="2">  1       21 0.78846814E-01 0.12500000E+03</pdfrwt>
<totfact> 0.40973202E+06</totfact>
</mgrwt>
</event>
<event>
 3    0  0.1534678E+001  0.1250000E+03  0.7546771E-02  0.1235069E+00
         21   -1    0    0  502  501  0.00000000000E+00  0.00000000000E+00  0.10635403646E+02  0.10635403646E+02  0.00000000000E+00 0.  1.
         21   -1    0    0  501  502 -0.00000000000E+00 -0.00000000000E+00 -0.36728742322E+03  0.36728742322E+03  0.00000000000E+00 0.  1.
         25    1    1    2    0    0  0.00000000000E+00  0.00000000000E+00 -0.35665201957E+03  0.37792282686E+03  0.12500000000E+03 0.  0.
<mgrwt>
<rscale>  2 0.12500000E+03</rscale>
<asrwt>0</asrwt>
<pdfrwt beam="1">  1       21 0.16362161E-02 0.12500000E+03</pdfrwt>
<pdfrwt beam="2">  1       21 0.56505752E-01 0.12500000E+03</pdfrwt>
<totfact> 0.49540085E+06</totfact>
</mgrwt>
</event>
<event>
 3    0  0.1663258E+001  0.1250000E+03  0.7546771E-02  0.1235069E+00
         21   -1    0    0  502  501  0.00000000000E+00  0.00000000000E+00  0.22308043351E+02  0.22308043351E+02  0.00000000000E+00 0.  1.
         21   -1    0    0  501  502 -0.00000000000E+00 -0.00000000000E+00 -0.17510500310E+03  0.17510500310E+03  0.00000000000E+00 0.  1.
         25    1    1    2    0    0  0.00000000000E+00  0.00000000000E+00 -0.15279695975E+03  0.19741304645E+03  0.12500000000E+03 0.  0.
<mgrwt>
<rscale>  2 0.12500000E+03</rscale>
<asrwt>0</asrwt>
<pdfrwt beam="1">  1       21 0.34320067E-02 0.12500000E+03</pdfrwt>
<pdfrwt beam="2">  1       21 0.26939231E-01 0.12500000E+03</pdfrwt>
<totfact> 0.65207885E+06</totfact>
</mgrwt>
</event>
<event>
 3    0  0.1687692E+001  0.1250000E+03  0.7546771E-02  0.1235069E+00
         21   -1    0    0  502  501  0.00000000000E+00  0.00000000000E+00  0.58529972127E+02  0.58529972127E+02  0.00000000000E+00 0. -1.
         21   -1    0    0  501  502 -0.00000000000E+00 -0.00000000000E+00 -0.66739310785E+02  0.66739310785E+02  0.00000000000E+00 0. -1.
         25    1    1    2    0    0  0.00000000000E+00  0.00000000000E+00 -0.82093386581E+01  0.12526928291E+03  0.12500000000E+03 0.  0.
<mgrwt>
<rscale>  2 0.12500000E+03</rscale>
<asrwt>0</asrwt>
<pdfrwt beam="1">  1       21 0.90046111E-02 0.12500000E+03</pdfrwt>
<pdfrwt beam="2">  1       21 0.10267586E-01 0.12500000E+03</pdfrwt>
<totfact> 0.74007218E+06</totfact>
</mgrwt>
</event>
<event>
 3    0  0.1634361E+001  0.1250000E+03  0.7546771E-02  0.1235069E+00
         21   -1    0    0  502  501  0.00000000000E+00  0.00000000000E+00  0.22033053712E+02  0.22033053712E+02  0.00000000000E+00 0. -1.
         21   -1    0    0  501  502 -0.00000000000E+00 -0.00000000000E+00 -0.17729044966E+03  0.17729044966E+03  0.00000000000E+00 0. -1.
         25    1    1    2    0    0  0.00000000000E+00  0.00000000000E+00 -0.15525739595E+03  0.19932350337E+03  0.12500000000E+03 0.  0.
<mgrwt>
<rscale>  2 0.12500000E+03</rscale>
<asrwt>0</asrwt>
<pdfrwt beam="1">  1       21 0.33897007E-02 0.12500000E+03</pdfrwt>
<pdfrwt beam="2">  1       21 0.27275453E-01 0.12500000E+03</pdfrwt>
<totfact> 0.65000629E+06</totfact>
</mgrwt>
</event>
<event>
 3    0  0.1556409E+001  0.1250000E+03  0.7546771E-02  0.1235069E+00
         21   -1    0    0  502  501  0.00000000000E+00  0.00000000000E+00  0.31234450037E+03  0.31234450037E+03  0.00000000000E+00 0. -1.
         21   -1    0    0  501  502 -0.00000000000E+00 -0.00000000000E+00 -0.12506223082E+02  0.12506223082E+02  0.00000000000E+00 0. -1.
         25    1    1    2    0    0  0.00000000000E+00  0.00000000000E+00  0.29983827729E+03  0.32485072345E+03  0.12500000000E+03 0.  0.
<mgrwt>
<rscale>  2 0.12500000E+03</rscale>
<asrwt>0</asrwt>
<pdfrwt beam="1">  1       21 0.48052994E-01 0.12500000E+03</pdfrwt>
<pdfrwt beam="2">  1       21 0.19240346E-02 0.12500000E+03</pdfrwt>
<totfact> 0.53451175E+06</totfact>
</mgrwt>
</event>
<event>
 3    0  0.1368989E+001  0.1250000E+03  0.7546771E-02  0.1235069E+00
         21   -1    0    0  502  501  0.00000000000E+00  0.00000000000E+00  0.76990706515E+03  0.76990706515E+03  0.00000000000E+00 0.  1.
         21   -1    0    0  501  502 -0.00000000000E+00 -0.00000000000E+00 -0.50736643120E+01  0.50736643120E+01  0.00000000000E+00 0.  1.
         25    1    1    2    0    0  0.00000000000E+00  0.00000000000E+00  0.76483340084E+03  0.77498072946E+03  0.12500000000E+03 0.  0.
<mgrwt>
<rscale>  2 0.12500000E+03</rscale>
<asrwt>0</asrwt>
<pdfrwt beam="1">  1       21 0.11844715E+00 0.12500000E+03</pdfrwt>
<pdfrwt beam="2">  1       21 0.78056435E-03 0.12500000E+03</pdfrwt>
<totfact> 0.30208670E+06</totfact>
</mgrwt>
</event>
<event>
 3    0  0.1685324E+001  0.1250000E+03  0.7546771E-02  0.1235069E+00
         21   -1    0    0  502  501  0.00000000000E+00  0.00000000000E+00  0.12575450699E+03  0.12575450699E+03  0.00000000000E+00 0.  1.
         21   -1    0    0  501  502 -0.00000000000E+00 -0.00000000000E+00 -0.31062504982E+02  0.31062504982E+02  0.00000000000E+00 0.  1.
         25    1    1    2    0    0  0.00000000000E+00  0.00000000000E+00  0.94692002010E+02  0.15681701197E+03  0.12500000000E+03 0.  0.
<mgrwt>
<rscale>  2 0.12500000E+03</rscale>
<asrwt>0</asrwt>
<pdfrwt beam="1">  1       21 0.19346847E-01 0.12500000E+03</pdfrwt>
<pdfrwt beam="2">  1       21 0.47788470E-02 0.12500000E+03</pdfrwt>
<totfact> 0.69910529E+06</totfact>
</mgrwt>
</event>
<event>
 3    0  0.1368989E+001  0.1250000E+03  0.7546771E-02  0.1235069E+00
         21   -1    0    0  502  501  0.00000000000E+00  0.00000000000E+00  0.80418619107E+03  0.80418619107E+03  0.00000000000E+00 0.  1.
         21   -1    0    0  501  502 -0.00000000000E+00 -0.00000000000E+00 -0.48573950204E+01  0.48573950204E+01  0.00000000000E+00 0.  1.
         25    1    1    2    0    0  0.00000000000E+00  0.00000000000E+00  0.79932879605E+03  0.80904358609E+03  0.12500000000E+03 0.  0.
<mgrwt>
<rscale>  2 0.12500000E+03</rscale>
<asrwt>0</asrwt>
<pdfrwt beam="1">  1       21 0.12372085E+00 0.12500000E+03</pdfrwt>
<pdfrwt beam="2">  1       21 0.74729218E-03 0.12500000E+03</pdfrwt>
<totfact> 0.29065382E+06</totfact>
</mgrwt>
</event>
<event>
 3    0  0.1491831E+001  0.1250000E+03  0.7546771E-02  0.1235069E+00
         21   -1    0    0  502  501  0.00000000000E+00  0.00000000000E+00  0.98943470285E+01  0.98943470285E+01  0.00000000000E+00 0. -1.
         21   -1    0    0  501  502 -0.00000000000E+00 -0.00000000000E+00 -0.39479613852E+03  0.39479613852E+03  0.00000000000E+00 0. -1.
         25    1    1    2    0    0  0.00000000000E+00  0.00000000000E+00 -0.38490179149E+03  0.40469048554E+03  0.12500000000E+03 0.  0.
<mgrwt>
<rscale>  2 0.12500000E+03</rscale>
<asrwt>0</asrwt>
<pdfrwt beam="1">  1       21 0.15222076E-02 0.12500000E+03</pdfrwt>
<pdfrwt beam="2">  1       21 0.60737854E-01 0.12500000E+03</pdfrwt>
<totfact> 0.47731790E+06</totfact>
</mgrwt>
</event>
<event>
 3    0  0.1675290E+001  0.1250000E+03  0.7546771E-02  0.1235069E+00
         21   -1    0    0  502  501  0.00000000000E+00  0.00000000000E+00  0.38581515497E+02  0.38581515497E+02  0.00000000000E+00 0. -1.
         21   -1    0    0  501  502 -0.00000000000E+00 -0.00000000000E+00 -0.10124667084E+03  0.10124667084E+03  0.00000000000E+00 0. -1.
         25    1    1    2    0    0  0.00000000000E+00  0.00000000000E+00 -0.62665155341E+02  0.13982818634E+03  0.12500000000E+03 0.  0.
<mgrwt>
<rscale>  2 0.12500000E+03</rscale>
<asrwt>0</asrwt>
<pdfrwt beam="1">  1       21 0.59356178E-02 0.12500000E+03</pdfrwt>
<pdfrwt beam="2">  1       21 0.15576411E-01 0.12500000E+03</pdfrwt>
<totfact> 0.72061746E+06</totfact>
</mgrwt>
</event>
<event>
 3    0  0.1711680E+001  0.1250000E+03  0.7546771E-02  0.1235069E+00
         21   -1    0    0  502  501  0.00000000000E+00  0.00000000000E+00  0.54043888593E+02  0.54043888593E+02  0.00000000000E+00 0.  1.
         21   -1    0    0  501  502 -0.00000000000E+00 -0.00000000000E+00 -0.72279217904E+02  0.72279217904E+02  0.00000000000E+00 0.  1.
         25    1    1    2    0    0  0.00000000000E+00  0.00000000000E+00 -0.18235329311E+02  0.12632310650E+03  0.12500000000E+03 0.  0.
<mgrwt>
<rscale>  2 0.12500000E+03</rscale>
<asrwt>0</asrwt>
<pdfrwt beam="1">  1       21 0.83144445E-02 0.12500000E+03</pdfrwt>
<pdfrwt beam="2">  1       21 0.11119880E-01 0.12500000E+03</pdfrwt>
<totfact> 0.73861609E+06</totfact>
</mgrwt>
</event>
<event>
 3    0  0.1688418E+001  0.1250000E+03  0.7546771E-02  0.1235069E+00
         21   -1    0    0  502  501  0.00000000000E+00  0.00000000000E+00  0.10999897992E+03  0.10999897992E+03  0.00000000000E+00 0.  1.
         21   -1    0    0  501  502 -0.00000000000E+00 -0.00000000000E+00 -0.35511692951E+02  0.35511692951E+02  0.00000000000E+00 0.  1.
         25    1    1    2    0    0  0.00000000000E+00  0.00000000000E+00  0.74487286973E+02  0.14551067288E+03  0.12500000000E+03 0.  0.
<mgrwt>
<rscale>  2 0.12500000E+03</rscale>
<asrwt>0</asrwt>
<pdfrwt beam="1">  1       21 0.16922920E-01 0.12500000E+03</pdfrwt>
<pdfrwt beam="2">  1       21 0.54633374E-02 0.12500000E+03</pdfrwt>
<totfact> 0.71327809E+06</totfact>
</mgrwt>
</event>
<event>
 3    0  0.1710013E+001  0.1250000E+03  0.7546771E-02  0.1235069E+00
         21   -1    0    0  502  501  0.00000000000E+00  0.00000000000E+00  0.70808845021E+02  0.70808845021E+02  0.00000000000E+00 0.  1.
         21   -1    0    0  501  502 -0.00000000000E+00 -0.00000000000E+00 -0.55166130712E+02  0.55166130712E+02  0.00000000000E+00 0.  1.
         25    1    1    2    0    0  0.00000000000E+00  0.00000000000E+00  0.15642714309E+02  0.12597497573E+03  0.12500000000E+03 0.  0.
<mgrwt>
<rscale>  2 0.12500000E+03</rscale>
<asrwt>0</asrwt>
<pdfrwt beam="1">  1       21 0.10893668E-01 0.12500000E+03</pdfrwt>
<pdfrwt beam="2">  1       21 0.84870971E-02 0.12500000E+03</pdfrwt>
<totfact> 0.73909490E+06</totfact>
</mgrwt>
</event>
<event>
 3    0  0.1591831E+001  0.1250000E+03  0.7546771E-02  0.1235069E+00
         21   -1    0    0  502  501  0.00000000000E+00  0.00000000000E+00  0.15344670791E+02  0.15344670791E+02  0.00000000000E+00 0. -1.
         21   -1    0    0  501  502 -0.00000000000E+00 -0.00000000000E+00 -0.25456720794E+03  0.25456720794E+03  0.00000000000E+00 0. -1.
         25    1    1    2    0    0  0.00000000000E+00  0.00000000000E+00 -0.23922253715E+03  0.26991187873E+03  0.12500000000E+03 0.  0.
<mgrwt>
<rscale>  2 0.12500000E+03</rscale>
<asrwt>0</asrwt>
<pdfrwt beam="1">  1       21 0.23607187E-02 0.12500000E+03</pdfrwt>
<pdfrwt beam="2">  1       21 0.39164184E-01 0.12500000E+03</pdfrwt>
<totfact> 0.58052534E+06</totfact>
</mgrwt>
</event>
<event>
 3    0  0.1709885E+001  0.1250000E+03  0.7546771E-02  0.1235069E+00
         21   -1    0    0  502  501  0.00000000000E+00  0.00000000000E+00  0.54696115637E+02  0.54696115637E+02  0.00000000000E+00 0.  1.
         21   -1    0    0  501  502 -0.00000000000E+00 -0.00000000000E+00 -0.71417320124E+02  0.71417320124E+02  0.00000000000E+00 0.  1.
         25    1    1    2    0    0  0.00000000000E+00  0.00000000000E+00 -0.16721204487E+02  0.12611343576E+03  0.12500000000E+03 0.  0.
<mgrwt>
<rscale>  2 0.12500000E+03</rscale>
<asrwt>0</asrwt>
<pdfrwt beam="1">  1       21 0.84147870E-02 0.12500000E+03</pdfrwt>
<pdfrwt beam="2">  1       21 0.10987280E-01 0.12500000E+03</pdfrwt>
<totfact> 0.73890413E+06</totfact>
</mgrwt>
</event>
<event>
 3    0  0.1660381E+001  0.1250000E+03  0.7546771E-02  0.1235069E+00
         21   -1    0    0  502  501  0.00000000000E+00  0.00000000000E+00  0.22157437147E+02  0.22157437147E+02  0.00000000000E+00 0.  1.
         21   -1    0    0  501  502 -0.00000000000E+00 -0.00000000000E+00 -0.17629520843E+03  0.17629520843E+03  0.00000000000E+00 0.  1.
         25    1    1    2    0    0  0.00000000000E+00  0.00000000000E+00 -0.15413777128E+03  0.19845264557E+03  0.12500000000E+03 0.  0.
<mgrwt>
<rscale>  2 0.12500000E+03</rscale>
<asrwt>0</asrwt>
<pdfrwt beam="1">  1       21 0.34088364E-02 0.12500000E+03</pdfrwt>
<pdfrwt beam="2">  1       21 0.27122340E-01 0.12500000E+03</pdfrwt>
<totfact> 0.65095107E+06</totfact>
</mgrwt>
</event>
<event>
 3    0  0.1674797E+001  0.1250000E+03  0.7546771E-02  0.1235069E+00
         21   -1    0    0  502  501  0.00000000000E+00  0.00000000000E+00  0.23760554381E+02  0.23760554381E+02  0.00000000000E+00 0.  1.
         21   -1    0    0  501  502 -0.00000000000E+00 -0.00000000000E+00 -0.16440062540E+03  0.16440062540E+03  0.00000000000E+00 0.  1.
         25    1    1    2    0    0  0.00000000000E+00  0.00000000000E+00 -0.14064007102E+03  0.18816117978E+03  0.12500000000E+03 0.  0.
<mgrwt>
<rscale>  2 0.12500000E+03</rscale>
<asrwt>0</asrwt>
<pdfrwt beam="1">  1       21 0.36554697E-02 0.12500000E+03</pdfrwt>
<pdfrwt beam="2">  1       21 0.25292405E-01 0.12500000E+03</pdfrwt>
<totfact> 0.66227416E+06</totfact>
</mgrwt>
</event>
<event>
 3    0  0.1689611E+001  0.1250000E+03  0.7546771E-02  0.1235069E+00
         21   -1    0    0  502  501  0.00000000000E+00  0.00000000000E+00  0.11615928244E+03  0.11615928244E+03  0.00000000000E+00 0.  1.
         21   -1    0    0  501  502 -0.00000000000E+00 -0.00000000000E+00 -0.33628392997E+02  0.33628392997E+02  0.00000000000E+00 0.  1.
         25    1    1    2    0    0  0.00000000000E+00  0.00000000000E+00  0.82530889440E+02  0.14978767543E+03  0.12500000000E+03 0.  0.
<mgrwt>
<rscale>  2 0.12500000E+03</rscale>
<asrwt>0</asrwt>
<pdfrwt beam="1">  1       21 0.17870659E-01 0.12500000E+03</pdfrwt>
<pdfrwt beam="2">  1       21 0.51735990E-02 0.12500000E+03</pdfrwt>
<totfact> 0.70785883E+06</totfact>
</mgrwt>
</event>
<event>
 3    0  0.1684245E+001  0.1250000E+03  0.7546771E-02  0.1235069E+00
         21   -1    0    0  502  501  0.00000000000E+00  0.00000000000E+00  0.47991997120E+02  0.47991997120E+02  0.00000000000E+00 0. -1.
         21   -1    0    0  501  502 -0.00000000000E+00 -0.00000000000E+00 -0.81393778847E+02  0.81393778847E+02  0.00000000000E+00 0. -1.
         25    1    1    2    0    0  0.00000000000E+00  0.00000000000E+00 -0.33401781727E+02  0.12938577597E+03  0.12500000000E+03 0.  0.
<mgrwt>
<rscale>  2 0.12500000E+03</rscale>
<asrwt>0</asrwt>
<pdfrwt beam="1">  1       21 0.73833842E-02 0.12500000E+03</pdfrwt>
<pdfrwt beam="2">  1       21 0.12522120E-01 0.12500000E+03</pdfrwt>
<totfact> 0.73447122E+06</totfact>
</mgrwt>
</event>
<event>
 3    0  0.1663730E+001  0.1250000E+03  0.7546771E-02  0.1235069E+00
         21   -1    0    0  502  501  0.00000000000E+00  0.00000000000E+00  0.25514462490E+02  0.25514462490E+02  0.00000000000E+00 0.  1.
         21   -1    0    0  501  502 -0.00000000000E+00 -0.00000000000E+00 -0.15309944317E+03  0.15309944317E+03  0.00000000000E+00 0.  1.
         25    1    1    2    0    0  0.00000000000E+00  0.00000000000E+00 -0.12758498068E+03  0.17861390566E+03  0.12500000000E+03 0.  0.
<mgrwt>
<rscale>  2 0.12500000E+03</rscale>
<asrwt>0</asrwt>
<pdfrwt beam="1">  1       21 0.39253020E-02 0.12500000E+03</pdfrwt>
<pdfrwt beam="2">  1       21 0.23553760E-01 0.12500000E+03</pdfrwt>
<totfact> 0.67310902E+06</totfact>
</mgrwt>
</event>
<event>
 3    0  0.1688012E+001  0.1250000E+03  0.7546771E-02  0.1235069E+00
         21   -1    0    0  502  501  0.00000000000E+00  0.00000000000E+00  0.59368427287E+02  0.59368427287E+02  0.00000000000E+00 0. -1.
         21   -1    0    0  501  502 -0.00000000000E+00 -0.00000000000E+00 -0.65796757275E+02  0.65796757275E+02  0.00000000000E+00 0. -1.
         25    1    1    2    0    0  0.00000000000E+00  0.00000000000E+00 -0.64283299877E+01  0.12516518456E+03  0.12500000000E+03 0.  0.
<mgrwt>
<rscale>  2 0.12500000E+03</rscale>
<asrwt>0</asrwt>
<pdfrwt beam="1">  1       21 0.91336042E-02 0.12500000E+03</pdfrwt>
<pdfrwt beam="2">  1       21 0.10122578E-01 0.12500000E+03</pdfrwt>
<totfact> 0.74021273E+06</totfact>
</mgrwt>
</event>
<event>
 3    0  0.1683219E+001  0.1250000E+03  0.7546771E-02  0.1235069E+00
         21   -1    0    0  502  501  0.00000000000E+00  0.00000000000E+00  0.43956312349E+02  0.43956312349E+02  0.00000000000E+00 0. -1.
         21   -1    0    0  501  502 -0.00000000000E+00 -0.00000000000E+00 -0.88866644886E+02  0.88866644886E+02  0.00000000000E+00 0. -1.
         25    1    1    2    0    0  0.00000000000E+00  0.00000000000E+00 -0.44910332537E+02  0.13282295723E+03  0.12500000000E+03 0.  0.
<mgrwt>
<rscale>  2 0.12500000E+03</rscale>
<asrwt>0</asrwt>
<pdfrwt beam="1">  1       21 0.67625097E-02 0.12500000E+03</pdfrwt>
<pdfrwt beam="2">  1       21 0.13671791E-01 0.12500000E+03</pdfrwt>
<totfact> 0.72986049E+06</totfact>
</mgrwt>
</event>
<event>
 3    0  0.1573592E+001  0.1250000E+03  0.7546771E-02  0.1235069E+00
         21   -1    0    0  502  501  0.00000000000E+00  0.00000000000E+00  0.14377717661E+02  0.14377717661E+02  0.00000000000E+00 0. -1.
         21   -1    0    0  501  502 -0.00000000000E+00 -0.00000000000E+00 -0.27168776660E+03  0.27168776660E+03  0.00000000000E+00 0. -1.
         25    1    1    2    0    0  0.00000000000E+00  0.00000000000E+00 -0.25731004894E+03  0.28606548426E+03  0.12500000000E+03 0.  0.
<mgrwt>
<rscale>  2 0.12500000E+03</rscale>
<asrwt>0</asrwt>
<pdfrwt beam="1">  1       21 0.22119569E-02 0.12500000E+03</pdfrwt>
<pdfrwt beam="2">  1       21 0.41798112E-01 0.12500000E+03</pdfrwt>
<totfact> 0.56634442E+06</totfact>
</mgrwt>
</event>
<event>
 3    0  0.1368989E+001  0.1250000E+03  0.7546771E-02  0.1235069E+00
         21   -1    0    0  502  501  0.00000000000E+00  0.00000000000E+00  0.91054743106E+03  0.91054743106E+03  0.00000000000E+00 0.  1.
         21   -1    0    0  501  502 -0.00000000000E+00 -0.00000000000E+00 -0.42900016702E+01  0.42900016702E+01  0.00000000000E+00 0.  1.
         25    1    1    2    0    0  0.00000000000E+00  0.00000000000E+00  0.90625742939E+03  0.91483743273E+03  0.12500000000E+03 0.  0.
<mgrwt>
<rscale>  2 0.12500000E+03</rscale>
<asrwt>0</asrwt>
<pdfrwt beam="1">  1       21 0.14008407E+00 0.12500000E+03</pdfrwt>
<pdfrwt beam="2">  1       21 0.66000098E-03 0.12500000E+03</pdfrwt>
<totfact> 0.25876998E+06</totfact>
</mgrwt>
</event>
<event>
 3    0  0.1546064E+001  0.1250000E+03  0.7546771E-02  0.1235069E+00
         21   -1    0    0  502  501  0.00000000000E+00  0.00000000000E+00  0.13079073044E+02  0.13079073044E+02  0.00000000000E+00 0. -1.
         21   -1    0    0  501  502 -0.00000000000E+00 -0.00000000000E+00 -0.29866413215E+03  0.29866413215E+03  0.00000000000E+00 0. -1.
         25    1    1    2    0    0  0.00000000000E+00  0.00000000000E+00 -0.28558505911E+03  0.31174320520E+03  0.12500000000E+03 0.  0.
<mgrwt>
<rscale>  2 0.12500000E+03</rscale>
<asrwt>0</asrwt>
<pdfrwt beam="1">  1       21 0.20121650E-02 0.12500000E+03</pdfrwt>
<pdfrwt beam="2">  1       21 0.45948331E-01 0.12500000E+03</pdfrwt>
<totfact> 0.54494169E+06</totfact>
</mgrwt>
</event>
<event>
 3    0  0.1448600E+001  0.1250000E+03  0.7546771E-02  0.1235069E+00
         21   -1    0    0  502  501  0.00000000000E+00  0.00000000000E+00  0.46492121995E+03  0.46492121995E+03  0.00000000000E+00 0. -1.
         21   -1    0    0  501  502 -0.00000000000E+00 -0.00000000000E+00 -0.84019610901E+01  0.84019610901E+01  0.00000000000E+00 0. -1.
         25    1    1    2    0    0  0.00000000000E+00  0.00000000000E+00  0.45651925886E+03  0.47332318104E+03  0.12500000000E+03 0.  0.
<mgrwt>
<rscale>  2 0.12500000E+03</rscale>
<asrwt>0</asrwt>
<pdfrwt beam="1">  1       21 0.71526322E-01 0.12500000E+03</pdfrwt>
<pdfrwt beam="2">  1       21 0.12926098E-02 0.12500000E+03</pdfrwt>
<totfact> 0.43528780E+06</totfact>
</mgrwt>
</event>
<event>
 3    0  0.1674314E+001  0.1250000E+03  0.7546771E-02  0.1235069E+00
         21   -1    0    0  502  501  0.00000000000E+00  0.00000000000E+00  0.13063658333E+03  0.13063658333E+03  0.00000000000E+00 0.  1.
         21   -1    0    0  501  502 -0.00000000000E+00 -0.00000000000E+00 -0.29901654655E+02  0.29901654655E+02  0.00000000000E+00 0.  1.
         25    1    1    2    0    0  0.00000000000E+00  0.00000000000E+00  0.10073492867E+03  0.16053823798E+03  0.12500000000E+03 0.  0.
<mgrwt>
<rscale>  2 0.12500000E+03</rscale>
<asrwt>0</asrwt>
<pdfrwt beam="1">  1       21 0.20097936E-01 0.12500000E+03</pdfrwt>
<pdfrwt beam="2">  1       21 0.46002546E-02 0.12500000E+03</pdfrwt>
<totfact> 0.69453789E+06</totfact>
</mgrwt>
</event>
<event>
 3    0  0.1683083E+001  0.1250000E+03  0.7546771E-02  0.1235069E+00
         21   -1    0    0  502  501  0.00000000000E+00  0.00000000000E+00  0.46160554927E+02  0.46160554927E+02  0.00000000000E+00 0. -1.
         21   -1    0    0  501  502 -0.00000000000E+00 -0.00000000000E+00 -0.84623116126E+02  0.84623116126E+02  0.00000000000E+00 0. -1.
         25    1    1    2    0    0  0.00000000000E+00  0.00000000000E+00 -0.38462561199E+02  0.13078367105E+03  0.12500000000E+03 0.  0.
<mgrwt>
<rscale>  2 0.12500000E+03</rscale>
<asrwt>0</asrwt>
<pdfrwt beam="1">  1       21 0.71016238E-02 0.12500000E+03</pdfrwt>
<pdfrwt beam="2">  1       21 0.13018941E-01 0.12500000E+03</pdfrwt>
<totfact> 0.73259838E+06</totfact>
</mgrwt>
</event>
<event>
 3    0  0.1654930E+001  0.1250000E+03  0.7546771E-02  0.1235069E+00
         21   -1    0    0  502  501  0.00000000000E+00  0.00000000000E+00  0.16243420568E+03  0.16243420568E+03  0.00000000000E+00 0.  1.
         21   -1    0    0  501  502 -0.00000000000E+00 -0.00000000000E+00 -0.24048198368E+02  0.24048198368E+02  0.00000000000E+00 0.  1.
         25    1    1    2    0    0  0.00000000000E+00  0.00000000000E+00  0.13838600731E+03  0.18648240405E+03  0.12500000000E+03 0.  0.
<mgrwt>
<rscale>  2 0.12500000E+03</rscale>
<asrwt>0</asrwt>
<pdfrwt beam="1">  1       21 0.24989877E-01 0.12500000E+03</pdfrwt>
<pdfrwt beam="2">  1       21 0.36997229E-02 0.12500000E+03</pdfrwt>
<totfact> 0.66415563E+06</totfact>
</mgrwt>
</event>
<event>
 3    0  0.1421930E+001  0.1250000E+03  0.7546771E-02  0.1235069E+00
         21   -1    0    0  502  501  0.00000000000E+00  0.00000000000E+00  0.61779816616E+03  0.61779816616E+03  0.00000000000E+00 0.  1.
         21   -1    0    0  501  502 -0.00000000000E+00 -0.00000000000E+00 -0.63228578749E+01  0.63228578749E+01  0.00000000000E+00 0.  1.
         25    1    1    2    0    0  0.00000000000E+00  0.00000000000E+00  0.61147530828E+03  0.62412102403E+03  0.12500000000E+03 0.  0.
<mgrwt>
<rscale>  2 0.12500000E+03</rscale>
<asrwt>0</asrwt>
<pdfrwt beam="1">  1       21 0.95045824E-01 0.12500000E+03</pdfrwt>
<pdfrwt beam="2">  1       21 0.97274785E-03 0.12500000E+03</pdfrwt>
<totfact> 0.36024032E+06</totfact>
</mgrwt>
</event>
<event>
 3    0  0.1368989E+001  0.1250000E+03  0.7546771E-02  0.1235069E+00
         21   -1    0    0  502  501  0.00000000000E+00  0.00000000000E+00  0.42652612594E+01  0.42652612594E+01  0.00000000000E+00 0.  1.
         21   -1    0    0  501  502 -0.00000000000E+00 -0.00000000000E+00 -0.91582901080E+03  0.91582901080E+03  0.00000000000E+00 0.  1.
         25    1    1    2    0    0  0.00000000000E+00  0.00000000000E+00 -0.91156374954E+03  0.92009427206E+03  0.12500000000E+03 0.  0.
<mgrwt>
<rscale>  2 0.12500000E+03</rscale>
<asrwt>0</asrwt>
<pdfrwt beam="1">  1       21 0.65619343E-03 0.12500000E+03</pdfrwt>
<pdfrwt beam="2">  1       21 0.14089690E+00 0.12500000E+03</pdfrwt>
<totfact> 0.25729497E+06</totfact>
</mgrwt>
</event>
<event>
 3    0  0.1525637E+001  0.1250000E+03  0.7546771E-02  0.1235069E+00
         21   -1    0    0  502  501  0.00000000000E+00  0.00000000000E+00  0.11971921118E+02  0.11971921118E+02  0.00000000000E+00 0. -1.
         21   -1    0    0  501  502 -0.00000000000E+00 -0.00000000000E+00 -0.32628430822E+03  0.32628430822E+03  0.00000000000E+00 0. -1.
         25    1    1    2    0    0  0.00000000000E+00  0.00000000000E+00 -0.31431238711E+03  0.33825622934E+03  0.12500000000E+03 0.  0.
<mgrwt>
<rscale>  2 0.12500000E+03</rscale>
<asrwt>0</asrwt>
<pdfrwt beam="1">  1       21 0.18418342E-02 0.12500000E+03</pdfrwt>
<pdfrwt beam="2">  1       21 0.50197582E-01 0.12500000E+03</pdfrwt>
<totfact> 0.52417614E+06</totfact>
</mgrwt>
</event>
<event>
 3    0  0.1368989E+001  0.1250000E+03  0.7546771E-02  0.1235069E+00
         21   -1    0    0  502  501  0.00000000000E+00  0.00000000000E+00  0.16926506970E+04  0.16926506970E+04  0.00000000000E+00 0.  1.
         21   -1    0    0  501  502 -0.00000000000E+00 -0.00000000000E+00 -0.23077708867E+01  0.23077708867E+01  0.00000000000E+00 0.  1.
         25    1    1    2    0    0  0.00000000000E+00  0.00000000000E+00  0.16903429261E+04  0.16949584679E+04  0.12500000000E+03 0.  0.
<mgrwt>
<rscale>  2 0.12500000E+03</rscale>
<asrwt>0</asrwt>
<pdfrwt beam="1">  1       21 0.26040681E+00 0.12500000E+03</pdfrwt>
<pdfrwt beam="2">  1       21 0.35504303E-03 0.12500000E+03</pdfrwt>
<totfact> 0.11332925E+06</totfact>
</mgrwt>
</event>
<event>
 3    0  0.1368989E+001  0.1250000E+03  0.7546771E-02  0.1235069E+00
         21   -1    0    0  502  501  0.00000000000E+00  0.00000000000E+00  0.13496181201E+01  0.13496181201E+01  0.00000000000E+00 0.  1.
         21   -1    0    0  501  502 -0.00000000000E+00 -0.00000000000E+00 -0.28943372512E+04  0.28943372512E+04  0.00000000000E+00 0.  1.
         25    1    1    2    0    0  0.00000000000E+00  0.00000000000E+00 -0.28929876331E+04  0.28956868693E+04  0.12500000000E+03 0.  0.
<mgrwt>
<rscale>  2 0.12500000E+03</rscale>
<asrwt>0</asrwt>
<pdfrwt beam="1">  1       21 0.20763525E-03 0.12500000E+03</pdfrwt>
<pdfrwt beam="2">  1       21 0.44527902E+00 0.12500000E+03</pdfrwt>
<totfact> 0.20983340E+05</totfact>
</mgrwt>
</event>
<event>
 3    0  0.1712723E+001  0.1250000E+03  0.7546771E-02  0.1235069E+00
         21   -1    0    0  502  501  0.00000000000E+00  0.00000000000E+00  0.60571644038E+02  0.60571644038E+02  0.00000000000E+00 0.  1.
         21   -1    0    0  501  502 -0.00000000000E+00 -0.00000000000E+00 -0.64489747010E+02  0.64489747010E+02  0.00000000000E+00 0.  1.
         25    1    1    2    0    0  0.00000000000E+00  0.00000000000E+00 -0.39181029719E+01  0.12506139105E+03  0.12500000000E+03 0.  0.
<mgrwt>
<rscale>  2 0.12500000E+03</rscale>
<asrwt>0</asrwt>
<pdfrwt beam="1">  1       21 0.93187145E-02 0.12500000E+03</pdfrwt>
<pdfrwt beam="2">  1       21 0.99214995E-02 0.12500000E+03</pdfrwt>
<totfact> 0.74035290E+06</totfact>
</mgrwt>
</event>
<event>
 3    0  0.1621727E+001  0.1250000E+03  0.7546771E-02  0.1235069E+00
         21   -1    0    0  502  501  0.00000000000E+00  0.00000000000E+00  0.22637292232E+03  0.22637292232E+03  0.00000000000E+00 0.  1.
         21   -1    0    0  501  502 -0.00000000000E+00 -0.00000000000E+00 -0.17255818231E+02  0.17255818231E+02  0.00000000000E+00 0.  1.
         25    1    1    2    0    0  0.00000000000E+00  0.00000000000E+00  0.20911710409E+03  0.24362874055E+03  0.12500000000E+03 0.  0.
<mgrwt>
<rscale>  2 0.12500000E+03</rscale>
<asrwt>0</asrwt>
<pdfrwt beam="1">  1       21 0.34826601E-01 0.12500000E+03</pdfrwt>
<pdfrwt beam="2">  1       21 0.26547414E-02 0.12500000E+03</pdfrwt>
<totfact> 0.60483275E+06</totfact>
</mgrwt>
</event>
<event>
 3    0  0.1682198E+001  0.1250000E+03  0.7546771E-02  0.1235069E+00
         21   -1    0    0  502  501  0.00000000000E+00  0.00000000000E+00  0.89960644393E+02  0.89960644393E+02  0.00000000000E+00 0. -1.
         21   -1    0    0  501  502 -0.00000000000E+00 -0.00000000000E+00 -0.43421765444E+02  0.43421765444E+02  0.00000000000E+00 0. -1.
         25    1    1    2    0    0  0.00000000000E+00  0.00000000000E+00  0.46538878949E+02  0.13338240984E+03  0.12500000000E+03 0.  0.
<mgrwt>
<rscale>  2 0.12500000E+03</rscale>
<asrwt>0</asrwt>
<pdfrwt beam="1">  1       21 0.13840099E-01 0.12500000E+03</pdfrwt>
<pdfrwt beam="2">  1       21 0.66802716E-02 0.12500000E+03</pdfrwt>
<totfact> 0.72911376E+06</totfact>
</mgrwt>
</event>
<event>
 3    0  0.1478654E+001  0.1250000E+03  0.7546771E-02  0.1235069E+00
         21   -1    0    0  502  501  0.00000000000E+00  0.00000000000E+00  0.75720412602E+01  0.75720412602E+01  0.00000000000E+00 0.  1.
         21   -1    0    0  501  502 -0.00000000000E+00 -0.00000000000E+00 -0.51587806587E+03  0.51587806587E+03  0.00000000000E+00 0.  1.
         25    1    1    2    0    0  0.00000000000E+00  0.00000000000E+00 -0.50830602461E+03  0.52345010713E+03  0.12500000000E+03 0.  0.
<mgrwt>
<rscale>  2 0.12500000E+03</rscale>
<asrwt>0</asrwt>
<pdfrwt beam="1">  1       21 0.11649293E-02 0.12500000E+03</pdfrwt>
<pdfrwt beam="2">  1       21 0.79365867E-01 0.12500000E+03</pdfrwt>
<totfact> 0.40800216E+06</totfact>
</mgrwt>
</event>
<event>
 3    0  0.1583279E+001  0.1250000E+03  0.7546771E-02  0.1235069E+00
         21   -1    0    0  502  501  0.00000000000E+00  0.00000000000E+00  0.26794357999E+03  0.26794357999E+03  0.00000000000E+00 0.  1.
         21   -1    0    0  501  502 -0.00000000000E+00 -0.00000000000E+00 -0.14578628830E+02  0.14578628830E+02  0.00000000000E+00 0.  1.
         25    1    1    2    0    0  0.00000000000E+00  0.00000000000E+00  0.25336495116E+03  0.28252220882E+03  0.12500000000E+03 0.  0.
<mgrwt>
<rscale>  2 0.12500000E+03</rscale>
<asrwt>0</asrwt>
<pdfrwt beam="1">  1       21 0.41222086E-01 0.12500000E+03</pdfrwt>
<pdfrwt beam="2">  1       21 0.22428662E-02 0.12500000E+03</pdfrwt>
<totfact> 0.56940662E+06</totfact>
</mgrwt>
</event>
<event>
 3    0  0.1617789E+001  0.1250000E+03  0.7546771E-02  0.1235069E+00
         21   -1    0    0  502  501  0.00000000000E+00  0.00000000000E+00  0.24018114827E+03  0.24018114827E+03  0.00000000000E+00 0.  1.
         21   -1    0    0  501  502 -0.00000000000E+00 -0.00000000000E+00 -0.16263766029E+02  0.16263766029E+02  0.00000000000E+00 0.  1.
         25    1    1    2    0    0  0.00000000000E+00  0.00000000000E+00  0.22391738225E+03  0.25644491430E+03  0.12500000000E+03 0.  0.
<mgrwt>
<rscale>  2 0.12500000E+03</rscale>
<asrwt>0</asrwt>
<pdfrwt beam="1">  1       21 0.36950943E-01 0.12500000E+03</pdfrwt>
<pdfrwt beam="2">  1       21 0.25021180E-02 0.12500000E+03</pdfrwt>
<totfact> 0.59276662E+06</totfact>
</mgrwt>
</event>
<event>
 3    0  0.1704320E+001  0.1250000E+03  0.7546771E-02  0.1235069E+00
         21   -1    0    0  502  501  0.00000000000E+00  0.00000000000E+00  0.87137358538E+02  0.87137358538E+02  0.00000000000E+00 0.  1.
         21   -1    0    0  501  502 -0.00000000000E+00 -0.00000000000E+00 -0.44828648304E+02  0.44828648304E+02  0.00000000000E+00 0.  1.
         25    1    1    2    0    0  0.00000000000E+00  0.00000000000E+00  0.42308710235E+02  0.13196600684E+03  0.12500000000E+03 0.  0.
<mgrwt>
<rscale>  2 0.12500000E+03</rscale>
<asrwt>0</asrwt>
<pdfrwt beam="1">  1       21 0.13405747E-01 0.12500000E+03</pdfrwt>
<pdfrwt beam="2">  1       21 0.68967151E-02 0.12500000E+03</pdfrwt>
<totfact> 0.73100789E+06</totfact>
</mgrwt>
</event>
<event>
 3    0  0.1435690E+001  0.1250000E+03  0.7546771E-02  0.1235069E+00
         21   -1    0    0  502  501  0.00000000000E+00  0.00000000000E+00  0.77704679208E+01  0.77704679208E+01  0.00000000000E+00 0.  1.
         21   -1    0    0  501  502 -0.00000000000E+00 -0.00000000000E+00 -0.50270460413E+03  0.50270460413E+03  0.00000000000E+00 0.  1.
         25    1    1    2    0    0  0.00000000000E+00  0.00000000000E+00 -0.49493413621E+03  0.51047507205E+03  0.12500000000E+03 0.  0.
<mgrwt>
<rscale>  2 0.12500000E+03</rscale>
<asrwt>0</asrwt>
<pdfrwt beam="1">  1       21 0.11954569E-02 0.12500000E+03</pdfrwt>
<pdfrwt beam="2">  1       21 0.77339152E-01 0.12500000E+03</pdfrwt>
<totfact> 0.41481629E+06</totfact>
</mgrwt>
</event>
<event>
 3    0  0.1683870E+001  0.1250000E+03  0.7546771E-02  0.1235069E+00
         21   -1    0    0  502  501  0.00000000000E+00  0.00000000000E+00  0.81909713240E+02  0.81909713240E+02  0.00000000000E+00 0. -1.
         21   -1    0    0  501  502 -0.00000000000E+00 -0.00000000000E+00 -0.47689704254E+02  0.47689704254E+02  0.00000000000E+00 0. -1.
         25    1    1    2    0    0  0.00000000000E+00  0.00000000000E+00  0.34220008986E+02  0.12959941749E+03  0.12500000000E+03 0.  0.
<mgrwt>
<rscale>  2 0.12500000E+03</rscale>
<asrwt>0</asrwt>
<pdfrwt beam="1">  1       21 0.12601494E-01 0.12500000E+03</pdfrwt>
<pdfrwt beam="2">  1       21 0.73368776E-02 0.12500000E+03</pdfrwt>
<totfact> 0.73418502E+06</totfact>
</mgrwt>
</event>
<event>
 3    0  0.1472428E+001  0.1250000E+03  0.7546771E-02  0.1235069E+00
         21   -1    0    0  502  501  0.00000000000E+00  0.00000000000E+00  0.96549591595E+01  0.96549591595E+01  0.00000000000E+00 0. -1.
         21   -1    0    0  501  502 -0.00000000000E+00 -0.00000000000E+00 -0.40458482894E+03  0.40458482894E+03  0.00000000000E+00 0. -1.
         25    1    1    2    0    0  0.00000000000E+00  0.00000000000E+00 -0.39492986978E+03  0.41423978810E+03  0.12500000000E+03 0.  0.
<mgrwt>
<rscale>  2 0.12500000E+03</rscale>
<asrwt>0</asrwt>
<pdfrwt beam="1">  1       21 0.14853784E-02 0.12500000E+03</pdfrwt>
<pdfrwt beam="2">  1       21 0.62243818E-01 0.12500000E+03</pdfrwt>
<totfact> 0.47110965E+06</totfact>
</mgrwt>
</event>
<event>
 3    0  0.1368989E+001  0.1250000E+03  0.7546771E-02  0.1235069E+00
         21   -1    0    0  502  501  0.00000000000E+00  0.00000000000E+00  0.79312247410E+03  0.79312247410E+03  0.00000000000E+00 0.  1.
         21   -1    0    0  501  502 -0.00000000000E+00 -0.00000000000E+00 -0.49251535892E+01  0.49251535892E+01  0.00000000000E+00 0.  1.
         25    1    1    2    0    0  0.00000000000E+00  0.00000000000E+00  0.78819732052E+03  0.79804762769E+03  0.12500000000E+03 0.  0.
<mgrwt>
<rscale>  2 0.12500000E+03</rscale>
<asrwt>0</asrwt>
<pdfrwt beam="1">  1       21 0.12201874E+00 0.12500000E+03</pdfrwt>
<pdfrwt beam="2">  1       21 0.75771657E-03 0.12500000E+03</pdfrwt>
<totfact> 0.29427627E+06</totfact>
</mgrwt>
</event>
<event>
 3    0  0.1667541E+001  0.1250000E+03  0.7546771E-02  0.1235069E+00
         21   -1    0    0  502  501  0.00000000000E+00  0.00000000000E+00  0.11964174489E+03  0.11964174489E+03  0.00000000000E+00 0. -1.
         21   -1    0    0  501  502 -0.00000000000E+00 -0.00000000000E+00 -0.32649557256E+02  0.32649557256E+02  0.00000000000E+00 0. -1.
         25    1    1    2    0    0  0.00000000000E+00  0.00000000000E+00  0.86992187636E+02  0.15229130215E+03  0.12500000000E+03 0.  0.
<mgrwt>
<rscale>  2 0.12500000E+03</rscale>
<asrwt>0</asrwt>
<pdfrwt beam="1">  1       21 0.18406422E-01 0.12500000E+03</pdfrwt>
<pdfrwt beam="2">  1       21 0.50230089E-02 0.12500000E+03</pdfrwt>
<totfact> 0.70472545E+06</totfact>
</mgrwt>
</event>
<event>
 3    0  0.1368989E+001  0.1250000E+03  0.7546771E-02  0.1235069E+00
         21   -1    0    0  502  501  0.00000000000E+00  0.00000000000E+00  0.75778355586E+03  0.75778355586E+03  0.00000000000E+00 0. -1.
         21   -1    0    0  501  502 -0.00000000000E+00 -0.00000000000E+00 -0.51548360607E+01  0.51548360607E+01  0.00000000000E+00 0. -1.
         25    1    1    2    0    0  0.00000000000E+00  0.00000000000E+00  0.75262871980E+03  0.76293839192E+03  0.12500000000E+03 0.  0.
<mgrwt>
<rscale>  2 0.12500000E+03</rscale>
<asrwt>0</asrwt>
<pdfrwt beam="1">  1       21 0.11658200E+00 0.12500000E+03</pdfrwt>
<pdfrwt beam="2">  1       21 0.79305230E-03 0.12500000E+03</pdfrwt>
<totfact> 0.30618959E+06</totfact>
</mgrwt>
</event>
<event>
 3    0  0.1391491E+001  0.1250000E+03  0.7546771E-02  0.1235069E+00
         21   -1    0    0  502  501  0.00000000000E+00  0.00000000000E+00  0.62644574507E+01  0.62644574507E+01  0.00000000000E+00 0. -1.
         21   -1    0    0  501  502 -0.00000000000E+00 -0.00000000000E+00 -0.62355759150E+03  0.62355759150E+03  0.00000000000E+00 0. -1.
         25    1    1    2    0    0  0.00000000000E+00  0.00000000000E+00 -0.61729313405E+03  0.62982204895E+03  0.12500000000E+03 0.  0.
<mgrwt>
<rscale>  2 0.12500000E+03</rscale>
<asrwt>0</asrwt>
<pdfrwt beam="1">  1       21 0.96376260E-03 0.12500000E+03</pdfrwt>
<pdfrwt beam="2">  1       21 0.95931945E-01 0.12500000E+03</pdfrwt>
<totfact> 0.35777773E+06</totfact>
</mgrwt>
</event>
<event>
 3    0  0.1669127E+001  0.1250000E+03  0.7546771E-02  0.1235069E+00
         21   -1    0    0  502  501  0.00000000000E+00  0.00000000000E+00  0.13836684871E+03  0.13836684871E+03  0.00000000000E+00 0.  1.
         21   -1    0    0  501  502 -0.00000000000E+00 -0.00000000000E+00 -0.28231111977E+02  0.28231111977E+02  0.00000000000E+00 0.  1.
         25    1    1    2    0    0  0.00000000000E+00  0.00000000000E+00  0.11013573674E+03  0.16659796069E+03  0.12500000000E+03 0.  0.
<mgrwt>
<rscale>  2 0.12500000E+03</rscale>
<asrwt>0</asrwt>
<pdfrwt beam="1">  1       21 0.21287207E-01 0.12500000E+03</pdfrwt>
<pdfrwt beam="2">  1       21 0.43432481E-02 0.12500000E+03</pdfrwt>
<totfact> 0.68722149E+06</totfact>
</mgrwt>
</event>
<event>
 3    0  0.1368989E+001  0.1250000E+03  0.7546771E-02  0.1235069E+00
         21   -1    0    0  502  501  0.00000000000E+00  0.00000000000E+00  0.15508136204E+01  0.15508136204E+01  0.00000000000E+00 0.  1.
         21   -1    0    0  501  502 -0.00000000000E+00 -0.00000000000E+00 -0.25188391104E+04  0.25188391104E+04  0.00000000000E+00 0.  1.
         25    1    1    2    0    0  0.00000000000E+00  0.00000000000E+00 -0.25172882967E+04  0.25203899240E+04  0.12500000000E+03 0.  0.
<mgrwt>
<rscale>  2 0.12500000E+03</rscale>
<asrwt>0</asrwt>
<pdfrwt beam="1">  1       21 0.23858751E-03 0.12500000E+03</pdfrwt>
<pdfrwt beam="2">  1       21 0.38751242E+00 0.12500000E+03</pdfrwt>
<totfact> 0.38995225E+05</totfact>
</mgrwt>
</event>
<event>
 3    0  0.1640785E+001  0.1250000E+03  0.7546771E-02  0.1235069E+00
         21   -1    0    0  502  501  0.00000000000E+00  0.00000000000E+00  0.16853758507E+03  0.16853758507E+03  0.00000000000E+00 0. -1.
         21   -1    0    0  501  502 -0.00000000000E+00 -0.00000000000E+00 -0.23177322723E+02  0.23177322723E+02  0.00000000000E+00 0. -1.
         25    1    1    2    0    0  0.00000000000E+00  0.00000000000E+00  0.14536026234E+03  0.19171490779E+03  0.12500000000E+03 0.  0.
<mgrwt>
<rscale>  2 0.12500000E+03</rscale>
<asrwt>0</asrwt>
<pdfrwt beam="1">  1       21 0.25928858E-01 0.12500000E+03</pdfrwt>
<pdfrwt beam="2">  1       21 0.35657421E-02 0.12500000E+03</pdfrwt>
<totfact> 0.65832374E+06</totfact>
</mgrwt>
</event>
<event>
 3    0  0.1368989E+001  0.1250000E+03  0.7546771E-02  0.1235069E+00
         21   -1    0    0  502  501  0.00000000000E+00  0.00000000000E+00  0.23568031431E+04  0.23568031431E+04  0.00000000000E+00 0.  1.
         21   -1    0    0  501  502 -0.00000000000E+00 -0.00000000000E+00 -0.16574358412E+01  0.16574358412E+01  0.00000000000E+00 0.  1.
         25    1    1    2    0    0  0.00000000000E+00  0.00000000000E+00  0.23551457072E+04  0.23584605789E+04  0.12500000000E+03 0.  0.
<mgrwt>
<rscale>  2 0.12500000E+03</rscale>
<asrwt>0</asrwt>
<pdfrwt beam="1">  1       21 0.36258242E+00 0.12500000E+03</pdfrwt>
<pdfrwt beam="2">  1       21 0.25499202E-03 0.12500000E+03</pdfrwt>
<totfact> 0.49512053E+05</totfact>
</mgrwt>
</event>
<event>
 3    0  0.1674613E+001  0.1250000E+03  0.7546771E-02  0.1235069E+00
         21   -1    0    0  502  501  0.00000000000E+00  0.00000000000E+00  0.10483778629E+03  0.10483778629E+03  0.00000000000E+00 0. -1.
         21   -1    0    0  501  502 -0.00000000000E+00 -0.00000000000E+00 -0.37259943560E+02  0.37259943560E+02  0.00000000000E+00 0. -1.
         25    1    1    2    0    0  0.00000000000E+00  0.00000000000E+00  0.67577842726E+02  0.14209772985E+03  0.12500000000E+03 0.  0.
<mgrwt>
<rscale>  2 0.12500000E+03</rscale>
<asrwt>0</asrwt>
<pdfrwt beam="1">  1       21 0.16128890E-01 0.12500000E+03</pdfrwt>
<pdfrwt beam="2">  1       21 0.57322991E-02 0.12500000E+03</pdfrwt>
<totfact> 0.71766624E+06</totfact>
</mgrwt>
</event>
<event>
 3    0  0.1497496E+001  0.1250000E+03  0.7546771E-02  0.1235069E+00
         21   -1    0    0  502  501  0.00000000000E+00  0.00000000000E+00  0.86887489591E+01  0.86887489591E+01  0.00000000000E+00 0.  1.
         21   -1    0    0  501  502 -0.00000000000E+00 -0.00000000000E+00 -0.44957565449E+03  0.44957565449E+03  0.00000000000E+00 0.  1.
         25    1    1    2    0    0  0.00000000000E+00  0.00000000000E+00 -0.44088690553E+03  0.45826440345E+03  0.12500000000E+03 0.  0.
<mgrwt>
<rscale>  2 0.12500000E+03</rscale>
<asrwt>0</asrwt>
<pdfrwt beam="1">  1       21 0.13367301E-02 0.12500000E+03</pdfrwt>
<pdfrwt beam="2">  1       21 0.69165510E-01 0.12500000E+03</pdfrwt>
<totfact> 0.44401831E+06</totfact>
</mgrwt>
</event>
<event>
 3    0  0.1480425E+001  0.1250000E+03  0.7546771E-02  0.1235069E+00
         21   -1    0    0  502  501  0.00000000000E+00  0.00000000000E+00  0.45919609815E+03  0.45919609815E+03  0.00000000000E+00 0.  1.
         21   -1    0    0  501  502 -0.00000000000E+00 -0.00000000000E+00 -0.85067142682E+01  0.85067142682E+01  0.00000000000E+00 0.  1.
         25    1    1    2    0    0  0.00000000000E+00  0.00000000000E+00  0.45068938388E+03  0.46770281242E+03  0.12500000000E+03 0.  0.
<mgrwt>
<rscale>  2 0.12500000E+03</rscale>
<asrwt>0</asrwt>
<pdfrwt beam="1">  1       21 0.70645535E-01 0.12500000E+03</pdfrwt>
<pdfrwt beam="2">  1       21 0.13087256E-02 0.12500000E+03</pdfrwt>
<totfact> 0.43851584E+06</totfact>
</mgrwt>
</event>
<event>
 3    0  0.1386097E+001  0.1250000E+03  0.7546771E-02  0.1235069E+00
         21   -1    0    0  502  501  0.00000000000E+00  0.00000000000E+00  0.66511379519E+01  0.66511379519E+01  0.00000000000E+00 0. -1.
         21   -1    0    0  501  502 -0.00000000000E+00 -0.00000000000E+00 -0.58730551497E+03  0.58730551497E+03  0.00000000000E+00 0. -1.
         25    1    1    2    0    0  0.00000000000E+00  0.00000000000E+00 -0.58065437702E+03  0.59395665292E+03  0.12500000000E+03 0.  0.
<mgrwt>
<rscale>  2 0.12500000E+03</rscale>
<asrwt>0</asrwt>
<pdfrwt beam="1">  1       21 0.10232524E-02 0.12500000E+03</pdfrwt>
<pdfrwt beam="2">  1       21 0.90354661E-01 0.12500000E+03</pdfrwt>
<totfact> 0.37367377E+06</totfact>
</mgrwt>
</event>
<event>
 3    0  0.1368989E+001  0.1250000E+03  0.7546771E-02  0.1235069E+00
         21   -1    0    0  502  501  0.00000000000E+00  0.00000000000E+00  0.72275599906E+03  0.72275599906E+03  0.00000000000E+00 0. -1.
         21   -1    0    0  501  502 -0.00000000000E+00 -0.00000000000E+00 -0.54046593942E+01  0.54046593942E+01  0.00000000000E+00 0. -1.
         25    1    1    2    0    0  0.00000000000E+00  0.00000000000E+00  0.71735133966E+03  0.72816065845E+03  0.12500000000E+03 0.  0.
<mgrwt>
<rscale>  2 0.12500000E+03</rscale>
<asrwt>0</asrwt>
<pdfrwt beam="1">  1       21 0.11119315E+00 0.12500000E+03</pdfrwt>
<pdfrwt beam="2">  1       21 0.83148663E-03 0.12500000E+03</pdfrwt>
<totfact> 0.31852327E+06</totfact>
</mgrwt>
</event>
<event>
 3    0  0.1649348E+001  0.1250000E+03  0.7546771E-02  0.1235069E+00
         21   -1    0    0  502  501  0.00000000000E+00  0.00000000000E+00  0.20753645360E+02  0.20753645360E+02  0.00000000000E+00 0.  1.
         21   -1    0    0  501  502 -0.00000000000E+00 -0.00000000000E+00 -0.18821994557E+03  0.18821994557E+03  0.00000000000E+00 0.  1.
         25    1    1    2    0    0  0.00000000000E+00  0.00000000000E+00 -0.16746630021E+03  0.20897359093E+03  0.12500000000E+03 0.  0.
<mgrwt>
<rscale>  2 0.12500000E+03</rscale>
<asrwt>0</asrwt>
<pdfrwt beam="1">  1       21 0.31928685E-02 0.12500000E+03</pdfrwt>
<pdfrwt beam="2">  1       21 0.28956914E-01 0.12500000E+03</pdfrwt>
<totfact> 0.63967688E+06</totfact>
</mgrwt>
</event>
<event>
 3    0  0.1368989E+001  0.1250000E+03  0.7546771E-02  0.1235069E+00
         21   -1    0    0  502  501  0.00000000000E+00  0.00000000000E+00  0.21199218522E+04  0.21199218522E+04  0.00000000000E+00 0.  1.
         21   -1    0    0  501  502 -0.00000000000E+00 -0.00000000000E+00 -0.18426386784E+01  0.18426386784E+01  0.00000000000E+00 0.  1.
         25    1    1    2    0    0  0.00000000000E+00  0.00000000000E+00  0.21180792135E+04  0.21217644909E+04  0.12500000000E+03 0.  0.
<mgrwt>
<rscale>  2 0.12500000E+03</rscale>
<asrwt>0</asrwt>
<pdfrwt beam="1">  1       21 0.32613987E+00 0.12500000E+03</pdfrwt>
<pdfrwt beam="2">  1       21 0.28348457E-03 0.12500000E+03</pdfrwt>
<totfact> 0.68206900E+05</totfact>
</mgrwt>
</event>
<event>
 3    0  0.1697900E+001  0.1250000E+03  0.7546771E-02  0.1235069E+00
         21   -1    0    0  502  501  0.00000000000E+00  0.00000000000E+00  0.34882520427E+02  0.34882520427E+02  0.00000000000E+00 0.  1.
         21   -1    0    0  501  502 -0.00000000000E+00 -0.00000000000E+00 -0.11198302050E+03  0.11198302050E+03  0.00000000000E+00 0.  1.
         25    1    1    2    0    0  0.00000000000E+00  0.00000000000E+00 -0.77100500072E+02  0.14686554093E+03  0.12500000000E+03 0.  0.
<mgrwt>
<rscale>  2 0.12500000E+03</rscale>
<asrwt>0</asrwt>
<pdfrwt beam="1">  1       21 0.53665416E-02 0.12500000E+03</pdfrwt>
<pdfrwt beam="2">  1       21 0.17228157E-01 0.12500000E+03</pdfrwt>
<totfact> 0.71155203E+06</totfact>
</mgrwt>
</event>
<event>
 3    0  0.1698940E+001  0.1250000E+03  0.7546771E-02  0.1235069E+00
         21   -1    0    0  502  501  0.00000000000E+00  0.00000000000E+00  0.10476953413E+03  0.10476953413E+03  0.00000000000E+00 0.  1.
         21   -1    0    0  501  502 -0.00000000000E+00 -0.00000000000E+00 -0.37284216567E+02  0.37284216567E+02  0.00000000000E+00 0.  1.
         25    1    1    2    0    0  0.00000000000E+00  0.00000000000E+00  0.67485317559E+02  0.14205375069E+03  0.12500000000E+03 0.  0.
<mgrwt>
<rscale>  2 0.12500000E+03</rscale>
<asrwt>0</asrwt>
<pdfrwt beam="1">  1       21 0.16118390E-01 0.12500000E+03</pdfrwt>
<pdfrwt beam="2">  1       21 0.57360334E-02 0.12500000E+03</pdfrwt>
<totfact> 0.71772317E+06</totfact>
</mgrwt>
</event>
<event>
 3    0  0.1704100E+001  0.1250000E+03  0.7546771E-02  0.1235069E+00
         21   -1    0    0  502  501  0.00000000000E+00  0.00000000000E+00  0.96149411662E+02  0.96149411662E+02  0.00000000000E+00 0.  1.
         21   -1    0    0  501  502 -0.00000000000E+00 -0.00000000000E+00 -0.40626873659E+02  0.40626873659E+02  0.00000000000E+00 0.  1.
         25    1    1    2    0    0  0.00000000000E+00  0.00000000000E+00  0.55522538003E+02  0.13677628532E+03  0.12500000000E+03 0.  0.
<mgrwt>
<rscale>  2 0.12500000E+03</rscale>
<asrwt>0</asrwt>
<pdfrwt beam="1">  1       21 0.14792217E-01 0.12500000E+03</pdfrwt>
<pdfrwt beam="2">  1       21 0.62502883E-02 0.12500000E+03</pdfrwt>
<totfact> 0.72462124E+06</totfact>
</mgrwt>
</event>
<event>
 3    0  0.1517568E+001  0.1250000E+03  0.7546771E-02  0.1235069E+00
         21   -1    0    0  502  501  0.00000000000E+00  0.00000000000E+00  0.10223309424E+02  0.10223309424E+02  0.00000000000E+00 0. -1.
         21   -1    0    0  501  502 -0.00000000000E+00 -0.00000000000E+00 -0.38209251406E+03  0.38209251406E+03  0.00000000000E+00 0. -1.
         25    1    1    2    0    0  0.00000000000E+00  0.00000000000E+00 -0.37186920464E+03  0.39231582349E+03  0.12500000000E+03 0.  0.
<mgrwt>
<rscale>  2 0.12500000E+03</rscale>
<asrwt>0</asrwt>
<pdfrwt beam="1">  1       21 0.15728167E-02 0.12500000E+03</pdfrwt>
<pdfrwt beam="2">  1       21 0.58783469E-01 0.12500000E+03</pdfrwt>
<totfact> 0.48555243E+06</totfact>
</mgrwt>
</event>
<event>
 3    0  0.1580851E+001  0.1250000E+03  0.7546771E-02  0.1235069E+00
         21   -1    0    0  502  501  0.00000000000E+00  0.00000000000E+00  0.25907891585E+03  0.25907891585E+03  0.00000000000E+00 0. -1.
         21   -1    0    0  501  502 -0.00000000000E+00 -0.00000000000E+00 -0.15077452316E+02  0.15077452316E+02  0.00000000000E+00 0. -1.
         25    1    1    2    0    0  0.00000000000E+00  0.00000000000E+00  0.24400146354E+03  0.27415636817E+03  0.12500000000E+03 0.  0.
<mgrwt>
<rscale>  2 0.12500000E+03</rscale>
<asrwt>0</asrwt>
<pdfrwt beam="1">  1       21 0.39858292E-01 0.12500000E+03</pdfrwt>
<pdfrwt beam="2">  1       21 0.23196082E-02 0.12500000E+03</pdfrwt>
<totfact> 0.57674671E+06</totfact>
</mgrwt>
</event>
<event>
 3    0  0.1684772E+001  0.1250000E+03  0.7546771E-02  0.1235069E+00
         21   -1    0    0  502  501  0.00000000000E+00  0.00000000000E+00  0.48241534999E+02  0.48241534999E+02  0.00000000000E+00 0. -1.
         21   -1    0    0  501  502 -0.00000000000E+00 -0.00000000000E+00 -0.80972755117E+02  0.80972755117E+02  0.00000000000E+00 0. -1.
         25    1    1    2    0    0  0.00000000000E+00  0.00000000000E+00 -0.32731220118E+02  0.12921429012E+03  0.12500000000E+03 0.  0.
<mgrwt>
<rscale>  2 0.12500000E+03</rscale>
<asrwt>0</asrwt>
<pdfrwt beam="1">  1       21 0.74217747E-02 0.12500000E+03</pdfrwt>
<pdfrwt beam="2">  1       21 0.12457347E-01 0.12500000E+03</pdfrwt>
<totfact> 0.73470118E+06</totfact>
</mgrwt>
</event>
<event>
 3    0  0.1657317E+001  0.1250000E+03  0.7546771E-02  0.1235069E+00
         21   -1    0    0  502  501  0.00000000000E+00  0.00000000000E+00  0.13309900761E+03  0.13309900761E+03  0.00000000000E+00 0. -1.
         21   -1    0    0  501  502 -0.00000000000E+00 -0.00000000000E+00 -0.29348453230E+02  0.29348453230E+02  0.00000000000E+00 0. -1.
         25    1    1    2    0    0  0.00000000000E+00  0.00000000000E+00  0.10375055438E+03  0.16244746085E+03  0.12500000000E+03 0.  0.
<mgrwt>
<rscale>  2 0.12500000E+03</rscale>
<asrwt>0</asrwt>
<pdfrwt beam="1">  1       21 0.20476770E-01 0.12500000E+03</pdfrwt>
<pdfrwt beam="2">  1       21 0.45151468E-02 0.12500000E+03</pdfrwt>
<totfact> 0.69221673E+06</totfact>
</mgrwt>
</event>
<event>
 3    0  0.1537111E+001  0.1250000E+03  0.7546771E-02  0.1235069E+00
         21   -1    0    0  502  501  0.00000000000E+00  0.00000000000E+00  0.10984518389E+02  0.10984518389E+02  0.00000000000E+00 0. -1.
         21   -1    0    0  501  502 -0.00000000000E+00 -0.00000000000E+00 -0.35561413453E+03  0.35561413453E+03  0.00000000000E+00 0. -1.
         25    1    1    2    0    0  0.00000000000E+00  0.00000000000E+00 -0.34462961614E+03  0.36659865292E+03  0.12500000000E+03 0.  0.
<mgrwt>
<rscale>  2 0.12500000E+03</rscale>
<asrwt>0</asrwt>
<pdfrwt beam="1">  1       21 0.16899260E-02 0.12500000E+03</pdfrwt>
<pdfrwt beam="2">  1       21 0.54709864E-01 0.12500000E+03</pdfrwt>
<totfact> 0.50335455E+06</totfact>
</mgrwt>
</event>
<event>
 3    0  0.1656526E+001  0.1250000E+03  0.7546771E-02  0.1235069E+00
         21   -1    0    0  502  501  0.00000000000E+00  0.00000000000E+00  0.16176517212E+03  0.16176517212E+03  0.00000000000E+00 0.  1.
         21   -1    0    0  501  502 -0.00000000000E+00 -0.00000000000E+00 -0.24147657674E+02  0.24147657674E+02  0.00000000000E+00 0.  1.
         25    1    1    2    0    0  0.00000000000E+00  0.00000000000E+00  0.13761751445E+03  0.18591282980E+03  0.12500000000E+03 0.  0.
<mgrwt>
<rscale>  2 0.12500000E+03</rscale>
<asrwt>0</asrwt>
<pdfrwt beam="1">  1       21 0.24886949E-01 0.12500000E+03</pdfrwt>
<pdfrwt beam="2">  1       21 0.37150244E-02 0.12500000E+03</pdfrwt>
<totfact> 0.66479623E+06</totfact>
</mgrwt>
</event>
<event>
 3    0  0.1519148E+001  0.1250000E+03  0.7546771E-02  0.1235069E+00
         21   -1    0    0  502  501  0.00000000000E+00  0.00000000000E+00  0.10724926878E+02  0.10724926878E+02  0.00000000000E+00 0. -1.
         21   -1    0    0  501  502 -0.00000000000E+00 -0.00000000000E+00 -0.36422159745E+03  0.36422159745E+03  0.00000000000E+00 0. -1.
         25    1    1    2    0    0  0.00000000000E+00  0.00000000000E+00 -0.35349667058E+03  0.37494652433E+03  0.12500000000E+03 0.  0.
<mgrwt>
<rscale>  2 0.12500000E+03</rscale>
<asrwt>0</asrwt>
<pdfrwt beam="1">  1       21 0.16499887E-02 0.12500000E+03</pdfrwt>
<pdfrwt beam="2">  1       21 0.56034093E-01 0.12500000E+03</pdfrwt>
<totfact> 0.49747198E+06</totfact>
</mgrwt>
</event>
<event>
 3    0  0.1703282E+001  0.1250000E+03  0.7546771E-02  0.1235069E+00
         21   -1    0    0  502  501  0.00000000000E+00  0.00000000000E+00  0.96606392326E+02  0.96606392326E+02  0.00000000000E+00 0.  1.
         21   -1    0    0  501  502 -0.00000000000E+00 -0.00000000000E+00 -0.40434694910E+02  0.40434694910E+02  0.00000000000E+00 0.  1.
         25    1    1    2    0    0  0.00000000000E+00  0.00000000000E+00  0.56171697416E+02  0.13704108724E+03  0.12500000000E+03 0.  0.
<mgrwt>
<rscale>  2 0.12500000E+03</rscale>
<asrwt>0</asrwt>
<pdfrwt beam="1">  1       21 0.14862522E-01 0.12500000E+03</pdfrwt>
<pdfrwt beam="2">  1       21 0.62207223E-02 0.12500000E+03</pdfrwt>
<totfact> 0.72427330E+06</totfact>
</mgrwt>
</event>
<event>
 3    0  0.1552372E+001  0.1250000E+03  0.7546771E-02  0.1235069E+00
         21   -1    0    0  502  501  0.00000000000E+00  0.00000000000E+00  0.33505021497E+03  0.33505021497E+03  0.00000000000E+00 0.  1.
         21   -1    0    0  501  502 -0.00000000000E+00 -0.00000000000E+00 -0.11658700175E+02  0.11658700175E+02  0.00000000000E+00 0.  1.
         25    1    1    2    0    0  0.00000000000E+00  0.00000000000E+00  0.32339151480E+03  0.34670891515E+03  0.12500000000E+03 0.  0.
<mgrwt>
<rscale>  2 0.12500000E+03</rscale>
<asrwt>0</asrwt>
<pdfrwt beam="1">  1       21 0.51546180E-01 0.12500000E+03</pdfrwt>
<pdfrwt beam="2">  1       21 0.17936464E-02 0.12500000E+03</pdfrwt>
<totfact> 0.51782413E+06</totfact>
</mgrwt>
</event>
<event>
 3    0  0.1368989E+001  0.1250000E+03  0.7546771E-02  0.1235069E+00
         21   -1    0    0  502  501  0.00000000000E+00  0.00000000000E+00  0.34635574488E+01  0.34635574488E+01  0.00000000000E+00 0. -1.
         21   -1    0    0  501  502 -0.00000000000E+00 -0.00000000000E+00 -0.11278144098E+04  0.11278144098E+04  0.00000000000E+00 0. -1.
         25    1    1    2    0    0  0.00000000000E+00  0.00000000000E+00 -0.11243508524E+04  0.11312779673E+04  0.12500000000E+03 0.  0.
<mgrwt>
<rscale>  2 0.12500000E+03</rscale>
<asrwt>0</asrwt>
<pdfrwt beam="1">  1       21 0.53285473E-03 0.12500000E+03</pdfrwt>
<pdfrwt beam="2">  1       21 0.17350999E+00 0.12500000E+03</pdfrwt>
<totfact> 0.20568815E+06</totfact>
</mgrwt>
</event>
<event>
 3    0  0.1476563E+001  0.1250000E+03  0.7546771E-02  0.1235069E+00
         21   -1    0    0  502  501  0.00000000000E+00  0.00000000000E+00  0.81280183140E+01  0.81280183140E+01  0.00000000000E+00 0.  1.
         21   -1    0    0  501  502 -0.00000000000E+00 -0.00000000000E+00 -0.48059069863E+03  0.48059069863E+03  0.00000000000E+00 0.  1.
         25    1    1    2    0    0  0.00000000000E+00  0.00000000000E+00 -0.47246268031E+03  0.48871871694E+03  0.12500000000E+03 0.  0.
<mgrwt>
<rscale>  2 0.12500000E+03</rscale>
<asrwt>0</asrwt>
<pdfrwt beam="1">  1       21 0.12504645E-02 0.12500000E+03</pdfrwt>
<pdfrwt beam="2">  1       21 0.73937024E-01 0.12500000E+03</pdfrwt>
<totfact> 0.42662565E+06</totfact>
</mgrwt>
</event>
<event>
 3    0  0.1368989E+001  0.1250000E+03  0.7546771E-02  0.1235069E+00
         21   -1    0    0  502  501  0.00000000000E+00  0.00000000000E+00  0.41066488431E+01  0.41066488431E+01  0.00000000000E+00 0. -1.
         21   -1    0    0  501  502 -0.00000000000E+00 -0.00000000000E+00 -0.95120136863E+03  0.95120136863E+03  0.00000000000E+00 0. -1.
         25    1    1    2    0    0  0.00000000000E+00  0.00000000000E+00 -0.94709471978E+03  0.95530801747E+03  0.12500000000E+03 0.  0.
<mgrwt>
<rscale>  2 0.12500000E+03</rscale>
<asrwt>0</asrwt>
<pdfrwt beam="1">  1       21 0.63179198E-03 0.12500000E+03</pdfrwt>
<pdfrwt beam="2">  1       21 0.14633871E+00 0.12500000E+03</pdfrwt>
<totfact> 0.24769819E+06</totfact>
</mgrwt>
</event>
<event>
 3    0  0.1662868E+001  0.1250000E+03  0.7546771E-02  0.1235069E+00
         21   -1    0    0  502  501  0.00000000000E+00  0.00000000000E+00  0.32101269891E+02  0.32101269891E+02  0.00000000000E+00 0. -1.
         21   -1    0    0  501  502 -0.00000000000E+00 -0.00000000000E+00 -0.12168521723E+03  0.12168521723E+03  0.00000000000E+00 0. -1.
         25    1    1    2    0    0  0.00000000000E+00  0.00000000000E+00 -0.89583947335E+02  0.15378648712E+03  0.12500000000E+03 0.  0.
<mgrwt>
<rscale>  2 0.12500000E+03</rscale>
<asrwt>0</asrwt>
<pdfrwt beam="1">  1       21 0.49386569E-02 0.12500000E+03</pdfrwt>
<pdfrwt beam="2">  1       21 0.18720803E-01 0.12500000E+03</pdfrwt>
<totfact> 0.70286726E+06</totfact>
</mgrwt>
</event>
<event>
 3    0  0.1676608E+001  0.1250000E+03  0.7546771E-02  0.1235069E+00
         21   -1    0    0  502  501  0.00000000000E+00  0.00000000000E+00  0.11082904499E+03  0.11082904499E+03  0.00000000000E+00 0. -1.
         21   -1    0    0  501  502 -0.00000000000E+00 -0.00000000000E+00 -0.35245724624E+02  0.35245724624E+02  0.00000000000E+00 0. -1.
         25    1    1    2    0    0  0.00000000000E+00  0.00000000000E+00  0.75583320363E+02  0.14607476961E+03  0.12500000000E+03 0.  0.
<mgrwt>
<rscale>  2 0.12500000E+03</rscale>
<asrwt>0</asrwt>
<pdfrwt beam="1">  1       21 0.17050622E-01 0.12500000E+03</pdfrwt>
<pdfrwt beam="2">  1       21 0.54224192E-02 0.12500000E+03</pdfrwt>
<totfact> 0.71255838E+06</totfact>
</mgrwt>
</event>
<event>
 3    0  0.1493707E+001  0.1250000E+03  0.7546771E-02  0.1235069E+00
         21   -1    0    0  502  501  0.00000000000E+00  0.00000000000E+00  0.94425032972E+01  0.94425032972E+01  0.00000000000E+00 0. -1.
         21   -1    0    0  501  502 -0.00000000000E+00 -0.00000000000E+00 -0.41368796781E+03  0.41368796781E+03  0.00000000000E+00 0. -1.
         25    1    1    2    0    0  0.00000000000E+00  0.00000000000E+00 -0.40424546451E+03  0.42313047110E+03  0.12500000000E+03 0.  0.
<mgrwt>
<rscale>  2 0.12500000E+03</rscale>
<asrwt>0</asrwt>
<pdfrwt beam="1">  1       21 0.14526928E-02 0.12500000E+03</pdfrwt>
<pdfrwt beam="2">  1       21 0.63644304E-01 0.12500000E+03</pdfrwt>
<totfact> 0.46544043E+06</totfact>
</mgrwt>
</event>
<event>
 3    0  0.1677625E+001  0.1250000E+03  0.7546771E-02  0.1235069E+00
         21   -1    0    0  502  501  0.00000000000E+00  0.00000000000E+00  0.30283043485E+02  0.30283043485E+02  0.00000000000E+00 0.  1.
         21   -1    0    0  501  502 -0.00000000000E+00 -0.00000000000E+00 -0.12899132816E+03  0.12899132816E+03  0.00000000000E+00 0.  1.
         25    1    1    2    0    0  0.00000000000E+00  0.00000000000E+00 -0.98708284677E+02  0.15927437165E+03  0.12500000000E+03 0.  0.
<mgrwt>
<rscale>  2 0.12500000E+03</rscale>
<asrwt>0</asrwt>
<pdfrwt beam="1">  1       21 0.46589297E-02 0.12500000E+03</pdfrwt>
<pdfrwt beam="2">  1       21 0.19844820E-01 0.12500000E+03</pdfrwt>
<totfact> 0.69608268E+06</totfact>
</mgrwt>
</event>
<event>
 3    0  0.1565501E+001  0.1250000E+03  0.7546771E-02  0.1235069E+00
         21   -1    0    0  502  501  0.00000000000E+00  0.00000000000E+00  0.13022173883E+02  0.13022173883E+02  0.00000000000E+00 0.  1.
         21   -1    0    0  501  502 -0.00000000000E+00 -0.00000000000E+00 -0.29996911693E+03  0.29996911693E+03  0.00000000000E+00 0.  1.
         25    1    1    2    0    0  0.00000000000E+00  0.00000000000E+00 -0.28694694304E+03  0.31299129081E+03  0.12500000000E+03 0.  0.
<mgrwt>
<rscale>  2 0.12500000E+03</rscale>
<asrwt>0</asrwt>
<pdfrwt beam="1">  1       21 0.20034116E-02 0.12500000E+03</pdfrwt>
<pdfrwt beam="2">  1       21 0.46149091E-01 0.12500000E+03</pdfrwt>
<totfact> 0.54393464E+06</totfact>
</mgrwt>
</event>
<event>
 3    0  0.1522376E+001  0.1250000E+03  0.7546771E-02  0.1235069E+00
         21   -1    0    0  502  501  0.00000000000E+00  0.00000000000E+00  0.40996942566E+03  0.40996942566E+03  0.00000000000E+00 0.  1.
         21   -1    0    0  501  502 -0.00000000000E+00 -0.00000000000E+00 -0.95281495534E+01  0.95281495534E+01  0.00000000000E+00 0.  1.
         25    1    1    2    0    0  0.00000000000E+00  0.00000000000E+00  0.40044127611E+03  0.41949757521E+03  0.12500000000E+03 0.  0.
<mgrwt>
<rscale>  2 0.12500000E+03</rscale>
<asrwt>0</asrwt>
<pdfrwt beam="1">  1       21 0.63072206E-01 0.12500000E+03</pdfrwt>
<pdfrwt beam="2">  1       21 0.14658695E-02 0.12500000E+03</pdfrwt>
<totfact> 0.46774433E+06</totfact>
</mgrwt>
</event>
<event>
 3    0  0.1629846E+001  0.1250000E+03  0.7546771E-02  0.1235069E+00
         21   -1    0    0  502  501  0.00000000000E+00  0.00000000000E+00  0.17895352826E+03  0.17895352826E+03  0.00000000000E+00 0. -1.
         21   -1    0    0  501  502 -0.00000000000E+00 -0.00000000000E+00 -0.21828292731E+02  0.21828292731E+02  0.00000000000E+00 0. -1.
         25    1    1    2    0    0  0.00000000000E+00  0.00000000000E+00  0.15712523553E+03  0.20078182099E+03  0.12500000000E+03 0.  0.
<mgrwt>
<rscale>  2 0.12500000E+03</rscale>
<asrwt>0</asrwt>
<pdfrwt beam="1">  1       21 0.27531311E-01 0.12500000E+03</pdfrwt>
<pdfrwt beam="2">  1       21 0.33581990E-02 0.12500000E+03</pdfrwt>
<totfact> 0.64842636E+06</totfact>
</mgrwt>
</event>
<event>
 3    0  0.1686783E+001  0.1250000E+03  0.7546771E-02  0.1235069E+00
         21   -1    0    0  502  501  0.00000000000E+00  0.00000000000E+00  0.56153181592E+02  0.56153181592E+02  0.00000000000E+00 0. -1.
         21   -1    0    0  501  502 -0.00000000000E+00 -0.00000000000E+00 -0.69564179433E+02  0.69564179433E+02  0.00000000000E+00 0. -1.
         25    1    1    2    0    0  0.00000000000E+00  0.00000000000E+00 -0.13410997841E+02  0.12571736102E+03  0.12500000000E+03 0.  0.
<mgrwt>
<rscale>  2 0.12500000E+03</rscale>
<asrwt>0</asrwt>
<pdfrwt beam="1">  1       21 0.86389511E-02 0.12500000E+03</pdfrwt>
<pdfrwt beam="2">  1       21 0.10702181E-01 0.12500000E+03</pdfrwt>
<totfact> 0.73945127E+06</totfact>
</mgrwt>
</event>
<event>
 3    0  0.1675110E+001  0.1250000E+03  0.7546771E-02  0.1235069E+00
         21   -1    0    0  502  501  0.00000000000E+00  0.00000000000E+00  0.10150722533E+03  0.10150722533E+03  0.00000000000E+00 0. -1.
         21   -1    0    0  501  502 -0.00000000000E+00 -0.00000000000E+00 -0.38482482280E+02  0.38482482280E+02  0.00000000000E+00 0. -1.
         25    1    1    2    0    0  0.00000000000E+00  0.00000000000E+00  0.63024743047E+02  0.13998970761E+03  0.12500000000E+03 0.  0.
<mgrwt>
<rscale>  2 0.12500000E+03</rscale>
<asrwt>0</asrwt>
<pdfrwt beam="1">  1       21 0.15616496E-01 0.12500000E+03</pdfrwt>
<pdfrwt beam="2">  1       21 0.59203819E-02 0.12500000E+03</pdfrwt>
<totfact> 0.72040652E+06</totfact>
</mgrwt>
</event>
<event>
 3    0  0.1711400E+001  0.1250000E+03  0.7546771E-02  0.1235069E+00
         21   -1    0    0  502  501  0.00000000000E+00  0.00000000000E+00  0.53786812643E+02  0.53786812643E+02  0.00000000000E+00 0.  1.
         21   -1    0    0  501  502 -0.00000000000E+00 -0.00000000000E+00 -0.72624678951E+02  0.72624678951E+02  0.00000000000E+00 0.  1.
         25    1    1    2    0    0  0.00000000000E+00  0.00000000000E+00 -0.18837866307E+02  0.12641149159E+03  0.12500000000E+03 0.  0.
<mgrwt>
<rscale>  2 0.12500000E+03</rscale>
<asrwt>0</asrwt>
<pdfrwt beam="1">  1       21 0.82748943E-02 0.12500000E+03</pdfrwt>
<pdfrwt beam="2">  1       21 0.11173028E-01 0.12500000E+03</pdfrwt>
<totfact> 0.73849492E+06</totfact>
</mgrwt>
</event>
<event>
 3    0  0.1710515E+001  0.1250000E+03  0.7546771E-02  0.1235069E+00
         21   -1    0    0  502  501  0.00000000000E+00  0.00000000000E+00  0.73458855231E+02  0.73458855231E+02  0.00000000000E+00 0.  1.
         21   -1    0    0  501  502 -0.00000000000E+00 -0.00000000000E+00 -0.53176026059E+02  0.53176026059E+02  0.00000000000E+00 0.  1.
         25    1    1    2    0    0  0.00000000000E+00  0.00000000000E+00  0.20282829172E+02  0.12663488129E+03  0.12500000000E+03 0.  0.
<mgrwt>
<rscale>  2 0.12500000E+03</rscale>
<asrwt>0</asrwt>
<pdfrwt beam="1">  1       21 0.11301362E-01 0.12500000E+03</pdfrwt>
<pdfrwt beam="2">  1       21 0.81809271E-02 0.12500000E+03</pdfrwt>
<totfact> 0.73818929E+06</totfact>
</mgrwt>
</event>
<event>
 3    0  0.1593345E+001  0.1250000E+03  0.7546771E-02  0.1235069E+00
         21   -1    0    0  502  501  0.00000000000E+00  0.00000000000E+00  0.13583923706E+02  0.13583923706E+02  0.00000000000E+00 0.  1.
         21   -1    0    0  501  502 -0.00000000000E+00 -0.00000000000E+00 -0.28756418870E+03  0.28756418870E+03  0.00000000000E+00 0.  1.
         25    1    1    2    0    0  0.00000000000E+00  0.00000000000E+00 -0.27398026499E+03  0.30114811241E+03  0.12500000000E+03 0.  0.
<mgrwt>
<rscale>  2 0.12500000E+03</rscale>
<asrwt>0</asrwt>
<pdfrwt beam="1">  1       21 0.20898345E-02 0.12500000E+03</pdfrwt>
<pdfrwt beam="2">  1       21 0.44240643E-01 0.12500000E+03</pdfrwt>
<totfact> 0.55360896E+06</totfact>
</mgrwt>
</event>
<event>
 3    0  0.1712095E+001  0.1250000E+03  0.7546771E-02  0.1235069E+00
         21   -1    0    0  502  501  0.00000000000E+00  0.00000000000E+00  0.54441551958E+02  0.54441551958E+02  0.00000000000E+00 0.  1.
         21   -1    0    0  501  502 -0.00000000000E+00 -0.00000000000E+00 -0.71751260930E+02  0.71751260930E+02  0.00000000000E+00 0.  1.
         25    1    1    2    0    0  0.00000000000E+00  0.00000000000E+00 -0.17309708972E+02  0.12619281289E+03  0.12500000000E+03 0.  0.
<mgrwt>
<rscale>  2 0.12500000E+03</rscale>
<asrwt>0</asrwt>
<pdfrwt beam="1">  1       21 0.83756234E-02 0.12500000E+03</pdfrwt>
<pdfrwt beam="2">  1       21 0.11038655E-01 0.12500000E+03</pdfrwt>
<totfact> 0.73879498E+06</totfact>
</mgrwt>
</event>
<event>
 3    0  0.1684002E+001  0.1250000E+03  0.7546771E-02  0.1235069E+00
         21   -1    0    0  502  501  0.00000000000E+00  0.00000000000E+00  0.47879376433E+02  0.47879376433E+02  0.00000000000E+00 0. -1.
         21   -1    0    0  501  502 -0.00000000000E+00 -0.00000000000E+00 -0.81585231283E+02  0.81585231283E+02  0.00000000000E+00 0. -1.
         25    1    1    2    0    0  0.00000000000E+00  0.00000000000E+00 -0.33705854850E+02  0.12946460772E+03  0.12500000000E+03 0.  0.
<mgrwt>
<rscale>  2 0.12500000E+03</rscale>
<asrwt>0</asrwt>
<pdfrwt beam="1">  1       21 0.73660580E-02 0.12500000E+03</pdfrwt>
<pdfrwt beam="2">  1       21 0.12551574E-01 0.12500000E+03</pdfrwt>
<totfact> 0.73436558E+06</totfact>
</mgrwt>
</event>
<event>
 3    0  0.1515793E+001  0.1250000E+03  0.7546771E-02  0.1235069E+00
         21   -1    0    0  502  501  0.00000000000E+00  0.00000000000E+00  0.10200184713E+02  0.10200184713E+02  0.00000000000E+00 0. -1.
         21   -1    0    0  501  502 -0.00000000000E+00 -0.00000000000E+00 -0.38295875123E+03  0.38295875123E+03  0.00000000000E+00 0. -1.
         25    1    1    2    0    0  0.00000000000E+00  0.00000000000E+00 -0.37275856651E+03  0.39315893594E+03  0.12500000000E+03 0.  0.
<mgrwt>
<rscale>  2 0.12500000E+03</rscale>
<asrwt>0</asrwt>
<pdfrwt beam="1">  1       21 0.15692593E-02 0.12500000E+03</pdfrwt>
<pdfrwt beam="2">  1       21 0.58916727E-01 0.12500000E+03</pdfrwt>
<totfact> 0.48498447E+06</totfact>
</mgrwt>
</event>
<event>
 3    0  0.1446720E+001  0.1250000E+03  0.7546771E-02  0.1235069E+00
         21   -1    0    0  502  501  0.00000000000E+00  0.00000000000E+00  0.46592947360E+03  0.46592947360E+03  0.00000000000E+00 0. -1.
         21   -1    0    0  501  502 -0.00000000000E+00 -0.00000000000E+00 -0.83837795661E+01  0.83837795661E+01  0.00000000000E+00 0. -1.
         25    1    1    2    0    0  0.00000000000E+00  0.00000000000E+00  0.45754569403E+03  0.47431325317E+03  0.12500000000E+03 0.  0.
<mgrwt>
<rscale>  2 0.12500000E+03</rscale>
<asrwt>0</asrwt>
<pdfrwt beam="1">  1       21 0.71681437E-01 0.12500000E+03</pdfrwt>
<pdfrwt beam="2">  1       21 0.12898126E-02 0.12500000E+03</pdfrwt>
<totfact> 0.43472285E+06</totfact>
</mgrwt>
</event>
<event>
 3    0  0.1368989E+001  0.1250000E+03  0.7546771E-02  0.1235069E+00
         21   -1    0    0  502  501  0.00000000000E+00  0.00000000000E+00  0.11807764576E+04  0.11807764576E+04  0.00000000000E+00 0.  1.
         21   -1    0    0  501  502 -0.00000000000E+00 -0.00000000000E+00 -0.33082045080E+01  0.33082045080E+01  0.00000000000E+00 0.  1.
         25    1    1    2    0    0  0.00000000000E+00  0.00000000000E+00  0.11774682531E+04  0.11840846621E+04  0.12500000000E+03 0.  0.
<mgrwt>
<rscale>  2 0.12500000E+03</rscale>
<asrwt>0</asrwt>
<pdfrwt beam="1">  1       21 0.18165758E+00 0.12500000E+03</pdfrwt>
<pdfrwt beam="2">  1       21 0.50895548E-03 0.12500000E+03</pdfrwt>
<totfact> 0.19463497E+06</totfact>
</mgrwt>
</event>
<event>
 3    0  0.1368989E+001  0.1250000E+03  0.7546771E-02  0.1235069E+00
         21   -1    0    0  502  501  0.00000000000E+00  0.00000000000E+00  0.39275603297E+01  0.39275603297E+01  0.00000000000E+00 0. -1.
         21   -1    0    0  501  502 -0.00000000000E+00 -0.00000000000E+00 -0.99457415599E+03  0.99457415599E+03  0.00000000000E+00 0. -1.
         25    1    1    2    0    0  0.00000000000E+00  0.00000000000E+00 -0.99064659566E+03  0.99850171632E+03  0.12500000000E+03 0.  0.
<mgrwt>
<rscale>  2 0.12500000E+03</rscale>
<asrwt>0</asrwt>
<pdfrwt beam="1">  1       21 0.60424032E-03 0.12500000E+03</pdfrwt>
<pdfrwt beam="2">  1       21 0.15301134E+00 0.12500000E+03</pdfrwt>
<totfact> 0.23656162E+06</totfact>
</mgrwt>
</event>
<event>
 3    0  0.1368989E+001  0.1250000E+03  0.7546771E-02  0.1235069E+00
         21   -1    0    0  502  501  0.00000000000E+00  0.00000000000E+00  0.42069556042E+01  0.42069556042E+01  0.00000000000E+00 0. -1.
         21   -1    0    0  501  502 -0.00000000000E+00 -0.00000000000E+00 -0.92852180234E+03  0.92852180234E+03  0.00000000000E+00 0. -1.
         25    1    1    2    0    0  0.00000000000E+00  0.00000000000E+00 -0.92431484673E+03  0.93272875794E+03  0.12500000000E+03 0.  0.
<mgrwt>
<rscale>  2 0.12500000E+03</rscale>
<asrwt>0</asrwt>
<pdfrwt beam="1">  1       21 0.64722287E-03 0.12500000E+03</pdfrwt>
<pdfrwt beam="2">  1       21 0.14284974E+00 0.12500000E+03</pdfrwt>
<totfact> 0.25379551E+06</totfact>
</mgrwt>
</event>
<event>
 3    0  0.1653963E+001  0.1250000E+03  0.7546771E-02  0.1235069E+00
         21   -1    0    0  502  501  0.00000000000E+00  0.00000000000E+00  0.13458021431E+03  0.13458021431E+03  0.00000000000E+00 0. -1.
         21   -1    0    0  501  502 -0.00000000000E+00 -0.00000000000E+00 -0.29025440479E+02  0.29025440479E+02  0.00000000000E+00 0. -1.
         25    1    1    2    0    0  0.00000000000E+00  0.00000000000E+00  0.10555477383E+03  0.16360565479E+03  0.12500000000E+03 0.  0.
<mgrwt>
<rscale>  2 0.12500000E+03</rscale>
<asrwt>0</asrwt>
<pdfrwt beam="1">  1       21 0.20704648E-01 0.12500000E+03</pdfrwt>
<pdfrwt beam="2">  1       21 0.44654525E-02 0.12500000E+03</pdfrwt>
<totfact> 0.69081586E+06</totfact>
</mgrwt>
</event>
<event>
 3    0  0.1542117E+001  0.1250000E+03  0.7546771E-02  0.1235069E+00
         21   -1    0    0  502  501  0.00000000000E+00  0.00000000000E+00  0.10739292514E+02  0.10739292514E+02  0.00000000000E+00 0.  1.
         21   -1    0    0  501  502 -0.00000000000E+00 -0.00000000000E+00 -0.36373438893E+03  0.36373438893E+03  0.00000000000E+00 0.  1.
         25    1    1    2    0    0  0.00000000000E+00  0.00000000000E+00 -0.35299509642E+03  0.37447368145E+03  0.12500000000E+03 0.  0.
<mgrwt>
<rscale>  2 0.12500000E+03</rscale>
<asrwt>0</asrwt>
<pdfrwt beam="1">  1       21 0.16521988E-02 0.12500000E+03</pdfrwt>
<pdfrwt beam="2">  1       21 0.55959140E-01 0.12500000E+03</pdfrwt>
<totfact> 0.49780227E+06</totfact>
</mgrwt>
</event>
<event>
 3    0  0.1368989E+001  0.1250000E+03  0.7546771E-02  0.1235069E+00
         21   -1    0    0  502  501  0.00000000000E+00  0.00000000000E+00  0.37201509163E+01  0.37201509163E+01  0.00000000000E+00 0. -1.
         21   -1    0    0  501  502 -0.00000000000E+00 -0.00000000000E+00 -0.10500246060E+04  0.10500246060E+04  0.00000000000E+00 0. -1.
         25    1    1    2    0    0  0.00000000000E+00  0.00000000000E+00 -0.10463044550E+04  0.10537447569E+04  0.12500000000E+03 0.  0.
<mgrwt>
<rscale>  2 0.12500000E+03</rscale>
<asrwt>0</asrwt>
<pdfrwt beam="1">  1       21 0.57233103E-03 0.12500000E+03</pdfrwt>
<pdfrwt beam="2">  1       21 0.16154221E+00 0.12500000E+03</pdfrwt>
<totfact> 0.22310527E+06</totfact>
</mgrwt>
</event>
<event>
 3    0  0.1711671E+001  0.1250000E+03  0.7546771E-02  0.1235069E+00
         21   -1    0    0  502  501  0.00000000000E+00  0.00000000000E+00  0.51422431415E+02  0.51422431415E+02  0.00000000000E+00 0.  1.
         21   -1    0    0  501  502 -0.00000000000E+00 -0.00000000000E+00 -0.75963930381E+02  0.75963930381E+02  0.00000000000E+00 0.  1.
         25    1    1    2    0    0  0.00000000000E+00  0.00000000000E+00 -0.24541498967E+02  0.12738636180E+03  0.12500000000E+03 0.  0.
<mgrwt>
<rscale>  2 0.12500000E+03</rscale>
<asrwt>0</asrwt>
<pdfrwt beam="1">  1       21 0.79111434E-02 0.12500000E+03</pdfrwt>
<pdfrwt beam="2">  1       21 0.11686758E-01 0.12500000E+03</pdfrwt>
<totfact> 0.73716630E+06</totfact>
</mgrwt>
</event>
<event>
 3    0  0.1438388E+001  0.1250000E+03  0.7546771E-02  0.1235069E+00
         21   -1    0    0  502  501  0.00000000000E+00  0.00000000000E+00  0.68696458884E+01  0.68696458884E+01  0.00000000000E+00 0.  1.
         21   -1    0    0  501  502 -0.00000000000E+00 -0.00000000000E+00 -0.56862465161E+03  0.56862465161E+03  0.00000000000E+00 0.  1.
         25    1    1    2    0    0  0.00000000000E+00  0.00000000000E+00 -0.56175500572E+03  0.57549429750E+03  0.12500000000E+03 0.  0.
<mgrwt>
<rscale>  2 0.12500000E+03</rscale>
<asrwt>0</asrwt>
<pdfrwt beam="1">  1       21 0.10568687E-02 0.12500000E+03</pdfrwt>
<pdfrwt beam="2">  1       21 0.87480711E-01 0.12500000E+03</pdfrwt>
<totfact> 0.38224852E+06</totfact>
</mgrwt>
</event>
<event>
 3    0  0.1551692E+001  0.1250000E+03  0.7546771E-02  0.1235069E+00
         21   -1    0    0  502  501  0.00000000000E+00  0.00000000000E+00  0.30633815431E+03  0.30633815431E+03  0.00000000000E+00 0.  1.
         21   -1    0    0  501  502 -0.00000000000E+00 -0.00000000000E+00 -0.12751431531E+02  0.12751431531E+02  0.00000000000E+00 0.  1.
         25    1    1    2    0    0  0.00000000000E+00  0.00000000000E+00  0.29358672278E+03  0.31908958584E+03  0.12500000000E+03 0.  0.
<mgrwt>
<rscale>  2 0.12500000E+03</rscale>
<asrwt>0</asrwt>
<pdfrwt beam="1">  1       21 0.47128941E-01 0.12500000E+03</pdfrwt>
<pdfrwt beam="2">  1       21 0.19617589E-02 0.12500000E+03</pdfrwt>
<totfact> 0.53905570E+06</totfact>
</mgrwt>
</event>
<event>
 3    0  0.1683063E+001  0.1250000E+03  0.7546771E-02  0.1235069E+00
         21   -1    0    0  502  501  0.00000000000E+00  0.00000000000E+00  0.46153052937E+02  0.46153052937E+02  0.00000000000E+00 0. -1.
         21   -1    0    0  501  502 -0.00000000000E+00 -0.00000000000E+00 -0.84636871268E+02  0.84636871268E+02  0.00000000000E+00 0. -1.
         25    1    1    2    0    0  0.00000000000E+00  0.00000000000E+00 -0.38483818331E+02  0.13078992420E+03  0.12500000000E+03 0.  0.
<mgrwt>
<rscale>  2 0.12500000E+03</rscale>
<asrwt>0</asrwt>
<pdfrwt beam="1">  1       21 0.71004697E-02 0.12500000E+03</pdfrwt>
<pdfrwt beam="2">  1       21 0.13021057E-01 0.12500000E+03</pdfrwt>
<totfact> 0.73258995E+06</totfact>
</mgrwt>
</event>
<event>
 3    0  0.1626014E+001  0.1250000E+03  0.7546771E-02  0.1235069E+00
         21   -1    0    0  502  501  0.00000000000E+00  0.00000000000E+00  0.19719758253E+02  0.19719758253E+02  0.00000000000E+00 0. -1.
         21   -1    0    0  501  502 -0.00000000000E+00 -0.00000000000E+00 -0.19808812815E+03  0.19808812815E+03  0.00000000000E+00 0. -1.
         25    1    1    2    0    0  0.00000000000E+00  0.00000000000E+00 -0.17836836990E+03  0.21780788641E+03  0.12500000000E+03 0.  0.
<mgrwt>
<rscale>  2 0.12500000E+03</rscale>
<asrwt>0</asrwt>
<pdfrwt beam="1">  1       21 0.30338089E-02 0.12500000E+03</pdfrwt>
<pdfrwt beam="2">  1       21 0.30475097E-01 0.12500000E+03</pdfrwt>
<totfact> 0.63047303E+06</totfact>
</mgrwt>
</event>
<event>
 3    0  0.1706371E+001  0.1250000E+03  0.7546771E-02  0.1235069E+00
         21   -1    0    0  502  501  0.00000000000E+00  0.00000000000E+00  0.85765792379E+02  0.85765792379E+02  0.00000000000E+00 0.  1.
         21   -1    0    0  501  502 -0.00000000000E+00 -0.00000000000E+00 -0.45545547842E+02  0.45545547842E+02  0.00000000000E+00 0.  1.
         25    1    1    2    0    0  0.00000000000E+00  0.00000000000E+00  0.40220244538E+02  0.13131134022E+03  0.12500000000E+03 0.  0.
<mgrwt>
<rscale>  2 0.12500000E+03</rscale>
<asrwt>0</asrwt>
<pdfrwt beam="1">  1       21 0.13194737E-01 0.12500000E+03</pdfrwt>
<pdfrwt beam="2">  1       21 0.70070074E-02 0.12500000E+03</pdfrwt>
<totfact> 0.73188746E+06</totfact>
</mgrwt>
</event>
<event>
 3    0  0.1554809E+001  0.1250000E+03  0.7546771E-02  0.1235069E+00
         21   -1    0    0  502  501  0.00000000000E+00  0.00000000000E+00  0.35749326865E+03  0.35749326865E+03  0.00000000000E+00 0.  1.
         21   -1    0    0  501  502 -0.00000000000E+00 -0.00000000000E+00 -0.10926779167E+02  0.10926779167E+02  0.00000000000E+00 0.  1.
         25    1    1    2    0    0  0.00000000000E+00  0.00000000000E+00  0.34656648948E+03  0.36842004781E+03  0.12500000000E+03 0.  0.
<mgrwt>
<rscale>  2 0.12500000E+03</rscale>
<asrwt>0</asrwt>
<pdfrwt beam="1">  1       21 0.54998955E-01 0.12500000E+03</pdfrwt>
<pdfrwt beam="2">  1       21 0.16810432E-02 0.12500000E+03</pdfrwt>
<totfact> 0.50206174E+06</totfact>
</mgrwt>
</event>
<event>
 3    0  0.1700513E+001  0.1250000E+03  0.7546771E-02  0.1235069E+00
         21   -1    0    0  502  501  0.00000000000E+00  0.00000000000E+00  0.38787197819E+02  0.38787197819E+02  0.00000000000E+00 0.  1.
         21   -1    0    0  501  502 -0.00000000000E+00 -0.00000000000E+00 -0.10070977590E+03  0.10070977590E+03  0.00000000000E+00 0.  1.
         25    1    1    2    0    0  0.00000000000E+00  0.00000000000E+00 -0.61922578079E+02  0.13949697372E+03  0.12500000000E+03 0.  0.
<mgrwt>
<rscale>  2 0.12500000E+03</rscale>
<asrwt>0</asrwt>
<pdfrwt beam="1">  1       21 0.59672613E-02 0.12500000E+03</pdfrwt>
<pdfrwt beam="2">  1       21 0.15493811E-01 0.12500000E+03</pdfrwt>
<totfact> 0.72105045E+06</totfact>
</mgrwt>
</event>
<event>
 3    0  0.1708047E+001  0.1250000E+03  0.7546771E-02  0.1235069E+00
         21   -1    0    0  502  501  0.00000000000E+00  0.00000000000E+00  0.49288148106E+02  0.49288148106E+02  0.00000000000E+00 0.  1.
         21   -1    0    0  501  502 -0.00000000000E+00 -0.00000000000E+00 -0.79253332699E+02  0.79253332699E+02  0.00000000000E+00 0.  1.
         25    1    1    2    0    0  0.00000000000E+00  0.00000000000E+00 -0.29965184593E+02  0.12854148081E+03  0.12500000000E+03 0.  0.
<mgrwt>
<rscale>  2 0.12500000E+03</rscale>
<asrwt>0</asrwt>
<pdfrwt beam="1">  1       21 0.75827921E-02 0.12500000E+03</pdfrwt>
<pdfrwt beam="2">  1       21 0.12192820E-01 0.12500000E+03</pdfrwt>
<totfact> 0.73560536E+06</totfact>
</mgrwt>
</event>
<event>
 3    0  0.1655496E+001  0.1250000E+03  0.7546771E-02  0.1235069E+00
         21   -1    0    0  502  501  0.00000000000E+00  0.00000000000E+00  0.26665340762E+02  0.26665340762E+02  0.00000000000E+00 0. -1.
         21   -1    0    0  501  502 -0.00000000000E+00 -0.00000000000E+00 -0.14649165877E+03  0.14649165877E+03  0.00000000000E+00 0. -1.
         25    1    1    2    0    0  0.00000000000E+00  0.00000000000E+00 -0.11982631801E+03  0.17315699953E+03  0.12500000000E+03 0.  0.
<mgrwt>
<rscale>  2 0.12500000E+03</rscale>
<asrwt>0</asrwt>
<pdfrwt beam="1">  1       21 0.41023602E-02 0.12500000E+03</pdfrwt>
<pdfrwt beam="2">  1       21 0.22537178E-01 0.12500000E+03</pdfrwt>
<totfact> 0.67945348E+06</totfact>
</mgrwt>
</event>
<event>
 3    0  0.1672724E+001  0.1250000E+03  0.7546771E-02  0.1235069E+00
         21   -1    0    0  502  501  0.00000000000E+00  0.00000000000E+00  0.33363469453E+02  0.33363469453E+02  0.00000000000E+00 0. -1.
         21   -1    0    0  501  502 -0.00000000000E+00 -0.00000000000E+00 -0.11708164840E+03  0.11708164840E+03  0.00000000000E+00 0. -1.
         25    1    1    2    0    0  0.00000000000E+00  0.00000000000E+00 -0.83718178952E+02  0.15044511786E+03  0.12500000000E+03 0.  0.
<mgrwt>
<rscale>  2 0.12500000E+03</rscale>
<asrwt>0</asrwt>
<pdfrwt beam="1">  1       21 0.51328417E-02 0.12500000E+03</pdfrwt>
<pdfrwt beam="2">  1       21 0.18012561E-01 0.12500000E+03</pdfrwt>
<totfact> 0.70703331E+06</totfact>
</mgrwt>
</event>
<event>
 3    0  0.1504288E+001  0.1250000E+03  0.7546771E-02  0.1235069E+00
         21   -1    0    0  502  501  0.00000000000E+00  0.00000000000E+00  0.38769341495E+03  0.38769341495E+03  0.00000000000E+00 0. -1.
         21   -1    0    0  501  502 -0.00000000000E+00 -0.00000000000E+00 -0.10075616065E+02  0.10075616065E+02  0.00000000000E+00 0. -1.
         25    1    1    2    0    0  0.00000000000E+00  0.00000000000E+00  0.37761779888E+03  0.39776903101E+03  0.12500000000E+03 0.  0.
<mgrwt>
<rscale>  2 0.12500000E+03</rscale>
<asrwt>0</asrwt>
<pdfrwt beam="1">  1       21 0.59645129E-01 0.12500000E+03</pdfrwt>
<pdfrwt beam="2">  1       21 0.15500951E-02 0.12500000E+03</pdfrwt>
<totfact> 0.48189686E+06</totfact>
</mgrwt>
</event>
<event>
 3    0  0.1605466E+001  0.1250000E+03  0.7546771E-02  0.1235069E+00
         21   -1    0    0  502  501  0.00000000000E+00  0.00000000000E+00  0.15106294538E+02  0.15106294538E+02  0.00000000000E+00 0.  1.
         21   -1    0    0  501  502 -0.00000000000E+00 -0.00000000000E+00 -0.25858426036E+03  0.25858426036E+03  0.00000000000E+00 0.  1.
         25    1    1    2    0    0  0.00000000000E+00  0.00000000000E+00 -0.24347796583E+03  0.27369055490E+03  0.12500000000E+03 0.  0.
<mgrwt>
<rscale>  2 0.12500000E+03</rscale>
<asrwt>0</asrwt>
<pdfrwt beam="1">  1       21 0.23240454E-02 0.12500000E+03</pdfrwt>
<pdfrwt beam="2">  1       21 0.39782192E-01 0.12500000E+03</pdfrwt>
<totfact> 0.57716003E+06</totfact>
</mgrwt>
</event>
<event>
 3    0  0.1672438E+001  0.1250000E+03  0.7546771E-02  0.1235069E+00
         21   -1    0    0  502  501  0.00000000000E+00  0.00000000000E+00  0.23620409832E+02  0.23620409832E+02  0.00000000000E+00 0.  1.
         21   -1    0    0  501  502 -0.00000000000E+00 -0.00000000000E+00 -0.16537604672E+03  0.16537604672E+03  0.00000000000E+00 0.  1.
         25    1    1    2    0    0  0.00000000000E+00  0.00000000000E+00 -0.14175563689E+03  0.18899645656E+03  0.12500000000E+03 0.  0.
<mgrwt>
<rscale>  2 0.12500000E+03</rscale>
<asrwt>0</asrwt>
<pdfrwt beam="1">  1       21 0.36339094E-02 0.12500000E+03</pdfrwt>
<pdfrwt beam="2">  1       21 0.25442468E-01 0.12500000E+03</pdfrwt>
<totfact> 0.66134173E+06</totfact>
</mgrwt>
</event>
<event>
 3    0  0.1388355E+001  0.1250000E+03  0.7546771E-02  0.1235069E+00
         21   -1    0    0  502  501  0.00000000000E+00  0.00000000000E+00  0.58702533122E+03  0.58702533122E+03  0.00000000000E+00 0. -1.
         21   -1    0    0  501  502 -0.00000000000E+00 -0.00000000000E+00 -0.66543125011E+01  0.66543125011E+01  0.00000000000E+00 0. -1.
         25    1    1    2    0    0  0.00000000000E+00  0.00000000000E+00  0.58037101872E+03  0.59367964373E+03  0.12500000000E+03 0.  0.
<mgrwt>
<rscale>  2 0.12500000E+03</rscale>
<asrwt>0</asrwt>
<pdfrwt beam="1">  1       21 0.90311548E-01 0.12500000E+03</pdfrwt>
<pdfrwt beam="2">  1       21 0.10237409E-02 0.12500000E+03</pdfrwt>
<totfact> 0.37380041E+06</totfact>
</mgrwt>
</event>
<event>
 3    0  0.1583643E+001  0.1250000E+03  0.7546771E-02  0.1235069E+00
         21   -1    0    0  502  501  0.00000000000E+00  0.00000000000E+00  0.15132838534E+02  0.15132838534E+02  0.00000000000E+00 0. -1.
         21   -1    0    0  501  502 -0.00000000000E+00 -0.00000000000E+00 -0.25813068654E+03  0.25813068654E+03  0.00000000000E+00 0. -1.
         25    1    1    2    0    0  0.00000000000E+00  0.00000000000E+00 -0.24299784801E+03  0.27326352507E+03  0.12500000000E+03 0.  0.
<mgrwt>
<rscale>  2 0.12500000E+03</rscale>
<asrwt>0</asrwt>
<pdfrwt beam="1">  1       21 0.23281293E-02 0.12500000E+03</pdfrwt>
<pdfrwt beam="2">  1       21 0.39712409E-01 0.12500000E+03</pdfrwt>
<totfact> 0.57753938E+06</totfact>
</mgrwt>
</event>
<event>
 3    0  0.1700265E+001  0.1250000E+03  0.7546771E-02  0.1235069E+00
         21   -1    0    0  502  501  0.00000000000E+00  0.00000000000E+00  0.10100630157E+03  0.10100630157E+03  0.00000000000E+00 0.  1.
         21   -1    0    0  501  502 -0.00000000000E+00 -0.00000000000E+00 -0.38673329678E+02  0.38673329678E+02  0.00000000000E+00 0.  1.
         25    1    1    2    0    0  0.00000000000E+00  0.00000000000E+00  0.62332971889E+02  0.13967963124E+03  0.12500000000E+03 0.  0.
<mgrwt>
<rscale>  2 0.12500000E+03</rscale>
<asrwt>0</asrwt>
<pdfrwt beam="1">  1       21 0.15539431E-01 0.12500000E+03</pdfrwt>
<pdfrwt beam="2">  1       21 0.59497431E-02 0.12500000E+03</pdfrwt>
<totfact> 0.72081159E+06</totfact>
</mgrwt>
</event>
<event>
 3    0  0.1695713E+001  0.1250000E+03  0.7546771E-02  0.1235069E+00
         21   -1    0    0  502  501  0.00000000000E+00  0.00000000000E+00  0.37847415649E+02  0.37847415649E+02  0.00000000000E+00 0.  1.
         21   -1    0    0  501  502 -0.00000000000E+00 -0.00000000000E+00 -0.10321048169E+03  0.10321048169E+03  0.00000000000E+00 0.  1.
         25    1    1    2    0    0  0.00000000000E+00  0.00000000000E+00 -0.65363066045E+02  0.14105789734E+03  0.12500000000E+03 0.  0.
<mgrwt>
<rscale>  2 0.12500000E+03</rscale>
<asrwt>0</asrwt>
<pdfrwt beam="1">  1       21 0.58226794E-02 0.12500000E+03</pdfrwt>
<pdfrwt beam="2">  1       21 0.15878535E-01 0.12500000E+03</pdfrwt>
<totfact> 0.71901502E+06</totfact>
</mgrwt>
</event>
<event>
 3    0  0.1368989E+001  0.1250000E+03  0.7546771E-02  0.1235069E+00
         21   -1    0    0  502  501  0.00000000000E+00  0.00000000000E+00  0.23937620964E+01  0.23937620964E+01  0.00000000000E+00 0. -1.
         21   -1    0    0  501  502 -0.00000000000E+00 -0.00000000000E+00 -0.16318455396E+04  0.16318455396E+04  0.00000000000E+00 0. -1.
         25    1    1    2    0    0  0.00000000000E+00  0.00000000000E+00 -0.16294517775E+04  0.16342393017E+04  0.12500000000E+03 0.  0.
<mgrwt>
<rscale>  2 0.12500000E+03</rscale>
<asrwt>0</asrwt>
<pdfrwt beam="1">  1       21 0.36827233E-03 0.12500000E+03</pdfrwt>
<pdfrwt beam="2">  1       21 0.25105231E+00 0.12500000E+03</pdfrwt>
<totfact> 0.12114852E+06</totfact>
</mgrwt>
</event>
<event>
 3    0  0.1497991E+001  0.1250000E+03  0.7546771E-02  0.1235069E+00
         21   -1    0    0  502  501  0.00000000000E+00  0.00000000000E+00  0.37430399146E+03  0.37430399146E+03  0.00000000000E+00 0. -1.
         21   -1    0    0  501  502 -0.00000000000E+00 -0.00000000000E+00 -0.10436036188E+02  0.10436036188E+02  0.00000000000E+00 0. -1.
         25    1    1    2    0    0  0.00000000000E+00  0.00000000000E+00  0.36386795527E+03  0.38474002764E+03  0.12500000000E+03 0.  0.
<mgrwt>
<rscale>  2 0.12500000E+03</rscale>
<asrwt>0</asrwt>
<pdfrwt beam="1">  1       21 0.57585219E-01 0.12500000E+03</pdfrwt>
<pdfrwt beam="2">  1       21 0.16055443E-02 0.12500000E+03</pdfrwt>
<totfact> 0.49070280E+06</totfact>
</mgrwt>
</event>
<event>
 3    0  0.1699937E+001  0.1250000E+03  0.7546771E-02  0.1235069E+00
         21   -1    0    0  502  501  0.00000000000E+00  0.00000000000E+00  0.98445081325E+02  0.98445081325E+02  0.00000000000E+00 0.  1.
         21   -1    0    0  501  502 -0.00000000000E+00 -0.00000000000E+00 -0.39679483702E+02  0.39679483702E+02  0.00000000000E+00 0.  1.
         25    1    1    2    0    0  0.00000000000E+00  0.00000000000E+00  0.58765597623E+02  0.13812456503E+03  0.12500000000E+03 0.  0.
<mgrwt>
<rscale>  2 0.12500000E+03</rscale>
<asrwt>0</asrwt>
<pdfrwt beam="1">  1       21 0.15145397E-01 0.12500000E+03</pdfrwt>
<pdfrwt beam="2">  1       21 0.61045360E-02 0.12500000E+03</pdfrwt>
<totfact> 0.72285098E+06</totfact>
</mgrwt>
</event>
<event>
 3    0  0.1607465E+001  0.1250000E+03  0.7546771E-02  0.1235069E+00
         21   -1    0    0  502  501  0.00000000000E+00  0.00000000000E+00  0.18971605532E+02  0.18971605532E+02  0.00000000000E+00 0. -1.
         21   -1    0    0  501  502 -0.00000000000E+00 -0.00000000000E+00 -0.20589981135E+03  0.20589981135E+03  0.00000000000E+00 0. -1.
         25    1    1    2    0    0  0.00000000000E+00  0.00000000000E+00 -0.18692820582E+03  0.22487141688E+03  0.12500000000E+03 0.  0.
<mgrwt>
<rscale>  2 0.12500000E+03</rscale>
<asrwt>0</asrwt>
<pdfrwt beam="1">  1       21 0.29187086E-02 0.12500000E+03</pdfrwt>
<pdfrwt beam="2">  1       21 0.31676894E-01 0.12500000E+03</pdfrwt>
<totfact> 0.62328054E+06</totfact>
</mgrwt>
</event>
<event>
 3    0  0.1634443E+001  0.1250000E+03  0.7546771E-02  0.1235069E+00
         21   -1    0    0  502  501  0.00000000000E+00  0.00000000000E+00  0.15511767221E+03  0.15511767221E+03  0.00000000000E+00 0. -1.
         21   -1    0    0  501  502 -0.00000000000E+00 -0.00000000000E+00 -0.25182494969E+02  0.25182494969E+02  0.00000000000E+00 0. -1.
         25    1    1    2    0    0  0.00000000000E+00  0.00000000000E+00  0.12993517724E+03  0.18030016718E+03  0.12500000000E+03 0.  0.
<mgrwt>
<rscale>  2 0.12500000E+03</rscale>
<asrwt>0</asrwt>
<pdfrwt beam="1">  1       21 0.23864257E-01 0.12500000E+03</pdfrwt>
<pdfrwt beam="2">  1       21 0.38742301E-02 0.12500000E+03</pdfrwt>
<totfact> 0.67117119E+06</totfact>
</mgrwt>
</event>
<event>
 3    0  0.1516842E+001  0.1250000E+03  0.7546771E-02  0.1235069E+00
         21   -1    0    0  502  501  0.00000000000E+00  0.00000000000E+00  0.36509953171E+03  0.36509953171E+03  0.00000000000E+00 0. -1.
         21   -1    0    0  501  502 -0.00000000000E+00 -0.00000000000E+00 -0.10699137251E+02  0.10699137251E+02  0.00000000000E+00 0. -1.
         25    1    1    2    0    0  0.00000000000E+00  0.00000000000E+00  0.35440039446E+03  0.37579866896E+03  0.12500000000E+03 0.  0.
<mgrwt>
<rscale>  2 0.12500000E+03</rscale>
<asrwt>0</asrwt>
<pdfrwt beam="1">  1       21 0.56169149E-01 0.12500000E+03</pdfrwt>
<pdfrwt beam="2">  1       21 0.16460214E-02 0.12500000E+03</pdfrwt>
<totfact> 0.49687765E+06</totfact>
</mgrwt>
</event>
<event>
 3    0  0.1596000E+001  0.1250000E+03  0.7546771E-02  0.1235069E+00
         21   -1    0    0  502  501  0.00000000000E+00  0.00000000000E+00  0.14871255785E+02  0.14871255785E+02  0.00000000000E+00 0.  1.
         21   -1    0    0  501  502 -0.00000000000E+00 -0.00000000000E+00 -0.26267115949E+03  0.26267115949E+03  0.00000000000E+00 0.  1.
         25    1    1    2    0    0  0.00000000000E+00  0.00000000000E+00 -0.24779990371E+03  0.27754241527E+03  0.12500000000E+03 0.  0.
<mgrwt>
<rscale>  2 0.12500000E+03</rscale>
<asrwt>0</asrwt>
<pdfrwt beam="1">  1       21 0.22878858E-02 0.12500000E+03</pdfrwt>
<pdfrwt beam="2">  1       21 0.40410943E-01 0.12500000E+03</pdfrwt>
<totfact> 0.57375701E+06</totfact>
</mgrwt>
</event>
<event>
 3    0  0.1662249E+001  0.1250000E+03  0.7546771E-02  0.1235069E+00
         21   -1    0    0  502  501  0.00000000000E+00  0.00000000000E+00  0.29815601474E+02  0.29815601474E+02  0.00000000000E+00 0. -1.
         21   -1    0    0  501  502 -0.00000000000E+00 -0.00000000000E+00 -0.13101362397E+03  0.13101362397E+03  0.00000000000E+00 0. -1.
         25    1    1    2    0    0  0.00000000000E+00  0.00000000000E+00 -0.10119802250E+03  0.16082922544E+03  0.12500000000E+03 0.  0.
<mgrwt>
<rscale>  2 0.12500000E+03</rscale>
<asrwt>0</asrwt>
<pdfrwt beam="1">  1       21 0.45870157E-02 0.12500000E+03</pdfrwt>
<pdfrwt beam="2">  1       21 0.20155942E-01 0.12500000E+03</pdfrwt>
<totfact> 0.69418315E+06</totfact>
</mgrwt>
</event>
<event>
 3    0  0.1368989E+001  0.1250000E+03  0.7546771E-02  0.1235069E+00
         21   -1    0    0  502  501  0.00000000000E+00  0.00000000000E+00  0.42787949200E+01  0.42787949200E+01  0.00000000000E+00 0. -1.
         21   -1    0    0  501  502 -0.00000000000E+00 -0.00000000000E+00 -0.91293227955E+03  0.91293227955E+03  0.00000000000E+00 0. -1.
         25    1    1    2    0    0  0.00000000000E+00  0.00000000000E+00 -0.90865348463E+03  0.91721107447E+03  0.12500000000E+03 0.  0.
<mgrwt>
<rscale>  2 0.12500000E+03</rscale>
<asrwt>0</asrwt>
<pdfrwt beam="1">  1       21 0.65827580E-03 0.12500000E+03</pdfrwt>
<pdfrwt beam="2">  1       21 0.14045119E+00 0.12500000E+03</pdfrwt>
<totfact> 0.25810251E+06</totfact>
</mgrwt>
</event>
<event>
 3    0  0.1368989E+001  0.1250000E+03  0.7546771E-02  0.1235069E+00
         21   -1    0    0  502  501  0.00000000000E+00  0.00000000000E+00  0.10155273135E+04  0.10155273135E+04  0.00000000000E+00 0. -1.
         21   -1    0    0  501  502 -0.00000000000E+00 -0.00000000000E+00 -0.38465238188E+01  0.38465238188E+01  0.00000000000E+00 0. -1.
         25    1    1    2    0    0  0.00000000000E+00  0.00000000000E+00  0.10116807897E+04  0.10193738373E+04  0.12500000000E+03 0.  0.
<mgrwt>
<rscale>  2 0.12500000E+03</rscale>
<asrwt>0</asrwt>
<pdfrwt beam="1">  1       21 0.15623476E+00 0.12500000E+03</pdfrwt>
<pdfrwt beam="2">  1       21 0.59177371E-03 0.12500000E+03</pdfrwt>
<totfact> 0.23138897E+06</totfact>
</mgrwt>
</event>
<event>
 3    0  0.1675209E+001  0.1250000E+03  0.7546771E-02  0.1235069E+00
         21   -1    0    0  502  501  0.00000000000E+00  0.00000000000E+00  0.39704174346E+02  0.39704174346E+02  0.00000000000E+00 0. -1.
         21   -1    0    0  501  502 -0.00000000000E+00 -0.00000000000E+00 -0.98383861755E+02  0.98383861755E+02  0.00000000000E+00 0. -1.
         25    1    1    2    0    0  0.00000000000E+00  0.00000000000E+00 -0.58679687409E+02  0.13808803610E+03  0.12500000000E+03 0.  0.
<mgrwt>
<rscale>  2 0.12500000E+03</rscale>
<asrwt>0</asrwt>
<pdfrwt beam="1">  1       21 0.61083345E-02 0.12500000E+03</pdfrwt>
<pdfrwt beam="2">  1       21 0.15135979E-01 0.12500000E+03</pdfrwt>
<totfact> 0.72289904E+06</totfact>
</mgrwt>
</event>
<event>
 3    0  0.1700187E+001  0.1250000E+03  0.7546771E-02  0.1235069E+00
         21   -1    0    0  502  501  0.00000000000E+00  0.00000000000E+00  0.93745756369E+02  0.93745756369E+02  0.00000000000E+00 0.  1.
         21   -1    0    0  501  502 -0.00000000000E+00 -0.00000000000E+00 -0.41668552810E+02  0.41668552810E+02  0.00000000000E+00 0.  1.
         25    1    1    2    0    0  0.00000000000E+00  0.00000000000E+00  0.52077203559E+02  0.13541430918E+03  0.12500000000E+03 0.  0.
<mgrwt>
<rscale>  2 0.12500000E+03</rscale>
<asrwt>0</asrwt>
<pdfrwt beam="1">  1       21 0.14422424E-01 0.12500000E+03</pdfrwt>
<pdfrwt beam="2">  1       21 0.64105466E-02 0.12500000E+03</pdfrwt>
<totfact> 0.72641661E+06</totfact>
</mgrwt>
</event>
<event>
 3    0  0.1650350E+001  0.1250000E+03  0.7546771E-02  0.1235069E+00
         21   -1    0    0  502  501  0.00000000000E+00  0.00000000000E+00  0.28665443283E+02  0.28665443283E+02  0.00000000000E+00 0. -1.
         21   -1    0    0  501  502 -0.00000000000E+00 -0.00000000000E+00 -0.13627035038E+03  0.13627035038E+03  0.00000000000E+00 0. -1.
         25    1    1    2    0    0  0.00000000000E+00  0.00000000000E+00 -0.10760490710E+03  0.16493579367E+03  0.12500000000E+03 0.  0.
<mgrwt>
<rscale>  2 0.12500000E+03</rscale>
<asrwt>0</asrwt>
<pdfrwt beam="1">  1       21 0.44100682E-02 0.12500000E+03</pdfrwt>
<pdfrwt beam="2">  1       21 0.20964669E-01 0.12500000E+03</pdfrwt>
<totfact> 0.68921368E+06</totfact>
</mgrwt>
</event>
<event>
 3    0  0.1711543E+001  0.1250000E+03  0.7546771E-02  0.1235069E+00
         21   -1    0    0  502  501  0.00000000000E+00  0.00000000000E+00  0.68335700619E+02  0.68335700619E+02  0.00000000000E+00 0.  1.
         21   -1    0    0  501  502 -0.00000000000E+00 -0.00000000000E+00 -0.57162653849E+02  0.57162653849E+02  0.00000000000E+00 0.  1.
         25    1    1    2    0    0  0.00000000000E+00  0.00000000000E+00  0.11173046770E+02  0.12549835447E+03  0.12500000000E+03 0.  0.
<mgrwt>
<rscale>  2 0.12500000E+03</rscale>
<asrwt>0</asrwt>
<pdfrwt beam="1">  1       21 0.10513185E-01 0.12500000E+03</pdfrwt>
<pdfrwt beam="2">  1       21 0.87942545E-02 0.12500000E+03</pdfrwt>
<totfact> 0.73975627E+06</totfact>
</mgrwt>
</event>
<event>
 3    0  0.1368989E+001  0.1250000E+03  0.7546771E-02  0.1235069E+00
         21   -1    0    0  502  501  0.00000000000E+00  0.00000000000E+00  0.73485295299E+03  0.73485295299E+03  0.00000000000E+00 0. -1.
         21   -1    0    0  501  502 -0.00000000000E+00 -0.00000000000E+00 -0.53156893282E+01  0.53156893282E+01  0.00000000000E+00 0. -1.
         25    1    1    2    0    0  0.00000000000E+00  0.00000000000E+00  0.72953726366E+03  0.74016864232E+03  0.12500000000E+03 0.  0.
<mgrwt>
<rscale>  2 0.12500000E+03</rscale>
<asrwt>0</asrwt>
<pdfrwt beam="1">  1       21 0.11305422E+00 0.12500000E+03</pdfrwt>
<pdfrwt beam="2">  1       21 0.81779894E-03 0.12500000E+03</pdfrwt>
<totfact> 0.31417720E+06</totfact>
</mgrwt>
</event>
<event>
 3    0  0.1564744E+001  0.1250000E+03  0.7546771E-02  0.1235069E+00
         21   -1    0    0  502  501  0.00000000000E+00  0.00000000000E+00  0.12672842277E+02  0.12672842277E+02  0.00000000000E+00 0. -1.
         21   -1    0    0  501  502 -0.00000000000E+00 -0.00000000000E+00 -0.30823787709E+03  0.30823787709E+03  0.00000000000E+00 0. -1.
         25    1    1    2    0    0  0.00000000000E+00  0.00000000000E+00 -0.29556503481E+03  0.32091071937E+03  0.12500000000E+03 0.  0.
<mgrwt>
<rscale>  2 0.12500000E+03</rscale>
<asrwt>0</asrwt>
<pdfrwt beam="1">  1       21 0.19496679E-02 0.12500000E+03</pdfrwt>
<pdfrwt beam="2">  1       21 0.47421216E-01 0.12500000E+03</pdfrwt>
<totfact> 0.53761249E+06</totfact>
</mgrwt>
</event>
<event>
 3    0  0.1407985E+001  0.1250000E+03  0.7546771E-02  0.1235069E+00
         21   -1    0    0  502  501  0.00000000000E+00  0.00000000000E+00  0.58727565396E+03  0.58727565396E+03  0.00000000000E+00 0.  1.
         21   -1    0    0  501  502 -0.00000000000E+00 -0.00000000000E+00 -0.66514761401E+01  0.66514761401E+01  0.00000000000E+00 0.  1.
         25    1    1    2    0    0  0.00000000000E+00  0.00000000000E+00  0.58062417782E+03  0.59392713010E+03  0.12500000000E+03 0.  0.
<mgrwt>
<rscale>  2 0.12500000E+03</rscale>
<asrwt>0</asrwt>
<pdfrwt beam="1">  1       21 0.90350060E-01 0.12500000E+03</pdfrwt>
<pdfrwt beam="2">  1       21 0.10233045E-02 0.12500000E+03</pdfrwt>
<totfact> 0.37368728E+06</totfact>
</mgrwt>
</event>
<event>
 3    0  0.1679251E+001  0.1250000E+03  0.7546771E-02  0.1235069E+00
         21   -1    0    0  502  501  0.00000000000E+00  0.00000000000E+00  0.40639082080E+02  0.40639082080E+02  0.00000000000E+00 0. -1.
         21   -1    0    0  501  502 -0.00000000000E+00 -0.00000000000E+00 -0.96120527336E+02  0.96120527336E+02  0.00000000000E+00 0. -1.
         25    1    1    2    0    0  0.00000000000E+00  0.00000000000E+00 -0.55481445256E+02  0.13675960942E+03  0.12500000000E+03 0.  0.
<mgrwt>
<rscale>  2 0.12500000E+03</rscale>
<asrwt>0</asrwt>
<pdfrwt beam="1">  1       21 0.62521665E-02 0.12500000E+03</pdfrwt>
<pdfrwt beam="2">  1       21 0.14787773E-01 0.12500000E+03</pdfrwt>
<totfact> 0.72464317E+06</totfact>
</mgrwt>
</event>
<event>
 3    0  0.1616443E+001  0.1250000E+03  0.7546771E-02  0.1235069E+00
         21   -1    0    0  502  501  0.00000000000E+00  0.00000000000E+00  0.21062223947E+03  0.21062223947E+03  0.00000000000E+00 0. -1.
         21   -1    0    0  501  502 -0.00000000000E+00 -0.00000000000E+00 -0.18546237139E+02  0.18546237139E+02  0.00000000000E+00 0. -1.
         25    1    1    2    0    0  0.00000000000E+00  0.00000000000E+00  0.19207600234E+03  0.22916847661E+03  0.12500000000E+03 0.  0.
<mgrwt>
<rscale>  2 0.12500000E+03</rscale>
<asrwt>0</asrwt>
<pdfrwt beam="1">  1       21 0.32403420E-01 0.12500000E+03</pdfrwt>
<pdfrwt beam="2">  1       21 0.28532674E-02 0.12500000E+03</pdfrwt>
<totfact> 0.61896829E+06</totfact>
</mgrwt>
</event>
<event>
 3    0  0.1549785E+001  0.1250000E+03  0.7546771E-02  0.1235069E+00
         21   -1    0    0  502  501  0.00000000000E+00  0.00000000000E+00  0.10847738405E+02  0.10847738405E+02  0.00000000000E+00 0.  1.
         21   -1    0    0  501  502 -0.00000000000E+00 -0.00000000000E+00 -0.36009810102E+03  0.36009810102E+03  0.00000000000E+00 0.  1.
         25    1    1    2    0    0  0.00000000000E+00  0.00000000000E+00 -0.34925036261E+03  0.37094583942E+03  0.12500000000E+03 0.  0.
<mgrwt>
<rscale>  2 0.12500000E+03</rscale>
<asrwt>0</asrwt>
<pdfrwt beam="1">  1       21 0.16688830E-02 0.12500000E+03</pdfrwt>
<pdfrwt beam="2">  1       21 0.55399702E-01 0.12500000E+03</pdfrwt>
<totfact> 0.50027758E+06</totfact>
</mgrwt>
</event>
<event>
 3    0  0.1667366E+001  0.1250000E+03  0.7546771E-02  0.1235069E+00
         21   -1    0    0  502  501  0.00000000000E+00  0.00000000000E+00  0.11972316435E+03  0.11972316435E+03  0.00000000000E+00 0. -1.
         21   -1    0    0  501  502 -0.00000000000E+00 -0.00000000000E+00 -0.32627353454E+02  0.32627353454E+02  0.00000000000E+00 0. -1.
         25    1    1    2    0    0  0.00000000000E+00  0.00000000000E+00  0.87095810899E+02  0.15235051781E+03  0.12500000000E+03 0.  0.
<mgrwt>
<rscale>  2 0.12500000E+03</rscale>
<asrwt>0</asrwt>
<pdfrwt beam="1">  1       21 0.18418948E-01 0.12500000E+03</pdfrwt>
<pdfrwt beam="2">  1       21 0.50195929E-02 0.12500000E+03</pdfrwt>
<totfact> 0.70465167E+06</totfact>
</mgrwt>
</event>
<event>
 3    0  0.1686238E+001  0.1250000E+03  0.7546771E-02  0.1235069E+00
         21   -1    0    0  502  501  0.00000000000E+00  0.00000000000E+00  0.80004612791E+02  0.80004612791E+02  0.00000000000E+00 0. -1.
         21   -1    0    0  501  502 -0.00000000000E+00 -0.00000000000E+00 -0.48825309738E+02  0.48825309738E+02  0.00000000000E+00 0. -1.
         25    1    1    2    0    0  0.00000000000E+00  0.00000000000E+00  0.31179303052E+02  0.12882992253E+03  0.12500000000E+03 0.  0.
<mgrwt>
<rscale>  2 0.12500000E+03</rscale>
<asrwt>0</asrwt>
<pdfrwt beam="1">  1       21 0.12308402E-01 0.12500000E+03</pdfrwt>
<pdfrwt beam="2">  1       21 0.75115861E-02 0.12500000E+03</pdfrwt>
<totfact> 0.73521732E+06</totfact>
</mgrwt>
</event>
<event>
 3    0  0.1635347E+001  0.1250000E+03  0.7546771E-02  0.1235069E+00
         21   -1    0    0  502  501  0.00000000000E+00  0.00000000000E+00  0.24314997800E+02  0.24314997800E+02  0.00000000000E+00 0. -1.
         21   -1    0    0  501  502 -0.00000000000E+00 -0.00000000000E+00 -0.16065187552E+03  0.16065187552E+03  0.00000000000E+00 0. -1.
         25    1    1    2    0    0  0.00000000000E+00  0.00000000000E+00 -0.13633687772E+03  0.18496687332E+03  0.12500000000E+03 0.  0.
<mgrwt>
<rscale>  2 0.12500000E+03</rscale>
<asrwt>0</asrwt>
<pdfrwt beam="1">  1       21 0.37407689E-02 0.12500000E+03</pdfrwt>
<pdfrwt beam="2">  1       21 0.24715673E-01 0.12500000E+03</pdfrwt>
<totfact> 0.66586270E+06</totfact>
</mgrwt>
</event>
<event>
 3    0  0.1368989E+001  0.1250000E+03  0.7546771E-02  0.1235069E+00
         21   -1    0    0  502  501  0.00000000000E+00  0.00000000000E+00  0.85715235339E+03  0.85715235339E+03  0.00000000000E+00 0. -1.
         21   -1    0    0  501  502 -0.00000000000E+00 -0.00000000000E+00 -0.45572411772E+01  0.45572411772E+01  0.00000000000E+00 0. -1.
         25    1    1    2    0    0  0.00000000000E+00  0.00000000000E+00  0.85259511221E+03  0.86170959457E+03  0.12500000000E+03 0.  0.
<mgrwt>
<rscale>  2 0.12500000E+03</rscale>
<asrwt>0</asrwt>
<pdfrwt beam="1">  1       21 0.13186946E+00 0.12500000E+03</pdfrwt>
<pdfrwt beam="2">  1       21 0.70111471E-03 0.12500000E+03</pdfrwt>
<totfact> 0.27417341E+06</totfact>
</mgrwt>
</event>
<event>
 3    0  0.1435437E+001  0.1250000E+03  0.7546771E-02  0.1235069E+00
         21   -1    0    0  502  501  0.00000000000E+00  0.00000000000E+00  0.79474302447E+01  0.79474302447E+01  0.00000000000E+00 0. -1.
         21   -1    0    0  501  502 -0.00000000000E+00 -0.00000000000E+00 -0.49151107713E+03  0.49151107713E+03  0.00000000000E+00 0. -1.
         25    1    1    2    0    0  0.00000000000E+00  0.00000000000E+00 -0.48356364689E+03  0.49945850738E+03  0.12500000000E+03 0.  0.
<mgrwt>
<rscale>  2 0.12500000E+03</rscale>
<asrwt>0</asrwt>
<pdfrwt beam="1">  1       21 0.12226820E-02 0.12500000E+03</pdfrwt>
<pdfrwt beam="2">  1       21 0.75617064E-01 0.12500000E+03</pdfrwt>
<totfact> 0.42073461E+06</totfact>
</mgrwt>
</event>
<event>
 3    0  0.1573577E+001  0.1250000E+03  0.7546771E-02  0.1235069E+00
         21   -1    0    0  502  501  0.00000000000E+00  0.00000000000E+00  0.27142201009E+03  0.27142201009E+03  0.00000000000E+00 0. -1.
         21   -1    0    0  501  502 -0.00000000000E+00 -0.00000000000E+00 -0.14391795266E+02  0.14391795266E+02  0.00000000000E+00 0. -1.
         25    1    1    2    0    0  0.00000000000E+00  0.00000000000E+00  0.25703021483E+03  0.28581380536E+03  0.12500000000E+03 0.  0.
<mgrwt>
<rscale>  2 0.12500000E+03</rscale>
<asrwt>0</asrwt>
<pdfrwt beam="1">  1       21 0.41757228E-01 0.12500000E+03</pdfrwt>
<pdfrwt beam="2">  1       21 0.22141226E-02 0.12500000E+03</pdfrwt>
<totfact> 0.56656102E+06</totfact>
</mgrwt>
</event>
<event>
 3    0  0.1531682E+001  0.1250000E+03  0.7546771E-02  0.1235069E+00
         21   -1    0    0  502  501  0.00000000000E+00  0.00000000000E+00  0.30537263902E+03  0.30537263902E+03  0.00000000000E+00 0. -1.
         21   -1    0    0  501  502 -0.00000000000E+00 -0.00000000000E+00 -0.12791748509E+02  0.12791748509E+02  0.00000000000E+00 0. -1.
         25    1    1    2    0    0  0.00000000000E+00  0.00000000000E+00  0.29258089051E+03  0.31816438753E+03  0.12500000000E+03 0.  0.
<mgrwt>
<rscale>  2 0.12500000E+03</rscale>
<asrwt>0</asrwt>
<pdfrwt beam="1">  1       21 0.46980401E-01 0.12500000E+03</pdfrwt>
<pdfrwt beam="2">  1       21 0.19679615E-02 0.12500000E+03</pdfrwt>
<totfact> 0.53979129E+06</totfact>
</mgrwt>
</event>
<event>
 3    0  0.1482413E+001  0.1250000E+03  0.7546771E-02  0.1235069E+00
         21   -1    0    0  502  501  0.00000000000E+00  0.00000000000E+00  0.93134561647E+01  0.93134561647E+01  0.00000000000E+00 0. -1.
         21   -1    0    0  501  502 -0.00000000000E+00 -0.00000000000E+00 -0.41942002313E+03  0.41942002313E+03  0.00000000000E+00 0. -1.
         25    1    1    2    0    0  0.00000000000E+00  0.00000000000E+00 -0.41010656696E+03  0.42873347929E+03  0.12500000000E+03 0.  0.
<mgrwt>
<rscale>  2 0.12500000E+03</rscale>
<asrwt>0</asrwt>
<pdfrwt beam="1">  1       21 0.14328397E-02 0.12500000E+03</pdfrwt>
<pdfrwt beam="2">  1       21 0.64526145E-01 0.12500000E+03</pdfrwt>
<totfact> 0.46192116E+06</totfact>
</mgrwt>
</event>
