<event>
 5    0  0.1524857E+000  0.1249958E+03  0.7546771E-02  0.1235076E+00
         21   -1    0    0  503  502  0.00000000000E+00  0.00000000000E+00  0.53734228561E+02  0.53734228561E+02  0.00000000000E+00 0.  1.
         21   -1    0    0  502  503 -0.00000000000E+00 -0.00000000000E+00 -0.72690866426E+02  0.72690866426E+02  0.00000000000E+00 0.  1.
         25    2    1    2    0    0  0.00000000000E+00  0.00000000000E+00 -0.18956637866E+02  0.12642509499E+03  0.12499580202E+03 0.  0.
          4    1    3    3  501    0  0.77487412031E+00  0.46228290801E+02 -0.51981808023E+02  0.69585675003E+02  0.15500000000E+01 0. -1.
         -4    1    3    3    0  501 -0.77487412031E+00 -0.46228290801E+02  0.33025170157E+02  0.56839419985E+02  0.15500000000E+01 0. -1.
<mgrwt>
<rscale>  2 0.12499580E+03</rscale>
<asrwt>0</asrwt>
<pdfrwt beam="1">  1       21 0.82668044E-02 0.12499580E+03</pdfrwt>
<pdfrwt beam="2">  1       21 0.11183210E-01 0.12499580E+03</pdfrwt>
<totfact> 0.73855541E+06</totfact>
</mgrwt>
</event>
<event>
 5    0  0.1256849E+000  0.1249992E+03  0.7546771E-02  0.1235071E+00
         21   -1    0    0  503  502  0.00000000000E+00  0.00000000000E+00  0.85318542336E+01  0.85318542336E+01  0.00000000000E+00 0.  1.
         21   -1    0    0  502  503 -0.00000000000E+00 -0.00000000000E+00 -0.45783704934E+03  0.45783704934E+03  0.00000000000E+00 0.  1.
         25    2    1    2    0    0  0.00000000000E+00  0.00000000000E+00 -0.44930519510E+03  0.46636890357E+03  0.12499918348E+03 0.  0.
          4    1    3    3  501    0 -0.92244182302E+01  0.23967888984E+02 -0.12142604928E+02  0.28449867284E+02  0.15500000000E+01 0. -1.
         -4    1    3    3    0  501  0.92244182302E+01 -0.23967888984E+02 -0.43716259017E+03  0.43791903629E+03  0.15500000000E+01 0. -1.
<mgrwt>
<rscale>  2 0.12499918E+03</rscale>
<asrwt>0</asrwt>
<pdfrwt beam="1">  1       21 0.13125928E-02 0.12499918E+03</pdfrwt>
<pdfrwt beam="2">  1       21 0.70436476E-01 0.12499918E+03</pdfrwt>
<totfact> 0.43929611E+06</totfact>
</mgrwt>
</event>
<event>
 5    0  0.1222151E+000  0.1250080E+03  0.7546771E-02  0.1235057E+00
         21   -1    0    0  503  502  0.00000000000E+00  0.00000000000E+00  0.13368761447E+04  0.13368761447E+04  0.00000000000E+00 0. -1.
         21   -1    0    0  502  503 -0.00000000000E+00 -0.00000000000E+00 -0.29222990046E+01  0.29222990046E+01  0.00000000000E+00 0. -1.
         25    2    1    2    0    0  0.00000000000E+00  0.00000000000E+00  0.13339538457E+04  0.13397984437E+04  0.12500802897E+03 0.  0.
          4    1    3    3  501    0 -0.62473181417E+02 -0.86162118814E+00  0.65795532241E+03  0.66091697631E+03  0.15500000000E+01 0.  1.
         -4    1    3    3    0  501  0.62473181417E+02  0.86162118814E+00  0.67599852327E+03  0.67888146738E+03  0.15500000000E+01 0.  1.
<mgrwt>
<rscale>  2 0.12500803E+03</rscale>
<asrwt>0</asrwt>
<pdfrwt beam="1">  1       21 0.20567276E+00 0.12500803E+03</pdfrwt>
<pdfrwt beam="2">  1       21 0.44958553E-03 0.12500803E+03</pdfrwt>
<totfact> 0.16549306E+06</totfact>
</mgrwt>
</event>
<event>
 5    0  0.1571855E+000  0.1249867E+03  0.7546771E-02  0.1235090E+00
         21   -1    0    0  503  502  0.00000000000E+00  0.00000000000E+00  0.26218470707E+03  0.26218470707E+03  0.00000000000E+00 0. -1.
         21   -1    0    0  502  503 -0.00000000000E+00 -0.00000000000E+00 -0.14895686913E+02  0.14895686913E+02  0.00000000000E+00 0. -1.
         25    2    1    2    0    0  0.00000000000E+00  0.00000000000E+00  0.24728902016E+03  0.27708039399E+03  0.12498674026E+03 0.  0.
          4    1    3    3  501    0  0.17000018660E+02 -0.59898548703E+02  0.13498791893E+03  0.14866397522E+03  0.15500000000E+01 0.  1.
         -4    1    3    3    0  501 -0.17000018660E+02  0.59898548703E+02  0.11230110123E+03  0.12841641877E+03  0.15500000000E+01 0.  1.
<mgrwt>
<rscale>  2 0.12498674E+03</rscale>
<asrwt>0</asrwt>
<pdfrwt beam="1">  1       21 0.40336105E-01 0.12498674E+03</pdfrwt>
<pdfrwt beam="2">  1       21 0.22916443E-02 0.12498674E+03</pdfrwt>
<totfact> 0.57435502E+06</totfact>
</mgrwt>
</event>
<event>
 5    0  0.1222151E+000  0.1250122E+03  0.7546771E-02  0.1235050E+00
         21   -1    0    0  503  502  0.00000000000E+00  0.00000000000E+00  0.38549799695E+01  0.38549799695E+01  0.00000000000E+00 0. -1.
         21   -1    0    0  502  503 -0.00000000000E+00 -0.00000000000E+00 -0.10134982797E+04  0.10134982797E+04  0.00000000000E+00 0. -1.
         25    2    1    2    0    0  0.00000000000E+00  0.00000000000E+00 -0.10096432997E+04  0.10173532597E+04  0.12501224848E+03 0.  0.
          4    1    3    3  501    0 -0.57654464228E+02 -0.24089342081E+02 -0.50912342809E+03  0.51294580725E+03  0.15500000000E+01 0.  1.
         -4    1    3    3    0  501  0.57654464228E+02  0.24089342081E+02 -0.50051987165E+03  0.50440745243E+03  0.15500000000E+01 0.  1.
<mgrwt>
<rscale>  2 0.12501225E+03</rscale>
<asrwt>0</asrwt>
<pdfrwt beam="1">  1       21 0.59307324E-03 0.12501225E+03</pdfrwt>
<pdfrwt beam="2">  1       21 0.15592297E+00 0.12501225E+03</pdfrwt>
<totfact> 0.23181643E+06</totfact>
</mgrwt>
</event>
<event>
 5    0  0.1598696E+000  0.1249976E+03  0.7546771E-02  0.1235073E+00
         21   -1    0    0  503  502  0.00000000000E+00  0.00000000000E+00  0.39547186987E+02  0.39547186987E+02  0.00000000000E+00 0. -1.
         21   -1    0    0  502  503 -0.00000000000E+00 -0.00000000000E+00 -0.98770645792E+02  0.98770645792E+02  0.00000000000E+00 0. -1.
         25    2    1    2    0    0  0.00000000000E+00  0.00000000000E+00 -0.59223458806E+02  0.13831783278E+03  0.12499761914E+03 0.  0.
          4    1    3    3  501    0  0.47687906140E+02 -0.34474866122E+02 -0.63726812915E+01  0.59208667887E+02  0.15500000000E+01 0. -1.
         -4    1    3    3    0  501 -0.47687906140E+02  0.34474866122E+02 -0.52850777514E+02  0.79109164892E+02  0.15500000000E+01 0. -1.
<mgrwt>
<rscale>  2 0.12499762E+03</rscale>
<asrwt>0</asrwt>
<pdfrwt beam="1">  1       21 0.60841826E-02 0.12499762E+03</pdfrwt>
<pdfrwt beam="2">  1       21 0.15195484E-01 0.12499762E+03</pdfrwt>
<totfact> 0.72264063E+06</totfact>
</mgrwt>
</event>
<event>
 5    0  0.1222151E+000  0.1249981E+03  0.7546771E-02  0.1235072E+00
         21   -1    0    0  503  502  0.00000000000E+00  0.00000000000E+00  0.34863312159E+01  0.34863312159E+01  0.00000000000E+00 0.  1.
         21   -1    0    0  502  503 -0.00000000000E+00 -0.00000000000E+00 -0.11204130451E+04  0.11204130451E+04  0.00000000000E+00 0.  1.
         25    2    1    2    0    0  0.00000000000E+00  0.00000000000E+00 -0.11169267139E+04  0.11238993763E+04  0.12499809556E+03 0.  0.
          4    1    3    3  501    0  0.55150601432E+02 -0.27303884481E+02 -0.46135800052E+03  0.46544677257E+03  0.15500000000E+01 0. -1.
         -4    1    3    3    0  501 -0.55150601432E+02  0.27303884481E+02 -0.65556871333E+03  0.65845260372E+03  0.15500000000E+01 0. -1.
<mgrwt>
<rscale>  2 0.12499810E+03</rscale>
<asrwt>0</asrwt>
<pdfrwt beam="1">  1       21 0.53635792E-03 0.12499810E+03</pdfrwt>
<pdfrwt beam="2">  1       21 0.17237147E+00 0.12499810E+03</pdfrwt>
<totfact> 0.20728526E+06</totfact>
</mgrwt>
</event>
<event>
 5    0  0.1222151E+000  0.1250053E+03  0.7546771E-02  0.1235061E+00
         21   -1    0    0  503  502  0.00000000000E+00  0.00000000000E+00  0.30624281826E+01  0.30624281826E+01  0.00000000000E+00 0. -1.
         21   -1    0    0  502  503 -0.00000000000E+00 -0.00000000000E+00 -0.12756485366E+04  0.12756485366E+04  0.00000000000E+00 0. -1.
         25    2    1    2    0    0  0.00000000000E+00  0.00000000000E+00 -0.12725861084E+04  0.12787109648E+04  0.12500531236E+03 0.  0.
          4    1    3    3  501    0 -0.56843157886E+02 -0.97949692321E+01 -0.39055805597E+03  0.39479752229E+03  0.15500000000E+01 0. -1.
         -4    1    3    3    0  501  0.56843157886E+02  0.97949692321E+01 -0.88202805246E+03  0.88391344251E+03  0.15500000000E+01 0. -1.
<mgrwt>
<rscale>  2 0.12500531E+03</rscale>
<asrwt>0</asrwt>
<pdfrwt beam="1">  1       21 0.47114385E-03 0.12500531E+03</pdfrwt>
<pdfrwt beam="2">  1       21 0.19625318E+00 0.12500531E+03</pdfrwt>
<totfact> 0.17636709E+06</totfact>
</mgrwt>
</event>
<event>
 5    0  0.1509139E+000  0.1250030E+03  0.7546771E-02  0.1235065E+00
         21   -1    0    0  503  502  0.00000000000E+00  0.00000000000E+00  0.92068936448E+02  0.92068936448E+02  0.00000000000E+00 0.  1.
         21   -1    0    0  502  503 -0.00000000000E+00 -0.00000000000E+00 -0.42429467346E+02  0.42429467346E+02  0.00000000000E+00 0.  1.
         25    2    1    2    0    0  0.00000000000E+00  0.00000000000E+00  0.49639469102E+02  0.13449840379E+03  0.12500297489E+03 0.  0.
          4    1    3    3  501    0 -0.37410798680E+02  0.24147825833E+02 -0.22343090035E+02  0.49842768008E+02  0.15500000000E+01 0.  1.
         -4    1    3    3    0  501  0.37410798680E+02 -0.24147825833E+02  0.71982559137E+02  0.84655635786E+02  0.15500000000E+01 0.  1.
<mgrwt>
<rscale>  2 0.12500297E+03</rscale>
<asrwt>0</asrwt>
<pdfrwt beam="1">  1       21 0.14164452E-01 0.12500297E+03</pdfrwt>
<pdfrwt beam="2">  1       21 0.65276104E-02 0.12500297E+03</pdfrwt>
<totfact> 0.72757434E+06</totfact>
</mgrwt>
</event>
<event>
 5    0  0.1579366E+000  0.1249991E+03  0.7546771E-02  0.1235071E+00
         21   -1    0    0  503  502  0.00000000000E+00  0.00000000000E+00  0.42064399217E+02  0.42064399217E+02  0.00000000000E+00 0. -1.
         21   -1    0    0  502  503 -0.00000000000E+00 -0.00000000000E+00 -0.92862153979E+02  0.92862153979E+02  0.00000000000E+00 0. -1.
         25    2    1    2    0    0  0.00000000000E+00  0.00000000000E+00 -0.50797754763E+02  0.13492655320E+03  0.12499905147E+03 0.  0.
          4    1    3    3  501    0  0.45760950493E+02 -0.17971305492E+02 -0.67019687600E+02  0.83132866167E+02  0.15500000000E+01 0.  1.
         -4    1    3    3    0  501 -0.45760950493E+02  0.17971305492E+02  0.16221932837E+02  0.51793687029E+02  0.15500000000E+01 0.  1.
<mgrwt>
<rscale>  2 0.12499905E+03</rscale>
<asrwt>0</asrwt>
<pdfrwt beam="1">  1       21 0.64714461E-02 0.12499905E+03</pdfrwt>
<pdfrwt beam="2">  1       21 0.14286485E-01 0.12499905E+03</pdfrwt>
<totfact> 0.72707957E+06</totfact>
</mgrwt>
</event>
<event>
 5    0  0.1476043E+000  0.1249989E+03  0.7546771E-02  0.1235071E+00
         21   -1    0    0  503  502  0.00000000000E+00  0.00000000000E+00  0.22145589235E+03  0.22145589235E+03  0.00000000000E+00 0. -1.
         21   -1    0    0  502  503 -0.00000000000E+00 -0.00000000000E+00 -0.17638654399E+02  0.17638654399E+02  0.00000000000E+00 0. -1.
         25    2    1    2    0    0  0.00000000000E+00  0.00000000000E+00  0.20381723795E+03  0.23909454675E+03  0.12499894319E+03 0.  0.
          4    1    3    3  501    0 -0.35619677073E+02 -0.51305210207E+02  0.10510670414E+03  0.12227349567E+03  0.15500000000E+01 0.  1.
         -4    1    3    3    0  501  0.35619677073E+02  0.51305210207E+02  0.98710533816E+02  0.11682105108E+03  0.15500000000E+01 0.  1.
<mgrwt>
<rscale>  2 0.12499894E+03</rscale>
<asrwt>0</asrwt>
<pdfrwt beam="1">  1       21 0.34070135E-01 0.12499894E+03</pdfrwt>
<pdfrwt beam="2">  1       21 0.27136393E-02 0.12499894E+03</pdfrwt>
<totfact> 0.60922017E+06</totfact>
</mgrwt>
</event>
<event>
 5    0  0.1222151E+000  0.1249988E+03  0.7546771E-02  0.1235071E+00
         21   -1    0    0  503  502  0.00000000000E+00  0.00000000000E+00  0.79317360562E+03  0.79317360562E+03  0.00000000000E+00 0.  1.
         21   -1    0    0  502  503 -0.00000000000E+00 -0.00000000000E+00 -0.49247393370E+01  0.49247393370E+01  0.00000000000E+00 0.  1.
         25    2    1    2    0    0  0.00000000000E+00  0.00000000000E+00  0.78824886628E+03  0.79809834495E+03  0.12499877210E+03 0.  0.
          4    1    3    3  501    0 -0.94752029275E+01 -0.51374444563E+02  0.61295416804E+03  0.61517828931E+03  0.15500000000E+01 0. -1.
         -4    1    3    3    0  501  0.94752029275E+01  0.51374444563E+02  0.17529469824E+03  0.18292005564E+03  0.15500000000E+01 0. -1.
<mgrwt>
<rscale>  2 0.12499877E+03</rscale>
<asrwt>0</asrwt>
<pdfrwt beam="1">  1       21 0.12202661E+00 0.12499877E+03</pdfrwt>
<pdfrwt beam="2">  1       21 0.75765284E-03 0.12499877E+03</pdfrwt>
<totfact> 0.29426836E+06</totfact>
</mgrwt>
</event>
<event>
 5    0  0.1222151E+000  0.1249126E+03  0.7546771E-02  0.1235206E+00
         21   -1    0    0  503  502  0.00000000000E+00  0.00000000000E+00  0.41765132189E+01  0.41765132189E+01  0.00000000000E+00 0. -1.
         21   -1    0    0  502  503 -0.00000000000E+00 -0.00000000000E+00 -0.93398275391E+03  0.93398275391E+03  0.00000000000E+00 0. -1.
         25    2    1    2    0    0  0.00000000000E+00  0.00000000000E+00 -0.92980624069E+03  0.93815926713E+03  0.12491263055E+03 0.  0.
          4    1    3    3  501    0 -0.38373256721E+02 -0.31130637698E+02 -0.17824448770E+03  0.18497330437E+03  0.15500000000E+01 0. -1.
         -4    1    3    3    0  501  0.38373256721E+02  0.31130637698E+02 -0.75156175299E+03  0.75318596276E+03  0.15500000000E+01 0. -1.
<mgrwt>
<rscale>  2 0.12491263E+03</rscale>
<asrwt>0</asrwt>
<pdfrwt beam="1">  1       21 0.64254074E-03 0.12491263E+03</pdfrwt>
<pdfrwt beam="2">  1       21 0.14368960E+00 0.12491263E+03</pdfrwt>
<totfact> 0.25285766E+06</totfact>
</mgrwt>
</event>
<event>
 5    0  0.1513165E+000  0.1249631E+03  0.7546771E-02  0.1235127E+00
         21   -1    0    0  503  502  0.00000000000E+00  0.00000000000E+00  0.14560402402E+03  0.14560402402E+03  0.00000000000E+00 0. -1.
         21   -1    0    0  502  503 -0.00000000000E+00 -0.00000000000E+00 -0.26812042518E+02  0.26812042518E+02  0.00000000000E+00 0. -1.
         25    2    1    2    0    0  0.00000000000E+00  0.00000000000E+00  0.11879198150E+03  0.17241606653E+03  0.12496305506E+03 0.  0.
          4    1    3    3  501    0  0.55330157607E+02 -0.18761202962E+02  0.28912568800E+02  0.65205430847E+02  0.15500000000E+01 0.  1.
         -4    1    3    3    0  501 -0.55330157607E+02  0.18761202962E+02  0.89879412697E+02  0.10721063569E+03  0.15500000000E+01 0.  1.
<mgrwt>
<rscale>  2 0.12496306E+03</rscale>
<asrwt>0</asrwt>
<pdfrwt beam="1">  1       21 0.22400619E-01 0.12496306E+03</pdfrwt>
<pdfrwt beam="2">  1       21 0.41249297E-02 0.12496306E+03</pdfrwt>
<totfact> 0.68096206E+06</totfact>
</mgrwt>
</event>
<event>
 5    0  0.1229842E+000  0.1249290E+03  0.7546771E-02  0.1235180E+00
         21   -1    0    0  503  502  0.00000000000E+00  0.00000000000E+00  0.11168795394E+02  0.11168795394E+02  0.00000000000E+00 0.  1.
         21   -1    0    0  502  503 -0.00000000000E+00 -0.00000000000E+00 -0.34934954845E+03  0.34934954845E+03  0.00000000000E+00 0.  1.
         25    2    1    2    0    0  0.00000000000E+00  0.00000000000E+00 -0.33818075305E+03  0.36051834384E+03  0.12492899787E+03 0.  0.
          4    1    3    3  501    0 -0.52819170039E+02  0.33182918496E+02 -0.17747422978E+03  0.18812356455E+03  0.15500000000E+01 0. -1.
         -4    1    3    3    0  501  0.52819170039E+02 -0.33182918496E+02 -0.16070652327E+03  0.17239477929E+03  0.15500000000E+01 0. -1.
<mgrwt>
<rscale>  2 0.12492900E+03</rscale>
<asrwt>0</asrwt>
<pdfrwt beam="1">  1       21 0.17182760E-02 0.12492900E+03</pdfrwt>
<pdfrwt beam="2">  1       21 0.53746092E-01 0.12492900E+03</pdfrwt>
<totfact> 0.50861239E+06</totfact>
</mgrwt>
</event>
<event>
 5    0  0.1336289E+000  0.1249960E+03  0.7546771E-02  0.1235076E+00
         21   -1    0    0  503  502  0.00000000000E+00  0.00000000000E+00  0.52262785863E+03  0.52262785863E+03  0.00000000000E+00 0. -1.
         21   -1    0    0  502  503 -0.00000000000E+00 -0.00000000000E+00 -0.74737684121E+01  0.74737684121E+01  0.00000000000E+00 0. -1.
         25    2    1    2    0    0  0.00000000000E+00  0.00000000000E+00  0.51515409022E+03  0.53010162704E+03  0.12499599323E+03 0.  0.
          4    1    3    3  501    0  0.12780763746E+02  0.36351876681E+02  0.49002095464E+02  0.62357154521E+02  0.15500000000E+01 0.  1.
         -4    1    3    3    0  501 -0.12780763746E+02 -0.36351876681E+02  0.46615199476E+03  0.46774447252E+03  0.15500000000E+01 0.  1.
<mgrwt>
<rscale>  2 0.12499599E+03</rscale>
<asrwt>0</asrwt>
<pdfrwt beam="1">  1       21 0.80404257E-01 0.12499599E+03</pdfrwt>
<pdfrwt beam="2">  1       21 0.11498109E-02 0.12499599E+03</pdfrwt>
<totfact> 0.40461312E+06</totfact>
</mgrwt>
</event>
<event>
 5    0  0.1222151E+000  0.1249921E+03  0.7546771E-02  0.1235082E+00
         21   -1    0    0  503  502  0.00000000000E+00  0.00000000000E+00  0.85515788698E+03  0.85515788698E+03  0.00000000000E+00 0.  1.
         21   -1    0    0  502  503 -0.00000000000E+00 -0.00000000000E+00 -0.45672889594E+01  0.45672889594E+01  0.00000000000E+00 0.  1.
         25    2    1    2    0    0  0.00000000000E+00  0.00000000000E+00  0.85059059802E+03  0.85972517594E+03  0.12499205056E+03 0.  0.
          4    1    3    3  501    0  0.46044611983E+02  0.42102219226E+02  0.40285123653E+03  0.40765699360E+03  0.15500000000E+01 0. -1.
         -4    1    3    3    0  501 -0.46044611983E+02 -0.42102219226E+02  0.44773936149E+03  0.45206818234E+03  0.15500000000E+01 0. -1.
<mgrwt>
<rscale>  2 0.12499205E+03</rscale>
<asrwt>0</asrwt>
<pdfrwt beam="1">  1       21 0.13156262E+00 0.12499205E+03</pdfrwt>
<pdfrwt beam="2">  1       21 0.70266052E-03 0.12499205E+03</pdfrwt>
<totfact> 0.27482347E+06</totfact>
</mgrwt>
</event>
<event>
 5    0  0.1222151E+000  0.1249971E+03  0.7546771E-02  0.1235074E+00
         21   -1    0    0  503  502  0.00000000000E+00  0.00000000000E+00  0.14401430211E+04  0.14401430211E+04  0.00000000000E+00 0. -1.
         21   -1    0    0  502  503 -0.00000000000E+00 -0.00000000000E+00 -0.27122791065E+01  0.27122791065E+01  0.00000000000E+00 0. -1.
         25    2    1    2    0    0  0.00000000000E+00  0.00000000000E+00  0.14374307419E+04  0.14428553002E+04  0.12499711719E+03 0.  0.
          4    1    3    3  501    0 -0.22430741408E+02 -0.46840726896E+02  0.11196578122E+04  0.11208627082E+04  0.15500000000E+01 0. -1.
         -4    1    3    3    0  501  0.22430741408E+02  0.46840726896E+02  0.31777292979E+03  0.32199259193E+03  0.15500000000E+01 0. -1.
<mgrwt>
<rscale>  2 0.12499712E+03</rscale>
<asrwt>0</asrwt>
<pdfrwt beam="1">  1       21 0.22155985E+00 0.12499712E+03</pdfrwt>
<pdfrwt beam="2">  1       21 0.41727486E-03 0.12499712E+03</pdfrwt>
<totfact> 0.14862908E+06</totfact>
</mgrwt>
</event>
<event>
 5    0  0.1519035E+000  0.1250005E+03  0.7546771E-02  0.1235069E+00
         21   -1    0    0  503  502  0.00000000000E+00  0.00000000000E+00  0.66985692560E+02  0.66985692560E+02  0.00000000000E+00 0.  1.
         21   -1    0    0  502  503 -0.00000000000E+00 -0.00000000000E+00 -0.58315143870E+02  0.58315143870E+02  0.00000000000E+00 0.  1.
         25    2    1    2    0    0  0.00000000000E+00  0.00000000000E+00  0.86705486901E+01  0.12530083643E+03  0.12500048478E+03 0.  0.
          4    1    3    3  501    0  0.29176250638E+02  0.50470770192E+02 -0.18198186720E+02  0.61091151119E+02  0.15500000000E+01 0. -1.
         -4    1    3    3    0  501 -0.29176250638E+02 -0.50470770192E+02  0.26868735410E+02  0.64209685310E+02  0.15500000000E+01 0. -1.
<mgrwt>
<rscale>  2 0.12500048E+03</rscale>
<asrwt>0</asrwt>
<pdfrwt beam="1">  1       21 0.10305491E-01 0.12500048E+03</pdfrwt>
<pdfrwt beam="2">  1       21 0.89715607E-02 0.12500048E+03</pdfrwt>
<totfact> 0.74002041E+06</totfact>
</mgrwt>
</event>
<event>
 5    0  0.1530906E+000  0.1250021E+03  0.7546771E-02  0.1235066E+00
         21   -1    0    0  503  502  0.00000000000E+00  0.00000000000E+00  0.10921867248E+03  0.10921867248E+03  0.00000000000E+00 0.  1.
         21   -1    0    0  502  503 -0.00000000000E+00 -0.00000000000E+00 -0.35766585692E+02  0.35766585692E+02  0.00000000000E+00 0.  1.
         25    2    1    2    0    0  0.00000000000E+00  0.00000000000E+00  0.73452086790E+02  0.14498525818E+03  0.12500206412E+03 0.  0.
          4    1    3    3  501    0 -0.19138938031E+02 -0.48364243618E+02 -0.34289650869E+01  0.52149394160E+02  0.15500000000E+01 0. -1.
         -4    1    3    3    0  501  0.19138938031E+02  0.48364243618E+02  0.76881051877E+02  0.92835864015E+02  0.15500000000E+01 0. -1.
<mgrwt>
<rscale>  2 0.12500206E+03</rscale>
<asrwt>0</asrwt>
<pdfrwt beam="1">  1       21 0.16802873E-01 0.12500206E+03</pdfrwt>
<pdfrwt beam="2">  1       21 0.55025517E-02 0.12500206E+03</pdfrwt>
<totfact> 0.71391232E+06</totfact>
</mgrwt>
</event>
<event>
 5    0  0.1539548E+000  0.1250059E+03  0.7546771E-02  0.1235060E+00
         21   -1    0    0  503  502  0.00000000000E+00  0.00000000000E+00  0.49359112030E+02  0.49359112030E+02  0.00000000000E+00 0. -1.
         21   -1    0    0  502  503 -0.00000000000E+00 -0.00000000000E+00 -0.79146825873E+02  0.79146825873E+02  0.00000000000E+00 0. -1.
         25    2    1    2    0    0  0.00000000000E+00  0.00000000000E+00 -0.29787713842E+02  0.12850593790E+03  0.12500587258E+03 0.  0.
          4    1    3    3  501    0 -0.25098285110E+02  0.57154463698E+02 -0.12049082198E+02  0.63593549342E+02  0.15500000000E+01 0.  1.
         -4    1    3    3    0  501  0.25098285110E+02 -0.57154463698E+02 -0.17738631644E+02  0.64912388561E+02  0.15500000000E+01 0.  1.
<mgrwt>
<rscale>  2 0.12500587E+03</rscale>
<asrwt>0</asrwt>
<pdfrwt beam="1">  1       21 0.75937095E-02 0.12500587E+03</pdfrwt>
<pdfrwt beam="2">  1       21 0.12176435E-01 0.12500587E+03</pdfrwt>
<totfact> 0.73554294E+06</totfact>
</mgrwt>
</event>
<event>
 5    0  0.1456134E+000  0.1250006E+03  0.7546771E-02  0.1235068E+00
         21   -1    0    0  503  502  0.00000000000E+00  0.00000000000E+00  0.40984403623E+02  0.40984403623E+02  0.00000000000E+00 0.  1.
         21   -1    0    0  502  503 -0.00000000000E+00 -0.00000000000E+00 -0.95311544987E+02  0.95311544987E+02  0.00000000000E+00 0.  1.
         25    2    1    2    0    0  0.00000000000E+00  0.00000000000E+00 -0.54327141365E+02  0.13629594861E+03  0.12500058927E+03 0.  0.
          4    1    3    3  501    0 -0.43285158237E+02 -0.11270550810E+02 -0.74732050463E+02  0.87108622453E+02  0.15500000000E+01 0.  1.
         -4    1    3    3    0  501  0.43285158237E+02  0.11270550810E+02  0.20404909098E+02  0.49187326157E+02  0.15500000000E+01 0.  1.
<mgrwt>
<rscale>  2 0.12500059E+03</rscale>
<asrwt>0</asrwt>
<pdfrwt beam="1">  1       21 0.63052929E-02 0.12500059E+03</pdfrwt>
<pdfrwt beam="2">  1       21 0.14663314E-01 0.12500059E+03</pdfrwt>
<totfact> 0.72524242E+06</totfact>
</mgrwt>
</event>
<event>
 5    0  0.1404038E+000  0.1250017E+03  0.7546771E-02  0.1235067E+00
         21   -1    0    0  503  502  0.00000000000E+00  0.00000000000E+00  0.21471331340E+03  0.21471331340E+03  0.00000000000E+00 0. -1.
         21   -1    0    0  502  503 -0.00000000000E+00 -0.00000000000E+00 -0.18193354860E+02  0.18193354860E+02  0.00000000000E+00 0. -1.
         25    2    1    2    0    0  0.00000000000E+00  0.00000000000E+00  0.19651995854E+03  0.23290666826E+03  0.12500168805E+03 0.  0.
          4    1    3    3  501    0 -0.37601373137E+02  0.11947341871E+02  0.79875685379E+01  0.40284066213E+02  0.15500000000E+01 0. -1.
         -4    1    3    3    0  501  0.37601373137E+02 -0.11947341871E+02  0.18853239001E+03  0.19262260205E+03  0.15500000000E+01 0. -1.
<mgrwt>
<rscale>  2 0.12500169E+03</rscale>
<asrwt>0</asrwt>
<pdfrwt beam="1">  1       21 0.33032816E-01 0.12500169E+03</pdfrwt>
<pdfrwt beam="2">  1       21 0.27989778E-02 0.12500169E+03</pdfrwt>
<totfact> 0.61523279E+06</totfact>
</mgrwt>
</event>
<event>
 5    0  0.1222151E+000  0.1249970E+03  0.7546771E-02  0.1235074E+00
         21   -1    0    0  503  502  0.00000000000E+00  0.00000000000E+00  0.24607242622E+01  0.24607242622E+01  0.00000000000E+00 0.  1.
         21   -1    0    0  502  503 -0.00000000000E+00 -0.00000000000E+00 -0.15873620960E+04  0.15873620960E+04  0.00000000000E+00 0.  1.
         25    2    1    2    0    0  0.00000000000E+00  0.00000000000E+00 -0.15849013718E+04  0.15898228203E+04  0.12499696673E+03 0.  0.
          4    1    3    3  501    0 -0.20026317110E+02 -0.29614722178E+02 -0.14073033501E+03  0.14520852193E+03  0.15500000000E+01 0.  1.
         -4    1    3    3    0  501  0.20026317110E+02  0.29614722178E+02 -0.14441710368E+04  0.14446142984E+04  0.15500000000E+01 0.  1.
<mgrwt>
<rscale>  2 0.12499697E+03</rscale>
<asrwt>0</asrwt>
<pdfrwt beam="1">  1       21 0.37857246E-03 0.12499697E+03</pdfrwt>
<pdfrwt beam="2">  1       21 0.24420988E+00 0.12499697E+03</pdfrwt>
<totfact> 0.12713386E+06</totfact>
</mgrwt>
</event>
<event>
 5    0  0.1441623E+000  0.1250083E+03  0.7546771E-02  0.1235056E+00
         21   -1    0    0  503  502  0.00000000000E+00  0.00000000000E+00  0.11395105579E+03  0.11395105579E+03  0.00000000000E+00 0.  1.
         21   -1    0    0  502  503 -0.00000000000E+00 -0.00000000000E+00 -0.34284598662E+02  0.34284598662E+02  0.00000000000E+00 0.  1.
         25    2    1    2    0    0  0.00000000000E+00  0.00000000000E+00  0.79666457129E+02  0.14823565445E+03  0.12500825917E+03 0.  0.
          4    1    3    3  501    0 -0.48023711223E+02 -0.17672085571E+02  0.82353695146E+02  0.96969650161E+02  0.15500000000E+01 0. -1.
         -4    1    3    3    0  501  0.48023711223E+02  0.17672085571E+02 -0.26872380165E+01  0.51266004294E+02  0.15500000000E+01 0. -1.
<mgrwt>
<rscale>  2 0.12500826E+03</rscale>
<asrwt>0</asrwt>
<pdfrwt beam="1">  1       21 0.17530932E-01 0.12500826E+03</pdfrwt>
<pdfrwt beam="2">  1       21 0.52745537E-02 0.12500826E+03</pdfrwt>
<totfact> 0.70966621E+06</totfact>
</mgrwt>
</event>
<event>
 5    0  0.1545214E+000  0.1250373E+03  0.7546771E-02  0.1235011E+00
         21   -1    0    0  503  502  0.00000000000E+00  0.00000000000E+00  0.90372040207E+02  0.90372040207E+02  0.00000000000E+00 0.  1.
         21   -1    0    0  502  503 -0.00000000000E+00 -0.00000000000E+00 -0.43249903989E+02  0.43249903989E+02  0.00000000000E+00 0.  1.
         25    2    1    2    0    0  0.00000000000E+00  0.00000000000E+00  0.47122136218E+02  0.13362194420E+03  0.12503730743E+03 0.  0.
          4    1    3    3  501    0  0.33516424696E+02 -0.52439701838E+02  0.29691330714E+02  0.68972825612E+02  0.15500000000E+01 0. -1.
         -4    1    3    3    0  501 -0.33516424696E+02  0.52439701838E+02  0.17430805504E+02  0.64649118585E+02  0.15500000000E+01 0. -1.
<mgrwt>
<rscale>  2 0.12503731E+03</rscale>
<asrwt>0</asrwt>
<pdfrwt beam="1">  1       21 0.13903391E-01 0.12503731E+03</pdfrwt>
<pdfrwt beam="2">  1       21 0.66538314E-02 0.12503731E+03</pdfrwt>
<totfact> 0.72810146E+06</totfact>
</mgrwt>
</event>
<event>
 5    0  0.1367427E+000  0.1249959E+03  0.7546771E-02  0.1235076E+00
         21   -1    0    0  503  502  0.00000000000E+00  0.00000000000E+00  0.41524005704E+03  0.41524005704E+03  0.00000000000E+00 0. -1.
         21   -1    0    0  502  503 -0.00000000000E+00 -0.00000000000E+00 -0.94065938379E+01  0.94065938379E+01  0.00000000000E+00 0. -1.
         25    2    1    2    0    0  0.00000000000E+00  0.00000000000E+00  0.40583346321E+03  0.42464665088E+03  0.12499591292E+03 0.  0.
          4    1    3    3  501    0 -0.34070960832E+02 -0.33332827042E+02  0.65686447652E+02  0.81172776444E+02  0.15500000000E+01 0.  1.
         -4    1    3    3    0  501  0.34070960832E+02  0.33332827042E+02  0.34014701555E+03  0.34347387444E+03  0.15500000000E+01 0.  1.
<mgrwt>
<rscale>  2 0.12499591E+03</rscale>
<asrwt>0</asrwt>
<pdfrwt beam="1">  1       21 0.63883071E-01 0.12499591E+03</pdfrwt>
<pdfrwt beam="2">  1       21 0.14471686E-02 0.12499591E+03</pdfrwt>
<totfact> 0.46453153E+06</totfact>
</mgrwt>
</event>
<event>
 5    0  0.1497809E+000  0.1250087E+03  0.7546771E-02  0.1235056E+00
         21   -1    0    0  503  502  0.00000000000E+00  0.00000000000E+00  0.65640194017E+02  0.65640194017E+02  0.00000000000E+00 0.  1.
         21   -1    0    0  502  503 -0.00000000000E+00 -0.00000000000E+00 -0.59518317559E+02  0.59518317559E+02  0.00000000000E+00 0.  1.
         25    2    1    2    0    0  0.00000000000E+00  0.00000000000E+00  0.61218764579E+01  0.12515851158E+03  0.12500870229E+03 0.  0.
          4    1    3    3  501    0 -0.55310719485E+02 -0.15123160603E+02 -0.21796334567E+02  0.61363412365E+02  0.15500000000E+01 0.  1.
         -4    1    3    3    0  501  0.55310719485E+02  0.15123160603E+02  0.27918211025E+02  0.63795099211E+02  0.15500000000E+01 0.  1.
<mgrwt>
<rscale>  2 0.12500870E+03</rscale>
<asrwt>0</asrwt>
<pdfrwt beam="1">  1       21 0.10098491E-01 0.12500870E+03</pdfrwt>
<pdfrwt beam="2">  1       21 0.91566642E-02 0.12500870E+03</pdfrwt>
<totfact> 0.74005708E+06</totfact>
</mgrwt>
</event>
<event>
 5    0  0.1546231E+000  0.1249922E+03  0.7546771E-02  0.1235081E+00
         21   -1    0    0  503  502  0.00000000000E+00  0.00000000000E+00  0.73831638240E+02  0.73831638240E+02  0.00000000000E+00 0.  1.
         21   -1    0    0  502  503 -0.00000000000E+00 -0.00000000000E+00 -0.52900924768E+02  0.52900924768E+02  0.00000000000E+00 0.  1.
         25    2    1    2    0    0  0.00000000000E+00  0.00000000000E+00  0.20930713472E+02  0.12673256301E+03  0.12499219080E+03 0.  0.
          4    1    3    3  501    0 -0.65703223006E+01  0.60800796512E+02 -0.24975495538E+01  0.61225372562E+02  0.15500000000E+01 0. -1.
         -4    1    3    3    0  501  0.65703223006E+01 -0.60800796512E+02  0.23428263026E+02  0.65507190445E+02  0.15500000000E+01 0. -1.
<mgrwt>
<rscale>  2 0.12499219E+03</rscale>
<asrwt>0</asrwt>
<pdfrwt beam="1">  1       21 0.11358714E-01 0.12499219E+03</pdfrwt>
<pdfrwt beam="2">  1       21 0.81386039E-02 0.12499219E+03</pdfrwt>
<totfact> 0.73820302E+06</totfact>
</mgrwt>
</event>
<event>
 5    0  0.1331560E+000  0.1250015E+03  0.7546771E-02  0.1235067E+00
         21   -1    0    0  503  502  0.00000000000E+00  0.00000000000E+00  0.41072593512E+03  0.41072593512E+03  0.00000000000E+00 0. -1.
         21   -1    0    0  502  503 -0.00000000000E+00 -0.00000000000E+00 -0.95108253201E+01  0.95108253201E+01  0.00000000000E+00 0. -1.
         25    2    1    2    0    0  0.00000000000E+00  0.00000000000E+00  0.40121510980E+03  0.42023676044E+03  0.12500148197E+03 0.  0.
          4    1    3    3  501    0 -0.18704472082E+02  0.26848193600E+02  0.21661598201E+02  0.39272256263E+02  0.15500000000E+01 0.  1.
         -4    1    3    3    0  501  0.18704472082E+02 -0.26848193600E+02  0.37955351160E+03  0.38096450418E+03  0.15500000000E+01 0.  1.
<mgrwt>
<rscale>  2 0.12500148E+03</rscale>
<asrwt>0</asrwt>
<pdfrwt beam="1">  1       21 0.63188592E-01 0.12500148E+03</pdfrwt>
<pdfrwt beam="2">  1       21 0.14632042E-02 0.12500148E+03</pdfrwt>
<totfact> 0.46725686E+06</totfact>
</mgrwt>
</event>
<event>
 5    0  0.1478245E+000  0.1250014E+03  0.7546771E-02  0.1235067E+00
         21   -1    0    0  503  502  0.00000000000E+00  0.00000000000E+00  0.45406522031E+02  0.45406522031E+02  0.00000000000E+00 0. -1.
         21   -1    0    0  502  503 -0.00000000000E+00 -0.00000000000E+00 -0.86030329619E+02  0.86030329619E+02  0.00000000000E+00 0. -1.
         25    2    1    2    0    0  0.00000000000E+00  0.00000000000E+00 -0.40623807587E+02  0.13143685165E+03  0.12500140891E+03 0.  0.
          4    1    3    3  501    0 -0.59818447266E+02 -0.61652409181E+01 -0.38146205721E+02  0.71230557627E+02  0.15500000000E+01 0.  1.
         -4    1    3    3    0  501  0.59818447266E+02  0.61652409181E+01 -0.24776018666E+01  0.60206294023E+02  0.15500000000E+01 0.  1.
<mgrwt>
<rscale>  2 0.12500141E+03</rscale>
<asrwt>0</asrwt>
<pdfrwt beam="1">  1       21 0.69856187E-02 0.12500141E+03</pdfrwt>
<pdfrwt beam="2">  1       21 0.13235435E-01 0.12500141E+03</pdfrwt>
<totfact> 0.73169233E+06</totfact>
</mgrwt>
</event>
<event>
 4    0  0.1907631E+000  0.1240901E+03  0.7546771E-02  0.1236498E+00
         21   -1    0    0  503  502  0.00000000000E+00  0.00000000000E+00  0.22620277457E+02  0.22620277457E+02  0.00000000000E+00 0.  1.
         21   -1    0    0  502  503 -0.00000000000E+00 -0.00000000000E+00 -0.17018302097E+03  0.17018302097E+03  0.00000000000E+00 0.  1.
          4    1    1    2  501    0 -0.40736880390E+02  0.46718408909E+02 -0.77283832320E+02  0.99082270831E+02  0.15500000000E+01 0. -1.
         -4    1    1    2    0  501  0.40736880390E+02 -0.46718408909E+02 -0.70278911191E+02  0.93721027593E+02  0.15500000000E+01 0. -1.
<mgrwt>
<rscale>  2 0.12409008E+03</rscale>
<asrwt>0</asrwt>
<pdfrwt beam="1">  1       21 0.34800429E-02 0.12409008E+03</pdfrwt>
<pdfrwt beam="2">  1       21 0.26182002E-01 0.12409008E+03</pdfrwt>
<totfact> 0.67249763E+06</totfact>
</mgrwt>
</event>
<event>
 5    0  0.1653917E+000  0.1249992E+03  0.7546771E-02  0.1235071E+00
         21   -1    0    0  503  502  0.00000000000E+00  0.00000000000E+00  0.16161041658E+03  0.16161041658E+03  0.00000000000E+00 0. -1.
         21   -1    0    0  502  503 -0.00000000000E+00 -0.00000000000E+00 -0.24170458206E+02  0.24170458206E+02  0.00000000000E+00 0. -1.
         25    2    1    2    0    0  0.00000000000E+00  0.00000000000E+00  0.13743995838E+03  0.18578087479E+03  0.12499916511E+03 0.  0.
          4    1    3    3  501    0 -0.44391698639E+02 -0.16923688678E+01  0.34208739847E+01  0.44582416929E+02  0.15500000000E+01 0.  1.
         -4    1    3    3    0  501  0.44391698639E+02  0.16923688678E+01  0.13401908439E+03  0.14119845786E+03  0.15500000000E+01 0.  1.
<mgrwt>
<rscale>  2 0.12499917E+03</rscale>
<asrwt>0</asrwt>
<pdfrwt beam="1">  1       21 0.24863140E-01 0.12499917E+03</pdfrwt>
<pdfrwt beam="2">  1       21 0.37185321E-02 0.12499917E+03</pdfrwt>
<totfact> 0.66495888E+06</totfact>
</mgrwt>
</event>
<event>
 5    0  0.1371257E+000  0.1250006E+03  0.7546771E-02  0.1235068E+00
         21   -1    0    0  503  502  0.00000000000E+00  0.00000000000E+00  0.45628777277E+03  0.45628777277E+03  0.00000000000E+00 0. -1.
         21   -1    0    0  502  503 -0.00000000000E+00 -0.00000000000E+00 -0.85610125488E+01  0.85610125488E+01  0.00000000000E+00 0. -1.
         25    2    1    2    0    0  0.00000000000E+00  0.00000000000E+00  0.44772676022E+03  0.46484878532E+03  0.12500056558E+03 0.  0.
          4    1    3    3  501    0 -0.36615270217E+02  0.40728384561E+02  0.11202758082E+03  0.12470790146E+03  0.15500000000E+01 0.  1.
         -4    1    3    3    0  501  0.36615270217E+02 -0.40728384561E+02  0.33569917940E+03  0.34014088386E+03  0.15500000000E+01 0.  1.
<mgrwt>
<rscale>  2 0.12500057E+03</rscale>
<asrwt>0</asrwt>
<pdfrwt beam="1">  1       21 0.70198100E-01 0.12500057E+03</pdfrwt>
<pdfrwt beam="2">  1       21 0.13170792E-02 0.12500057E+03</pdfrwt>
<totfact> 0.44016265E+06</totfact>
</mgrwt>
</event>
<event>
 5    0  0.1523487E+000  0.1249987E+03  0.7546771E-02  0.1235071E+00
         21   -1    0    0  503  502  0.00000000000E+00  0.00000000000E+00  0.26868542727E+02  0.26868542727E+02  0.00000000000E+00 0. -1.
         21   -1    0    0  502  503 -0.00000000000E+00 -0.00000000000E+00 -0.14538083493E+03  0.14538083493E+03  0.00000000000E+00 0. -1.
         25    2    1    2    0    0  0.00000000000E+00  0.00000000000E+00 -0.11851229221E+03  0.17224937766E+03  0.12499873879E+03 0.  0.
          4    1    3    3  501    0 -0.22569177662E+02 -0.58134205135E+02 -0.64560153835E+02  0.89773991502E+02  0.15500000000E+01 0. -1.
         -4    1    3    3    0  501  0.22569177662E+02  0.58134205135E+02 -0.53952138372E+02  0.82475386158E+02  0.15500000000E+01 0. -1.
<mgrwt>
<rscale>  2 0.12499874E+03</rscale>
<asrwt>0</asrwt>
<pdfrwt beam="1">  1       21 0.41336219E-02 0.12499874E+03</pdfrwt>
<pdfrwt beam="2">  1       21 0.22366283E-01 0.12499874E+03</pdfrwt>
<totfact> 0.68054158E+06</totfact>
</mgrwt>
</event>
<event>
 5    0  0.1401672E+000  0.1250000E+03  0.7546771E-02  0.1235069E+00
         21   -1    0    0  503  502  0.00000000000E+00  0.00000000000E+00  0.39202677662E+02  0.39202677662E+02  0.00000000000E+00 0.  1.
         21   -1    0    0  502  503 -0.00000000000E+00 -0.00000000000E+00 -0.99642400605E+02  0.99642400605E+02  0.00000000000E+00 0.  1.
         25    2    1    2    0    0  0.00000000000E+00  0.00000000000E+00 -0.60439722943E+02  0.13884507827E+03  0.12499998260E+03 0.  0.
          4    1    3    3  501    0  0.42447877584E+02  0.31712602887E+01 -0.81023869211E+02  0.91537692155E+02  0.15500000000E+01 0.  1.
         -4    1    3    3    0  501 -0.42447877584E+02 -0.31712602887E+01  0.20584146268E+02  0.47307386112E+02  0.15500000000E+01 0.  1.
<mgrwt>
<rscale>  2 0.12499998E+03</rscale>
<asrwt>0</asrwt>
<pdfrwt beam="1">  1       21 0.60311812E-02 0.12499998E+03</pdfrwt>
<pdfrwt beam="2">  1       21 0.15329600E-01 0.12499998E+03</pdfrwt>
<totfact> 0.72190473E+06</totfact>
</mgrwt>
</event>
<event>
 5    0  0.1491620E+000  0.1250000E+03  0.7546771E-02  0.1235069E+00
         21   -1    0    0  503  502  0.00000000000E+00  0.00000000000E+00  0.23813167024E+03  0.23813167024E+03  0.00000000000E+00 0.  1.
         21   -1    0    0  502  503 -0.00000000000E+00 -0.00000000000E+00 -0.16403741090E+02  0.16403741090E+02  0.00000000000E+00 0.  1.
         25    2    1    2    0    0  0.00000000000E+00  0.00000000000E+00  0.22172792915E+03  0.25453541133E+03  0.12500000422E+03 0.  0.
          4    1    3    3  501    0 -0.55268590920E+01  0.61834799687E+02  0.96499990387E+02  0.11475512742E+03  0.15500000000E+01 0. -1.
         -4    1    3    3    0  501  0.55268590920E+01 -0.61834799687E+02  0.12522793876E+03  0.13978028391E+03  0.15500000000E+01 0. -1.
<mgrwt>
<rscale>  2 0.12500000E+03</rscale>
<asrwt>0</asrwt>
<pdfrwt beam="1">  1       21 0.36635639E-01 0.12500000E+03</pdfrwt>
<pdfrwt beam="2">  1       21 0.25236526E-02 0.12500000E+03</pdfrwt>
<totfact> 0.59453790E+06</totfact>
</mgrwt>
</event>
<event>
 5    0  0.1222151E+000  0.1250017E+03  0.7546771E-02  0.1235067E+00
         21   -1    0    0  503  502  0.00000000000E+00  0.00000000000E+00  0.29396438035E+04  0.29396438035E+04  0.00000000000E+00 0. -1.
         21   -1    0    0  502  503 -0.00000000000E+00 -0.00000000000E+00 -0.13288529531E+01  0.13288529531E+01  0.00000000000E+00 0. -1.
         25    2    1    2    0    0  0.00000000000E+00  0.00000000000E+00  0.29383149505E+04  0.29409726564E+04  0.12500166958E+03 0.  0.
          4    1    3    3  501    0 -0.55697268023E+02 -0.74556397215E+01  0.21118405529E+04  0.21125886243E+04  0.15500000000E+01 0. -1.
         -4    1    3    3    0  501  0.55697268023E+02  0.74556397215E+01  0.82647439766E+03  0.82838403215E+03  0.15500000000E+01 0. -1.
<mgrwt>
<rscale>  2 0.12500167E+03</rscale>
<asrwt>0</asrwt>
<pdfrwt beam="1">  1       21 0.45224769E+00 0.12500167E+03</pdfrwt>
<pdfrwt beam="2">  1       21 0.20444127E-03 0.12500167E+03</pdfrwt>
<totfact> 0.19345377E+05</totfact>
</mgrwt>
</event>
<event>
 5    0  0.1506983E+000  0.1250005E+03  0.7546771E-02  0.1235069E+00
         21   -1    0    0  503  502  0.00000000000E+00  0.00000000000E+00  0.48537034001E+02  0.48537034001E+02  0.00000000000E+00 0. -1.
         21   -1    0    0  502  503 -0.00000000000E+00 -0.00000000000E+00 -0.80480391356E+02  0.80480391356E+02  0.00000000000E+00 0. -1.
         25    2    1    2    0    0  0.00000000000E+00  0.00000000000E+00 -0.31943357355E+02  0.12901742536E+03  0.12500047187E+03 0.  0.
          4    1    3    3  501    0  0.45906210012E+02  0.48853518620E+01  0.27483925448E+02  0.53749562216E+02  0.15500000000E+01 0.  1.
         -4    1    3    3    0  501 -0.45906210012E+02 -0.48853518620E+01 -0.59427282803E+02  0.75267863141E+02  0.15500000000E+01 0.  1.
<mgrwt>
<rscale>  2 0.12500047E+03</rscale>
<asrwt>0</asrwt>
<pdfrwt beam="1">  1       21 0.74672360E-02 0.12500047E+03</pdfrwt>
<pdfrwt beam="2">  1       21 0.12381599E-01 0.12500047E+03</pdfrwt>
<totfact> 0.73495655E+06</totfact>
</mgrwt>
</event>
<event>
 5    0  0.1491486E+000  0.1250104E+03  0.7546771E-02  0.1235053E+00
         21   -1    0    0  503  502  0.00000000000E+00  0.00000000000E+00  0.85652863160E+02  0.85652863160E+02  0.00000000000E+00 0.  1.
         21   -1    0    0  502  503 -0.00000000000E+00 -0.00000000000E+00 -0.45613192931E+02  0.45613192931E+02  0.00000000000E+00 0.  1.
         25    2    1    2    0    0  0.00000000000E+00  0.00000000000E+00  0.40039670229E+02  0.13126605609E+03  0.12501040873E+03 0.  0.
          4    1    3    3  501    0 -0.32992351451E+02  0.82426619170E+01  0.75065037561E+02  0.82423292180E+02  0.15500000000E+01 0.  1.
         -4    1    3    3    0  501  0.32992351451E+02 -0.82426619170E+01 -0.35025367331E+02  0.48842763911E+02  0.15500000000E+01 0.  1.
<mgrwt>
<rscale>  2 0.12501041E+03</rscale>
<asrwt>0</asrwt>
<pdfrwt beam="1">  1       21 0.13177363E-01 0.12501041E+03</pdfrwt>
<pdfrwt beam="2">  1       21 0.70174143E-02 0.12501041E+03</pdfrwt>
<totfact> 0.73175408E+06</totfact>
</mgrwt>
</event>
<event>
 5    0  0.1370361E+000  0.1249498E+03  0.7546771E-02  0.1235148E+00
         21   -1    0    0  503  502  0.00000000000E+00  0.00000000000E+00  0.34322219033E+03  0.34322219033E+03  0.00000000000E+00 0. -1.
         21   -1    0    0  502  503 -0.00000000000E+00 -0.00000000000E+00 -0.11371969567E+02  0.11371969567E+02  0.00000000000E+00 0. -1.
         25    2    1    2    0    0  0.00000000000E+00  0.00000000000E+00  0.33185022077E+03  0.35459415990E+03  0.12494978676E+03 0.  0.
          4    1    3    3  501    0 -0.53467728636E+02  0.16130168294E+02  0.24527097575E+03  0.25155364116E+03  0.15500000000E+01 0. -1.
         -4    1    3    3    0  501  0.53467728636E+02 -0.16130168294E+02  0.86579245011E+02  0.10304051874E+03  0.15500000000E+01 0. -1.
<mgrwt>
<rscale>  2 0.12494979E+03</rscale>
<asrwt>0</asrwt>
<pdfrwt beam="1">  1       21 0.52803406E-01 0.12494979E+03</pdfrwt>
<pdfrwt beam="2">  1       21 0.17495340E-02 0.12494979E+03</pdfrwt>
<totfact> 0.51265366E+06</totfact>
</mgrwt>
</event>
<event>
 5    0  0.1506525E+000  0.1249957E+03  0.7546771E-02  0.1235076E+00
         21   -1    0    0  503  502  0.00000000000E+00  0.00000000000E+00  0.11748711944E+03  0.11748711944E+03  0.00000000000E+00 0. -1.
         21   -1    0    0  502  503 -0.00000000000E+00 -0.00000000000E+00 -0.33246048829E+02  0.33246048829E+02  0.00000000000E+00 0. -1.
         25    2    1    2    0    0  0.00000000000E+00  0.00000000000E+00  0.84241070616E+02  0.15073316827E+03  0.12499572008E+03 0.  0.
          4    1    3    3  501    0  0.40905019828E+02 -0.47212919189E+02  0.43495281791E+02  0.76134896227E+02  0.15500000000E+01 0. -1.
         -4    1    3    3    0  501 -0.40905019828E+02  0.47212919189E+02  0.40745788824E+02  0.74598272047E+02  0.15500000000E+01 0. -1.
<mgrwt>
<rscale>  2 0.12499572E+03</rscale>
<asrwt>0</asrwt>
<pdfrwt beam="1">  1       21 0.18074941E-01 0.12499572E+03</pdfrwt>
<pdfrwt beam="2">  1       21 0.51147768E-02 0.12499572E+03</pdfrwt>
<totfact> 0.70674922E+06</totfact>
</mgrwt>
</event>
<event>
 5    0  0.1468752E+000  0.1250023E+03  0.7546771E-02  0.1235066E+00
         21   -1    0    0  503  502  0.00000000000E+00  0.00000000000E+00  0.51568472057E+02  0.51568472057E+02  0.00000000000E+00 0.  1.
         21   -1    0    0  502  503 -0.00000000000E+00 -0.00000000000E+00 -0.75751564543E+02  0.75751564543E+02  0.00000000000E+00 0.  1.
         25    2    1    2    0    0  0.00000000000E+00  0.00000000000E+00 -0.24183092486E+02  0.12732003660E+03  0.12500227901E+03 0.  0.
          4    1    3    3  501    0 -0.27603162811E+02 -0.10596508001E+02  0.43972392861E+02  0.53011266849E+02  0.15500000000E+01 0. -1.
         -4    1    3    3    0  501  0.27603162811E+02  0.10596508001E+02 -0.68155485347E+02  0.74308769751E+02  0.15500000000E+01 0. -1.
<mgrwt>
<rscale>  2 0.12500228E+03</rscale>
<asrwt>0</asrwt>
<pdfrwt beam="1">  1       21 0.79336111E-02 0.12500228E+03</pdfrwt>
<pdfrwt beam="2">  1       21 0.11654087E-01 0.12500228E+03</pdfrwt>
<totfact> 0.73721342E+06</totfact>
</mgrwt>
</event>
<event>
 5    0  0.1546046E+000  0.1249979E+03  0.7546771E-02  0.1235073E+00
         21   -1    0    0  503  502  0.00000000000E+00  0.00000000000E+00  0.59650124742E+02  0.59650124742E+02  0.00000000000E+00 0. -1.
         21   -1    0    0  502  503 -0.00000000000E+00 -0.00000000000E+00 -0.65483798262E+02  0.65483798262E+02  0.00000000000E+00 0. -1.
         25    2    1    2    0    0  0.00000000000E+00  0.00000000000E+00 -0.58336735200E+01  0.12513392300E+03  0.12499786774E+03 0.  0.
          4    1    3    3  501    0 -0.26452621434E+02 -0.41551676181E+01 -0.59429212605E+02  0.65201536864E+02  0.15500000000E+01 0.  1.
         -4    1    3    3    0  501  0.26452621434E+02  0.41551676181E+01  0.53595539085E+02  0.59932386140E+02  0.15500000000E+01 0.  1.
<mgrwt>
<rscale>  2 0.12499787E+03</rscale>
<asrwt>0</asrwt>
<pdfrwt beam="1">  1       21 0.91769422E-02 0.12499787E+03</pdfrwt>
<pdfrwt beam="2">  1       21 0.10074431E-01 0.12499787E+03</pdfrwt>
<totfact> 0.74029530E+06</totfact>
</mgrwt>
</event>
<event>
 5    0  0.1312058E+000  0.1249991E+03  0.7546771E-02  0.1235071E+00
         21   -1    0    0  503  502  0.00000000000E+00  0.00000000000E+00  0.82491046709E+01  0.82491046709E+01  0.00000000000E+00 0.  1.
         21   -1    0    0  502  503 -0.00000000000E+00 -0.00000000000E+00 -0.47352941641E+03  0.47352941641E+03  0.00000000000E+00 0.  1.
         25    2    1    2    0    0  0.00000000000E+00  0.00000000000E+00 -0.46528031174E+03  0.48177852108E+03  0.12499909953E+03 0.  0.
          4    1    3    3  501    0 -0.25883519380E+01  0.42826022191E+02 -0.57577853880E+02  0.71821859485E+02  0.15500000000E+01 0. -1.
         -4    1    3    3    0  501  0.25883519380E+01 -0.42826022191E+02 -0.40770245786E+03  0.40995666160E+03  0.15500000000E+01 0. -1.
<mgrwt>
<rscale>  2 0.12499910E+03</rscale>
<asrwt>0</asrwt>
<pdfrwt beam="1">  1       21 0.12690927E-02 0.12499910E+03</pdfrwt>
<pdfrwt beam="2">  1       21 0.72850697E-01 0.12499910E+03</pdfrwt>
<totfact> 0.43050779E+06</totfact>
</mgrwt>
</event>
<event>
 5    0  0.1526141E+000  0.1249958E+03  0.7546771E-02  0.1235076E+00
         21   -1    0    0  503  502  0.00000000000E+00  0.00000000000E+00  0.74047222158E+02  0.74047222158E+02  0.00000000000E+00 0.  1.
         21   -1    0    0  502  503 -0.00000000000E+00 -0.00000000000E+00 -0.52749992706E+02  0.52749992706E+02  0.00000000000E+00 0.  1.
         25    2    1    2    0    0  0.00000000000E+00  0.00000000000E+00  0.21297229451E+02  0.12679721486E+03  0.12499584679E+03 0.  0.
          4    1    3    3  501    0 -0.45014150923E+02 -0.38598074068E+02 -0.93201668689E+01  0.60044592725E+02  0.15500000000E+01 0.  1.
         -4    1    3    3    0  501  0.45014150923E+02  0.38598074068E+02  0.30617396320E+02  0.66752622139E+02  0.15500000000E+01 0.  1.
<mgrwt>
<rscale>  2 0.12499585E+03</rscale>
<asrwt>0</asrwt>
<pdfrwt beam="1">  1       21 0.11391880E-01 0.12499585E+03</pdfrwt>
<pdfrwt beam="2">  1       21 0.81153835E-02 0.12499585E+03</pdfrwt>
<totfact> 0.73804591E+06</totfact>
</mgrwt>
</event>
<event>
 5    0  0.1623104E+000  0.1250575E+03  0.7546771E-02  0.1234979E+00
         21   -1    0    0  503  502  0.00000000000E+00  0.00000000000E+00  0.79997300484E+02  0.79997300484E+02  0.00000000000E+00 0.  1.
         21   -1    0    0  502  503 -0.00000000000E+00 -0.00000000000E+00 -0.48874707148E+02  0.48874707148E+02  0.00000000000E+00 0.  1.
         25    2    1    2    0    0  0.00000000000E+00  0.00000000000E+00  0.31122593336E+02  0.12887200763E+03  0.12505750091E+03 0.  0.
          4    1    3    3  501    0  0.35219400943E+02  0.50801362979E+02  0.25132072787E+02  0.66747346508E+02  0.15500000000E+01 0.  1.
         -4    1    3    3    0  501 -0.35219400943E+02 -0.50801362979E+02  0.59905205498E+01  0.62124661124E+02  0.15500000000E+01 0.  1.
<mgrwt>
<rscale>  2 0.12505750E+03</rscale>
<asrwt>0</asrwt>
<pdfrwt beam="1">  1       21 0.12307277E-01 0.12505750E+03</pdfrwt>
<pdfrwt beam="2">  1       21 0.75191857E-02 0.12505750E+03</pdfrwt>
<totfact> 0.73408252E+06</totfact>
</mgrwt>
</event>
<event>
 5    0  0.1222151E+000  0.1249956E+03  0.7546771E-02  0.1235076E+00
         21   -1    0    0  503  502  0.00000000000E+00  0.00000000000E+00  0.92375702119E+03  0.92375702119E+03  0.00000000000E+00 0.  1.
         21   -1    0    0  502  503 -0.00000000000E+00 -0.00000000000E+00 -0.42283607597E+01  0.42283607597E+01  0.00000000000E+00 0.  1.
         25    2    1    2    0    0  0.00000000000E+00  0.00000000000E+00  0.91952866043E+03  0.92798538195E+03  0.12499564696E+03 0.  0.
          4    1    3    3  501    0  0.27118766085E+02 -0.47581674288E+02  0.23652936256E+03  0.24279206135E+03  0.15500000000E+01 0. -1.
         -4    1    3    3    0  501 -0.27118766085E+02  0.47581674288E+02  0.68299929786E+03  0.68519332059E+03  0.15500000000E+01 0. -1.
<mgrwt>
<rscale>  2 0.12499565E+03</rscale>
<asrwt>0</asrwt>
<pdfrwt beam="1">  1       21 0.14211630E+00 0.12499565E+03</pdfrwt>
<pdfrwt beam="2">  1       21 0.65051777E-03 0.12499565E+03</pdfrwt>
<totfact> 0.25512999E+06</totfact>
</mgrwt>
</event>
<event>
 5    0  0.1577582E+000  0.1250257E+03  0.7546771E-02  0.1235029E+00
         21   -1    0    0  503  502  0.00000000000E+00  0.00000000000E+00  0.91716729598E+02  0.91716729598E+02  0.00000000000E+00 0. -1.
         21   -1    0    0  502  503 -0.00000000000E+00 -0.00000000000E+00 -0.42607901188E+02  0.42607901188E+02  0.00000000000E+00 0. -1.
         25    2    1    2    0    0  0.00000000000E+00  0.00000000000E+00  0.49108828411E+02  0.13432463079E+03  0.12502571499E+03 0.  0.
          4    1    3    3  501    0 -0.41068459742E+01  0.58914594426E+02  0.25976998823E+01  0.59134982581E+02  0.15500000000E+01 0.  1.
         -4    1    3    3    0  501  0.41068459742E+01 -0.58914594426E+02  0.46511128528E+02  0.75189648205E+02  0.15500000000E+01 0.  1.
<mgrwt>
<rscale>  2 0.12502571E+03</rscale>
<asrwt>0</asrwt>
<pdfrwt beam="1">  1       21 0.14110266E-01 0.12502571E+03</pdfrwt>
<pdfrwt beam="2">  1       21 0.65550617E-02 0.12502571E+03</pdfrwt>
<totfact> 0.72738299E+06</totfact>
</mgrwt>
</event>
<event>
 5    0  0.1400942E+000  0.1249785E+03  0.7546771E-02  0.1235103E+00
         21   -1    0    0  503  502  0.00000000000E+00  0.00000000000E+00  0.80725996686E+01  0.80725996686E+01  0.00000000000E+00 0. -1.
         21   -1    0    0  502  503 -0.00000000000E+00 -0.00000000000E+00 -0.48372323646E+03  0.48372323646E+03  0.00000000000E+00 0. -1.
         25    2    1    2    0    0  0.00000000000E+00  0.00000000000E+00 -0.47565063679E+03  0.49179583613E+03  0.12497846276E+03 0.  0.
          4    1    3    3  501    0  0.11673637055E+02 -0.59552342620E+02 -0.29615779025E+03  0.30231538919E+03  0.15500000000E+01 0.  1.
         -4    1    3    3    0  501 -0.11673637055E+02  0.59552342620E+02 -0.17949284654E+03  0.18948044694E+03  0.15500000000E+01 0.  1.
<mgrwt>
<rscale>  2 0.12497846E+03</rscale>
<asrwt>0</asrwt>
<pdfrwt beam="1">  1       21 0.12419383E-02 0.12497846E+03</pdfrwt>
<pdfrwt beam="2">  1       21 0.74418965E-01 0.12497846E+03</pdfrwt>
<totfact> 0.42515323E+06</totfact>
</mgrwt>
</event>
<event>
 5    0  0.1401328E+000  0.1249947E+03  0.7546771E-02  0.1235078E+00
         21   -1    0    0  503  502  0.00000000000E+00  0.00000000000E+00  0.51851506522E+03  0.51851506522E+03  0.00000000000E+00 0. -1.
         21   -1    0    0  502  503 -0.00000000000E+00 -0.00000000000E+00 -0.75328949604E+01  0.75328949604E+01  0.00000000000E+00 0. -1.
         25    2    1    2    0    0  0.00000000000E+00  0.00000000000E+00  0.51098217026E+03  0.52604796018E+03  0.12499471223E+03 0.  0.
          4    1    3    3  501    0  0.22182445229E+02  0.30254826032E+02  0.45227128097E+02  0.58781893389E+02  0.15500000000E+01 0.  1.
         -4    1    3    3    0  501 -0.22182445229E+02 -0.30254826032E+02  0.46575504216E+03  0.46726606679E+03  0.15500000000E+01 0.  1.
<mgrwt>
<rscale>  2 0.12499471E+03</rscale>
<asrwt>0</asrwt>
<pdfrwt beam="1">  1       21 0.79771521E-01 0.12499471E+03</pdfrwt>
<pdfrwt beam="2">  1       21 0.11589073E-02 0.12499471E+03</pdfrwt>
<totfact> 0.40671130E+06</totfact>
</mgrwt>
</event>
<event>
 5    0  0.1499629E+000  0.1250025E+03  0.7546771E-02  0.1235065E+00
         21   -1    0    0  503  502  0.00000000000E+00  0.00000000000E+00  0.43529618051E+02  0.43529618051E+02  0.00000000000E+00 0.  1.
         21   -1    0    0  502  503 -0.00000000000E+00 -0.00000000000E+00 -0.89741362342E+02  0.89741362342E+02  0.00000000000E+00 0.  1.
         25    2    1    2    0    0  0.00000000000E+00  0.00000000000E+00 -0.46211744291E+02  0.13327098039E+03  0.12500251559E+03 0.  0.
          4    1    3    3  501    0  0.60330859671E+02 -0.53213429028E+01 -0.39479999769E+02  0.72313222862E+02  0.15500000000E+01 0.  1.
         -4    1    3    3    0  501 -0.60330859671E+02  0.53213429028E+01 -0.67317445215E+01  0.60957757531E+02  0.15500000000E+01 0.  1.
<mgrwt>
<rscale>  2 0.12500252E+03</rscale>
<asrwt>0</asrwt>
<pdfrwt beam="1">  1       21 0.66968644E-02 0.12500252E+03</pdfrwt>
<pdfrwt beam="2">  1       21 0.13806363E-01 0.12500252E+03</pdfrwt>
<totfact> 0.72921555E+06</totfact>
</mgrwt>
</event>
<event>
 5    0  0.1254816E+000  0.1250055E+03  0.7546771E-02  0.1235061E+00
         21   -1    0    0  503  502  0.00000000000E+00  0.00000000000E+00  0.82804058136E+01  0.82804058136E+01  0.00000000000E+00 0. -1.
         21   -1    0    0  502  503 -0.00000000000E+00 -0.00000000000E+00 -0.47178808619E+03  0.47178808619E+03  0.00000000000E+00 0. -1.
         25    2    1    2    0    0  0.00000000000E+00  0.00000000000E+00 -0.46350768038E+03  0.48006849200E+03  0.12500554886E+03 0.  0.
          4    1    3    3  501    0 -0.32571962726E+02  0.55245585932E+01 -0.43542932977E+03  0.43668358937E+03  0.15500000000E+01 0. -1.
         -4    1    3    3    0  501  0.32571962726E+02 -0.55245585932E+01 -0.28078350605E+02  0.43384902630E+02  0.15500000000E+01 0. -1.
<mgrwt>
<rscale>  2 0.12500555E+03</rscale>
<asrwt>0</asrwt>
<pdfrwt beam="1">  1       21 0.12739082E-02 0.12500555E+03</pdfrwt>
<pdfrwt beam="2">  1       21 0.72582804E-01 0.12500555E+03</pdfrwt>
<totfact> 0.43140073E+06</totfact>
</mgrwt>
</event>
<event>
 5    0  0.1222151E+000  0.1250124E+03  0.7546771E-02  0.1235050E+00
         21   -1    0    0  503  502  0.00000000000E+00  0.00000000000E+00  0.69840526410E+01  0.69840526410E+01  0.00000000000E+00 0.  1.
         21   -1    0    0  502  503 -0.00000000000E+00 -0.00000000000E+00 -0.55942103286E+03  0.55942103286E+03  0.00000000000E+00 0.  1.
         25    2    1    2    0    0  0.00000000000E+00  0.00000000000E+00 -0.55243698022E+03  0.56640508550E+03  0.12501241446E+03 0.  0.
          4    1    3    3  501    0 -0.16918071420E+02  0.15188699953E+02 -0.53992863542E+03  0.54040933707E+03  0.15500000000E+01 0. -1.
         -4    1    3    3    0  501  0.16918071420E+02 -0.15188699953E+02 -0.12508344799E+02  0.25995748430E+02  0.15500000000E+01 0. -1.
<mgrwt>
<rscale>  2 0.12501241E+03</rscale>
<asrwt>0</asrwt>
<pdfrwt beam="1">  1       21 0.10744690E-02 0.12501241E+03</pdfrwt>
<pdfrwt beam="2">  1       21 0.86064825E-01 0.12501241E+03</pdfrwt>
<totfact> 0.38645429E+06</totfact>
</mgrwt>
</event>
<event>
 4    0  0.1519903E+000  0.1258051E+03  0.7546771E-02  0.1233816E+00
         21   -1    0    0  503  502  0.00000000000E+00  0.00000000000E+00  0.30747673725E+02  0.30747673725E+02  0.00000000000E+00 0. -1.
         21   -1    0    0  502  503 -0.00000000000E+00 -0.00000000000E+00 -0.12868392944E+03  0.12868392944E+03  0.00000000000E+00 0. -1.
          4    1    1    2  501    0  0.52339846600E+02  0.19902004962E+02 -0.85230786690E+02  0.10199136651E+03  0.15500000000E+01 0. -1.
         -4    1    1    2    0  501 -0.52339846600E+02 -0.19902004962E+02 -0.12705469029E+02  0.57440236654E+02  0.15500000000E+01 0. -1.
<mgrwt>
<rscale>  2 0.12580511E+03</rscale>
<asrwt>0</asrwt>
<pdfrwt beam="1">  1       21 0.47304112E-02 0.12580511E+03</pdfrwt>
<pdfrwt beam="2">  1       21 0.19797528E-01 0.12580511E+03</pdfrwt>
<totfact> 0.68182988E+06</totfact>
</mgrwt>
</event>
<event>
 5    0  0.1222151E+000  0.1250147E+03  0.7546771E-02  0.1235046E+00
         21   -1    0    0  503  502  0.00000000000E+00  0.00000000000E+00  0.53860343280E+01  0.53860343280E+01  0.00000000000E+00 0. -1.
         21   -1    0    0  502  503 -0.00000000000E+00 -0.00000000000E+00 -0.72542629907E+03  0.72542629907E+03  0.00000000000E+00 0. -1.
         25    2    1    2    0    0  0.00000000000E+00  0.00000000000E+00 -0.72004026474E+03  0.73081233340E+03  0.12501473432E+03 0.  0.
          4    1    3    3  501    0  0.11987247389E+02 -0.46032194731E+02 -0.59690972084E+03  0.59880403671E+03  0.15500000000E+01 0. -1.
         -4    1    3    3    0  501 -0.11987247389E+02  0.46032194731E+02 -0.12313054390E+03  0.13200829668E+03  0.15500000000E+01 0. -1.
<mgrwt>
<rscale>  2 0.12501473E+03</rscale>
<asrwt>0</asrwt>
<pdfrwt beam="1">  1       21 0.82862119E-03 0.12501473E+03</pdfrwt>
<pdfrwt beam="2">  1       21 0.11160397E+00 0.12501473E+03</pdfrwt>
<totfact> 0.31743936E+06</totfact>
</mgrwt>
</event>
<event>
 5    0  0.1465571E+000  0.1250070E+03  0.7546771E-02  0.1235058E+00
         21   -1    0    0  503  502  0.00000000000E+00  0.00000000000E+00  0.62351062661E+02  0.62351062661E+02  0.00000000000E+00 0.  1.
         21   -1    0    0  502  503 -0.00000000000E+00 -0.00000000000E+00 -0.62656261466E+02  0.62656261466E+02  0.00000000000E+00 0.  1.
         25    2    1    2    0    0  0.00000000000E+00  0.00000000000E+00 -0.30519880485E+00  0.12500732413E+03  0.12500695156E+03 0.  0.
          4    1    3    3  501    0  0.27660281894E+02 -0.39612290329E+02 -0.39776665371E+02  0.62600402136E+02  0.15500000000E+01 0. -1.
         -4    1    3    3    0  501 -0.27660281894E+02  0.39612290329E+02  0.39471466566E+02  0.62406921992E+02  0.15500000000E+01 0. -1.
<mgrwt>
<rscale>  2 0.12500695E+03</rscale>
<asrwt>0</asrwt>
<pdfrwt beam="1">  1       21 0.95924712E-02 0.12500695E+03</pdfrwt>
<pdfrwt beam="2">  1       21 0.96394249E-02 0.12500695E+03</pdfrwt>
<totfact> 0.74029434E+06</totfact>
</mgrwt>
</event>
<event>
 5    0  0.1222151E+000  0.1250054E+03  0.7546771E-02  0.1235061E+00
         21   -1    0    0  503  502  0.00000000000E+00  0.00000000000E+00  0.20986999282E+04  0.20986999282E+04  0.00000000000E+00 0.  1.
         21   -1    0    0  502  503 -0.00000000000E+00 -0.00000000000E+00 -0.18614320269E+01  0.18614320269E+01  0.00000000000E+00 0.  1.
         25    2    1    2    0    0  0.00000000000E+00  0.00000000000E+00  0.20968384962E+04  0.21005613602E+04  0.12500539606E+03 0.  0.
          4    1    3    3  501    0 -0.29923112293E+02 -0.21357892874E+02  0.19943279364E+03  0.20279890018E+03  0.15500000000E+01 0. -1.
         -4    1    3    3    0  501  0.29923112293E+02  0.21357892874E+02  0.18974057025E+04  0.18977624600E+04  0.15500000000E+01 0. -1.
<mgrwt>
<rscale>  2 0.12500540E+03</rscale>
<asrwt>0</asrwt>
<pdfrwt beam="1">  1       21 0.32287502E+00 0.12500540E+03</pdfrwt>
<pdfrwt beam="2">  1       21 0.28637584E-03 0.12500540E+03</pdfrwt>
<totfact> 0.70076513E+05</totfact>
</mgrwt>
</event>
<event>
 5    0  0.1329562E+000  0.1249902E+03  0.7546771E-02  0.1235085E+00
         21   -1    0    0  503  502  0.00000000000E+00  0.00000000000E+00  0.11235407350E+03  0.11235407350E+03  0.00000000000E+00 0.  1.
         21   -1    0    0  502  503 -0.00000000000E+00 -0.00000000000E+00 -0.34761876661E+02  0.34761876661E+02  0.00000000000E+00 0.  1.
         25    2    1    2    0    0  0.00000000000E+00  0.00000000000E+00  0.77592196839E+02  0.14711595016E+03  0.12499021474E+03 0.  0.
          4    1    3    3  501    0  0.24638397222E+02 -0.12558998277E+01 -0.28763276706E+02  0.37925670580E+02  0.15500000000E+01 0.  1.
         -4    1    3    3    0  501 -0.24638397222E+02  0.12558998277E+01  0.10635547355E+03  0.10919027958E+03  0.15500000000E+01 0.  1.
<mgrwt>
<rscale>  2 0.12499021E+03</rscale>
<asrwt>0</asrwt>
<pdfrwt beam="1">  1       21 0.17285242E-01 0.12499021E+03</pdfrwt>
<pdfrwt beam="2">  1       21 0.53479811E-02 0.12499021E+03</pdfrwt>
<totfact> 0.71141122E+06</totfact>
</mgrwt>
</event>
<event>
 5    0  0.1522282E+000  0.1250138E+03  0.7546771E-02  0.1235048E+00
         21   -1    0    0  503  502  0.00000000000E+00  0.00000000000E+00  0.14203593497E+03  0.14203593497E+03  0.00000000000E+00 0. -1.
         21   -1    0    0  502  503 -0.00000000000E+00 -0.00000000000E+00 -0.27507912229E+02  0.27507912229E+02  0.00000000000E+00 0. -1.
         25    2    1    2    0    0  0.00000000000E+00  0.00000000000E+00  0.11452802274E+03  0.16954384720E+03  0.12501379176E+03 0.  0.
          4    1    3    3  501    0 -0.40812710150E+01  0.25375268642E+02 -0.19981716317E+02  0.32591908792E+02  0.15500000000E+01 0. -1.
         -4    1    3    3    0  501  0.40812710150E+01 -0.25375268642E+02  0.13450973906E+03  0.13695193841E+03  0.15500000000E+01 0. -1.
<mgrwt>
<rscale>  2 0.12501379E+03</rscale>
<asrwt>0</asrwt>
<pdfrwt beam="1">  1       21 0.21851682E-01 0.12501379E+03</pdfrwt>
<pdfrwt beam="2">  1       21 0.42319866E-02 0.12501379E+03</pdfrwt>
<totfact> 0.68347790E+06</totfact>
</mgrwt>
</event>
<event>
 5    0  0.1243839E+000  0.1249733E+03  0.7546771E-02  0.1235111E+00
         21   -1    0    0  503  502  0.00000000000E+00  0.00000000000E+00  0.63254614080E+03  0.63254614080E+03  0.00000000000E+00 0. -1.
         21   -1    0    0  502  503 -0.00000000000E+00 -0.00000000000E+00 -0.61728001664E+01  0.61728001664E+01  0.00000000000E+00 0. -1.
         25    2    1    2    0    0  0.00000000000E+00  0.00000000000E+00  0.62637334064E+03  0.63871894097E+03  0.12497329192E+03 0.  0.
          4    1    3    3  501    0 -0.25830814759E+02 -0.39174713927E+02  0.10244326845E+03  0.11268946247E+03  0.15500000000E+01 0.  1.
         -4    1    3    3    0  501  0.25830814759E+02  0.39174713927E+02  0.52393007219E+03  0.52602947850E+03  0.15500000000E+01 0.  1.
<mgrwt>
<rscale>  2 0.12497329E+03</rscale>
<asrwt>0</asrwt>
<pdfrwt beam="1">  1       21 0.97314740E-01 0.12497329E+03</pdfrwt>
<pdfrwt beam="2">  1       21 0.94966206E-03 0.12497329E+03</pdfrwt>
<totfact> 0.35421584E+06</totfact>
</mgrwt>
</event>
<event>
 5    0  0.1521666E+000  0.1250013E+03  0.7546771E-02  0.1235067E+00
         21   -1    0    0  503  502  0.00000000000E+00  0.00000000000E+00  0.27456860071E+02  0.27456860071E+02  0.00000000000E+00 0. -1.
         21   -1    0    0  502  503 -0.00000000000E+00 -0.00000000000E+00 -0.14227152114E+03  0.14227152114E+03  0.00000000000E+00 0. -1.
         25    2    1    2    0    0  0.00000000000E+00  0.00000000000E+00 -0.11481466107E+03  0.16972838122E+03  0.12500126796E+03 0.  0.
          4    1    3    3  501    0 -0.22987215948E+02  0.38830695761E+02  0.12730129443E+01  0.45169216201E+02  0.15500000000E+01 0.  1.
         -4    1    3    3    0  501  0.22987215948E+02 -0.38830695761E+02 -0.11608767402E+03  0.12455916501E+03  0.15500000000E+01 0.  1.
<mgrwt>
<rscale>  2 0.12500127E+03</rscale>
<asrwt>0</asrwt>
<pdfrwt beam="1">  1       21 0.42241323E-02 0.12500127E+03</pdfrwt>
<pdfrwt beam="2">  1       21 0.21887927E-01 0.12500127E+03</pdfrwt>
<totfact> 0.68347648E+06</totfact>
</mgrwt>
</event>
<event>
 5    0  0.1513077E+000  0.1249986E+03  0.7546771E-02  0.1235071E+00
         21   -1    0    0  503  502  0.00000000000E+00  0.00000000000E+00  0.18562372609E+03  0.18562372609E+03  0.00000000000E+00 0. -1.
         21   -1    0    0  502  503 -0.00000000000E+00 -0.00000000000E+00 -0.21043446456E+02  0.21043446456E+02  0.00000000000E+00 0. -1.
         25    2    1    2    0    0  0.00000000000E+00  0.00000000000E+00  0.16458027963E+03  0.20666717254E+03  0.12499860705E+03 0.  0.
          4    1    3    3  501    0  0.22806423071E+02  0.55215777146E+02  0.52035740615E+02  0.79240367115E+02  0.15500000000E+01 0. -1.
         -4    1    3    3    0  501 -0.22806423071E+02 -0.55215777146E+02  0.11254453902E+03  0.12742680543E+03  0.15500000000E+01 0. -1.
<mgrwt>
<rscale>  2 0.12499861E+03</rscale>
<asrwt>0</asrwt>
<pdfrwt beam="1">  1       21 0.28557495E-01 0.12499861E+03</pdfrwt>
<pdfrwt beam="2">  1       21 0.32374534E-02 0.12499861E+03</pdfrwt>
<totfact> 0.64214166E+06</totfact>
</mgrwt>
</event>
<event>
 5    0  0.1633527E+000  0.1249863E+03  0.7546771E-02  0.1235091E+00
         21   -1    0    0  503  502  0.00000000000E+00  0.00000000000E+00  0.50975030373E+02  0.50975030373E+02  0.00000000000E+00 0.  1.
         21   -1    0    0  502  503 -0.00000000000E+00 -0.00000000000E+00 -0.76613861326E+02  0.76613861326E+02  0.00000000000E+00 0.  1.
         25    2    1    2    0    0  0.00000000000E+00  0.00000000000E+00 -0.25638830952E+02  0.12758889170E+03  0.12498630178E+03 0.  0.
          4    1    3    3  501    0  0.46158699951E+02 -0.28125752677E+02  0.19158716202E+02  0.57368479597E+02  0.15500000000E+01 0. -1.
         -4    1    3    3    0  501 -0.46158699951E+02  0.28125752677E+02 -0.44797547154E+02  0.70220412102E+02  0.15500000000E+01 0. -1.
<mgrwt>
<rscale>  2 0.12498630E+03</rscale>
<asrwt>0</asrwt>
<pdfrwt beam="1">  1       21 0.78423124E-02 0.12498630E+03</pdfrwt>
<pdfrwt beam="2">  1       21 0.11786748E-01 0.12498630E+03</pdfrwt>
<totfact> 0.73714947E+06</totfact>
</mgrwt>
</event>
<event>
 5    0  0.1538220E+000  0.1250955E+03  0.7546771E-02  0.1234920E+00
         21   -1    0    0  503  502  0.00000000000E+00  0.00000000000E+00  0.14365891271E+03  0.14365891271E+03  0.00000000000E+00 0.  1.
         21   -1    0    0  502  503 -0.00000000000E+00 -0.00000000000E+00 -0.27232688571E+02  0.27232688571E+02  0.00000000000E+00 0.  1.
         25    2    1    2    0    0  0.00000000000E+00  0.00000000000E+00  0.11642622414E+03  0.17089160128E+03  0.12509545844E+03 0.  0.
          4    1    3    3  501    0  0.54142606108E+02 -0.31137339490E+02  0.54146792390E+02  0.82675469958E+02  0.15500000000E+01 0.  1.
         -4    1    3    3    0  501 -0.54142606108E+02  0.31137339490E+02  0.62279431750E+02  0.88216131324E+02  0.15500000000E+01 0.  1.
<mgrwt>
<rscale>  2 0.12509546E+03</rscale>
<asrwt>0</asrwt>
<pdfrwt beam="1">  1       21 0.22101371E-01 0.12509546E+03</pdfrwt>
<pdfrwt beam="2">  1       21 0.41896445E-02 0.12509546E+03</pdfrwt>
<totfact> 0.68047063E+06</totfact>
</mgrwt>
</event>
<event>
 5    0  0.1330168E+000  0.1250081E+03  0.7546771E-02  0.1235057E+00
         21   -1    0    0  503  502  0.00000000000E+00  0.00000000000E+00  0.10919312742E+02  0.10919312742E+02  0.00000000000E+00 0. -1.
         21   -1    0    0  502  503 -0.00000000000E+00 -0.00000000000E+00 -0.35778412022E+03  0.35778412022E+03  0.00000000000E+00 0. -1.
         25    2    1    2    0    0  0.00000000000E+00  0.00000000000E+00 -0.34686480748E+03  0.36870343297E+03  0.12500810699E+03 0.  0.
          4    1    3    3  501    0 -0.28594957898E+02  0.40917179625E+02 -0.62584328291E+02  0.80069269094E+02  0.15500000000E+01 0.  1.
         -4    1    3    3    0  501  0.28594957898E+02 -0.40917179625E+02 -0.28428047919E+03  0.28863416387E+03  0.15500000000E+01 0.  1.
<mgrwt>
<rscale>  2 0.12500811E+03</rscale>
<asrwt>0</asrwt>
<pdfrwt beam="1">  1       21 0.16798946E-02 0.12500811E+03</pdfrwt>
<pdfrwt beam="2">  1       21 0.55043699E-01 0.12500811E+03</pdfrwt>
<totfact> 0.50175926E+06</totfact>
</mgrwt>
</event>
<event>
 5    0  0.1497044E+000  0.1250001E+03  0.7546771E-02  0.1235069E+00
         21   -1    0    0  503  502  0.00000000000E+00  0.00000000000E+00  0.41678328984E+02  0.41678328984E+02  0.00000000000E+00 0. -1.
         21   -1    0    0  502  503 -0.00000000000E+00 -0.00000000000E+00 -0.93723949301E+02  0.93723949301E+02  0.00000000000E+00 0. -1.
         25    2    1    2    0    0  0.00000000000E+00  0.00000000000E+00 -0.52045620318E+02  0.13540227829E+03  0.12500012148E+03 0.  0.
          4    1    3    3  501    0  0.36885014455E+02 -0.28263796948E+02  0.19220262497E+02  0.50310709592E+02  0.15500000000E+01 0. -1.
         -4    1    3    3    0  501 -0.36885014455E+02  0.28263796948E+02 -0.71265882815E+02  0.85091568693E+02  0.15500000000E+01 0. -1.
<mgrwt>
<rscale>  2 0.12500012E+03</rscale>
<asrwt>0</asrwt>
<pdfrwt beam="1">  1       21 0.64120506E-02 0.12500012E+03</pdfrwt>
<pdfrwt beam="2">  1       21 0.14419069E-01 0.12500012E+03</pdfrwt>
<totfact> 0.72643026E+06</totfact>
</mgrwt>
</event>
<event>
 5    0  0.1222151E+000  0.1249913E+03  0.7546771E-02  0.1235083E+00
         21   -1    0    0  503  502  0.00000000000E+00  0.00000000000E+00  0.10657682258E+04  0.10657682258E+04  0.00000000000E+00 0.  1.
         21   -1    0    0  502  503 -0.00000000000E+00 -0.00000000000E+00 -0.36646891075E+01  0.36646891075E+01  0.00000000000E+00 0.  1.
         25    2    1    2    0    0  0.00000000000E+00  0.00000000000E+00  0.10621035367E+04  0.10694329149E+04  0.12499134703E+03 0.  0.
          4    1    3    3  501    0  0.16286601901E+02  0.14416554040E+02  0.29940291012E+02  0.37039356876E+02  0.15500000000E+01 0. -1.
         -4    1    3    3    0  501 -0.16286601901E+02 -0.14416554040E+02  0.10321632457E+04  0.10323935580E+04  0.15500000000E+01 0. -1.
<mgrwt>
<rscale>  2 0.12499135E+03</rscale>
<asrwt>0</asrwt>
<pdfrwt beam="1">  1       21 0.16396410E+00 0.12499135E+03</pdfrwt>
<pdfrwt beam="2">  1       21 0.56379917E-03 0.12499135E+03</pdfrwt>
<totfact> 0.21949079E+06</totfact>
</mgrwt>
</event>
<event>
 5    0  0.1396404E+000  0.1249998E+03  0.7546771E-02  0.1235070E+00
         21   -1    0    0  503  502  0.00000000000E+00  0.00000000000E+00  0.52899555499E+03  0.52899555499E+03  0.00000000000E+00 0. -1.
         21   -1    0    0  502  503 -0.00000000000E+00 -0.00000000000E+00 -0.73842567033E+01  0.73842567033E+01  0.00000000000E+00 0. -1.
         25    2    1    2    0    0  0.00000000000E+00  0.00000000000E+00  0.52161129828E+03  0.53637981169E+03  0.12499982357E+03 0.  0.
          4    1    3    3  501    0 -0.49555573719E+02  0.33585515009E+02  0.18403374522E+03  0.19353181543E+03  0.15500000000E+01 0.  1.
         -4    1    3    3    0  501  0.49555573719E+02 -0.33585515009E+02  0.33757755307E+03  0.34284799626E+03  0.15500000000E+01 0.  1.
<mgrwt>
<rscale>  2 0.12499982E+03</rscale>
<asrwt>0</asrwt>
<pdfrwt beam="1">  1       21 0.81383902E-01 0.12499982E+03</pdfrwt>
<pdfrwt beam="2">  1       21 0.11360399E-02 0.12499982E+03</pdfrwt>
<totfact> 0.40137612E+06</totfact>
</mgrwt>
</event>
<event>
 5    0  0.1654388E+000  0.1249976E+03  0.7546771E-02  0.1235073E+00
         21   -1    0    0  503  502  0.00000000000E+00  0.00000000000E+00  0.51991022744E+02  0.51991022744E+02  0.00000000000E+00 0. -1.
         21   -1    0    0  502  503 -0.00000000000E+00 -0.00000000000E+00 -0.75130273321E+02  0.75130273321E+02  0.00000000000E+00 0. -1.
         25    2    1    2    0    0  0.00000000000E+00  0.00000000000E+00 -0.23139250576E+02  0.12712129607E+03  0.12499759596E+03 0.  0.
          4    1    3    3  501    0  0.33114340797E+02  0.52330882774E+02 -0.19993862481E+02  0.65094069586E+02  0.15500000000E+01 0. -1.
         -4    1    3    3    0  501 -0.33114340797E+02 -0.52330882774E+02 -0.31453880955E+01  0.62027226479E+02  0.15500000000E+01 0. -1.
<mgrwt>
<rscale>  2 0.12499760E+03</rscale>
<asrwt>0</asrwt>
<pdfrwt beam="1">  1       21 0.79986189E-02 0.12499760E+03</pdfrwt>
<pdfrwt beam="2">  1       21 0.11558504E-01 0.12499760E+03</pdfrwt>
<totfact> 0.73757159E+06</totfact>
</mgrwt>
</event>
<event>
 5    0  0.1525793E+000  0.1249963E+03  0.7546771E-02  0.1235075E+00
         21   -1    0    0  503  502  0.00000000000E+00  0.00000000000E+00  0.32289976260E+03  0.32289976260E+03  0.00000000000E+00 0. -1.
         21   -1    0    0  502  503 -0.00000000000E+00 -0.00000000000E+00 -0.12096697893E+02  0.12096697893E+02  0.00000000000E+00 0. -1.
         25    2    1    2    0    0  0.00000000000E+00  0.00000000000E+00  0.31080306470E+03  0.33499646049E+03  0.12499633399E+03 0.  0.
          4    1    3    3  501    0 -0.43648880855E+01  0.60885134082E+02  0.19111430385E+03  0.20063183056E+03  0.15500000000E+01 0.  1.
         -4    1    3    3    0  501  0.43648880855E+01 -0.60885134082E+02  0.11968876085E+03  0.13436462993E+03  0.15500000000E+01 0.  1.
<mgrwt>
<rscale>  2 0.12499633E+03</rscale>
<asrwt>0</asrwt>
<pdfrwt beam="1">  1       21 0.49676880E-01 0.12499633E+03</pdfrwt>
<pdfrwt beam="2">  1       21 0.18610307E-02 0.12499633E+03</pdfrwt>
<totfact> 0.52670786E+06</totfact>
</mgrwt>
</event>
<event>
 5    0  0.1222151E+000  0.1249979E+03  0.7546771E-02  0.1235073E+00
         21   -1    0    0  503  502  0.00000000000E+00  0.00000000000E+00  0.57693161018E+03  0.57693161018E+03  0.00000000000E+00 0. -1.
         21   -1    0    0  502  503 -0.00000000000E+00 -0.00000000000E+00 -0.67705075645E+01  0.67705075645E+01  0.00000000000E+00 0. -1.
         25    2    1    2    0    0  0.00000000000E+00  0.00000000000E+00  0.57016110261E+03  0.58370211774E+03  0.12499791728E+03 0.  0.
          4    1    3    3  501    0  0.20033550208E+02 -0.21431587754E+01  0.89052709759E+01  0.22082631515E+02  0.15500000000E+01 0. -1.
         -4    1    3    3    0  501 -0.20033550208E+02  0.21431587754E+01  0.56125583164E+03  0.56161948623E+03  0.15500000000E+01 0. -1.
<mgrwt>
<rscale>  2 0.12499792E+03</rscale>
<asrwt>0</asrwt>
<pdfrwt beam="1">  1       21 0.88758670E-01 0.12499792E+03</pdfrwt>
<pdfrwt beam="2">  1       21 0.10416170E-02 0.12499792E+03</pdfrwt>
<totfact> 0.37842178E+06</totfact>
</mgrwt>
</event>
<event>
 5    0  0.1507857E+000  0.1249994E+03  0.7546771E-02  0.1235070E+00
         21   -1    0    0  503  502  0.00000000000E+00  0.00000000000E+00  0.15920986686E+03  0.15920986686E+03  0.00000000000E+00 0. -1.
         21   -1    0    0  502  503 -0.00000000000E+00 -0.00000000000E+00 -0.24534987814E+02  0.24534987814E+02  0.00000000000E+00 0. -1.
         25    2    1    2    0    0  0.00000000000E+00  0.00000000000E+00  0.13467487905E+03  0.18374485468E+03  0.12499939429E+03 0.  0.
          4    1    3    3  501    0 -0.43956269891E+02  0.82452940342E+00  0.20773056204E+01  0.44040336172E+02  0.15500000000E+01 0.  1.
         -4    1    3    3    0  501  0.43956269891E+02 -0.82452940342E+00  0.13259757343E+03  0.13970451851E+03  0.15500000000E+01 0.  1.
<mgrwt>
<rscale>  2 0.12499939E+03</rscale>
<asrwt>0</asrwt>
<pdfrwt beam="1">  1       21 0.24493825E-01 0.12499939E+03</pdfrwt>
<pdfrwt beam="2">  1       21 0.37746136E-02 0.12499939E+03</pdfrwt>
<totfact> 0.66725539E+06</totfact>
</mgrwt>
</event>
<event>
 5    0  0.1514033E+000  0.1249959E+03  0.7546771E-02  0.1235076E+00
         21   -1    0    0  503  502  0.00000000000E+00  0.00000000000E+00  0.17297173852E+03  0.17297173852E+03  0.00000000000E+00 0.  1.
         21   -1    0    0  502  503 -0.00000000000E+00 -0.00000000000E+00 -0.22581675385E+02  0.22581675385E+02  0.00000000000E+00 0.  1.
         25    2    1    2    0    0  0.00000000000E+00  0.00000000000E+00  0.15039006314E+03  0.19555341391E+03  0.12499586633E+03 0.  0.
          4    1    3    3  501    0  0.46070684934E+02  0.41971484289E+02  0.68290794550E+02  0.92467013707E+02  0.15500000000E+01 0. -1.
         -4    1    3    3    0  501 -0.46070684934E+02 -0.41971484289E+02  0.82099268586E+02  0.10308640020E+03  0.15500000000E+01 0. -1.
<mgrwt>
<rscale>  2 0.12499587E+03</rscale>
<asrwt>0</asrwt>
<pdfrwt beam="1">  1       21 0.26611036E-01 0.12499587E+03</pdfrwt>
<pdfrwt beam="2">  1       21 0.34741040E-02 0.12499587E+03</pdfrwt>
<totfact> 0.65417353E+06</totfact>
</mgrwt>
</event>
<event>
 5    0  0.1560223E+000  0.1249999E+03  0.7546771E-02  0.1235069E+00
         21   -1    0    0  503  502  0.00000000000E+00  0.00000000000E+00  0.19140851565E+03  0.19140851565E+03  0.00000000000E+00 0.  1.
         21   -1    0    0  502  503 -0.00000000000E+00 -0.00000000000E+00 -0.20407904777E+02  0.20407904777E+02  0.00000000000E+00 0.  1.
         25    2    1    2    0    0  0.00000000000E+00  0.00000000000E+00  0.17100061087E+03  0.21181642042E+03  0.12499994817E+03 0.  0.
          4    1    3    3  501    0 -0.54981064468E+02  0.29053323609E+02  0.95784202324E+02  0.11421045914E+03  0.15500000000E+01 0. -1.
         -4    1    3    3    0  501  0.54981064468E+02 -0.29053323609E+02  0.75216408545E+02  0.97605961279E+02  0.15500000000E+01 0. -1.
<mgrwt>
<rscale>  2 0.12499995E+03</rscale>
<asrwt>0</asrwt>
<pdfrwt beam="1">  1       21 0.29447463E-01 0.12499995E+03</pdfrwt>
<pdfrwt beam="2">  1       21 0.31396778E-02 0.12499995E+03</pdfrwt>
<totfact> 0.63669017E+06</totfact>
</mgrwt>
</event>
<event>
 5    0  0.1549705E+000  0.1249981E+03  0.7546771E-02  0.1235072E+00
         21   -1    0    0  503  502  0.00000000000E+00  0.00000000000E+00  0.82491067051E+02  0.82491067051E+02  0.00000000000E+00 0.  1.
         21   -1    0    0  502  503 -0.00000000000E+00 -0.00000000000E+00 -0.47352157854E+02  0.47352157854E+02  0.00000000000E+00 0.  1.
         25    2    1    2    0    0  0.00000000000E+00  0.00000000000E+00  0.35138909198E+02  0.12984322491E+03  0.12499808044E+03 0.  0.
          4    1    3    3  501    0  0.52843062393E+02 -0.10953515769E+02 -0.15136842531E+02  0.56070449014E+02  0.15500000000E+01 0. -1.
         -4    1    3    3    0  501 -0.52843062393E+02  0.10953515769E+02  0.50275751728E+02  0.73772775891E+02  0.15500000000E+01 0. -1.
<mgrwt>
<rscale>  2 0.12499808E+03</rscale>
<asrwt>0</asrwt>
<pdfrwt beam="1">  1       21 0.12690933E-01 0.12499808E+03</pdfrwt>
<pdfrwt beam="2">  1       21 0.72849474E-02 0.12499808E+03</pdfrwt>
<totfact> 0.73389472E+06</totfact>
</mgrwt>
</event>
<event>
 5    0  0.1421359E+000  0.1250006E+03  0.7546771E-02  0.1235068E+00
         21   -1    0    0  503  502  0.00000000000E+00  0.00000000000E+00  0.21435211354E+03  0.21435211354E+03  0.00000000000E+00 0. -1.
         21   -1    0    0  502  503 -0.00000000000E+00 -0.00000000000E+00 -0.18223687234E+02  0.18223687234E+02  0.00000000000E+00 0. -1.
         25    2    1    2    0    0  0.00000000000E+00  0.00000000000E+00  0.19612842630E+03  0.23257580077E+03  0.12500057400E+03 0.  0.
          4    1    3    3  501    0  0.26926460373E+02  0.10770577333E+02 -0.49067891505E+01  0.29453670129E+02  0.15500000000E+01 0. -1.
         -4    1    3    3    0  501 -0.26926460373E+02 -0.10770577333E+02  0.20103521545E+03  0.20312213064E+03  0.15500000000E+01 0. -1.
<mgrwt>
<rscale>  2 0.12500057E+03</rscale>
<asrwt>0</asrwt>
<pdfrwt beam="1">  1       21 0.32977246E-01 0.12500057E+03</pdfrwt>
<pdfrwt beam="2">  1       21 0.28036443E-02 0.12500057E+03</pdfrwt>
<totfact> 0.61557682E+06</totfact>
</mgrwt>
</event>
<event>
 5    0  0.1536557E+000  0.1249946E+03  0.7546771E-02  0.1235078E+00
         21   -1    0    0  503  502  0.00000000000E+00  0.00000000000E+00  0.25566717170E+02  0.25566717170E+02  0.00000000000E+00 0.  1.
         21   -1    0    0  502  503 -0.00000000000E+00 -0.00000000000E+00 -0.15277342494E+03  0.15277342494E+03  0.00000000000E+00 0.  1.
         25    2    1    2    0    0  0.00000000000E+00  0.00000000000E+00 -0.12720670777E+03  0.17834014211E+03  0.12499463903E+03 0.  0.
          4    1    3    3  501    0 -0.33033655948E+02  0.19836548057E+02  0.65676719832E+01  0.39118382883E+02  0.15500000000E+01 0.  1.
         -4    1    3    3    0  501  0.33033655948E+02 -0.19836548057E+02 -0.13377437975E+03  0.13922175922E+03  0.15500000000E+01 0.  1.
<mgrwt>
<rscale>  2 0.12499464E+03</rscale>
<asrwt>0</asrwt>
<pdfrwt beam="1">  1       21 0.39333411E-02 0.12499464E+03</pdfrwt>
<pdfrwt beam="2">  1       21 0.23503604E-01 0.12499464E+03</pdfrwt>
<totfact> 0.67351621E+06</totfact>
</mgrwt>
</event>
<event>
 5    0  0.1408077E+000  0.1249953E+03  0.7546771E-02  0.1235077E+00
         21   -1    0    0  503  502  0.00000000000E+00  0.00000000000E+00  0.31025363374E+03  0.31025363374E+03  0.00000000000E+00 0.  1.
         21   -1    0    0  502  503 -0.00000000000E+00 -0.00000000000E+00 -0.12589567193E+02  0.12589567193E+02  0.00000000000E+00 0.  1.
         25    2    1    2    0    0  0.00000000000E+00  0.00000000000E+00  0.29766406654E+03  0.32284320093E+03  0.12499534341E+03 0.  0.
          4    1    3    3  501    0 -0.56088961301E+02 -0.17383380384E+02  0.93713742392E+02  0.11060208636E+03  0.15500000000E+01 0.  1.
         -4    1    3    3    0  501  0.56088961301E+02  0.17383380384E+02  0.20395032415E+03  0.21224111457E+03  0.15500000000E+01 0.  1.
<mgrwt>
<rscale>  2 0.12499534E+03</rscale>
<asrwt>0</asrwt>
<pdfrwt beam="1">  1       21 0.47731322E-01 0.12499534E+03</pdfrwt>
<pdfrwt beam="2">  1       21 0.19368567E-02 0.12499534E+03</pdfrwt>
<totfact> 0.53615065E+06</totfact>
</mgrwt>
</event>
<event>
 5    0  0.1535658E+000  0.1249981E+03  0.7546771E-02  0.1235072E+00
         21   -1    0    0  503  502  0.00000000000E+00  0.00000000000E+00  0.19150907347E+02  0.19150907347E+02  0.00000000000E+00 0.  1.
         21   -1    0    0  502  503 -0.00000000000E+00 -0.00000000000E+00 -0.20396598642E+03  0.20396598642E+03  0.00000000000E+00 0.  1.
         25    2    1    2    0    0  0.00000000000E+00  0.00000000000E+00 -0.18481507907E+03  0.22311689377E+03  0.12499813931E+03 0.  0.
          4    1    3    3  501    0 -0.62242551989E+02  0.64777142322E+00 -0.10204903006E+03  0.11954481136E+03  0.15500000000E+01 0.  1.
         -4    1    3    3    0  501  0.62242551989E+02 -0.64777142322E+00 -0.82766049013E+02  0.10357208241E+03  0.15500000000E+01 0.  1.
<mgrwt>
<rscale>  2 0.12499814E+03</rscale>
<asrwt>0</asrwt>
<pdfrwt beam="1">  1       21 0.29462934E-02 0.12499814E+03</pdfrwt>
<pdfrwt beam="2">  1       21 0.31379382E-01 0.12499814E+03</pdfrwt>
<totfact> 0.62508299E+06</totfact>
</mgrwt>
</event>
<event>
 5    0  0.1572058E+000  0.1249931E+03  0.7546771E-02  0.1235080E+00
         21   -1    0    0  503  502  0.00000000000E+00  0.00000000000E+00  0.10526589308E+03  0.10526589308E+03  0.00000000000E+00 0. -1.
         21   -1    0    0  502  503 -0.00000000000E+00 -0.00000000000E+00 -0.37104305485E+02  0.37104305485E+02  0.00000000000E+00 0. -1.
         25    2    1    2    0    0  0.00000000000E+00  0.00000000000E+00  0.68161587593E+02  0.14237019856E+03  0.12499308547E+03 0.  0.
          4    1    3    3  501    0  0.44546859112E+02 -0.30906246445E+02  0.69441896789E+02  0.88114688081E+02  0.15500000000E+01 0.  1.
         -4    1    3    3    0  501 -0.44546859112E+02  0.30906246445E+02 -0.12803091956E+01  0.54255510482E+02  0.15500000000E+01 0.  1.
<mgrwt>
<rscale>  2 0.12499309E+03</rscale>
<asrwt>0</asrwt>
<pdfrwt beam="1">  1       21 0.16194753E-01 0.12499309E+03</pdfrwt>
<pdfrwt beam="2">  1       21 0.57083547E-02 0.12499309E+03</pdfrwt>
<totfact> 0.71744010E+06</totfact>
</mgrwt>
</event>
<event>
 5    0  0.1222151E+000  0.1250017E+03  0.7546771E-02  0.1235067E+00
         21   -1    0    0  503  502  0.00000000000E+00  0.00000000000E+00  0.71922946842E+02  0.71922946842E+02  0.00000000000E+00 0.  1.
         21   -1    0    0  502  503 -0.00000000000E+00 -0.00000000000E+00 -0.54313053063E+02  0.54313053063E+02  0.00000000000E+00 0.  1.
         25    2    1    2    0    0  0.00000000000E+00  0.00000000000E+00  0.17609893779E+02  0.12623599991E+03  0.12500167724E+03 0.  0.
          4    1    3    3  501    0  0.21325172711E+02 -0.10491098818E+02  0.67160716309E+02  0.71258616747E+02  0.15500000000E+01 0.  1.
         -4    1    3    3    0  501 -0.21325172711E+02  0.10491098818E+02 -0.49550822530E+02  0.54977383158E+02  0.15500000000E+01 0.  1.
<mgrwt>
<rscale>  2 0.12500168E+03</rscale>
<asrwt>0</asrwt>
<pdfrwt beam="1">  1       21 0.11065069E-01 0.12500168E+03</pdfrwt>
<pdfrwt beam="2">  1       21 0.83558543E-02 0.12500168E+03</pdfrwt>
<totfact> 0.73870403E+06</totfact>
</mgrwt>
</event>
<event>
 5    0  0.1222151E+000  0.1250013E+03  0.7546771E-02  0.1235067E+00
         21   -1    0    0  503  502  0.00000000000E+00  0.00000000000E+00  0.21348870087E+01  0.21348870087E+01  0.00000000000E+00 0.  1.
         21   -1    0    0  502  503 -0.00000000000E+00 -0.00000000000E+00 -0.18297614661E+04  0.18297614661E+04  0.00000000000E+00 0.  1.
         25    2    1    2    0    0  0.00000000000E+00  0.00000000000E+00 -0.18276265791E+04  0.18318963532E+04  0.12500134372E+03 0.  0.
          4    1    3    3  501    0 -0.71664606127E+01  0.46994376760E+02 -0.15080378243E+04  0.15087876960E+04  0.15500000000E+01 0. -1.
         -4    1    3    3    0  501  0.71664606127E+01 -0.46994376760E+02 -0.31958875482E+03  0.32310865713E+03  0.15500000000E+01 0. -1.
<mgrwt>
<rscale>  2 0.12500134E+03</rscale>
<asrwt>0</asrwt>
<pdfrwt beam="1">  1       21 0.32844352E-03 0.12500134E+03</pdfrwt>
<pdfrwt beam="2">  1       21 0.28150231E+00 0.12500134E+03</pdfrwt>
<totfact> 0.97073714E+05</totfact>
</mgrwt>
</event>
<event>
 5    0  0.1563593E+000  0.1249976E+03  0.7546771E-02  0.1235073E+00
         21   -1    0    0  503  502  0.00000000000E+00  0.00000000000E+00  0.21386624345E+03  0.21386624345E+03  0.00000000000E+00 0.  1.
         21   -1    0    0  502  503 -0.00000000000E+00 -0.00000000000E+00 -0.18264212754E+02  0.18264212754E+02  0.00000000000E+00 0.  1.
         25    2    1    2    0    0  0.00000000000E+00  0.00000000000E+00  0.19560203070E+03  0.23213045620E+03  0.12499757712E+03 0.  0.
          4    1    3    3  501    0 -0.55350236302E+02 -0.28948584518E+02  0.95157126685E+02  0.11383738605E+03  0.15500000000E+01 0.  1.
         -4    1    3    3    0  501  0.55350236302E+02  0.28948584518E+02  0.10044490401E+03  0.11829307015E+03  0.15500000000E+01 0.  1.
<mgrwt>
<rscale>  2 0.12499758E+03</rscale>
<asrwt>0</asrwt>
<pdfrwt beam="1">  1       21 0.32902497E-01 0.12499758E+03</pdfrwt>
<pdfrwt beam="2">  1       21 0.28098790E-02 0.12499758E+03</pdfrwt>
<totfact> 0.61606367E+06</totfact>
</mgrwt>
</event>
<event>
 5    0  0.1443741E+000  0.1250066E+03  0.7546771E-02  0.1235059E+00
         21   -1    0    0  503  502  0.00000000000E+00  0.00000000000E+00  0.16677441770E+03  0.16677441770E+03  0.00000000000E+00 0. -1.
         21   -1    0    0  502  503 -0.00000000000E+00 -0.00000000000E+00 -0.23424833307E+02  0.23424833307E+02  0.00000000000E+00 0. -1.
         25    2    1    2    0    0  0.00000000000E+00  0.00000000000E+00  0.14334958439E+03  0.19019925101E+03  0.12500660678E+03 0.  0.
          4    1    3    3  501    0  0.33966588720E+02 -0.49542204422E+01  0.15111451584E+03  0.15497184534E+03  0.15500000000E+01 0.  1.
         -4    1    3    3    0  501 -0.33966588720E+02  0.49542204422E+01 -0.77649314523E+01  0.35227405666E+02  0.15500000000E+01 0.  1.
<mgrwt>
<rscale>  2 0.12500661E+03</rscale>
<asrwt>0</asrwt>
<pdfrwt beam="1">  1       21 0.25657602E-01 0.12500661E+03</pdfrwt>
<pdfrwt beam="2">  1       21 0.36038206E-02 0.12500661E+03</pdfrwt>
<totfact> 0.65989278E+06</totfact>
</mgrwt>
</event>
<event>
 5    0  0.1222151E+000  0.1250049E+03  0.7546771E-02  0.1235062E+00
         21   -1    0    0  503  502  0.00000000000E+00  0.00000000000E+00  0.45025706579E+01  0.45025706579E+01  0.00000000000E+00 0.  1.
         21   -1    0    0  502  503 -0.00000000000E+00 -0.00000000000E+00 -0.86762848822E+03  0.86762848822E+03  0.00000000000E+00 0.  1.
         25    2    1    2    0    0  0.00000000000E+00  0.00000000000E+00 -0.86312591756E+03  0.87213105888E+03  0.12500493707E+03 0.  0.
          4    1    3    3  501    0  0.57017725514E+02 -0.12318495972E+00 -0.25326308428E+03  0.25960668049E+03  0.15500000000E+01 0. -1.
         -4    1    3    3    0  501 -0.57017725514E+02  0.12318495972E+00 -0.60986283328E+03  0.61252437839E+03  0.15500000000E+01 0. -1.
<mgrwt>
<rscale>  2 0.12500494E+03</rscale>
<asrwt>0</asrwt>
<pdfrwt beam="1">  1       21 0.69270390E-03 0.12500494E+03</pdfrwt>
<pdfrwt beam="2">  1       21 0.13348117E+00 0.12500494E+03</pdfrwt>
<totfact> 0.27104067E+06</totfact>
</mgrwt>
</event>
<event>
 5    0  0.1524317E+000  0.1250006E+03  0.7546771E-02  0.1235068E+00
         21   -1    0    0  503  502  0.00000000000E+00  0.00000000000E+00  0.79469053924E+02  0.79469053924E+02  0.00000000000E+00 0.  1.
         21   -1    0    0  502  503 -0.00000000000E+00 -0.00000000000E+00 -0.49154807441E+02  0.49154807441E+02  0.00000000000E+00 0.  1.
         25    2    1    2    0    0  0.00000000000E+00  0.00000000000E+00  0.30314246483E+02  0.12862386136E+03  0.12500057669E+03 0.  0.
          4    1    3    3  501    0 -0.56640791476E+02 -0.80509529595E+01 -0.10688387764E+02  0.58220625517E+02  0.15500000000E+01 0. -1.
         -4    1    3    3    0  501  0.56640791476E+02  0.80509529595E+01  0.41002634247E+02  0.70403235847E+02  0.15500000000E+01 0. -1.
<mgrwt>
<rscale>  2 0.12500058E+03</rscale>
<asrwt>0</asrwt>
<pdfrwt beam="1">  1       21 0.12226008E-01 0.12500058E+03</pdfrwt>
<pdfrwt beam="2">  1       21 0.75622781E-02 0.12500058E+03</pdfrwt>
<totfact> 0.73548364E+06</totfact>
</mgrwt>
</event>
<event>
 5    0  0.1222151E+000  0.1249967E+03  0.7546771E-02  0.1235074E+00
         21   -1    0    0  503  502  0.00000000000E+00  0.00000000000E+00  0.28063463217E+01  0.28063463217E+01  0.00000000000E+00 0.  1.
         21   -1    0    0  502  503 -0.00000000000E+00 -0.00000000000E+00 -0.13918611325E+04  0.13918611325E+04  0.00000000000E+00 0.  1.
         25    2    1    2    0    0  0.00000000000E+00  0.00000000000E+00 -0.13890547862E+04  0.13946674789E+04  0.12499670987E+03 0.  0.
          4    1    3    3  501    0  0.28136853048E+02  0.32198556654E+02 -0.12028077905E+04  0.12035686158E+04  0.15500000000E+01 0. -1.
         -4    1    3    3    0  501 -0.28136853048E+02 -0.32198556654E+02 -0.18624699576E+03  0.19109886311E+03  0.15500000000E+01 0. -1.
<mgrwt>
<rscale>  2 0.12499671E+03</rscale>
<asrwt>0</asrwt>
<pdfrwt beam="1">  1       21 0.43174562E-03 0.12499671E+03</pdfrwt>
<pdfrwt beam="2">  1       21 0.21413247E+00 0.12499671E+03</pdfrwt>
<totfact> 0.15633073E+06</totfact>
</mgrwt>
</event>
<event>
 5    0  0.1513610E+000  0.1249919E+03  0.7546771E-02  0.1235082E+00
         21   -1    0    0  503  502  0.00000000000E+00  0.00000000000E+00  0.32249832531E+02  0.32249832531E+02  0.00000000000E+00 0. -1.
         21   -1    0    0  502  503 -0.00000000000E+00 -0.00000000000E+00 -0.12110897384E+03  0.12110897384E+03  0.00000000000E+00 0. -1.
         25    2    1    2    0    0  0.00000000000E+00  0.00000000000E+00 -0.88859141309E+02  0.15335880637E+03  0.12499190573E+03 0.  0.
          4    1    3    3  501    0 -0.19482629467E+02  0.54729600815E+02 -0.16224675191E+02  0.60336926018E+02  0.15500000000E+01 0. -1.
         -4    1    3    3    0  501  0.19482629467E+02 -0.54729600815E+02 -0.72634466118E+02  0.93021880353E+02  0.15500000000E+01 0. -1.
<mgrwt>
<rscale>  2 0.12499191E+03</rscale>
<asrwt>0</asrwt>
<pdfrwt beam="1">  1       21 0.49615127E-02 0.12499191E+03</pdfrwt>
<pdfrwt beam="2">  1       21 0.18632150E-01 0.12499191E+03</pdfrwt>
<totfact> 0.70354270E+06</totfact>
</mgrwt>
</event>
<event>
 5    0  0.1465130E+000  0.1249969E+03  0.7546771E-02  0.1235074E+00
         21   -1    0    0  503  502  0.00000000000E+00  0.00000000000E+00  0.17277810105E+03  0.17277810105E+03  0.00000000000E+00 0.  1.
         21   -1    0    0  502  503 -0.00000000000E+00 -0.00000000000E+00 -0.22607352108E+02  0.22607352108E+02  0.00000000000E+00 0.  1.
         25    2    1    2    0    0  0.00000000000E+00  0.00000000000E+00  0.15017074894E+03  0.19538545316E+03  0.12499688583E+03 0.  0.
          4    1    3    3  501    0  0.37729303892E+02 -0.96234572195E+00 -0.27453594946E+01  0.37873024440E+02  0.15500000000E+01 0.  1.
         -4    1    3    3    0  501 -0.37729303892E+02  0.96234572195E+00  0.15291610843E+03  0.15751242872E+03  0.15500000000E+01 0.  1.
<mgrwt>
<rscale>  2 0.12499689E+03</rscale>
<asrwt>0</asrwt>
<pdfrwt beam="1">  1       21 0.26581245E-01 0.12499689E+03</pdfrwt>
<pdfrwt beam="2">  1       21 0.34780543E-02 0.12499689E+03</pdfrwt>
<totfact> 0.65434022E+06</totfact>
</mgrwt>
</event>
<event>
 5    0  0.1375989E+000  0.1250018E+03  0.7546771E-02  0.1235066E+00
         21   -1    0    0  503  502  0.00000000000E+00  0.00000000000E+00  0.39015108441E+03  0.39015108441E+03  0.00000000000E+00 0.  1.
         21   -1    0    0  502  503 -0.00000000000E+00 -0.00000000000E+00 -0.10012438682E+02  0.10012438682E+02  0.00000000000E+00 0.  1.
         25    2    1    2    0    0  0.00000000000E+00  0.00000000000E+00  0.38013864573E+03  0.40016352309E+03  0.12500182094E+03 0.  0.
          4    1    3    3  501    0 -0.13372477406E+02 -0.58121624533E+02  0.13043514563E+03  0.14343178207E+03  0.15500000000E+01 0. -1.
         -4    1    3    3    0  501  0.13372477406E+02  0.58121624533E+02  0.24970350010E+03  0.25673174103E+03  0.15500000000E+01 0. -1.
<mgrwt>
<rscale>  2 0.12500182E+03</rscale>
<asrwt>0</asrwt>
<pdfrwt beam="1">  1       21 0.60023232E-01 0.12500182E+03</pdfrwt>
<pdfrwt beam="2">  1       21 0.15403755E-02 0.12500182E+03</pdfrwt>
<totfact> 0.48028325E+06</totfact>
</mgrwt>
</event>
<event>
 5    0  0.1340383E+000  0.1249976E+03  0.7546771E-02  0.1235073E+00
         21   -1    0    0  503  502  0.00000000000E+00  0.00000000000E+00  0.60563305059E+01  0.60563305059E+01  0.00000000000E+00 0. -1.
         21   -1    0    0  502  503 -0.00000000000E+00 -0.00000000000E+00 -0.64496201417E+03  0.64496201417E+03  0.00000000000E+00 0. -1.
         25    2    1    2    0    0  0.00000000000E+00  0.00000000000E+00 -0.63890568366E+03  0.65101834467E+03  0.12499764992E+03 0.  0.
          4    1    3    3  501    0 -0.45597468749E+02 -0.42247986397E+02 -0.28664540184E+03  0.29331213818E+03  0.15500000000E+01 0.  1.
         -4    1    3    3    0  501  0.45597468749E+02  0.42247986397E+02 -0.35226028182E+03  0.35770620649E+03  0.15500000000E+01 0.  1.
<mgrwt>
<rscale>  2 0.12499765E+03</rscale>
<asrwt>0</asrwt>
<pdfrwt beam="1">  1       21 0.93174320E-03 0.12499765E+03</pdfrwt>
<pdfrwt beam="2">  1       21 0.99224920E-01 0.12499765E+03</pdfrwt>
<totfact> 0.34884251E+06</totfact>
</mgrwt>
</event>
<event>
 5    0  0.1268347E+000  0.1249837E+03  0.7546771E-02  0.1235095E+00
         21   -1    0    0  503  502  0.00000000000E+00  0.00000000000E+00  0.50196449803E+01  0.50196449803E+01  0.00000000000E+00 0. -1.
         21   -1    0    0  502  503 -0.00000000000E+00 -0.00000000000E+00 -0.77798997049E+03  0.77798997049E+03  0.00000000000E+00 0. -1.
         25    2    1    2    0    0  0.00000000000E+00  0.00000000000E+00 -0.77297032551E+03  0.78300961547E+03  0.12498373414E+03 0.  0.
          4    1    3    3  501    0  0.54178672669E+02  0.24383317376E+02 -0.26549710033E+03  0.27206798327E+03  0.15500000000E+01 0.  1.
         -4    1    3    3    0  501 -0.54178672669E+02 -0.24383317376E+02 -0.50747322518E+03  0.51094163220E+03  0.15500000000E+01 0.  1.
<mgrwt>
<rscale>  2 0.12498373E+03</rscale>
<asrwt>0</asrwt>
<pdfrwt beam="1">  1       21 0.77225353E-03 0.12498373E+03</pdfrwt>
<pdfrwt beam="2">  1       21 0.11969069E+00 0.12498373E+03</pdfrwt>
<totfact> 0.29945605E+06</totfact>
</mgrwt>
</event>
<event>
 5    0  0.1222151E+000  0.1249965E+03  0.7546771E-02  0.1235075E+00
         21   -1    0    0  503  502  0.00000000000E+00  0.00000000000E+00  0.22014952645E+02  0.22014952645E+02  0.00000000000E+00 0.  1.
         21   -1    0    0  502  503 -0.00000000000E+00 -0.00000000000E+00 -0.17742619266E+03  0.17742619266E+03  0.00000000000E+00 0.  1.
         25    2    1    2    0    0  0.00000000000E+00  0.00000000000E+00 -0.15541124001E+03  0.19944114530E+03  0.12499646762E+03 0.  0.
          4    1    3    3  501    0 -0.20168702510E+02 -0.34293193084E+01 -0.17189978801E+03  0.17311983251E+03  0.15500000000E+01 0.  1.
         -4    1    3    3    0  501  0.20168702510E+02  0.34293193084E+01  0.16488547998E+02  0.26321312789E+02  0.15500000000E+01 0.  1.
<mgrwt>
<rscale>  2 0.12499647E+03</rscale>
<asrwt>0</asrwt>
<pdfrwt beam="1">  1       21 0.33869159E-02 0.12499647E+03</pdfrwt>
<pdfrwt beam="2">  1       21 0.27296336E-01 0.12499647E+03</pdfrwt>
<totfact> 0.64993671E+06</totfact>
</mgrwt>
</event>
<event>
 5    0  0.1472741E+000  0.1250019E+03  0.7546771E-02  0.1235066E+00
         21   -1    0    0  503  502  0.00000000000E+00  0.00000000000E+00  0.37818351046E+02  0.37818351046E+02  0.00000000000E+00 0. -1.
         21   -1    0    0  502  503 -0.00000000000E+00 -0.00000000000E+00 -0.10329291728E+03  0.10329291728E+03  0.00000000000E+00 0. -1.
         25    2    1    2    0    0  0.00000000000E+00  0.00000000000E+00 -0.65474566238E+02  0.14111126833E+03  0.12500188489E+03 0.  0.
          4    1    3    3  501    0  0.30098064750E+02 -0.16725954129E+02  0.26119289131E+02  0.43246627706E+02  0.15500000000E+01 0. -1.
         -4    1    3    3    0  501 -0.30098064750E+02  0.16725954129E+02 -0.91593855369E+02  0.97864640624E+02  0.15500000000E+01 0. -1.
<mgrwt>
<rscale>  2 0.12500188E+03</rscale>
<asrwt>0</asrwt>
<pdfrwt beam="1">  1       21 0.58182080E-02 0.12500188E+03</pdfrwt>
<pdfrwt beam="2">  1       21 0.15891218E-01 0.12500188E+03</pdfrwt>
<totfact> 0.71891113E+06</totfact>
</mgrwt>
</event>
<event>
 5    0  0.1426341E+000  0.1250045E+03  0.7546771E-02  0.1235062E+00
         21   -1    0    0  503  502  0.00000000000E+00  0.00000000000E+00  0.14051178570E+03  0.14051178570E+03  0.00000000000E+00 0.  1.
         21   -1    0    0  502  503 -0.00000000000E+00 -0.00000000000E+00 -0.27802147711E+02  0.27802147711E+02  0.00000000000E+00 0.  1.
         25    2    1    2    0    0  0.00000000000E+00  0.00000000000E+00  0.11270963799E+03  0.16831393341E+03  0.12500447066E+03 0.  0.
          4    1    3    3  501    0 -0.34472061582E+01  0.28393702810E+02  0.13115375034E+03  0.13424527671E+03  0.15500000000E+01 0.  1.
         -4    1    3    3    0  501  0.34472061582E+01 -0.28393702810E+02 -0.18444112348E+02  0.34068656708E+02  0.15500000000E+01 0.  1.
<mgrwt>
<rscale>  2 0.12500447E+03</rscale>
<asrwt>0</asrwt>
<pdfrwt beam="1">  1       21 0.21617197E-01 0.12500447E+03</pdfrwt>
<pdfrwt beam="2">  1       21 0.42772536E-02 0.12500447E+03</pdfrwt>
<totfact> 0.68509842E+06</totfact>
</mgrwt>
</event>
<event>
 4    0  0.1898073E+000  0.1248836E+03  0.7546771E-02  0.1235251E+00
         21   -1    0    0  503  502  0.00000000000E+00  0.00000000000E+00  0.65423002348E+02  0.65423002348E+02  0.00000000000E+00 0. -1.
         21   -1    0    0  502  503 -0.00000000000E+00 -0.00000000000E+00 -0.59596491154E+02  0.59596491154E+02  0.00000000000E+00 0. -1.
          4    1    1    2  501    0 -0.42794477656E+02 -0.43476055556E+02 -0.10331561552E+02  0.61892474410E+02  0.15500000000E+01 0. -1.
         -4    1    1    2    0  501  0.42794477656E+02  0.43476055556E+02  0.16158072746E+02  0.63127019092E+02  0.15500000000E+01 0. -1.
<mgrwt>
<rscale>  2 0.12488365E+03</rscale>
<asrwt>0</asrwt>
<pdfrwt beam="1">  1       21 0.10065077E-01 0.12488365E+03</pdfrwt>
<pdfrwt beam="2">  1       21 0.91686909E-02 0.12488365E+03</pdfrwt>
<totfact> 0.74261619E+06</totfact>
</mgrwt>
</event>
<event>
 5    0  0.1355852E+000  0.1250008E+03  0.7546771E-02  0.1235068E+00
         21   -1    0    0  503  502  0.00000000000E+00  0.00000000000E+00  0.12829819610E+02  0.12829819610E+02  0.00000000000E+00 0.  1.
         21   -1    0    0  502  503 -0.00000000000E+00 -0.00000000000E+00 -0.30447051700E+03  0.30447051700E+03  0.00000000000E+00 0.  1.
         25    2    1    2    0    0  0.00000000000E+00  0.00000000000E+00 -0.29164069739E+03  0.31730033661E+03  0.12500082895E+03 0.  0.
          4    1    3    3  501    0  0.33659324715E+02 -0.12282389225E+02 -0.15888410377E+02  0.39225646071E+02  0.15500000000E+01 0. -1.
         -4    1    3    3    0  501 -0.33659324715E+02  0.12282389225E+02 -0.27575228701E+03  0.27807469054E+03  0.15500000000E+01 0. -1.
<mgrwt>
<rscale>  2 0.12500083E+03</rscale>
<asrwt>0</asrwt>
<pdfrwt beam="1">  1       21 0.19738186E-02 0.12500083E+03</pdfrwt>
<pdfrwt beam="2">  1       21 0.46841614E-01 0.12500083E+03</pdfrwt>
<totfact> 0.54046850E+06</totfact>
</mgrwt>
</event>
<event>
 5    0  0.1555188E+000  0.1249996E+03  0.7546771E-02  0.1235070E+00
         21   -1    0    0  503  502  0.00000000000E+00  0.00000000000E+00  0.16615012948E+03  0.16615012948E+03  0.00000000000E+00 0.  1.
         21   -1    0    0  502  503 -0.00000000000E+00 -0.00000000000E+00 -0.23510219660E+02  0.23510219660E+02  0.00000000000E+00 0.  1.
         25    2    1    2    0    0  0.00000000000E+00  0.00000000000E+00  0.14263990982E+03  0.18966034914E+03  0.12499961665E+03 0.  0.
          4    1    3    3  501    0 -0.22193006991E+02 -0.49737099005E+02  0.11777757613E+03  0.12977006017E+03  0.15500000000E+01 0.  1.
         -4    1    3    3    0  501  0.22193006991E+02  0.49737099005E+02  0.24862333691E+02  0.59890288973E+02  0.15500000000E+01 0.  1.
<mgrwt>
<rscale>  2 0.12499962E+03</rscale>
<asrwt>0</asrwt>
<pdfrwt beam="1">  1       21 0.25561558E-01 0.12499962E+03</pdfrwt>
<pdfrwt beam="2">  1       21 0.36169570E-02 0.12499962E+03</pdfrwt>
<totfact> 0.66060875E+06</totfact>
</mgrwt>
</event>
<event>
 5    0  0.1389394E+000  0.1250291E+03  0.7546771E-02  0.1235024E+00
         21   -1    0    0  503  502  0.00000000000E+00  0.00000000000E+00  0.10267292143E+02  0.10267292143E+02  0.00000000000E+00 0. -1.
         21   -1    0    0  502  503 -0.00000000000E+00 -0.00000000000E+00 -0.38063297927E+03  0.38063297927E+03  0.00000000000E+00 0. -1.
         25    2    1    2    0    0  0.00000000000E+00  0.00000000000E+00 -0.37036568713E+03  0.39090027142E+03  0.12502911657E+03 0.  0.
          4    1    3    3  501    0  0.12097527349E+02  0.55512093584E+02 -0.26657480172E+03  0.27256645082E+03  0.15500000000E+01 0. -1.
         -4    1    3    3    0  501 -0.12097527349E+02 -0.55512093584E+02 -0.10379088541E+03  0.11833382059E+03  0.15500000000E+01 0. -1.
<mgrwt>
<rscale>  2 0.12502912E+03</rscale>
<asrwt>0</asrwt>
<pdfrwt beam="1">  1       21 0.15795834E-02 0.12502912E+03</pdfrwt>
<pdfrwt beam="2">  1       21 0.58558921E-01 0.12502912E+03</pdfrwt>
<totfact> 0.48615438E+06</totfact>
</mgrwt>
</event>
<event>
 5    0  0.1377535E+000  0.1250055E+03  0.7546771E-02  0.1235061E+00
         21   -1    0    0  503  502  0.00000000000E+00  0.00000000000E+00  0.25399563485E+03  0.25399563485E+03  0.00000000000E+00 0. -1.
         21   -1    0    0  502  503 -0.00000000000E+00 -0.00000000000E+00 -0.15380546479E+02  0.15380546479E+02  0.00000000000E+00 0. -1.
         25    2    1    2    0    0  0.00000000000E+00  0.00000000000E+00  0.23861508837E+03  0.26937618133E+03  0.12500546656E+03 0.  0.
          4    1    3    3  501    0 -0.21292535627E+02 -0.31620064420E+02  0.22599192332E+03  0.22918977389E+03  0.15500000000E+01 0. -1.
         -4    1    3    3    0  501  0.21292535627E+02  0.31620064420E+02  0.12623165050E+02  0.40186407444E+02  0.15500000000E+01 0. -1.
<mgrwt>
<rscale>  2 0.12500547E+03</rscale>
<asrwt>0</asrwt>
<pdfrwt beam="1">  1       21 0.39076248E-01 0.12500547E+03</pdfrwt>
<pdfrwt beam="2">  1       21 0.23662381E-02 0.12500547E+03</pdfrwt>
<totfact> 0.58092413E+06</totfact>
</mgrwt>
</event>
<event>
 5    0  0.1551444E+000  0.1250024E+03  0.7546771E-02  0.1235066E+00
         21   -1    0    0  503  502  0.00000000000E+00  0.00000000000E+00  0.58818428275E+02  0.58818428275E+02  0.00000000000E+00 0. -1.
         21   -1    0    0  502  503 -0.00000000000E+00 -0.00000000000E+00 -0.66414530716E+02  0.66414530716E+02  0.00000000000E+00 0. -1.
         25    2    1    2    0    0  0.00000000000E+00  0.00000000000E+00 -0.75961024408E+01  0.12523295899E+03  0.12500237296E+03 0.  0.
          4    1    3    3  501    0  0.25831141637E+02 -0.23939462271E+02  0.47907714072E+02  0.59480226124E+02  0.15500000000E+01 0.  1.
         -4    1    3    3    0  501 -0.25831141637E+02  0.23939462271E+02 -0.55503816513E+02  0.65752732868E+02  0.15500000000E+01 0.  1.
<mgrwt>
<rscale>  2 0.12500237E+03</rscale>
<asrwt>0</asrwt>
<pdfrwt beam="1">  1       21 0.90489890E-02 0.12500237E+03</pdfrwt>
<pdfrwt beam="2">  1       21 0.10217620E-01 0.12500237E+03</pdfrwt>
<totfact> 0.74007632E+06</totfact>
</mgrwt>
</event>
<event>
 5    0  0.1462419E+000  0.1250038E+03  0.7546771E-02  0.1235063E+00
         21   -1    0    0  503  502  0.00000000000E+00  0.00000000000E+00  0.31764680963E+03  0.31764680963E+03  0.00000000000E+00 0.  1.
         21   -1    0    0  502  503 -0.00000000000E+00 -0.00000000000E+00 -0.12298206490E+02  0.12298206490E+02  0.00000000000E+00 0.  1.
         25    2    1    2    0    0  0.00000000000E+00  0.00000000000E+00  0.30534860314E+03  0.32994501612E+03  0.12500377683E+03 0.  0.
          4    1    3    3  501    0 -0.20527618311E+01  0.57078046698E+02  0.85797644481E+02  0.10308130550E+03  0.15500000000E+01 0. -1.
         -4    1    3    3    0  501  0.20527618311E+01 -0.57078046698E+02  0.21955095866E+03  0.22686371061E+03  0.15500000000E+01 0. -1.
<mgrwt>
<rscale>  2 0.12500378E+03</rscale>
<asrwt>0</asrwt>
<pdfrwt beam="1">  1       21 0.48868734E-01 0.12500378E+03</pdfrwt>
<pdfrwt beam="2">  1       21 0.18920320E-02 0.12500378E+03</pdfrwt>
<totfact> 0.53049521E+06</totfact>
</mgrwt>
</event>
<event>
 5    0  0.1329001E+000  0.1249919E+03  0.7546771E-02  0.1235082E+00
         21   -1    0    0  503  502  0.00000000000E+00  0.00000000000E+00  0.42975176845E+03  0.42975176845E+03  0.00000000000E+00 0.  1.
         21   -1    0    0  502  503 -0.00000000000E+00 -0.00000000000E+00 -0.90883737360E+01  0.90883737360E+01  0.00000000000E+00 0.  1.
         25    2    1    2    0    0  0.00000000000E+00  0.00000000000E+00  0.42066339471E+03  0.43884014218E+03  0.12499191470E+03 0.  0.
          4    1    3    3  501    0 -0.26124694616E+02  0.26911419302E+02  0.38576032957E+03  0.38758245384E+03  0.15500000000E+01 0.  1.
         -4    1    3    3    0  501  0.26124694616E+02 -0.26911419302E+02  0.34903065141E+02  0.51257688339E+02  0.15500000000E+01 0.  1.
<mgrwt>
<rscale>  2 0.12499191E+03</rscale>
<asrwt>0</asrwt>
<pdfrwt beam="1">  1       21 0.66115641E-01 0.12499191E+03</pdfrwt>
<pdfrwt beam="2">  1       21 0.13982117E-02 0.12499191E+03</pdfrwt>
<totfact> 0.45576686E+06</totfact>
</mgrwt>
</event>
<event>
 4    0  0.1397778E+000  0.1251020E+03  0.7546771E-02  0.1234910E+00
         21   -1    0    0  503  502  0.00000000000E+00  0.00000000000E+00  0.15593646991E+02  0.15593646991E+02  0.00000000000E+00 0. -1.
         21   -1    0    0  502  503 -0.00000000000E+00 -0.00000000000E+00 -0.25091175215E+03  0.25091175215E+03  0.00000000000E+00 0. -1.
          4    1    1    2  501    0 -0.50761434592E+02 -0.18852103081E+02 -0.18428350994E+03  0.19208055489E+03  0.15500000000E+01 0. -1.
         -4    1    1    2    0  501  0.50761434592E+02  0.18852103081E+02 -0.51034595224E+02  0.74424844252E+02  0.15500000000E+01 0. -1.
<mgrwt>
<rscale>  2 0.12510203E+03</rscale>
<asrwt>0</asrwt>
<pdfrwt beam="1">  1       21 0.23990227E-02 0.12510203E+03</pdfrwt>
<pdfrwt beam="2">  1       21 0.38601807E-01 0.12510203E+03</pdfrwt>
<totfact> 0.58208426E+06</totfact>
</mgrwt>
</event>
<event>
 5    0  0.1399231E+000  0.1249876E+03  0.7546771E-02  0.1235089E+00
         21   -1    0    0  503  502  0.00000000000E+00  0.00000000000E+00  0.32148080144E+03  0.32148080144E+03  0.00000000000E+00 0.  1.
         21   -1    0    0  502  503 -0.00000000000E+00 -0.00000000000E+00 -0.12148383542E+02  0.12148383542E+02  0.00000000000E+00 0.  1.
         25    2    1    2    0    0  0.00000000000E+00  0.00000000000E+00  0.30933241790E+03  0.33362918498E+03  0.12498755262E+03 0.  0.
          4    1    3    3  501    0 -0.38466621867E+02  0.18953034224E+02  0.33391535429E+02  0.54371827654E+02  0.15500000000E+01 0.  1.
         -4    1    3    3    0  501  0.38466621867E+02 -0.18953034224E+02  0.27594088247E+03  0.27925735733E+03  0.15500000000E+01 0.  1.
<mgrwt>
<rscale>  2 0.12498755E+03</rscale>
<asrwt>0</asrwt>
<pdfrwt beam="1">  1       21 0.49458578E-01 0.12498755E+03</pdfrwt>
<pdfrwt beam="2">  1       21 0.18689823E-02 0.12498755E+03</pdfrwt>
<totfact> 0.52787143E+06</totfact>
</mgrwt>
</event>
<event>
 5    0  0.1615649E+000  0.1249972E+03  0.7546771E-02  0.1235074E+00
         21   -1    0    0  503  502  0.00000000000E+00  0.00000000000E+00  0.14491214375E+03  0.14491214375E+03  0.00000000000E+00 0.  1.
         21   -1    0    0  502  503 -0.00000000000E+00 -0.00000000000E+00 -0.26954773673E+02  0.26954773673E+02  0.00000000000E+00 0.  1.
         25    2    1    2    0    0  0.00000000000E+00  0.00000000000E+00  0.11795737008E+03  0.17186691743E+03  0.12499718457E+03 0.  0.
          4    1    3    3  501    0  0.51947061805E+02  0.32967273520E+02  0.73935713894E+02  0.96198911857E+02  0.15500000000E+01 0.  1.
         -4    1    3    3    0  501 -0.51947061805E+02 -0.32967273520E+02  0.44021656185E+02  0.75668005569E+02  0.15500000000E+01 0.  1.
<mgrwt>
<rscale>  2 0.12499718E+03</rscale>
<asrwt>0</asrwt>
<pdfrwt beam="1">  1       21 0.22294175E-01 0.12499718E+03</pdfrwt>
<pdfrwt beam="2">  1       21 0.41468884E-02 0.12499718E+03</pdfrwt>
<totfact> 0.68101876E+06</totfact>
</mgrwt>
</event>
<event>
 5    0  0.1356483E+000  0.1249812E+03  0.7546771E-02  0.1235099E+00
         21   -1    0    0  503  502  0.00000000000E+00  0.00000000000E+00  0.78402264500E+01  0.78402264500E+01  0.00000000000E+00 0. -1.
         21   -1    0    0  502  503 -0.00000000000E+00 -0.00000000000E+00 -0.49808192045E+03  0.49808192045E+03  0.00000000000E+00 0. -1.
         25    2    1    2    0    0  0.00000000000E+00  0.00000000000E+00 -0.49024169400E+03  0.50592214690E+03  0.12498119934E+03 0.  0.
          4    1    3    3  501    0 -0.51118377097E+01  0.52174992873E+02 -0.38265183640E+03  0.38622945404E+03  0.15500000000E+01 0. -1.
         -4    1    3    3    0  501  0.51118377097E+01 -0.52174992873E+02 -0.10758985759E+03  0.11969269286E+03  0.15500000000E+01 0. -1.
<mgrwt>
<rscale>  2 0.12498120E+03</rscale>
<asrwt>0</asrwt>
<pdfrwt beam="1">  1       21 0.12061885E-02 0.12498120E+03</pdfrwt>
<pdfrwt beam="2">  1       21 0.76628003E-01 0.12498120E+03</pdfrwt>
<totfact> 0.41744240E+06</totfact>
</mgrwt>
</event>
<event>
 5    0  0.1503788E+000  0.1250032E+03  0.7546771E-02  0.1235064E+00
         21   -1    0    0  503  502  0.00000000000E+00  0.00000000000E+00  0.18198495598E+02  0.18198495598E+02  0.00000000000E+00 0.  1.
         21   -1    0    0  502  503 -0.00000000000E+00 -0.00000000000E+00 -0.21465768717E+03  0.21465768717E+03  0.00000000000E+00 0.  1.
         25    2    1    2    0    0  0.00000000000E+00  0.00000000000E+00 -0.19645919157E+03  0.23285618277E+03  0.12500315156E+03 0.  0.
          4    1    3    3  501    0  0.23871934989E+02  0.54124398919E+02 -0.60754165149E+02  0.84810323201E+02  0.15500000000E+01 0. -1.
         -4    1    3    3    0  501 -0.23871934989E+02 -0.54124398919E+02 -0.13570502642E+03  0.14804585956E+03  0.15500000000E+01 0. -1.
<mgrwt>
<rscale>  2 0.12500315E+03</rscale>
<asrwt>0</asrwt>
<pdfrwt beam="1">  1       21 0.27997686E-02 0.12500315E+03</pdfrwt>
<pdfrwt beam="2">  1       21 0.33024260E-01 0.12500315E+03</pdfrwt>
<totfact> 0.61525989E+06</totfact>
</mgrwt>
</event>
<event>
 5    0  0.1353252E+000  0.1250020E+03  0.7546771E-02  0.1235066E+00
         21   -1    0    0  503  502  0.00000000000E+00  0.00000000000E+00  0.84382119144E+01  0.84382119144E+01  0.00000000000E+00 0. -1.
         21   -1    0    0  502  503 -0.00000000000E+00 -0.00000000000E+00 -0.46293861490E+03  0.46293861490E+03  0.00000000000E+00 0. -1.
         25    2    1    2    0    0  0.00000000000E+00  0.00000000000E+00 -0.45450040299E+03  0.47137682682E+03  0.12500198616E+03 0.  0.
          4    1    3    3  501    0  0.38357157575E+02 -0.20006987039E+02 -0.57246606380E+02  0.71771355774E+02  0.15500000000E+01 0.  1.
         -4    1    3    3    0  501 -0.38357157575E+02  0.20006987039E+02 -0.39725379661E+03  0.39960547104E+03  0.15500000000E+01 0.  1.
<mgrwt>
<rscale>  2 0.12500199E+03</rscale>
<asrwt>0</asrwt>
<pdfrwt beam="1">  1       21 0.12981867E-02 0.12500199E+03</pdfrwt>
<pdfrwt beam="2">  1       21 0.71221310E-01 0.12500199E+03</pdfrwt>
<totfact> 0.43638001E+06</totfact>
</mgrwt>
</event>
<event>
 5    0  0.1337899E+000  0.1249643E+03  0.7546771E-02  0.1235125E+00
         21   -1    0    0  503  502  0.00000000000E+00  0.00000000000E+00  0.89175554185E+01  0.89175554185E+01  0.00000000000E+00 0.  1.
         21   -1    0    0  502  503 -0.00000000000E+00 -0.00000000000E+00 -0.43779017095E+03  0.43779017095E+03  0.00000000000E+00 0.  1.
         25    2    1    2    0    0  0.00000000000E+00  0.00000000000E+00 -0.42887261553E+03  0.44670772637E+03  0.12496428468E+03 0.  0.
          4    1    3    3  501    0 -0.56068342010E+02  0.14004745640E+01 -0.31272354016E+03  0.31771691075E+03  0.15500000000E+01 0.  1.
         -4    1    3    3    0  501  0.56068342010E+02 -0.14004745640E+01 -0.11614907537E+03  0.12899081562E+03  0.15500000000E+01 0.  1.
<mgrwt>
<rscale>  2 0.12496428E+03</rscale>
<asrwt>0</asrwt>
<pdfrwt beam="1">  1       21 0.13719316E-02 0.12496428E+03</pdfrwt>
<pdfrwt beam="2">  1       21 0.67352332E-01 0.12496428E+03</pdfrwt>
<totfact> 0.45130119E+06</totfact>
</mgrwt>
</event>
<event>
 5    0  0.1649640E+000  0.1249982E+03  0.7546771E-02  0.1235072E+00
         21   -1    0    0  503  502  0.00000000000E+00  0.00000000000E+00  0.28356839203E+02  0.28356839203E+02  0.00000000000E+00 0. -1.
         21   -1    0    0  502  503 -0.00000000000E+00 -0.00000000000E+00 -0.13774940910E+03  0.13774940910E+03  0.00000000000E+00 0. -1.
         25    2    1    2    0    0  0.00000000000E+00  0.00000000000E+00 -0.10939256989E+03  0.16610624830E+03  0.12499820549E+03 0.  0.
          4    1    3    3  501    0  0.46283959504E+02  0.41575769352E+02 -0.47064151392E+02  0.78026830968E+02  0.15500000000E+01 0.  1.
         -4    1    3    3    0  501 -0.46283959504E+02 -0.41575769352E+02 -0.62328418502E+02  0.88079417332E+02  0.15500000000E+01 0.  1.
<mgrwt>
<rscale>  2 0.12499821E+03</rscale>
<asrwt>0</asrwt>
<pdfrwt beam="1">  1       21 0.43625907E-02 0.12499821E+03</pdfrwt>
<pdfrwt beam="2">  1       21 0.21192216E-01 0.12499821E+03</pdfrwt>
<totfact> 0.68784106E+06</totfact>
</mgrwt>
</event>
<event>
 5    0  0.1427814E+000  0.1250047E+03  0.7546771E-02  0.1235062E+00
         21   -1    0    0  503  502  0.00000000000E+00  0.00000000000E+00  0.12299461392E+02  0.12299461392E+02  0.00000000000E+00 0. -1.
         21   -1    0    0  502  503 -0.00000000000E+00 -0.00000000000E+00 -0.31761919148E+03  0.31761919148E+03  0.00000000000E+00 0. -1.
         25    2    1    2    0    0  0.00000000000E+00  0.00000000000E+00 -0.30531973009E+03  0.32991865287E+03  0.12500471964E+03 0.  0.
          4    1    3    3  501    0 -0.21840561771E+02 -0.50962825271E+02 -0.76627359224E+02  0.94595847582E+02  0.15500000000E+01 0.  1.
         -4    1    3    3    0  501  0.21840561771E+02  0.50962825271E+02 -0.22869237087E+03  0.23532280529E+03  0.15500000000E+01 0.  1.
<mgrwt>
<rscale>  2 0.12500472E+03</rscale>
<asrwt>0</asrwt>
<pdfrwt beam="1">  1       21 0.18922248E-02 0.12500472E+03</pdfrwt>
<pdfrwt beam="2">  1       21 0.48864492E-01 0.12500472E+03</pdfrwt>
<totfact> 0.53050303E+06</totfact>
</mgrwt>
</event>
<event>
 5    0  0.1503951E+000  0.1249964E+03  0.7546771E-02  0.1235075E+00
         21   -1    0    0  503  502  0.00000000000E+00  0.00000000000E+00  0.14332493430E+03  0.14332493430E+03  0.00000000000E+00 0.  1.
         21   -1    0    0  502  503 -0.00000000000E+00 -0.00000000000E+00 -0.27252926781E+02  0.27252926781E+02  0.00000000000E+00 0.  1.
         25    2    1    2    0    0  0.00000000000E+00  0.00000000000E+00  0.11607200752E+03  0.17057786108E+03  0.12499638299E+03 0.  0.
          4    1    3    3  501    0 -0.52799223608E+02  0.18806131128E+02  0.95711385034E+02  0.11092565216E+03  0.15500000000E+01 0. -1.
         -4    1    3    3    0  501  0.52799223608E+02 -0.18806131128E+02  0.20360622488E+02  0.59652208926E+02  0.15500000000E+01 0. -1.
<mgrwt>
<rscale>  2 0.12499638E+03</rscale>
<asrwt>0</asrwt>
<pdfrwt beam="1">  1       21 0.22049990E-01 0.12499638E+03</pdfrwt>
<pdfrwt beam="2">  1       21 0.41927580E-02 0.12499638E+03</pdfrwt>
<totfact> 0.68255467E+06</totfact>
</mgrwt>
</event>
<event>
 5    0  0.1222151E+000  0.1249985E+03  0.7546771E-02  0.1235072E+00
         21   -1    0    0  503  502  0.00000000000E+00  0.00000000000E+00  0.53961271394E+01  0.53961271394E+01  0.00000000000E+00 0.  1.
         21   -1    0    0  502  503 -0.00000000000E+00 -0.00000000000E+00 -0.72388128980E+03  0.72388128980E+03  0.00000000000E+00 0.  1.
         25    2    1    2    0    0  0.00000000000E+00  0.00000000000E+00 -0.71848516266E+03  0.72927741694E+03  0.12499848757E+03 0.  0.
          4    1    3    3  501    0 -0.34155263429E+02  0.29457590043E+02 -0.61149863965E+03  0.61316174084E+03  0.15500000000E+01 0. -1.
         -4    1    3    3    0  501  0.34155263429E+02 -0.29457590043E+02 -0.10698652301E+03  0.11611567610E+03  0.15500000000E+01 0. -1.
<mgrwt>
<rscale>  2 0.12499849E+03</rscale>
<asrwt>0</asrwt>
<pdfrwt beam="1">  1       21 0.83017399E-03 0.12499849E+03</pdfrwt>
<pdfrwt beam="2">  1       21 0.11136627E+00 0.12499849E+03</pdfrwt>
<totfact> 0.31812696E+06</totfact>
</mgrwt>
</event>
<event>
 5    0  0.1366652E+000  0.1249972E+03  0.7546771E-02  0.1235074E+00
         21   -1    0    0  503  502  0.00000000000E+00  0.00000000000E+00  0.27473234123E+02  0.27473234123E+02  0.00000000000E+00 0.  1.
         21   -1    0    0  502  503 -0.00000000000E+00 -0.00000000000E+00 -0.14217748700E+03  0.14217748700E+03  0.00000000000E+00 0.  1.
         25    2    1    2    0    0  0.00000000000E+00  0.00000000000E+00 -0.11470425287E+03  0.16965072112E+03  0.12499720617E+03 0.  0.
          4    1    3    3  501    0  0.14304935463E+02 -0.20604153915E+02 -0.13501770841E+03  0.13733661719E+03  0.15500000000E+01 0. -1.
         -4    1    3    3    0  501 -0.14304935463E+02  0.20604153915E+02  0.20313455534E+02  0.32314103932E+02  0.15500000000E+01 0. -1.
<mgrwt>
<rscale>  2 0.12499721E+03</rscale>
<asrwt>0</asrwt>
<pdfrwt beam="1">  1       21 0.42266513E-02 0.12499721E+03</pdfrwt>
<pdfrwt beam="2">  1       21 0.21873460E-01 0.12499721E+03</pdfrwt>
<totfact> 0.68363913E+06</totfact>
</mgrwt>
</event>
<event>
 5    0  0.1533026E+000  0.1250038E+03  0.7546771E-02  0.1235063E+00
         21   -1    0    0  503  502  0.00000000000E+00  0.00000000000E+00  0.22197938976E+02  0.22197938976E+02  0.00000000000E+00 0.  1.
         21   -1    0    0  502  503 -0.00000000000E+00 -0.00000000000E+00 -0.17598435345E+03  0.17598435345E+03  0.00000000000E+00 0.  1.
         25    2    1    2    0    0  0.00000000000E+00  0.00000000000E+00 -0.15378641447E+03  0.19818229243E+03  0.12500383896E+03 0.  0.
          4    1    3    3  501    0 -0.82758006284E+01  0.33924974630E+02 -0.15903968494E+03  0.16283555099E+03  0.15500000000E+01 0.  1.
         -4    1    3    3    0  501  0.82758006284E+01 -0.33924974630E+02  0.52532704666E+01  0.35346741438E+02  0.15500000000E+01 0.  1.
<mgrwt>
<rscale>  2 0.12500384E+03</rscale>
<asrwt>0</asrwt>
<pdfrwt beam="1">  1       21 0.34150675E-02 0.12500384E+03</pdfrwt>
<pdfrwt beam="2">  1       21 0.27074516E-01 0.12500384E+03</pdfrwt>
<totfact> 0.65118071E+06</totfact>
</mgrwt>
</event>
<event>
 5    0  0.1513137E+000  0.1250006E+03  0.7546771E-02  0.1235068E+00
         21   -1    0    0  503  502  0.00000000000E+00  0.00000000000E+00  0.97699993469E+02  0.97699993469E+02  0.00000000000E+00 0.  1.
         21   -1    0    0  502  503 -0.00000000000E+00 -0.00000000000E+00 -0.39982484542E+02  0.39982484542E+02  0.00000000000E+00 0.  1.
         25    2    1    2    0    0  0.00000000000E+00  0.00000000000E+00  0.57717508928E+02  0.13768247801E+03  0.12500061566E+03 0.  0.
          4    1    3    3  501    0  0.34983502232E+01 -0.45318158032E+02  0.76079070302E+02  0.88636343222E+02  0.15500000000E+01 0.  1.
         -4    1    3    3    0  501 -0.34983502232E+01  0.45318158032E+02 -0.18361561374E+02  0.49046134790E+02  0.15500000000E+01 0.  1.
<mgrwt>
<rscale>  2 0.12500062E+03</rscale>
<asrwt>0</asrwt>
<pdfrwt beam="1">  1       21 0.15030768E-01 0.12500062E+03</pdfrwt>
<pdfrwt beam="2">  1       21 0.61511515E-02 0.12500062E+03</pdfrwt>
<totfact> 0.72342067E+06</totfact>
</mgrwt>
</event>
<event>
 5    0  0.1252552E+000  0.1249976E+03  0.7546771E-02  0.1235073E+00
         21   -1    0    0  503  502  0.00000000000E+00  0.00000000000E+00  0.76975196401E+01  0.76975196401E+01  0.00000000000E+00 0.  1.
         21   -1    0    0  502  503 -0.00000000000E+00 -0.00000000000E+00 -0.50744946593E+03  0.50744946593E+03  0.00000000000E+00 0.  1.
         25    2    1    2    0    0  0.00000000000E+00  0.00000000000E+00 -0.49975194629E+03  0.51514698557E+03  0.12499763566E+03 0.  0.
          4    1    3    3  501    0 -0.22125877472E+02 -0.17507075239E+02 -0.47962053828E+03  0.48045219885E+03  0.15500000000E+01 0. -1.
         -4    1    3    3    0  501  0.22125877472E+02  0.17507075239E+02 -0.20131408012E+02  0.34694786724E+02  0.15500000000E+01 0. -1.
<mgrwt>
<rscale>  2 0.12499764E+03</rscale>
<asrwt>0</asrwt>
<pdfrwt beam="1">  1       21 0.11842337E-02 0.12499764E+03</pdfrwt>
<pdfrwt beam="2">  1       21 0.78069157E-01 0.12499764E+03</pdfrwt>
<totfact> 0.41236775E+06</totfact>
</mgrwt>
</event>
<event>
 5    0  0.1222151E+000  0.1250040E+03  0.7546771E-02  0.1235063E+00
         21   -1    0    0  503  502  0.00000000000E+00  0.00000000000E+00  0.99810335808E+03  0.99810335808E+03  0.00000000000E+00 0.  1.
         21   -1    0    0  502  503 -0.00000000000E+00 -0.00000000000E+00 -0.39139225716E+01  0.39139225716E+01  0.00000000000E+00 0.  1.
         25    2    1    2    0    0  0.00000000000E+00  0.00000000000E+00  0.99418943551E+03  0.10020172806E+04  0.12500398813E+03 0.  0.
          4    1    3    3  501    0 -0.40487015126E+02 -0.52228618264E+01  0.11791550724E+03  0.12479161041E+03  0.15500000000E+01 0. -1.
         -4    1    3    3    0  501  0.40487015126E+02  0.52228618264E+01  0.87627392827E+03  0.87722567024E+03  0.15500000000E+01 0. -1.
<mgrwt>
<rscale>  2 0.12500399E+03</rscale>
<asrwt>0</asrwt>
<pdfrwt beam="1">  1       21 0.15355416E+00 0.12500399E+03</pdfrwt>
<pdfrwt beam="2">  1       21 0.60214273E-03 0.12500399E+03</pdfrwt>
<totfact> 0.23566081E+06</totfact>
</mgrwt>
</event>
<event>
 5    0  0.1222151E+000  0.1249982E+03  0.7546771E-02  0.1235072E+00
         21   -1    0    0  503  502  0.00000000000E+00  0.00000000000E+00  0.23747552493E+01  0.23747552493E+01  0.00000000000E+00 0. -1.
         21   -1    0    0  502  503 -0.00000000000E+00 -0.00000000000E+00 -0.16448599464E+04  0.16448599464E+04  0.00000000000E+00 0. -1.
         25    2    1    2    0    0  0.00000000000E+00  0.00000000000E+00 -0.16424851912E+04  0.16472347017E+04  0.12499823666E+03 0.  0.
          4    1    3    3  501    0  0.20338556046E+02  0.39381222697E+02 -0.24092883714E+03  0.24497682467E+03  0.15500000000E+01 0.  1.
         -4    1    3    3    0  501 -0.20338556046E+02 -0.39381222697E+02 -0.14015563540E+04  0.14022578770E+04  0.15500000000E+01 0.  1.
<mgrwt>
<rscale>  2 0.12499824E+03</rscale>
<asrwt>0</asrwt>
<pdfrwt beam="1">  1       21 0.36534746E-03 0.12499824E+03</pdfrwt>
<pdfrwt beam="2">  1       21 0.25305503E+00 0.12499824E+03</pdfrwt>
<totfact> 0.11944536E+06</totfact>
</mgrwt>
</event>
<event>
 5    0  0.1222151E+000  0.1250019E+03  0.7546771E-02  0.1235066E+00
         21   -1    0    0  503  502  0.00000000000E+00  0.00000000000E+00  0.39578987962E+01  0.39578987962E+01  0.00000000000E+00 0. -1.
         21   -1    0    0  502  503 -0.00000000000E+00 -0.00000000000E+00 -0.98698039225E+03  0.98698039225E+03  0.00000000000E+00 0. -1.
         25    2    1    2    0    0  0.00000000000E+00  0.00000000000E+00 -0.98302249345E+03  0.99093829104E+03  0.12500189609E+03 0.  0.
          4    1    3    3  501    0  0.14346103893E+01  0.52679476697E+02 -0.22540829197E+03  0.23149187019E+03  0.15500000000E+01 0. -1.
         -4    1    3    3    0  501 -0.14346103893E+01 -0.52679476697E+02 -0.75761420148E+03  0.75944642086E+03  0.15500000000E+01 0. -1.
<mgrwt>
<rscale>  2 0.12500190E+03</rscale>
<asrwt>0</asrwt>
<pdfrwt beam="1">  1       21 0.60890725E-03 0.12500190E+03</pdfrwt>
<pdfrwt beam="2">  1       21 0.15184320E+00 0.12500190E+03</pdfrwt>
<totfact> 0.23845272E+06</totfact>
</mgrwt>
</event>
<event>
 5    0  0.1421095E+000  0.1250171E+03  0.7546771E-02  0.1235042E+00
         21   -1    0    0  503  502  0.00000000000E+00  0.00000000000E+00  0.12834131956E+02  0.12834131956E+02  0.00000000000E+00 0.  1.
         21   -1    0    0  502  503 -0.00000000000E+00 -0.00000000000E+00 -0.30444766862E+03  0.30444766862E+03  0.00000000000E+00 0.  1.
         25    2    1    2    0    0  0.00000000000E+00  0.00000000000E+00 -0.29161353666E+03  0.31728180057E+03  0.12501714367E+03 0.  0.
          4    1    3    3  501    0  0.62262038141E+02 -0.34581435444E+01 -0.13552937492E+03  0.14919495339E+03  0.15500000000E+01 0. -1.
         -4    1    3    3    0  501 -0.62262038141E+02  0.34581435444E+01 -0.15608416174E+03  0.16808684718E+03  0.15500000000E+01 0. -1.
<mgrwt>
<rscale>  2 0.12501714E+03</rscale>
<asrwt>0</asrwt>
<pdfrwt beam="1">  1       21 0.19744819E-02 0.12501714E+03</pdfrwt>
<pdfrwt beam="2">  1       21 0.46838100E-01 0.12501714E+03</pdfrwt>
<totfact> 0.54026208E+06</totfact>
</mgrwt>
</event>
<event>
 5    0  0.1222151E+000  0.1249960E+03  0.7546771E-02  0.1235076E+00
         21   -1    0    0  503  502  0.00000000000E+00  0.00000000000E+00  0.45013277593E+01  0.45013277593E+01  0.00000000000E+00 0. -1.
         21   -1    0    0  502  503 -0.00000000000E+00 -0.00000000000E+00 -0.86774342450E+03  0.86774342450E+03  0.00000000000E+00 0. -1.
         25    2    1    2    0    0  0.00000000000E+00  0.00000000000E+00 -0.86324209674E+03  0.87224475226E+03  0.12499596097E+03 0.  0.
          4    1    3    3  501    0 -0.16741320923E+02  0.55709147761E+02 -0.27252242903E+03  0.27866585330E+03  0.15500000000E+01 0. -1.
         -4    1    3    3    0  501  0.16741320923E+02 -0.55709147761E+02 -0.59071966771E+03  0.59357889896E+03  0.15500000000E+01 0. -1.
<mgrwt>
<rscale>  2 0.12499596E+03</rscale>
<asrwt>0</asrwt>
<pdfrwt beam="1">  1       21 0.69251191E-03 0.12499596E+03</pdfrwt>
<pdfrwt beam="2">  1       21 0.13349900E+00 0.12499596E+03</pdfrwt>
<totfact> 0.27106708E+06</totfact>
</mgrwt>
</event>
<event>
 5    0  0.1583629E+000  0.1249982E+03  0.7546771E-02  0.1235072E+00
         21   -1    0    0  503  502  0.00000000000E+00  0.00000000000E+00  0.28380217106E+02  0.28380217106E+02  0.00000000000E+00 0. -1.
         21   -1    0    0  502  503 -0.00000000000E+00 -0.00000000000E+00 -0.13763602614E+03  0.13763602614E+03  0.00000000000E+00 0. -1.
         25    2    1    2    0    0  0.00000000000E+00  0.00000000000E+00 -0.10925580903E+03  0.16601624325E+03  0.12499824484E+03 0.  0.
          4    1    3    3  501    0 -0.46148919977E+02 -0.23904452593E+02 -0.85698227260E+01  0.52697153911E+02  0.15500000000E+01 0.  1.
         -4    1    3    3    0  501  0.46148919977E+02  0.23904452593E+02 -0.10068598631E+03  0.11331908933E+03  0.15500000000E+01 0.  1.
<mgrwt>
<rscale>  2 0.12499824E+03</rscale>
<asrwt>0</asrwt>
<pdfrwt beam="1">  1       21 0.43661874E-02 0.12499824E+03</pdfrwt>
<pdfrwt beam="2">  1       21 0.21174773E-01 0.12499824E+03</pdfrwt>
<totfact> 0.68794815E+06</totfact>
</mgrwt>
</event>
<event>
 5    0  0.1222151E+000  0.1250020E+03  0.7546771E-02  0.1235066E+00
         21   -1    0    0  503  502  0.00000000000E+00  0.00000000000E+00  0.48182546386E+01  0.48182546386E+01  0.00000000000E+00 0.  1.
         21   -1    0    0  502  503 -0.00000000000E+00 -0.00000000000E+00 -0.81074507135E+03  0.81074507135E+03  0.00000000000E+00 0.  1.
         25    2    1    2    0    0  0.00000000000E+00  0.00000000000E+00 -0.80592681671E+03  0.81556332599E+03  0.12500201920E+03 0.  0.
          4    1    3    3  501    0 -0.35922161551E+02 -0.19815887474E+02 -0.95491518245E+02  0.10394279024E+03  0.15500000000E+01 0.  1.
         -4    1    3    3    0  501  0.35922161551E+02  0.19815887474E+02 -0.71043529846E+03  0.71162053574E+03  0.15500000000E+01 0.  1.
<mgrwt>
<rscale>  2 0.12500202E+03</rscale>
<asrwt>0</asrwt>
<pdfrwt beam="1">  1       21 0.74126955E-03 0.12500202E+03</pdfrwt>
<pdfrwt beam="2">  1       21 0.12473008E+00 0.12500202E+03</pdfrwt>
<totfact> 0.28852157E+06</totfact>
</mgrwt>
</event>
<event>
 5    0  0.1634255E+000  0.1250204E+03  0.7546771E-02  0.1235037E+00
         21   -1    0    0  503  502  0.00000000000E+00  0.00000000000E+00  0.59551890330E+02  0.59551890330E+02  0.00000000000E+00 0. -1.
         21   -1    0    0  502  503 -0.00000000000E+00 -0.00000000000E+00 -0.65615498484E+02  0.65615498484E+02  0.00000000000E+00 0. -1.
         25    2    1    2    0    0  0.00000000000E+00  0.00000000000E+00 -0.60636081540E+01  0.12516738881E+03  0.12502042985E+03 0.  0.
          4    1    3    3  501    0 -0.58386802509E+01 -0.56451426692E+02  0.23157513309E+02  0.61314979289E+02  0.15500000000E+01 0.  1.
         -4    1    3    3    0  501  0.58386802509E+01  0.56451426692E+02 -0.29221121463E+02  0.63852409525E+02  0.15500000000E+01 0.  1.
<mgrwt>
<rscale>  2 0.12502043E+03</rscale>
<asrwt>0</asrwt>
<pdfrwt beam="1">  1       21 0.91618293E-02 0.12502043E+03</pdfrwt>
<pdfrwt beam="2">  1       21 0.10094692E-01 0.12502043E+03</pdfrwt>
<totfact> 0.73982327E+06</totfact>
</mgrwt>
</event>
<event>
 5    0  0.1548853E+000  0.1249983E+03  0.7546771E-02  0.1235072E+00
         21   -1    0    0  503  502  0.00000000000E+00  0.00000000000E+00  0.65702487439E+02  0.65702487439E+02  0.00000000000E+00 0. -1.
         21   -1    0    0  502  503 -0.00000000000E+00 -0.00000000000E+00 -0.59452019703E+02  0.59452019703E+02  0.00000000000E+00 0. -1.
         25    2    1    2    0    0  0.00000000000E+00  0.00000000000E+00  0.62504677360E+01  0.12515450714E+03  0.12499832923E+03 0.  0.
          4    1    3    3  501    0  0.37542536973E+00  0.47641637217E+02 -0.37346508729E+02  0.60556013369E+02  0.15500000000E+01 0. -1.
         -4    1    3    3    0  501 -0.37542536973E+00 -0.47641637217E+02  0.43596976465E+02  0.64598493773E+02  0.15500000000E+01 0. -1.
<mgrwt>
<rscale>  2 0.12499833E+03</rscale>
<asrwt>0</asrwt>
<pdfrwt beam="1">  1       21 0.10108075E-01 0.12499833E+03</pdfrwt>
<pdfrwt beam="2">  1       21 0.91464646E-02 0.12499833E+03</pdfrwt>
<totfact> 0.74025877E+06</totfact>
</mgrwt>
</event>
<event>
 5    0  0.1647842E+000  0.1249951E+03  0.7546771E-02  0.1235077E+00
         21   -1    0    0  503  502  0.00000000000E+00  0.00000000000E+00  0.34613799818E+02  0.34613799818E+02  0.00000000000E+00 0.  1.
         21   -1    0    0  502  503 -0.00000000000E+00 -0.00000000000E+00 -0.11284356041E+03  0.11284356041E+03  0.00000000000E+00 0.  1.
         25    2    1    2    0    0  0.00000000000E+00  0.00000000000E+00 -0.78229760595E+02  0.14745736023E+03  0.12499511048E+03 0.  0.
          4    1    3    3  501    0 -0.55506445988E+02  0.27813101090E+02 -0.30856290195E+02  0.69347294706E+02  0.15500000000E+01 0.  1.
         -4    1    3    3    0  501  0.55506445988E+02 -0.27813101090E+02 -0.47373470400E+02  0.78110065524E+02  0.15500000000E+01 0.  1.
<mgrwt>
<rscale>  2 0.12499511E+03</rscale>
<asrwt>0</asrwt>
<pdfrwt beam="1">  1       21 0.53252000E-02 0.12499511E+03</pdfrwt>
<pdfrwt beam="2">  1       21 0.17360548E-01 0.12499511E+03</pdfrwt>
<totfact> 0.71088933E+06</totfact>
</mgrwt>
</event>
<event>
 5    0  0.1425417E+000  0.1250036E+03  0.7546771E-02  0.1235064E+00
         21   -1    0    0  503  502  0.00000000000E+00  0.00000000000E+00  0.33908585603E+03  0.33908585603E+03  0.00000000000E+00 0.  1.
         21   -1    0    0  502  503 -0.00000000000E+00 -0.00000000000E+00 -0.11520599227E+02  0.11520599227E+02  0.00000000000E+00 0.  1.
         25    2    1    2    0    0  0.00000000000E+00  0.00000000000E+00  0.32756525680E+03  0.35060645525E+03  0.12500355596E+03 0.  0.
          4    1    3    3  501    0  0.44627302922E+01  0.56666853159E+02  0.91019389395E+02  0.10732185218E+03  0.15500000000E+01 0. -1.
         -4    1    3    3    0  501 -0.44627302922E+01 -0.56666853159E+02  0.23654586740E+03  0.24328460308E+03  0.15500000000E+01 0. -1.
<mgrwt>
<rscale>  2 0.12500356E+03</rscale>
<asrwt>0</asrwt>
<pdfrwt beam="1">  1       21 0.52167047E-01 0.12500356E+03</pdfrwt>
<pdfrwt beam="2">  1       21 0.17724001E-02 0.12500356E+03</pdfrwt>
<totfact> 0.51489091E+06</totfact>
</mgrwt>
</event>
<event>
 5    0  0.1424369E+000  0.1249982E+03  0.7546771E-02  0.1235072E+00
         21   -1    0    0  503  502  0.00000000000E+00  0.00000000000E+00  0.13469640916E+03  0.13469640916E+03  0.00000000000E+00 0.  1.
         21   -1    0    0  502  503 -0.00000000000E+00 -0.00000000000E+00 -0.28999577600E+02  0.28999577600E+02  0.00000000000E+00 0.  1.
         25    2    1    2    0    0  0.00000000000E+00  0.00000000000E+00  0.10569683156E+03  0.16369598676E+03  0.12499822350E+03 0.  0.
          4    1    3    3  501    0  0.21811537699E+02  0.31176178333E+01  0.12941470711E+03  0.13128606793E+03  0.15500000000E+01 0.  1.
         -4    1    3    3    0  501 -0.21811537699E+02 -0.31176178333E+01 -0.23717875549E+02  0.32409918826E+02  0.15500000000E+01 0.  1.
<mgrwt>
<rscale>  2 0.12499822E+03</rscale>
<asrwt>0</asrwt>
<pdfrwt beam="1">  1       21 0.20722524E-01 0.12499822E+03</pdfrwt>
<pdfrwt beam="2">  1       21 0.44614736E-02 0.12499822E+03</pdfrwt>
<totfact> 0.69073802E+06</totfact>
</mgrwt>
</event>
<event>
 5    0  0.1486224E+000  0.1250042E+03  0.7546771E-02  0.1235063E+00
         21   -1    0    0  503  502  0.00000000000E+00  0.00000000000E+00  0.16792613094E+02  0.16792613094E+02  0.00000000000E+00 0. -1.
         21   -1    0    0  502  503 -0.00000000000E+00 -0.00000000000E+00 -0.23263271173E+03  0.23263271173E+03  0.00000000000E+00 0. -1.
         25    2    1    2    0    0  0.00000000000E+00  0.00000000000E+00 -0.21584009863E+03  0.24942532482E+03  0.12500417787E+03 0.  0.
          4    1    3    3  501    0  0.59480024374E+02 -0.18959013330E+02 -0.10272024254E+03  0.12021301183E+03  0.15500000000E+01 0.  1.
         -4    1    3    3    0  501 -0.59480024374E+02  0.18959013330E+02 -0.11311985610E+03  0.12921231299E+03  0.15500000000E+01 0.  1.
<mgrwt>
<rscale>  2 0.12500418E+03</rscale>
<asrwt>0</asrwt>
<pdfrwt beam="1">  1       21 0.25834790E-02 0.12500418E+03</pdfrwt>
<pdfrwt beam="2">  1       21 0.35789647E-01 0.12500418E+03</pdfrwt>
<totfact> 0.59926025E+06</totfact>
</mgrwt>
</event>
<event>
 5    0  0.1559279E+000  0.1250112E+03  0.7546771E-02  0.1235052E+00
         21   -1    0    0  503  502  0.00000000000E+00  0.00000000000E+00  0.12710398192E+03  0.12710398192E+03  0.00000000000E+00 0. -1.
         21   -1    0    0  502  503 -0.00000000000E+00 -0.00000000000E+00 -0.30738198102E+02  0.30738198102E+02  0.00000000000E+00 0. -1.
         25    2    1    2    0    0  0.00000000000E+00  0.00000000000E+00  0.96365783816E+02  0.15784218002E+03  0.12501115751E+03 0.  0.
          4    1    3    3  501    0 -0.31836452629E+02 -0.38816992013E+02  0.12066964570E+01  0.50241190285E+02  0.15500000000E+01 0.  1.
         -4    1    3    3    0  501  0.31836452629E+02  0.38816992013E+02  0.95159087359E+02  0.10760098974E+03  0.15500000000E+01 0.  1.
<mgrwt>
<rscale>  2 0.12501116E+03</rscale>
<asrwt>0</asrwt>
<pdfrwt beam="1">  1       21 0.19554458E-01 0.12501116E+03</pdfrwt>
<pdfrwt beam="2">  1       21 0.47289536E-02 0.12501116E+03</pdfrwt>
<totfact> 0.69764328E+06</totfact>
</mgrwt>
</event>
<event>
 5    0  0.1489030E+000  0.1250013E+03  0.7546771E-02  0.1235067E+00
         21   -1    0    0  503  502  0.00000000000E+00  0.00000000000E+00  0.44852770849E+02  0.44852770849E+02  0.00000000000E+00 0.  1.
         21   -1    0    0  502  503 -0.00000000000E+00 -0.00000000000E+00 -0.87092302060E+02  0.87092302060E+02  0.00000000000E+00 0.  1.
         25    2    1    2    0    0  0.00000000000E+00  0.00000000000E+00 -0.42239531211E+02  0.13194507291E+03  0.12500129706E+03 0.  0.
          4    1    3    3  501    0 -0.19829706068E+02 -0.23404309661E+02 -0.78576480450E+02  0.84366134991E+02  0.15500000000E+01 0. -1.
         -4    1    3    3    0  501  0.19829706068E+02  0.23404309661E+02  0.36336949238E+02  0.47578937918E+02  0.15500000000E+01 0. -1.
<mgrwt>
<rscale>  2 0.12500130E+03</rscale>
<asrwt>0</asrwt>
<pdfrwt beam="1">  1       21 0.69004264E-02 0.12500130E+03</pdfrwt>
<pdfrwt beam="2">  1       21 0.13398816E-01 0.12500130E+03</pdfrwt>
<totfact> 0.73101178E+06</totfact>
</mgrwt>
</event>
<event>
 5    0  0.1365188E+000  0.1250013E+03  0.7546771E-02  0.1235067E+00
         21   -1    0    0  503  502  0.00000000000E+00  0.00000000000E+00  0.11322289038E+02  0.11322289038E+02  0.00000000000E+00 0.  1.
         21   -1    0    0  502  503 -0.00000000000E+00 -0.00000000000E+00 -0.34501254972E+03  0.34501254972E+03  0.00000000000E+00 0.  1.
         25    2    1    2    0    0  0.00000000000E+00  0.00000000000E+00 -0.33369026068E+03  0.35633483876E+03  0.12500130895E+03 0.  0.
          4    1    3    3  501    0  0.35629855442E+02 -0.42264869331E+02 -0.83826936412E+02  0.10042491497E+03  0.15500000000E+01 0. -1.
         -4    1    3    3    0  501 -0.35629855442E+02  0.42264869331E+02 -0.24986332427E+03  0.25590992379E+03  0.15500000000E+01 0. -1.
<mgrwt>
<rscale>  2 0.12500131E+03</rscale>
<asrwt>0</asrwt>
<pdfrwt beam="1">  1       21 0.17418908E-02 0.12500131E+03</pdfrwt>
<pdfrwt beam="2">  1       21 0.53078848E-01 0.12500131E+03</pdfrwt>
<totfact> 0.51072291E+06</totfact>
</mgrwt>
</event>
<event>
 5    0  0.1295121E+000  0.1250017E+03  0.7546771E-02  0.1235067E+00
         21   -1    0    0  503  502  0.00000000000E+00  0.00000000000E+00  0.41985442907E+03  0.41985442907E+03  0.00000000000E+00 0.  1.
         21   -1    0    0  502  503 -0.00000000000E+00 -0.00000000000E+00 -0.93040670046E+01  0.93040670046E+01  0.00000000000E+00 0.  1.
         25    2    1    2    0    0  0.00000000000E+00  0.00000000000E+00  0.41055036207E+03  0.42915849608E+03  0.12500165983E+03 0.  0.
          4    1    3    3  501    0  0.33393875869E+02 -0.21883705013E+02  0.40269507651E+02  0.56728152068E+02  0.15500000000E+01 0. -1.
         -4    1    3    3    0  501 -0.33393875869E+02  0.21883705013E+02  0.37028085442E+03  0.37243034401E+03  0.15500000000E+01 0. -1.
<mgrwt>
<rscale>  2 0.12500166E+03</rscale>
<asrwt>0</asrwt>
<pdfrwt beam="1">  1       21 0.64592974E-01 0.12500166E+03</pdfrwt>
<pdfrwt beam="2">  1       21 0.14313952E-02 0.12500166E+03</pdfrwt>
<totfact> 0.46163674E+06</totfact>
</mgrwt>
</event>
<event>
 5    0  0.1222151E+000  0.1249968E+03  0.7546771E-02  0.1235074E+00
         21   -1    0    0  503  502  0.00000000000E+00  0.00000000000E+00  0.12845460641E+04  0.12845460641E+04  0.00000000000E+00 0. -1.
         21   -1    0    0  502  503 -0.00000000000E+00 -0.00000000000E+00 -0.30408030168E+01  0.30408030168E+01  0.00000000000E+00 0. -1.
         25    2    1    2    0    0  0.00000000000E+00  0.00000000000E+00  0.12815052611E+04  0.12875868671E+04  0.12499682471E+03 0.  0.
          4    1    3    3  501    0 -0.83194647543E-01  0.38064042142E+02  0.11511201575E+04  0.11517503626E+04  0.15500000000E+01 0.  1.
         -4    1    3    3    0  501  0.83194647543E-01 -0.38064042142E+02  0.13038510360E+03  0.13583650454E+03  0.15500000000E+01 0.  1.
<mgrwt>
<rscale>  2 0.12499682E+03</rscale>
<asrwt>0</asrwt>
<pdfrwt beam="1">  1       21 0.19762204E+00 0.12499682E+03</pdfrwt>
<pdfrwt beam="2">  1       21 0.46781687E-03 0.12499682E+03</pdfrwt>
<totfact> 0.17478135E+06</totfact>
</mgrwt>
</event>
<event>
 5    0  0.1510661E+000  0.1249989E+03  0.7546771E-02  0.1235071E+00
         21   -1    0    0  503  502  0.00000000000E+00  0.00000000000E+00  0.30557607593E+02  0.30557607593E+02  0.00000000000E+00 0. -1.
         21   -1    0    0  502  503 -0.00000000000E+00 -0.00000000000E+00 -0.12783007765E+03  0.12783007765E+03  0.00000000000E+00 0. -1.
         25    2    1    2    0    0  0.00000000000E+00  0.00000000000E+00 -0.97272470056E+02  0.15838768524E+03  0.12499890162E+03 0.  0.
          4    1    3    3  501    0 -0.58872669913E+02 -0.20405433622E+02 -0.54498718482E+02  0.82794237723E+02  0.15500000000E+01 0. -1.
         -4    1    3    3    0  501  0.58872669913E+02  0.20405433622E+02 -0.42773751574E+02  0.75593447518E+02  0.15500000000E+01 0. -1.
<mgrwt>
<rscale>  2 0.12499890E+03</rscale>
<asrwt>0</asrwt>
<pdfrwt beam="1">  1       21 0.47011704E-02 0.12499890E+03</pdfrwt>
<pdfrwt beam="2">  1       21 0.19666166E-01 0.12499890E+03</pdfrwt>
<totfact> 0.69718989E+06</totfact>
</mgrwt>
</event>
<event>
 5    0  0.1578030E+000  0.1249949E+03  0.7546771E-02  0.1235077E+00
         21   -1    0    0  503  502  0.00000000000E+00  0.00000000000E+00  0.49509195751E+02  0.49509195751E+02  0.00000000000E+00 0. -1.
         21   -1    0    0  502  503 -0.00000000000E+00 -0.00000000000E+00 -0.78893046471E+02  0.78893046471E+02  0.00000000000E+00 0. -1.
         25    2    1    2    0    0  0.00000000000E+00  0.00000000000E+00 -0.29383850720E+02  0.12840224222E+03  0.12499490039E+03 0.  0.
          4    1    3    3  501    0  0.32176727704E+02 -0.53081177479E+02 -0.73864123560E+01  0.62529311493E+02  0.15500000000E+01 0. -1.
         -4    1    3    3    0  501 -0.32176727704E+02  0.53081177479E+02 -0.21997438364E+02  0.65872930729E+02  0.15500000000E+01 0. -1.
<mgrwt>
<rscale>  2 0.12499490E+03</rscale>
<asrwt>0</asrwt>
<pdfrwt beam="1">  1       21 0.76167994E-02 0.12499490E+03</pdfrwt>
<pdfrwt beam="2">  1       21 0.12137392E-01 0.12499490E+03</pdfrwt>
<totfact> 0.73588871E+06</totfact>
</mgrwt>
</event>
<event>
 5    0  0.1532832E+000  0.1249996E+03  0.7546771E-02  0.1235070E+00
         21   -1    0    0  503  502  0.00000000000E+00  0.00000000000E+00  0.10301284454E+03  0.10301284454E+03  0.00000000000E+00 0.  1.
         21   -1    0    0  502  503 -0.00000000000E+00 -0.00000000000E+00 -0.37919772618E+02  0.37919772618E+02  0.00000000000E+00 0.  1.
         25    2    1    2    0    0  0.00000000000E+00  0.00000000000E+00  0.65093071921E+02  0.14093261716E+03  0.12499957826E+03 0.  0.
          4    1    3    3  501    0 -0.44337404624E+02 -0.18960041456E+02 -0.12248484164E+02  0.49776666070E+02  0.15500000000E+01 0. -1.
         -4    1    3    3    0  501  0.44337404624E+02  0.18960041456E+02  0.77341556084E+02  0.91155951086E+02  0.15500000000E+01 0. -1.
<mgrwt>
<rscale>  2 0.12499958E+03</rscale>
<asrwt>0</asrwt>
<pdfrwt beam="1">  1       21 0.15848130E-01 0.12499958E+03</pdfrwt>
<pdfrwt beam="2">  1       21 0.58338112E-02 0.12499958E+03</pdfrwt>
<totfact> 0.71918563E+06</totfact>
</mgrwt>
</event>
<event>
 5    0  0.1568127E+000  0.1249771E+03  0.7546771E-02  0.1235105E+00
         21   -1    0    0  503  502  0.00000000000E+00  0.00000000000E+00  0.19460008101E+02  0.19460008101E+02  0.00000000000E+00 0. -1.
         21   -1    0    0  502  503 -0.00000000000E+00 -0.00000000000E+00 -0.20065854921E+03  0.20065854921E+03  0.00000000000E+00 0. -1.
         25    2    1    2    0    0  0.00000000000E+00  0.00000000000E+00 -0.18119854111E+03  0.22011855731E+03  0.12497706979E+03 0.  0.
          4    1    3    3  501    0  0.52350829554E+02 -0.31216033995E+02 -0.66490791570E+02  0.90213513384E+02  0.15500000000E+01 0. -1.
         -4    1    3    3    0  501 -0.52350829554E+02  0.31216033995E+02 -0.11470774954E+03  0.12990504393E+03  0.15500000000E+01 0. -1.
<mgrwt>
<rscale>  2 0.12497707E+03</rscale>
<asrwt>0</asrwt>
<pdfrwt beam="1">  1       21 0.29938476E-02 0.12497707E+03</pdfrwt>
<pdfrwt beam="2">  1       21 0.30870544E-01 0.12497707E+03</pdfrwt>
<totfact> 0.62846834E+06</totfact>
</mgrwt>
</event>
<event>
 5    0  0.1500118E+000  0.1249743E+03  0.7546771E-02  0.1235109E+00
         21   -1    0    0  503  502  0.00000000000E+00  0.00000000000E+00  0.21630774171E+02  0.21630774171E+02  0.00000000000E+00 0.  1.
         21   -1    0    0  502  503 -0.00000000000E+00 -0.00000000000E+00 -0.18051331415E+03  0.18051331415E+03  0.00000000000E+00 0.  1.
         25    2    1    2    0    0  0.00000000000E+00  0.00000000000E+00 -0.15888253998E+03  0.20214408832E+03  0.12497428109E+03 0.  0.
          4    1    3    3  501    0  0.14176310372E+02  0.20989339718E+02 -0.17180408409E+03  0.17366797623E+03  0.15500000000E+01 0.  1.
         -4    1    3    3    0  501 -0.14176310372E+02 -0.20989339718E+02  0.12921544112E+02  0.28476112090E+02  0.15500000000E+01 0.  1.
<mgrwt>
<rscale>  2 0.12497428E+03</rscale>
<asrwt>0</asrwt>
<pdfrwt beam="1">  1       21 0.33278113E-02 0.12497428E+03</pdfrwt>
<pdfrwt beam="2">  1       21 0.27771280E-01 0.12497428E+03</pdfrwt>
<totfact> 0.64737797E+06</totfact>
</mgrwt>
</event>
<event>
 5    0  0.1592884E+000  0.1250018E+03  0.7546771E-02  0.1235066E+00
         21   -1    0    0  503  502  0.00000000000E+00  0.00000000000E+00  0.12889700268E+03  0.12889700268E+03  0.00000000000E+00 0. -1.
         21   -1    0    0  502  503 -0.00000000000E+00 -0.00000000000E+00 -0.30306080640E+02  0.30306080640E+02  0.00000000000E+00 0. -1.
         25    2    1    2    0    0  0.00000000000E+00  0.00000000000E+00  0.98590922044E+02  0.15920308332E+03  0.12500180731E+03 0.  0.
          4    1    3    3  501    0 -0.61519102365E+02  0.58303249408E+01  0.61062908260E+02  0.86888859527E+02  0.15500000000E+01 0.  1.
         -4    1    3    3    0  501  0.61519102365E+02 -0.58303249408E+01  0.37528013784E+02  0.72314223797E+02  0.15500000000E+01 0.  1.
<mgrwt>
<rscale>  2 0.12500181E+03</rscale>
<asrwt>0</asrwt>
<pdfrwt beam="1">  1       21 0.19830308E-01 0.12500181E+03</pdfrwt>
<pdfrwt beam="2">  1       21 0.46624740E-02 0.12500181E+03</pdfrwt>
<totfact> 0.69613803E+06</totfact>
</mgrwt>
</event>
<event>
 5    0  0.1394617E+000  0.1249986E+03  0.7546771E-02  0.1235071E+00
         21   -1    0    0  503  502  0.00000000000E+00  0.00000000000E+00  0.36270909801E+03  0.36270909801E+03  0.00000000000E+00 0.  1.
         21   -1    0    0  502  503 -0.00000000000E+00 -0.00000000000E+00 -0.10769414180E+02  0.10769414180E+02  0.00000000000E+00 0.  1.
         25    2    1    2    0    0  0.00000000000E+00  0.00000000000E+00  0.35193968383E+03  0.37347851219E+03  0.12499863204E+03 0.  0.
          4    1    3    3  501    0 -0.45521907820E+02 -0.39593430583E+02  0.12743405351E+03  0.14100256852E+03  0.15500000000E+01 0. -1.
         -4    1    3    3    0  501  0.45521907820E+02  0.39593430583E+02  0.22450563032E+03  0.23247594367E+03  0.15500000000E+01 0. -1.
<mgrwt>
<rscale>  2 0.12499863E+03</rscale>
<asrwt>0</asrwt>
<pdfrwt beam="1">  1       21 0.55801390E-01 0.12499863E+03</pdfrwt>
<pdfrwt beam="2">  1       21 0.16568332E-02 0.12499863E+03</pdfrwt>
<totfact> 0.49851568E+06</totfact>
</mgrwt>
</event>
<event>
 5    0  0.1487032E+000  0.1249629E+03  0.7546771E-02  0.1235127E+00
         21   -1    0    0  503  502  0.00000000000E+00  0.00000000000E+00  0.99744028530E+02  0.99744028530E+02  0.00000000000E+00 0.  1.
         21   -1    0    0  502  503 -0.00000000000E+00 -0.00000000000E+00 -0.39139526288E+02  0.39139526288E+02  0.00000000000E+00 0.  1.
         25    2    1    2    0    0  0.00000000000E+00  0.00000000000E+00  0.60604502242E+02  0.13888355482E+03  0.12496293893E+03 0.  0.
          4    1    3    3  501    0  0.64700773735E+01 -0.32058570520E+02 -0.28841641677E+02  0.43633205700E+02  0.15500000000E+01 0. -1.
         -4    1    3    3    0  501 -0.64700773735E+01  0.32058570520E+02  0.89446143919E+02  0.95250349118E+02  0.15500000000E+01 0. -1.
<mgrwt>
<rscale>  2 0.12496294E+03</rscale>
<asrwt>0</asrwt>
<pdfrwt beam="1">  1       21 0.15345235E-01 0.12496294E+03</pdfrwt>
<pdfrwt beam="2">  1       21 0.60214656E-02 0.12496294E+03</pdfrwt>
<totfact> 0.72253600E+06</totfact>
</mgrwt>
</event>
<event>
 5    0  0.1290695E+000  0.1249970E+03  0.7546771E-02  0.1235074E+00
         21   -1    0    0  503  502  0.00000000000E+00  0.00000000000E+00  0.66041366111E+03  0.66041366111E+03  0.00000000000E+00 0.  1.
         21   -1    0    0  502  503 -0.00000000000E+00 -0.00000000000E+00 -0.59145657111E+01  0.59145657111E+01  0.00000000000E+00 0.  1.
         25    2    1    2    0    0  0.00000000000E+00  0.00000000000E+00  0.65449909540E+03  0.66632822682E+03  0.12499695989E+03 0.  0.
          4    1    3    3  501    0 -0.56984115499E+02  0.25129460927E+02  0.30060735695E+03  0.30699489374E+03  0.15500000000E+01 0. -1.
         -4    1    3    3    0  501  0.56984115499E+02 -0.25129460927E+02  0.35389173844E+03  0.35933333308E+03  0.15500000000E+01 0. -1.
<mgrwt>
<rscale>  2 0.12499696E+03</rscale>
<asrwt>0</asrwt>
<pdfrwt beam="1">  1       21 0.10160204E+00 0.12499696E+03</pdfrwt>
<pdfrwt beam="2">  1       21 0.90993371E-03 0.12499696E+03</pdfrwt>
<totfact> 0.34251706E+06</totfact>
</mgrwt>
</event>
<event>
 5    0  0.1411538E+000  0.1249969E+03  0.7546771E-02  0.1235074E+00
         21   -1    0    0  503  502  0.00000000000E+00  0.00000000000E+00  0.95254299296E+01  0.95254299296E+01  0.00000000000E+00 0.  1.
         21   -1    0    0  502  503 -0.00000000000E+00 -0.00000000000E+00 -0.41006636624E+03  0.41006636624E+03  0.00000000000E+00 0.  1.
         25    2    1    2    0    0  0.00000000000E+00  0.00000000000E+00 -0.40054093631E+03  0.41959179617E+03  0.12499693497E+03 0.  0.
          4    1    3    3  501    0  0.23486871919E+02  0.48968426091E+02 -0.30395840213E+03  0.30877605579E+03  0.15500000000E+01 0. -1.
         -4    1    3    3    0  501 -0.23486871919E+02 -0.48968426091E+02 -0.96582534185E+02  0.11081574038E+03  0.15500000000E+01 0. -1.
<mgrwt>
<rscale>  2 0.12499693E+03</rscale>
<asrwt>0</asrwt>
<pdfrwt beam="1">  1       21 0.14654507E-02 0.12499693E+03</pdfrwt>
<pdfrwt beam="2">  1       21 0.63087137E-01 0.12499693E+03</pdfrwt>
<totfact> 0.46772009E+06</totfact>
</mgrwt>
</event>
<event>
 5    0  0.1403326E+000  0.1250042E+03  0.7546771E-02  0.1235063E+00
         21   -1    0    0  503  502  0.00000000000E+00  0.00000000000E+00  0.10248633830E+02  0.10248633830E+02  0.00000000000E+00 0.  1.
         21   -1    0    0  502  503 -0.00000000000E+00 -0.00000000000E+00 -0.38117386519E+03  0.38117386519E+03  0.00000000000E+00 0.  1.
         25    2    1    2    0    0  0.00000000000E+00  0.00000000000E+00 -0.37092523136E+03  0.39142249902E+03  0.12500418185E+03 0.  0.
          4    1    3    3  501    0  0.61290086099E+02  0.68839703973E+01 -0.15411150245E+03  0.16600187165E+03  0.15500000000E+01 0. -1.
         -4    1    3    3    0  501 -0.61290086099E+02 -0.68839703973E+01 -0.21681372891E+03  0.22542062737E+03  0.15500000000E+01 0. -1.
<mgrwt>
<rscale>  2 0.12500418E+03</rscale>
<asrwt>0</asrwt>
<pdfrwt beam="1">  1       21 0.15767129E-02 0.12500418E+03</pdfrwt>
<pdfrwt beam="2">  1       21 0.58642133E-01 0.12500418E+03</pdfrwt>
<totfact> 0.48610456E+06</totfact>
</mgrwt>
</event>
<event>
 5    0  0.1564103E+000  0.1250004E+03  0.7546771E-02  0.1235069E+00
         21   -1    0    0  503  502  0.00000000000E+00  0.00000000000E+00  0.86852663771E+02  0.86852663771E+02  0.00000000000E+00 0. -1.
         21   -1    0    0  502  503 -0.00000000000E+00 -0.00000000000E+00 -0.44975881482E+02  0.44975881482E+02  0.00000000000E+00 0. -1.
         25    2    1    2    0    0  0.00000000000E+00  0.00000000000E+00  0.41876782289E+02  0.13182854525E+03  0.12500040179E+03 0.  0.
          4    1    3    3  501    0 -0.43755236132E+01 -0.60977370927E+02  0.73305556842E+01  0.61591594545E+02  0.15500000000E+01 0.  1.
         -4    1    3    3    0  501  0.43755236132E+01  0.60977370927E+02  0.34546226605E+02  0.70236950707E+02  0.15500000000E+01 0.  1.
<mgrwt>
<rscale>  2 0.12500040E+03</rscale>
<asrwt>0</asrwt>
<pdfrwt beam="1">  1       21 0.13361948E-01 0.12500040E+03</pdfrwt>
<pdfrwt beam="2">  1       21 0.69193664E-02 0.12500040E+03</pdfrwt>
<totfact> 0.73118486E+06</totfact>
</mgrwt>
</event>
<event>
 5    0  0.1398105E+000  0.1249857E+03  0.7546771E-02  0.1235092E+00
         21   -1    0    0  503  502  0.00000000000E+00  0.00000000000E+00  0.13073882594E+02  0.13073882594E+02  0.00000000000E+00 0. -1.
         21   -1    0    0  502  503 -0.00000000000E+00 -0.00000000000E+00 -0.29871451298E+03  0.29871451298E+03  0.00000000000E+00 0. -1.
         25    2    1    2    0    0  0.00000000000E+00  0.00000000000E+00 -0.28564063039E+03  0.31178839558E+03  0.12498573474E+03 0.  0.
          4    1    3    3  501    0  0.15460936743E+02 -0.42650602363E+02 -0.24996707257E+03  0.25405521903E+03  0.15500000000E+01 0. -1.
         -4    1    3    3    0  501 -0.15460936743E+02  0.42650602363E+02 -0.35673557820E+02  0.57733176549E+02  0.15500000000E+01 0. -1.
<mgrwt>
<rscale>  2 0.12498573E+03</rscale>
<asrwt>0</asrwt>
<pdfrwt beam="1">  1       21 0.20113668E-02 0.12498573E+03</pdfrwt>
<pdfrwt beam="2">  1       21 0.45956073E-01 0.12498573E+03</pdfrwt>
<totfact> 0.54510045E+06</totfact>
</mgrwt>
</event>
<event>
 5    0  0.1222151E+000  0.1250038E+03  0.7546771E-02  0.1235063E+00
         21   -1    0    0  503  502  0.00000000000E+00  0.00000000000E+00  0.14376319826E+04  0.14376319826E+04  0.00000000000E+00 0. -1.
         21   -1    0    0  502  503 -0.00000000000E+00 -0.00000000000E+00 -0.27173085118E+01  0.27173085118E+01  0.00000000000E+00 0. -1.
         25    2    1    2    0    0  0.00000000000E+00  0.00000000000E+00  0.14349146741E+04  0.14403492911E+04  0.12500383391E+03 0.  0.
          4    1    3    3  501    0 -0.15999443046E+01 -0.62424839705E+02  0.69256595994E+03  0.69537718671E+03  0.15500000000E+01 0.  1.
         -4    1    3    3    0  501  0.15999443046E+01  0.62424839705E+02  0.74234871411E+03  0.74497210436E+03  0.15500000000E+01 0.  1.
<mgrwt>
<rscale>  2 0.12500383E+03</rscale>
<asrwt>0</asrwt>
<pdfrwt beam="1">  1       21 0.22117354E+00 0.12500383E+03</pdfrwt>
<pdfrwt beam="2">  1       21 0.41804861E-03 0.12500383E+03</pdfrwt>
<totfact> 0.14899580E+06</totfact>
</mgrwt>
</event>
<event>
 5    0  0.1536234E+000  0.1249945E+03  0.7546771E-02  0.1235078E+00
         21   -1    0    0  503  502  0.00000000000E+00  0.00000000000E+00  0.45937271563E+03  0.45937271563E+03  0.00000000000E+00 0. -1.
         21   -1    0    0  502  503 -0.00000000000E+00 -0.00000000000E+00 -0.85026993925E+01  0.85026993925E+01  0.00000000000E+00 0. -1.
         25    2    1    2    0    0  0.00000000000E+00  0.00000000000E+00  0.45087001624E+03  0.46787541502E+03  0.12499452964E+03 0.  0.
          4    1    3    3  501    0 -0.52097014929E+02 -0.33435772603E+00  0.96347568182E+02  0.10954207938E+03  0.15500000000E+01 0. -1.
         -4    1    3    3    0  501  0.52097014929E+02  0.33435772603E+00  0.35452244805E+03  0.35833333564E+03  0.15500000000E+01 0. -1.
<mgrwt>
<rscale>  2 0.12499453E+03</rscale>
<asrwt>0</asrwt>
<pdfrwt beam="1">  1       21 0.70672706E-01 0.12499453E+03</pdfrwt>
<pdfrwt beam="2">  1       21 0.13081080E-02 0.12499453E+03</pdfrwt>
<totfact> 0.43847596E+06</totfact>
</mgrwt>
</event>
<event>
 5    0  0.1308221E+000  0.1250040E+03  0.7546771E-02  0.1235063E+00
         21   -1    0    0  503  502  0.00000000000E+00  0.00000000000E+00  0.60041436873E+01  0.60041436873E+01  0.00000000000E+00 0. -1.
         21   -1    0    0  502  503 -0.00000000000E+00 -0.00000000000E+00 -0.65063404270E+03  0.65063404270E+03  0.00000000000E+00 0. -1.
         25    2    1    2    0    0  0.00000000000E+00  0.00000000000E+00 -0.64462989901E+03  0.65663818639E+03  0.12500400442E+03 0.  0.
          4    1    3    3  501    0 -0.15625453420E+02  0.59909294772E+02 -0.27810924800E+03  0.28492180457E+03  0.15500000000E+01 0. -1.
         -4    1    3    3    0  501  0.15625453420E+02 -0.59909294772E+02 -0.36652065101E+03  0.37171638181E+03  0.15500000000E+01 0. -1.
<mgrwt>
<rscale>  2 0.12500400E+03</rscale>
<asrwt>0</asrwt>
<pdfrwt beam="1">  1       21 0.92371389E-03 0.12500400E+03</pdfrwt>
<pdfrwt beam="2">  1       21 0.10009760E+00 0.12500400E+03</pdfrwt>
<totfact> 0.34646157E+06</totfact>
</mgrwt>
</event>
<event>
 5    0  0.1222151E+000  0.1250160E+03  0.7546771E-02  0.1235044E+00
         21   -1    0    0  503  502  0.00000000000E+00  0.00000000000E+00  0.14287344966E+04  0.14287344966E+04  0.00000000000E+00 0. -1.
         21   -1    0    0  502  503 -0.00000000000E+00 -0.00000000000E+00 -0.27347640021E+01  0.27347640021E+01  0.00000000000E+00 0. -1.
         25    2    1    2    0    0  0.00000000000E+00  0.00000000000E+00  0.14259997326E+04  0.14314692606E+04  0.12501602569E+03 0.  0.
          4    1    3    3  501    0  0.61494307084E+02 -0.34487771452E+00  0.58591694551E+03  0.58913728305E+03  0.15500000000E+01 0. -1.
         -4    1    3    3    0  501 -0.61494307084E+02  0.34487771452E+00  0.84008278704E+03  0.84233197751E+03  0.15500000000E+01 0. -1.
<mgrwt>
<rscale>  2 0.12501603E+03</rscale>
<asrwt>0</asrwt>
<pdfrwt beam="1">  1       21 0.21980471E+00 0.12501603E+03</pdfrwt>
<pdfrwt beam="2">  1       21 0.42073406E-03 0.12501603E+03</pdfrwt>
<totfact> 0.15034531E+06</totfact>
</mgrwt>
</event>
<event>
 5    0  0.1564763E+000  0.1250007E+03  0.7546771E-02  0.1235068E+00
         21   -1    0    0  503  502  0.00000000000E+00  0.00000000000E+00  0.14242354507E+03  0.14242354507E+03  0.00000000000E+00 0.  1.
         21   -1    0    0  502  503 -0.00000000000E+00 -0.00000000000E+00 -0.27427314550E+02  0.27427314550E+02  0.00000000000E+00 0.  1.
         25    2    1    2    0    0  0.00000000000E+00  0.00000000000E+00  0.11499623051E+03  0.16985085962E+03  0.12500072592E+03 0.  0.
          4    1    3    3  501    0  0.46812550408E+02 -0.39906980897E+02  0.72377483458E+02  0.94999392692E+02  0.15500000000E+01 0.  1.
         -4    1    3    3    0  501 -0.46812550408E+02  0.39906980897E+02  0.42618747056E+02  0.74851466924E+02  0.15500000000E+01 0.  1.
<mgrwt>
<rscale>  2 0.12500073E+03</rscale>
<asrwt>0</asrwt>
<pdfrwt beam="1">  1       21 0.21911314E-01 0.12500073E+03</pdfrwt>
<pdfrwt beam="2">  1       21 0.42195869E-02 0.12500073E+03</pdfrwt>
<totfact> 0.68334060E+06</totfact>
</mgrwt>
</event>
<event>
 5    0  0.1550289E+000  0.1249914E+03  0.7546771E-02  0.1235083E+00
         21   -1    0    0  503  502  0.00000000000E+00  0.00000000000E+00  0.58856803071E+02  0.58856803071E+02  0.00000000000E+00 0. -1.
         21   -1    0    0  502  503 -0.00000000000E+00 -0.00000000000E+00 -0.66359578111E+02  0.66359578111E+02  0.00000000000E+00 0. -1.
         25    2    1    2    0    0  0.00000000000E+00  0.00000000000E+00 -0.75027750395E+01  0.12521638118E+03  0.12499140164E+03 0.  0.
          4    1    3    3  501    0 -0.44387509753E+02 -0.43835011081E+02 -0.34660824923E+00  0.62404181397E+02  0.15500000000E+01 0.  1.
         -4    1    3    3    0  501  0.44387509753E+02  0.43835011081E+02 -0.71561667902E+01  0.62812199784E+02  0.15500000000E+01 0.  1.
<mgrwt>
<rscale>  2 0.12499140E+03</rscale>
<asrwt>0</asrwt>
<pdfrwt beam="1">  1       21 0.90548928E-02 0.12499140E+03</pdfrwt>
<pdfrwt beam="2">  1       21 0.10209166E-01 0.12499140E+03</pdfrwt>
<totfact> 0.74030632E+06</totfact>
</mgrwt>
</event>
<event>
 5    0  0.1554795E+000  0.1249988E+03  0.7546771E-02  0.1235071E+00
         21   -1    0    0  503  502  0.00000000000E+00  0.00000000000E+00  0.34608918733E+02  0.34608918733E+02  0.00000000000E+00 0. -1.
         21   -1    0    0  502  503 -0.00000000000E+00 -0.00000000000E+00 -0.11286617467E+03  0.11286617467E+03  0.00000000000E+00 0. -1.
         25    2    1    2    0    0  0.00000000000E+00  0.00000000000E+00 -0.78257255937E+02  0.14747509340E+03  0.12499882026E+03 0.  0.
          4    1    3    3  501    0  0.44588218147E+02 -0.16815728409E+02  0.85465154320E+01  0.48438861934E+02  0.15500000000E+01 0.  1.
         -4    1    3    3    0  501 -0.44588218147E+02  0.16815728409E+02 -0.86803771369E+02  0.99036231468E+02  0.15500000000E+01 0.  1.
<mgrwt>
<rscale>  2 0.12499882E+03</rscale>
<asrwt>0</asrwt>
<pdfrwt beam="1">  1       21 0.53244491E-02 0.12499882E+03</pdfrwt>
<pdfrwt beam="2">  1       21 0.17364027E-01 0.12499882E+03</pdfrwt>
<totfact> 0.71079970E+06</totfact>
</mgrwt>
</event>
<event>
 5    0  0.1399320E+000  0.1250115E+03  0.7546771E-02  0.1235051E+00
         21   -1    0    0  503  502  0.00000000000E+00  0.00000000000E+00  0.29178333182E+03  0.29178333182E+03  0.00000000000E+00 0. -1.
         21   -1    0    0  502  503 -0.00000000000E+00 -0.00000000000E+00 -0.13389958530E+02  0.13389958530E+02  0.00000000000E+00 0. -1.
         25    2    1    2    0    0  0.00000000000E+00  0.00000000000E+00  0.27839337329E+03  0.30517329035E+03  0.12501146688E+03 0.  0.
          4    1    3    3  501    0  0.12914929775E+02 -0.41853596223E+02  0.30406119088E+02  0.53342792445E+02  0.15500000000E+01 0. -1.
         -4    1    3    3    0  501 -0.12914929775E+02  0.41853596223E+02  0.24798725420E+03  0.25183049790E+03  0.15500000000E+01 0. -1.
<mgrwt>
<rscale>  2 0.12501147E+03</rscale>
<asrwt>0</asrwt>
<pdfrwt beam="1">  1       21 0.44889738E-01 0.12501147E+03</pdfrwt>
<pdfrwt beam="2">  1       21 0.20599938E-02 0.12501147E+03</pdfrwt>
<totfact> 0.55013130E+06</totfact>
</mgrwt>
</event>
<event>
 5    0  0.1503752E+000  0.1250009E+03  0.7546771E-02  0.1235068E+00
         21   -1    0    0  503  502  0.00000000000E+00  0.00000000000E+00  0.17083115197E+03  0.17083115197E+03  0.00000000000E+00 0.  1.
         21   -1    0    0  502  503 -0.00000000000E+00 -0.00000000000E+00 -0.22866475935E+02  0.22866475935E+02  0.00000000000E+00 0.  1.
         25    2    1    2    0    0  0.00000000000E+00  0.00000000000E+00  0.14796467603E+03  0.19369762790E+03  0.12500090280E+03 0.  0.
          4    1    3    3  501    0 -0.11960817638E+02 -0.46091153911E+02  0.13666714558E+03  0.14473343362E+03  0.15500000000E+01 0.  1.
         -4    1    3    3    0  501  0.11960817638E+02  0.46091153911E+02  0.11297530458E+02  0.48964194284E+02  0.15500000000E+01 0.  1.
<mgrwt>
<rscale>  2 0.12500090E+03</rscale>
<asrwt>0</asrwt>
<pdfrwt beam="1">  1       21 0.26281715E-01 0.12500090E+03</pdfrwt>
<pdfrwt beam="2">  1       21 0.35179195E-02 0.12500090E+03</pdfrwt>
<totfact> 0.65612345E+06</totfact>
</mgrwt>
</event>
<event>
 4    0  0.1566886E+000  0.1251621E+03  0.7546771E-02  0.1234816E+00
         21   -1    0    0  503  502  0.00000000000E+00  0.00000000000E+00  0.30281616366E+02  0.30281616366E+02  0.00000000000E+00 0. -1.
         21   -1    0    0  502  503 -0.00000000000E+00 -0.00000000000E+00 -0.12933209945E+03  0.12933209945E+03  0.00000000000E+00 0. -1.
          4    1    1    2  501    0 -0.18447943702E+02  0.59779837079E+02 -0.49315806342E+02  0.79676890019E+02  0.15500000000E+01 0.  1.
         -4    1    1    2    0  501  0.18447943702E+02 -0.59779837079E+02 -0.49734676746E+02  0.79936825800E+02  0.15500000000E+01 0.  1.
<mgrwt>
<rscale>  2 0.12516206E+03</rscale>
<asrwt>0</asrwt>
<pdfrwt beam="1">  1       21 0.46587102E-02 0.12516206E+03</pdfrwt>
<pdfrwt beam="2">  1       21 0.19897246E-01 0.12516206E+03</pdfrwt>
<totfact> 0.69280847E+06</totfact>
</mgrwt>
</event>
<event>
 5    0  0.1222151E+000  0.1250000E+03  0.7546771E-02  0.1235069E+00
         21   -1    0    0  503  502  0.00000000000E+00  0.00000000000E+00  0.73789541241E+03  0.73789541241E+03  0.00000000000E+00 0. -1.
         21   -1    0    0  502  503 -0.00000000000E+00 -0.00000000000E+00 -0.52937717175E+01  0.52937717175E+01  0.00000000000E+00 0. -1.
         25    2    1    2    0    0  0.00000000000E+00  0.00000000000E+00  0.73260164069E+03  0.74318918412E+03  0.12499999783E+03 0.  0.
          4    1    3    3  501    0  0.56062151969E+02  0.18990517592E+02  0.24735447650E+03  0.25434276909E+03  0.15500000000E+01 0. -1.
         -4    1    3    3    0  501 -0.56062151969E+02 -0.18990517592E+02  0.48524716419E+03  0.48884641504E+03  0.15500000000E+01 0. -1.
<mgrwt>
<rscale>  2 0.12500000E+03</rscale>
<asrwt>0</asrwt>
<pdfrwt beam="1">  1       21 0.11352229E+00 0.12500000E+03</pdfrwt>
<pdfrwt beam="2">  1       21 0.81442700E-03 0.12500000E+03</pdfrwt>
<totfact> 0.31309887E+06</totfact>
</mgrwt>
</event>
<event>
 5    0  0.1455384E+000  0.1250046E+03  0.7546771E-02  0.1235062E+00
         21   -1    0    0  503  502  0.00000000000E+00  0.00000000000E+00  0.18071108564E+03  0.18071108564E+03  0.00000000000E+00 0.  1.
         21   -1    0    0  502  503 -0.00000000000E+00 -0.00000000000E+00 -0.21617587255E+02  0.21617587255E+02  0.00000000000E+00 0.  1.
         25    2    1    2    0    0  0.00000000000E+00  0.00000000000E+00  0.15909349838E+03  0.20232867289E+03  0.12500460250E+03 0.  0.
          4    1    3    3  501    0 -0.35269531219E+02  0.40315390173E+02  0.13161502593E+03  0.14210625626E+03  0.15500000000E+01 0.  1.
         -4    1    3    3    0  501  0.35269531219E+02 -0.40315390173E+02  0.27478472455E+02  0.60222416637E+02  0.15500000000E+01 0.  1.
<mgrwt>
<rscale>  2 0.12500460E+03</rscale>
<asrwt>0</asrwt>
<pdfrwt beam="1">  1       21 0.27801704E-01 0.12500460E+03</pdfrwt>
<pdfrwt beam="2">  1       21 0.33257828E-02 0.12500460E+03</pdfrwt>
<totfact> 0.64668262E+06</totfact>
</mgrwt>
</event>
<event>
 5    0  0.1403708E+000  0.1250051E+03  0.7546771E-02  0.1235061E+00
         21   -1    0    0  503  502  0.00000000000E+00  0.00000000000E+00  0.17220470544E+03  0.17220470544E+03  0.00000000000E+00 0. -1.
         21   -1    0    0  502  503 -0.00000000000E+00 -0.00000000000E+00 -0.22685602175E+02  0.22685602175E+02  0.00000000000E+00 0. -1.
         25    2    1    2    0    0  0.00000000000E+00  0.00000000000E+00  0.14951910327E+03  0.19489030762E+03  0.12500507894E+03 0.  0.
          4    1    3    3  501    0 -0.16792579095E+02  0.39117007382E+02  0.34501244895E+01  0.42736832336E+02  0.15500000000E+01 0.  1.
         -4    1    3    3    0  501  0.16792579095E+02 -0.39117007382E+02  0.14606897878E+03  0.15215347528E+03  0.15500000000E+01 0.  1.
<mgrwt>
<rscale>  2 0.12500508E+03</rscale>
<asrwt>0</asrwt>
<pdfrwt beam="1">  1       21 0.26493031E-01 0.12500508E+03</pdfrwt>
<pdfrwt beam="2">  1       21 0.34900927E-02 0.12500508E+03</pdfrwt>
<totfact> 0.65474606E+06</totfact>
</mgrwt>
</event>
<event>
 5    0  0.1505287E+000  0.1250019E+03  0.7546771E-02  0.1235066E+00
         21   -1    0    0  503  502  0.00000000000E+00  0.00000000000E+00  0.11001919785E+03  0.11001919785E+03  0.00000000000E+00 0.  1.
         21   -1    0    0  502  503 -0.00000000000E+00 -0.00000000000E+00 -0.35506222831E+02  0.35506222831E+02  0.00000000000E+00 0.  1.
         25    2    1    2    0    0  0.00000000000E+00  0.00000000000E+00  0.74512975020E+02  0.14552542068E+03  0.12500185846E+03 0.  0.
          4    1    3    3  501    0  0.25236106128E+02  0.54910463554E+02  0.18777675215E+02  0.63301055652E+02  0.15500000000E+01 0.  1.
         -4    1    3    3    0  501 -0.25236106128E+02 -0.54910463554E+02  0.55735299805E+02  0.82224365029E+02  0.15500000000E+01 0.  1.
<mgrwt>
<rscale>  2 0.12500186E+03</rscale>
<asrwt>0</asrwt>
<pdfrwt beam="1">  1       21 0.16926030E-01 0.12500186E+03</pdfrwt>
<pdfrwt beam="2">  1       21 0.54624959E-02 0.12500186E+03</pdfrwt>
<totfact> 0.71322550E+06</totfact>
</mgrwt>
</event>
<event>
 5    0  0.1302678E+000  0.1249981E+03  0.7546771E-02  0.1235072E+00
         21   -1    0    0  503  502  0.00000000000E+00  0.00000000000E+00  0.55870929973E+03  0.55870929973E+03  0.00000000000E+00 0. -1.
         21   -1    0    0  502  503 -0.00000000000E+00 -0.00000000000E+00 -0.69913451241E+01  0.69913451241E+01  0.00000000000E+00 0. -1.
         25    2    1    2    0    0  0.00000000000E+00  0.00000000000E+00  0.55171795461E+03  0.56570064486E+03  0.12499807260E+03 0.  0.
          4    1    3    3  501    0 -0.52585342103E+01  0.35351516544E+02  0.43927734096E+02  0.56651833393E+02  0.15500000000E+01 0. -1.
         -4    1    3    3    0  501  0.52585342103E+01 -0.35351516544E+02  0.50779022051E+03  0.50904881146E+03  0.15500000000E+01 0. -1.
<mgrwt>
<rscale>  2 0.12499807E+03</rscale>
<asrwt>0</asrwt>
<pdfrwt beam="1">  1       21 0.85955242E-01 0.12499807E+03</pdfrwt>
<pdfrwt beam="2">  1       21 0.10755920E-02 0.12499807E+03</pdfrwt>
<totfact> 0.38693051E+06</totfact>
</mgrwt>
</event>
<event>
 5    0  0.1272547E+000  0.1249994E+03  0.7546771E-02  0.1235070E+00
         21   -1    0    0  503  502  0.00000000000E+00  0.00000000000E+00  0.63937558966E+01  0.63937558966E+01  0.00000000000E+00 0.  1.
         21   -1    0    0  502  503 -0.00000000000E+00 -0.00000000000E+00 -0.61094158344E+03  0.61094158344E+03  0.00000000000E+00 0.  1.
         25    2    1    2    0    0  0.00000000000E+00  0.00000000000E+00 -0.60454782754E+03  0.61733533934E+03  0.12499938162E+03 0.  0.
          4    1    3    3  501    0 -0.28552417881E+02  0.54023496203E+02 -0.36667248530E+03  0.37173228631E+03  0.15500000000E+01 0. -1.
         -4    1    3    3    0  501  0.28552417881E+02 -0.54023496203E+02 -0.23787534225E+03  0.24560305303E+03  0.15500000000E+01 0. -1.
<mgrwt>
<rscale>  2 0.12499938E+03</rscale>
<asrwt>0</asrwt>
<pdfrwt beam="1">  1       21 0.98365425E-03 0.12499938E+03</pdfrwt>
<pdfrwt beam="2">  1       21 0.93991061E-01 0.12499938E+03</pdfrwt>
<totfact> 0.36320759E+06</totfact>
</mgrwt>
</event>
<event>
 5    0  0.1222151E+000  0.1249954E+03  0.7546771E-02  0.1235076E+00
         21   -1    0    0  503  502  0.00000000000E+00  0.00000000000E+00  0.48159440369E+01  0.48159440369E+01  0.00000000000E+00 0. -1.
         21   -1    0    0  502  503 -0.00000000000E+00 -0.00000000000E+00 -0.81104815629E+03  0.81104815629E+03  0.00000000000E+00 0. -1.
         25    2    1    2    0    0  0.00000000000E+00  0.00000000000E+00 -0.80623221225E+03  0.81586410033E+03  0.12499540043E+03 0.  0.
          4    1    3    3  501    0  0.59663596682E+02 -0.16742870346E+02 -0.45512549791E+03  0.45932743204E+03  0.15500000000E+01 0.  1.
         -4    1    3    3    0  501 -0.59663596682E+02  0.16742870346E+02 -0.35110671434E+03  0.35653666829E+03  0.15500000000E+01 0.  1.
<mgrwt>
<rscale>  2 0.12499540E+03</rscale>
<asrwt>0</asrwt>
<pdfrwt beam="1">  1       21 0.74091440E-03 0.12499540E+03</pdfrwt>
<pdfrwt beam="2">  1       21 0.12477665E+00 0.12499540E+03</pdfrwt>
<totfact> 0.28847183E+06</totfact>
</mgrwt>
</event>
<event>
 5    0  0.1292543E+000  0.1249956E+03  0.7546771E-02  0.1235076E+00
         21   -1    0    0  503  502  0.00000000000E+00  0.00000000000E+00  0.55699870743E+03  0.55699870743E+03  0.00000000000E+00 0. -1.
         21   -1    0    0  502  503 -0.00000000000E+00 -0.00000000000E+00 -0.70125337138E+01  0.70125337138E+01  0.00000000000E+00 0. -1.
         25    2    1    2    0    0  0.00000000000E+00  0.00000000000E+00  0.54998617371E+03  0.56401124114E+03  0.12499555535E+03 0.  0.
          4    1    3    3  501    0 -0.37979967024E+02 -0.22840213160E+02  0.47370720808E+03  0.47577838824E+03  0.15500000000E+01 0.  1.
         -4    1    3    3    0  501  0.37979967024E+02  0.22840213160E+02  0.76278965632E+02  0.88232852897E+02  0.15500000000E+01 0.  1.
<mgrwt>
<rscale>  2 0.12499556E+03</rscale>
<asrwt>0</asrwt>
<pdfrwt beam="1">  1       21 0.85692074E-01 0.12499556E+03</pdfrwt>
<pdfrwt beam="2">  1       21 0.10788518E-02 0.12499556E+03</pdfrwt>
<totfact> 0.38776751E+06</totfact>
</mgrwt>
</event>
<event>
 5    0  0.1495740E+000  0.1250007E+03  0.7546771E-02  0.1235068E+00
         21   -1    0    0  503  502  0.00000000000E+00  0.00000000000E+00  0.54057015583E+02  0.54057015583E+02  0.00000000000E+00 0. -1.
         21   -1    0    0  502  503 -0.00000000000E+00 -0.00000000000E+00 -0.72262489624E+02  0.72262489624E+02  0.00000000000E+00 0. -1.
         25    2    1    2    0    0  0.00000000000E+00  0.00000000000E+00 -0.18205474040E+02  0.12631950521E+03  0.12500071244E+03 0.  0.
          4    1    3    3  501    0  0.44908907387E+02 -0.14492581344E+02 -0.50486555853E+02  0.69124089134E+02  0.15500000000E+01 0. -1.
         -4    1    3    3    0  501 -0.44908907387E+02  0.14492581344E+02  0.32281081813E+02  0.57195416073E+02  0.15500000000E+01 0. -1.
<mgrwt>
<rscale>  2 0.12500071E+03</rscale>
<asrwt>0</asrwt>
<pdfrwt beam="1">  1       21 0.83164640E-02 0.12500071E+03</pdfrwt>
<pdfrwt beam="2">  1       21 0.11117306E-01 0.12500071E+03</pdfrwt>
<totfact> 0.73860760E+06</totfact>
</mgrwt>
</event>
<event>
 5    0  0.1477739E+000  0.1249912E+03  0.7546771E-02  0.1235083E+00
         21   -1    0    0  503  502  0.00000000000E+00  0.00000000000E+00  0.20402872240E+02  0.20402872240E+02  0.00000000000E+00 0.  1.
         21   -1    0    0  502  503 -0.00000000000E+00 -0.00000000000E+00 -0.19142897981E+03  0.19142897981E+03  0.00000000000E+00 0.  1.
         25    2    1    2    0    0  0.00000000000E+00  0.00000000000E+00 -0.17102610757E+03  0.21183185205E+03  0.12499121598E+03 0.  0.
          4    1    3    3  501    0  0.58719187652E+02 -0.17947484856E+02 -0.65950098087E+02  0.90121435569E+02  0.15500000000E+01 0. -1.
         -4    1    3    3    0  501 -0.58719187652E+02  0.17947484856E+02 -0.10507600949E+03  0.12171041648E+03  0.15500000000E+01 0. -1.
<mgrwt>
<rscale>  2 0.12499122E+03</rscale>
<asrwt>0</asrwt>
<pdfrwt beam="1">  1       21 0.31389035E-02 0.12499122E+03</pdfrwt>
<pdfrwt beam="2">  1       21 0.29450612E-01 0.12499122E+03</pdfrwt>
<totfact> 0.63681464E+06</totfact>
</mgrwt>
</event>
<event>
 5    0  0.1421217E+000  0.1250013E+03  0.7546771E-02  0.1235067E+00
         21   -1    0    0  503  502  0.00000000000E+00  0.00000000000E+00  0.15511739297E+02  0.15511739297E+02  0.00000000000E+00 0. -1.
         21   -1    0    0  502  503 -0.00000000000E+00 -0.00000000000E+00 -0.25183045258E+03  0.25183045258E+03  0.00000000000E+00 0. -1.
         25    2    1    2    0    0  0.00000000000E+00  0.00000000000E+00 -0.23631871328E+03  0.26734219188E+03  0.12500125323E+03 0.  0.
          4    1    3    3  501    0  0.45223101101E+02 -0.94547857778E+01 -0.20812291755E+03  0.21319491822E+03  0.15500000000E+01 0.  1.
         -4    1    3    3    0  501 -0.45223101101E+02  0.94547857778E+01 -0.28195795738E+02  0.54147273657E+02  0.15500000000E+01 0.  1.
<mgrwt>
<rscale>  2 0.12500125E+03</rscale>
<asrwt>0</asrwt>
<pdfrwt beam="1">  1       21 0.23864217E-02 0.12500125E+03</pdfrwt>
<pdfrwt beam="2">  1       21 0.38743142E-01 0.12500125E+03</pdfrwt>
<totfact> 0.58280951E+06</totfact>
</mgrwt>
</event>
<event>
 5    0  0.1531485E+000  0.1250008E+03  0.7546771E-02  0.1235068E+00
         21   -1    0    0  503  502  0.00000000000E+00  0.00000000000E+00  0.55954724300E+02  0.55954724300E+02  0.00000000000E+00 0. -1.
         21   -1    0    0  502  503 -0.00000000000E+00 -0.00000000000E+00 -0.69811837285E+02  0.69811837285E+02  0.00000000000E+00 0. -1.
         25    2    1    2    0    0  0.00000000000E+00  0.00000000000E+00 -0.13857112985E+02  0.12576656158E+03  0.12500083373E+03 0.  0.
          4    1    3    3  501    0  0.24997965301E+01 -0.44911462190E+02  0.36703108478E+02  0.58075890787E+02  0.15500000000E+01 0. -1.
         -4    1    3    3    0  501 -0.24997965301E+01  0.44911462190E+02 -0.50560221463E+02  0.67690670798E+02  0.15500000000E+01 0. -1.
<mgrwt>
<rscale>  2 0.12500083E+03</rscale>
<asrwt>0</asrwt>
<pdfrwt beam="1">  1       21 0.86084192E-02 0.12500083E+03</pdfrwt>
<pdfrwt beam="2">  1       21 0.10740283E-01 0.12500083E+03</pdfrwt>
<totfact> 0.73936732E+06</totfact>
</mgrwt>
</event>
<event>
 5    0  0.1422161E+000  0.1250006E+03  0.7546771E-02  0.1235068E+00
         21   -1    0    0  503  502  0.00000000000E+00  0.00000000000E+00  0.48675133254E+02  0.48675133254E+02  0.00000000000E+00 0.  1.
         21   -1    0    0  502  503 -0.00000000000E+00 -0.00000000000E+00 -0.80252201968E+02  0.80252201968E+02  0.00000000000E+00 0.  1.
         25    2    1    2    0    0  0.00000000000E+00  0.00000000000E+00 -0.31577068714E+02  0.12892733522E+03  0.12500058599E+03 0.  0.
          4    1    3    3  501    0 -0.11203074409E+02  0.25912257411E+02  0.41702312135E+02  0.50382926649E+02  0.15500000000E+01 0.  1.
         -4    1    3    3    0  501  0.11203074409E+02 -0.25912257411E+02 -0.73279380849E+02  0.78544408572E+02  0.15500000000E+01 0.  1.
<mgrwt>
<rscale>  2 0.12500059E+03</rscale>
<asrwt>0</asrwt>
<pdfrwt beam="1">  1       21 0.74884821E-02 0.12500059E+03</pdfrwt>
<pdfrwt beam="2">  1       21 0.12346493E-01 0.12500059E+03</pdfrwt>
<totfact> 0.73507542E+06</totfact>
</mgrwt>
</event>
<event>
 5    0  0.1222151E+000  0.1250089E+03  0.7546771E-02  0.1235055E+00
         21   -1    0    0  503  502  0.00000000000E+00  0.00000000000E+00  0.29276968492E+03  0.29276968492E+03  0.00000000000E+00 0.  1.
         21   -1    0    0  502  503 -0.00000000000E+00 -0.00000000000E+00 -0.13344301982E+02  0.13344301982E+02  0.00000000000E+00 0.  1.
         25    2    1    2    0    0  0.00000000000E+00  0.00000000000E+00  0.27942538294E+03  0.30611398690E+03  0.12500891307E+03 0.  0.
          4    1    3    3  501    0 -0.26192875612E+01  0.24436936456E+02  0.28039003919E+03  0.28146936087E+03  0.15500000000E+01 0. -1.
         -4    1    3    3    0  501  0.26192875612E+01 -0.24436936456E+02 -0.96465625177E+00  0.24644626035E+02  0.15500000000E+01 0. -1.
<mgrwt>
<rscale>  2 0.12500891E+03</rscale>
<asrwt>0</asrwt>
<pdfrwt beam="1">  1       21 0.45041485E-01 0.12500891E+03</pdfrwt>
<pdfrwt beam="2">  1       21 0.20529698E-02 0.12500891E+03</pdfrwt>
<totfact> 0.54939577E+06</totfact>
</mgrwt>
</event>
<event>
 5    0  0.1250066E+000  0.1250059E+03  0.7546771E-02  0.1235060E+00
         21   -1    0    0  503  502  0.00000000000E+00  0.00000000000E+00  0.78090118056E+01  0.78090118056E+01  0.00000000000E+00 0. -1.
         21   -1    0    0  502  503 -0.00000000000E+00 -0.00000000000E+00 -0.50027034024E+03  0.50027034024E+03  0.00000000000E+00 0. -1.
         25    2    1    2    0    0  0.00000000000E+00  0.00000000000E+00 -0.49246132843E+03  0.50807935204E+03  0.12500587175E+03 0.  0.
          4    1    3    3  501    0  0.16336136378E+02  0.38267211859E+02 -0.43569503946E+03  0.43768004154E+03  0.15500000000E+01 0.  1.
         -4    1    3    3    0  501 -0.16336136378E+02 -0.38267211859E+02 -0.56766288972E+02  0.70399310500E+02  0.15500000000E+01 0.  1.
<mgrwt>
<rscale>  2 0.12500587E+03</rscale>
<asrwt>0</asrwt>
<pdfrwt beam="1">  1       21 0.12013865E-02 0.12500587E+03</pdfrwt>
<pdfrwt beam="2">  1       21 0.76964661E-01 0.12500587E+03</pdfrwt>
<totfact> 0.41603192E+06</totfact>
</mgrwt>
</event>
<event>
 5    0  0.1222151E+000  0.1250004E+03  0.7546771E-02  0.1235069E+00
         21   -1    0    0  503  502  0.00000000000E+00  0.00000000000E+00  0.63266226261E+03  0.63266226261E+03  0.00000000000E+00 0. -1.
         21   -1    0    0  502  503 -0.00000000000E+00 -0.00000000000E+00 -0.61743464905E+01  0.61743464905E+01  0.00000000000E+00 0. -1.
         25    2    1    2    0    0  0.00000000000E+00  0.00000000000E+00  0.62648791612E+03  0.63883660910E+03  0.12500041633E+03 0.  0.
          4    1    3    3  501    0 -0.19923945187E+02 -0.59458297716E+01  0.61436457313E+03  0.61471826694E+03  0.15500000000E+01 0.  1.
         -4    1    3    3    0  501  0.19923945187E+02  0.59458297716E+01  0.12123342982E+02  0.24118342160E+02  0.15500000000E+01 0.  1.
<mgrwt>
<rscale>  2 0.12500042E+03</rscale>
<asrwt>0</asrwt>
<pdfrwt beam="1">  1       21 0.97332605E-01 0.12500042E+03</pdfrwt>
<pdfrwt beam="2">  1       21 0.94989996E-03 0.12500042E+03</pdfrwt>
<totfact> 0.35392763E+06</totfact>
</mgrwt>
</event>
<event>
 5    0  0.1222151E+000  0.1249991E+03  0.7546771E-02  0.1235071E+00
         21   -1    0    0  503  502  0.00000000000E+00  0.00000000000E+00  0.85675196447E+03  0.85675196447E+03  0.00000000000E+00 0.  1.
         21   -1    0    0  502  503 -0.00000000000E+00 -0.00000000000E+00 -0.45593089177E+01  0.45593089177E+01  0.00000000000E+00 0.  1.
         25    2    1    2    0    0  0.00000000000E+00  0.00000000000E+00  0.85219265555E+03  0.86131127338E+03  0.12499914995E+03 0.  0.
          4    1    3    3  501    0 -0.19967355078E+02  0.57945656111E+02  0.50975324832E+03  0.51342688963E+03  0.15500000000E+01 0.  1.
         -4    1    3    3    0  501  0.19967355078E+02 -0.57945656111E+02  0.34243940723E+03  0.34788438375E+03  0.15500000000E+01 0.  1.
<mgrwt>
<rscale>  2 0.12499915E+03</rscale>
<asrwt>0</asrwt>
<pdfrwt beam="1">  1       21 0.13180787E+00 0.12499915E+03</pdfrwt>
<pdfrwt beam="2">  1       21 0.70143282E-03 0.12499915E+03</pdfrwt>
<totfact> 0.27429866E+06</totfact>
</mgrwt>
</event>
<event>
 5    0  0.1548586E+000  0.1250014E+03  0.7546771E-02  0.1235067E+00
         21   -1    0    0  503  502  0.00000000000E+00  0.00000000000E+00  0.23419320375E+02  0.23419320375E+02  0.00000000000E+00 0. -1.
         21   -1    0    0  502  503 -0.00000000000E+00 -0.00000000000E+00 -0.16679980509E+03  0.16679980509E+03  0.00000000000E+00 0. -1.
         25    2    1    2    0    0  0.00000000000E+00  0.00000000000E+00 -0.14338048472E+03  0.19021912547E+03  0.12500140917E+03 0.  0.
          4    1    3    3  501    0 -0.49329832601E+02 -0.93132770451E+01 -0.12829730358E+03  0.13777797400E+03  0.15500000000E+01 0.  1.
         -4    1    3    3    0  501  0.49329832601E+02  0.93132770451E+01 -0.15083181134E+02  0.52441151464E+02  0.15500000000E+01 0.  1.
<mgrwt>
<rscale>  2 0.12500141E+03</rscale>
<asrwt>0</asrwt>
<pdfrwt beam="1">  1       21 0.36029726E-02 0.12500141E+03</pdfrwt>
<pdfrwt beam="2">  1       21 0.25661507E-01 0.12500141E+03</pdfrwt>
<totfact> 0.65995763E+06</totfact>
</mgrwt>
</event>
<event>
 5    0  0.1424197E+000  0.1249905E+03  0.7546771E-02  0.1235084E+00
         21   -1    0    0  503  502  0.00000000000E+00  0.00000000000E+00  0.45038627478E+03  0.45038627478E+03  0.00000000000E+00 0. -1.
         21   -1    0    0  502  503 -0.00000000000E+00 -0.00000000000E+00 -0.86717885896E+01  0.86717885896E+01  0.00000000000E+00 0. -1.
         25    2    1    2    0    0  0.00000000000E+00  0.00000000000E+00  0.44171448619E+03  0.45905806337E+03  0.12499047257E+03 0.  0.
          4    1    3    3  501    0 -0.56730671935E+02 -0.14457219422E+02  0.30097626919E+03  0.30662109753E+03  0.15500000000E+01 0.  1.
         -4    1    3    3    0  501  0.56730671935E+02  0.14457219422E+02  0.14073821700E+03  0.15243696584E+03  0.15500000000E+01 0.  1.
<mgrwt>
<rscale>  2 0.12499047E+03</rscale>
<asrwt>0</asrwt>
<pdfrwt beam="1">  1       21 0.69290178E-01 0.12499047E+03</pdfrwt>
<pdfrwt beam="2">  1       21 0.13341217E-02 0.12499047E+03</pdfrwt>
<totfact> 0.44365713E+06</totfact>
</mgrwt>
</event>
<event>
 5    0  0.1444009E+000  0.1250022E+03  0.7546771E-02  0.1235066E+00
         21   -1    0    0  503  502  0.00000000000E+00  0.00000000000E+00  0.34055764927E+03  0.34055764927E+03  0.00000000000E+00 0.  1.
         21   -1    0    0  502  503 -0.00000000000E+00 -0.00000000000E+00 -0.11470556682E+02  0.11470556682E+02  0.00000000000E+00 0.  1.
         25    2    1    2    0    0  0.00000000000E+00  0.00000000000E+00  0.32908709259E+03  0.35202820595E+03  0.12500217309E+03 0.  0.
          4    1    3    3  501    0  0.36973767693E+01  0.57334708482E+02  0.95386828450E+02  0.11136421747E+03  0.15500000000E+01 0.  1.
         -4    1    3    3    0  501 -0.36973767693E+01 -0.57334708482E+02  0.23370026414E+03  0.24066398848E+03  0.15500000000E+01 0.  1.
<mgrwt>
<rscale>  2 0.12500217E+03</rscale>
<asrwt>0</asrwt>
<pdfrwt beam="1">  1       21 0.52393477E-01 0.12500217E+03</pdfrwt>
<pdfrwt beam="2">  1       21 0.17647013E-02 0.12500217E+03</pdfrwt>
<totfact> 0.51386198E+06</totfact>
</mgrwt>
</event>
<event>
 5    0  0.1528100E+000  0.1250026E+03  0.7546771E-02  0.1235065E+00
         21   -1    0    0  503  502  0.00000000000E+00  0.00000000000E+00  0.10423671825E+03  0.10423671825E+03  0.00000000000E+00 0.  1.
         21   -1    0    0  502  503 -0.00000000000E+00 -0.00000000000E+00 -0.37476357002E+02  0.37476357002E+02  0.00000000000E+00 0.  1.
         25    2    1    2    0    0  0.00000000000E+00  0.00000000000E+00  0.66760361250E+02  0.14171307525E+03  0.12500259943E+03 0.  0.
          4    1    3    3  501    0 -0.14109792924E+02 -0.56172365311E+02  0.68029375912E+01  0.58336123807E+02  0.15500000000E+01 0.  1.
         -4    1    3    3    0  501  0.14109792924E+02  0.56172365311E+02  0.59957423658E+02  0.83376951448E+02  0.15500000000E+01 0.  1.
<mgrwt>
<rscale>  2 0.12500260E+03</rscale>
<asrwt>0</asrwt>
<pdfrwt beam="1">  1       21 0.16036418E-01 0.12500260E+03</pdfrwt>
<pdfrwt beam="2">  1       21 0.57655934E-02 0.12500260E+03</pdfrwt>
<totfact> 0.71811697E+06</totfact>
</mgrwt>
</event>
<event>
 5    0  0.1470706E+000  0.1249978E+03  0.7546771E-02  0.1235073E+00
         21   -1    0    0  503  502  0.00000000000E+00  0.00000000000E+00  0.11379557632E+03  0.11379557632E+03  0.00000000000E+00 0.  1.
         21   -1    0    0  502  503 -0.00000000000E+00 -0.00000000000E+00 -0.34325716859E+02  0.34325716859E+02  0.00000000000E+00 0.  1.
         25    2    1    2    0    0  0.00000000000E+00  0.00000000000E+00  0.79469859459E+02  0.14812129318E+03  0.12499783570E+03 0.  0.
          4    1    3    3  501    0 -0.10372204182E+02 -0.26326114910E+02  0.10574503998E+03  0.10947631217E+03  0.15500000000E+01 0.  1.
         -4    1    3    3    0  501  0.10372204182E+02  0.26326114910E+02 -0.26275180520E+02  0.38644981009E+02  0.15500000000E+01 0.  1.
<mgrwt>
<rscale>  2 0.12499784E+03</rscale>
<asrwt>0</asrwt>
<pdfrwt beam="1">  1       21 0.17507012E-01 0.12499784E+03</pdfrwt>
<pdfrwt beam="2">  1       21 0.52808796E-02 0.12499784E+03</pdfrwt>
<totfact> 0.70999918E+06</totfact>
</mgrwt>
</event>
<event>
 5    0  0.1393916E+000  0.1250024E+03  0.7546771E-02  0.1235066E+00
         21   -1    0    0  503  502  0.00000000000E+00  0.00000000000E+00  0.18487801767E+02  0.18487801767E+02  0.00000000000E+00 0. -1.
         21   -1    0    0  502  503 -0.00000000000E+00 -0.00000000000E+00 -0.21129612062E+03  0.21129612062E+03  0.00000000000E+00 0. -1.
         25    2    1    2    0    0  0.00000000000E+00  0.00000000000E+00 -0.19280831885E+03  0.22978392238E+03  0.12500241265E+03 0.  0.
          4    1    3    3  501    0  0.27769683637E+02  0.35238748984E+01 -0.19908942631E+03  0.20105366247E+03  0.15500000000E+01 0. -1.
         -4    1    3    3    0  501 -0.27769683637E+02 -0.35238748984E+01  0.62811074649E+01  0.28730259911E+02  0.15500000000E+01 0. -1.
<mgrwt>
<rscale>  2 0.12500241E+03</rscale>
<asrwt>0</asrwt>
<pdfrwt beam="1">  1       21 0.28442771E-02 0.12500241E+03</pdfrwt>
<pdfrwt beam="2">  1       21 0.32507097E-01 0.12500241E+03</pdfrwt>
<totfact> 0.61831722E+06</totfact>
</mgrwt>
</event>
<event>
 5    0  0.1222151E+000  0.1250289E+03  0.7546771E-02  0.1235024E+00
         21   -1    0    0  503  502  0.00000000000E+00  0.00000000000E+00  0.13275537007E+04  0.13275537007E+04  0.00000000000E+00 0.  1.
         21   -1    0    0  502  503 -0.00000000000E+00 -0.00000000000E+00 -0.29438050933E+01  0.29438050933E+01  0.00000000000E+00 0.  1.
         25    2    1    2    0    0  0.00000000000E+00  0.00000000000E+00  0.13246098956E+04  0.13304975058E+04  0.12502894618E+03 0.  0.
          4    1    3    3  501    0  0.25646116515E+02  0.36178486947E+02  0.19370949583E+03  0.19872689170E+03  0.15500000000E+01 0. -1.
         -4    1    3    3    0  501 -0.25646116515E+02 -0.36178486947E+02  0.11309003997E+04  0.11317706141E+04  0.15500000000E+01 0. -1.
<mgrwt>
<rscale>  2 0.12502895E+03</rscale>
<asrwt>0</asrwt>
<pdfrwt beam="1">  1       21 0.20423855E+00 0.12502895E+03</pdfrwt>
<pdfrwt beam="2">  1       21 0.45289415E-03 0.12502895E+03</pdfrwt>
<totfact> 0.16701554E+06</totfact>
</mgrwt>
</event>
<event>
 5    0  0.1222151E+000  0.1249990E+03  0.7546771E-02  0.1235071E+00
         21   -1    0    0  503  502  0.00000000000E+00  0.00000000000E+00  0.25314651425E+04  0.25314651425E+04  0.00000000000E+00 0.  1.
         21   -1    0    0  502  503 -0.00000000000E+00 -0.00000000000E+00 -0.15430545657E+01  0.15430545657E+01  0.00000000000E+00 0.  1.
         25    2    1    2    0    0  0.00000000000E+00  0.00000000000E+00  0.25299220879E+04  0.25330081970E+04  0.12499902153E+03 0.  0.
          4    1    3    3  501    0 -0.34330311892E+02  0.15167850577E+02  0.25273265129E+03  0.25550896175E+03  0.15500000000E+01 0. -1.
         -4    1    3    3    0  501  0.34330311892E+02 -0.15167850577E+02  0.22771894366E+04  0.22774992353E+04  0.15500000000E+01 0. -1.
<mgrwt>
<rscale>  2 0.12499902E+03</rscale>
<asrwt>0</asrwt>
<pdfrwt beam="1">  1       21 0.38945285E+00 0.12499902E+03</pdfrwt>
<pdfrwt beam="2">  1       21 0.23739504E-03 0.12499902E+03</pdfrwt>
<totfact> 0.38251188E+05</totfact>
</mgrwt>
</event>
<event>
 5    0  0.1234506E+000  0.1249960E+03  0.7546771E-02  0.1235076E+00
         21   -1    0    0  503  502  0.00000000000E+00  0.00000000000E+00  0.54700636110E+01  0.54700636110E+01  0.00000000000E+00 0.  1.
         21   -1    0    0  502  503 -0.00000000000E+00 -0.00000000000E+00 -0.71406802819E+03  0.71406802819E+03  0.00000000000E+00 0.  1.
         25    2    1    2    0    0  0.00000000000E+00  0.00000000000E+00 -0.70859796458E+03  0.71953809180E+03  0.12499596052E+03 0.  0.
          4    1    3    3  501    0  0.21084275690E+02  0.58192950090E+02 -0.40335729315E+03  0.40808145579E+03  0.15500000000E+01 0.  1.
         -4    1    3    3    0  501 -0.21084275690E+02 -0.58192950090E+02 -0.30524067143E+03  0.31145663601E+03  0.15500000000E+01 0.  1.
<mgrwt>
<rscale>  2 0.12499596E+03</rscale>
<asrwt>0</asrwt>
<pdfrwt beam="1">  1       21 0.84154866E-03 0.12499596E+03</pdfrwt>
<pdfrwt beam="2">  1       21 0.10985657E+00 0.12499596E+03</pdfrwt>
<totfact> 0.32173596E+06</totfact>
</mgrwt>
</event>
<event>
 5    0  0.1222151E+000  0.1250053E+03  0.7546771E-02  0.1235061E+00
         21   -1    0    0  503  502  0.00000000000E+00  0.00000000000E+00  0.11408159191E+04  0.11408159191E+04  0.00000000000E+00 0. -1.
         21   -1    0    0  502  503 -0.00000000000E+00 -0.00000000000E+00 -0.34243755855E+01  0.34243755855E+01  0.00000000000E+00 0. -1.
         25    2    1    2    0    0  0.00000000000E+00  0.00000000000E+00  0.11373915435E+04  0.11442402947E+04  0.12500531478E+03 0.  0.
          4    1    3    3  501    0  0.53182367275E+01  0.59815689783E+02  0.41068677943E+03  0.41505690415E+03  0.15500000000E+01 0.  1.
         -4    1    3    3    0  501 -0.53182367275E+01 -0.59815689783E+02  0.72670476411E+03  0.72918339055E+03  0.15500000000E+01 0.  1.
<mgrwt>
<rscale>  2 0.12500531E+03</rscale>
<asrwt>0</asrwt>
<pdfrwt beam="1">  1       21 0.17550984E+00 0.12500531E+03</pdfrwt>
<pdfrwt beam="2">  1       21 0.52682792E-03 0.12500531E+03</pdfrwt>
<totfact> 0.20288558E+06</totfact>
</mgrwt>
</event>
<event>
 5    0  0.1416523E+000  0.1249908E+03  0.7546771E-02  0.1235084E+00
         21   -1    0    0  503  502  0.00000000000E+00  0.00000000000E+00  0.10853120972E+03  0.10853120972E+03  0.00000000000E+00 0.  1.
         21   -1    0    0  502  503 -0.00000000000E+00 -0.00000000000E+00 -0.35986657130E+02  0.35986657130E+02  0.00000000000E+00 0.  1.
         25    2    1    2    0    0  0.00000000000E+00  0.00000000000E+00  0.72544552591E+02  0.14451786685E+03  0.12499080658E+03 0.  0.
          4    1    3    3  501    0  0.37108760915E+02  0.21431520381E+02 -0.16293549489E+02  0.45872131599E+02  0.15500000000E+01 0.  1.
         -4    1    3    3    0  501 -0.37108760915E+02 -0.21431520381E+02  0.88838102080E+02  0.98645735253E+02  0.15500000000E+01 0.  1.
<mgrwt>
<rscale>  2 0.12499081E+03</rscale>
<asrwt>0</asrwt>
<pdfrwt beam="1">  1       21 0.16697109E-01 0.12499081E+03</pdfrwt>
<pdfrwt beam="2">  1       21 0.55364088E-02 0.12499081E+03</pdfrwt>
<totfact> 0.71471590E+06</totfact>
</mgrwt>
</event>
<event>
 5    0  0.1399645E+000  0.1249992E+03  0.7546771E-02  0.1235071E+00
         21   -1    0    0  503  502  0.00000000000E+00  0.00000000000E+00  0.10865555037E+02  0.10865555037E+02  0.00000000000E+00 0. -1.
         21   -1    0    0  502  503 -0.00000000000E+00 -0.00000000000E+00 -0.35950299505E+03  0.35950299505E+03  0.00000000000E+00 0. -1.
         25    2    1    2    0    0  0.00000000000E+00  0.00000000000E+00 -0.34863744002E+03  0.37036855009E+03  0.12499919326E+03 0.  0.
          4    1    3    3  501    0  0.20850738058E+02  0.55216662374E+02 -0.23505333874E+03  0.24235533342E+03  0.15500000000E+01 0. -1.
         -4    1    3    3    0  501 -0.20850738058E+02 -0.55216662374E+02 -0.11358410127E+03  0.12801321667E+03  0.15500000000E+01 0. -1.
<mgrwt>
<rscale>  2 0.12499919E+03</rscale>
<asrwt>0</asrwt>
<pdfrwt beam="1">  1       21 0.16716240E-02 0.12499919E+03</pdfrwt>
<pdfrwt beam="2">  1       21 0.55308147E-01 0.12499919E+03</pdfrwt>
<totfact> 0.50069458E+06</totfact>
</mgrwt>
</event>
<event>
 5    0  0.1633902E+000  0.1250010E+03  0.7546771E-02  0.1235068E+00
         21   -1    0    0  503  502  0.00000000000E+00  0.00000000000E+00  0.58769934945E+02  0.58769934945E+02  0.00000000000E+00 0. -1.
         21   -1    0    0  502  503 -0.00000000000E+00 -0.00000000000E+00 -0.66467879035E+02  0.66467879035E+02  0.00000000000E+00 0. -1.
         25    2    1    2    0    0  0.00000000000E+00  0.00000000000E+00 -0.76979440900E+01  0.12523781398E+03  0.12500100683E+03 0.  0.
          4    1    3    3  501    0  0.46260998562E+02 -0.33071534017E+02 -0.29784380817E+02  0.64213068692E+02  0.15500000000E+01 0.  1.
         -4    1    3    3    0  501 -0.46260998562E+02  0.33071534017E+02  0.22086436727E+02  0.61024745288E+02  0.15500000000E+01 0.  1.
<mgrwt>
<rscale>  2 0.12500101E+03</rscale>
<asrwt>0</asrwt>
<pdfrwt beam="1">  1       21 0.90415285E-02 0.12500101E+03</pdfrwt>
<pdfrwt beam="2">  1       21 0.10225827E-01 0.12500101E+03</pdfrwt>
<totfact> 0.74009562E+06</totfact>
</mgrwt>
</event>
<event>
 5    0  0.1494990E+000  0.1250002E+03  0.7546771E-02  0.1235069E+00
         21   -1    0    0  503  502  0.00000000000E+00  0.00000000000E+00  0.23864350900E+02  0.23864350900E+02  0.00000000000E+00 0. -1.
         21   -1    0    0  502  503 -0.00000000000E+00 -0.00000000000E+00 -0.16368621464E+03  0.16368621464E+03  0.00000000000E+00 0. -1.
         25    2    1    2    0    0  0.00000000000E+00  0.00000000000E+00 -0.13982186374E+03  0.18755056554E+03  0.12500024422E+03 0.  0.
          4    1    3    3  501    0  0.36441852133E+02 -0.41558395613E+02 -0.11362270423E+03  0.12636308895E+03  0.15500000000E+01 0.  1.
         -4    1    3    3    0  501 -0.36441852133E+02  0.41558395613E+02 -0.26199159516E+02  0.61187476596E+02  0.15500000000E+01 0.  1.
<mgrwt>
<rscale>  2 0.12500024E+03</rscale>
<asrwt>0</asrwt>
<pdfrwt beam="1">  1       21 0.36714386E-02 0.12500024E+03</pdfrwt>
<pdfrwt beam="2">  1       21 0.25182494E-01 0.12500024E+03</pdfrwt>
<totfact> 0.66295325E+06</totfact>
</mgrwt>
</event>
<event>
 5    0  0.1423912E+000  0.1249902E+03  0.7546771E-02  0.1235085E+00
         21   -1    0    0  503  502  0.00000000000E+00  0.00000000000E+00  0.19156545733E+03  0.19156545733E+03  0.00000000000E+00 0. -1.
         21   -1    0    0  502  503 -0.00000000000E+00 -0.00000000000E+00 -0.20387990412E+02  0.20387990412E+02  0.00000000000E+00 0. -1.
         25    2    1    2    0    0  0.00000000000E+00  0.00000000000E+00  0.17117746692E+03  0.21195344774E+03  0.12499015493E+03 0.  0.
          4    1    3    3  501    0 -0.12061985087E+02 -0.29457239124E+02 -0.55734011799E+01  0.32352522649E+02  0.15500000000E+01 0. -1.
         -4    1    3    3    0  501  0.12061985087E+02  0.29457239124E+02  0.17675086810E+03  0.17960092509E+03  0.15500000000E+01 0. -1.
<mgrwt>
<rscale>  2 0.12499015E+03</rscale>
<asrwt>0</asrwt>
<pdfrwt beam="1">  1       21 0.29471608E-01 0.12499015E+03</pdfrwt>
<pdfrwt beam="2">  1       21 0.31366140E-02 0.12499015E+03</pdfrwt>
<totfact> 0.63670447E+06</totfact>
</mgrwt>
</event>
<event>
 5    0  0.1455551E+000  0.1249976E+03  0.7546771E-02  0.1235073E+00
         21   -1    0    0  503  502  0.00000000000E+00  0.00000000000E+00  0.30301447726E+03  0.30301447726E+03  0.00000000000E+00 0.  1.
         21   -1    0    0  502  503 -0.00000000000E+00 -0.00000000000E+00 -0.12890795196E+02  0.12890795196E+02  0.00000000000E+00 0.  1.
         25    2    1    2    0    0  0.00000000000E+00  0.00000000000E+00  0.29012368206E+03  0.31590527245E+03  0.12499756106E+03 0.  0.
          4    1    3    3  501    0  0.46226186401E+02  0.28760392808E+02  0.22253371669E+03  0.22910189451E+03  0.15500000000E+01 0.  1.
         -4    1    3    3    0  501 -0.46226186401E+02 -0.28760392808E+02  0.67589965374E+02  0.86803377946E+02  0.15500000000E+01 0.  1.
<mgrwt>
<rscale>  2 0.12499756E+03</rscale>
<asrwt>0</asrwt>
<pdfrwt beam="1">  1       21 0.46617606E-01 0.12499756E+03</pdfrwt>
<pdfrwt beam="2">  1       21 0.19831995E-02 0.12499756E+03</pdfrwt>
<totfact> 0.54162750E+06</totfact>
</mgrwt>
</event>
<event>
 5    0  0.1548355E+000  0.1249996E+03  0.7546771E-02  0.1235070E+00
         21   -1    0    0  503  502  0.00000000000E+00  0.00000000000E+00  0.12217237851E+03  0.12217237851E+03  0.00000000000E+00 0.  1.
         21   -1    0    0  502  503 -0.00000000000E+00 -0.00000000000E+00 -0.31973064371E+02  0.31973064371E+02  0.00000000000E+00 0.  1.
         25    2    1    2    0    0  0.00000000000E+00  0.00000000000E+00  0.90199314135E+02  0.15414544288E+03  0.12499960516E+03 0.  0.
          4    1    3    3  501    0  0.44752393529E+02 -0.23954621907E+02  0.90025254887E+02  0.10336125800E+03  0.15500000000E+01 0.  1.
         -4    1    3    3    0  501 -0.44752393529E+02  0.23954621907E+02  0.17405924769E+00  0.50784184880E+02  0.15500000000E+01 0.  1.
<mgrwt>
<rscale>  2 0.12499961E+03</rscale>
<asrwt>0</asrwt>
<pdfrwt beam="1">  1       21 0.18795750E-01 0.12499961E+03</pdfrwt>
<pdfrwt beam="2">  1       21 0.49189330E-02 0.12499961E+03</pdfrwt>
<totfact> 0.70242731E+06</totfact>
</mgrwt>
</event>
<event>
 5    0  0.1489290E+000  0.1249974E+03  0.7546771E-02  0.1235073E+00
         21   -1    0    0  503  502  0.00000000000E+00  0.00000000000E+00  0.27454344936E+03  0.27454344936E+03  0.00000000000E+00 0. -1.
         21   -1    0    0  502  503 -0.00000000000E+00 -0.00000000000E+00 -0.14227569643E+02  0.14227569643E+02  0.00000000000E+00 0. -1.
         25    2    1    2    0    0  0.00000000000E+00  0.00000000000E+00  0.26031587971E+03  0.28877101900E+03  0.12499737670E+03 0.  0.
          4    1    3    3  501    0  0.43261222657E+02  0.26377688150E+02  0.45704820295E+02  0.68254295954E+02  0.15500000000E+01 0. -1.
         -4    1    3    3    0  501 -0.43261222657E+02 -0.26377688150E+02  0.21461105942E+03  0.22051672304E+03  0.15500000000E+01 0. -1.
<mgrwt>
<rscale>  2 0.12499738E+03</rscale>
<asrwt>0</asrwt>
<pdfrwt beam="1">  1       21 0.42237450E-01 0.12499738E+03</pdfrwt>
<pdfrwt beam="2">  1       21 0.21888571E-02 0.12499738E+03</pdfrwt>
<totfact> 0.56406172E+06</totfact>
</mgrwt>
</event>
<event>
 5    0  0.1557789E+000  0.1249993E+03  0.7546771E-02  0.1235070E+00
         21   -1    0    0  503  502  0.00000000000E+00  0.00000000000E+00  0.18241543341E+03  0.18241543341E+03  0.00000000000E+00 0. -1.
         21   -1    0    0  502  503 -0.00000000000E+00 -0.00000000000E+00 -0.21413791269E+02  0.21413791269E+02  0.00000000000E+00 0. -1.
         25    2    1    2    0    0  0.00000000000E+00  0.00000000000E+00  0.16100164214E+03  0.20382922468E+03  0.12499929624E+03 0.  0.
          4    1    3    3  501    0 -0.18817814597E+02  0.53988041101E+02  0.12159123772E+03  0.13437131509E+03  0.15500000000E+01 0.  1.
         -4    1    3    3    0  501  0.18817814597E+02 -0.53988041101E+02  0.39410404419E+02  0.69457909590E+02  0.15500000000E+01 0.  1.
<mgrwt>
<rscale>  2 0.12499930E+03</rscale>
<asrwt>0</asrwt>
<pdfrwt beam="1">  1       21 0.28063912E-01 0.12499930E+03</pdfrwt>
<pdfrwt beam="2">  1       21 0.32944295E-02 0.12499930E+03</pdfrwt>
<totfact> 0.64515827E+06</totfact>
</mgrwt>
</event>
<event>
 5    0  0.1468045E+000  0.1249936E+03  0.7546771E-02  0.1235079E+00
         21   -1    0    0  503  502  0.00000000000E+00  0.00000000000E+00  0.14966681418E+02  0.14966681418E+02  0.00000000000E+00 0.  1.
         21   -1    0    0  502  503 -0.00000000000E+00 -0.00000000000E+00 -0.26096986488E+03  0.26096986488E+03  0.00000000000E+00 0.  1.
         25    2    1    2    0    0  0.00000000000E+00  0.00000000000E+00 -0.24600318346E+03  0.27593654629E+03  0.12499364507E+03 0.  0.
          4    1    3    3  501    0  0.28189410809E+02  0.52176246161E+02 -0.16639923431E+03  0.17665817622E+03  0.15500000000E+01 0.  1.
         -4    1    3    3    0  501 -0.28189410809E+02 -0.52176246161E+02 -0.79603949151E+02  0.99278370079E+02  0.15500000000E+01 0.  1.
<mgrwt>
<rscale>  2 0.12499365E+03</rscale>
<asrwt>0</asrwt>
<pdfrwt beam="1">  1       21 0.23025663E-02 0.12499365E+03</pdfrwt>
<pdfrwt beam="2">  1       21 0.40149211E-01 0.12499365E+03</pdfrwt>
<totfact> 0.57526364E+06</totfact>
</mgrwt>
</event>
<event>
 5    0  0.1222151E+000  0.1249829E+03  0.7546771E-02  0.1235096E+00
         21   -1    0    0  503  502  0.00000000000E+00  0.00000000000E+00  0.45069248238E+01  0.45069248238E+01  0.00000000000E+00 0.  1.
         21   -1    0    0  502  503 -0.00000000000E+00 -0.00000000000E+00 -0.86648521614E+03  0.86648521614E+03  0.00000000000E+00 0.  1.
         25    2    1    2    0    0  0.00000000000E+00  0.00000000000E+00 -0.86197829131E+03  0.87099214096E+03  0.12498293852E+03 0.  0.
          4    1    3    3  501    0  0.49499262142E+02  0.29710361792E+02 -0.26462400542E+03  0.27085263391E+03  0.15500000000E+01 0. -1.
         -4    1    3    3    0  501 -0.49499262142E+02 -0.29710361792E+02 -0.59735428589E+03  0.60013950705E+03  0.15500000000E+01 0. -1.
<mgrwt>
<rscale>  2 0.12498294E+03</rscale>
<asrwt>0</asrwt>
<pdfrwt beam="1">  1       21 0.69337357E-03 0.12498294E+03</pdfrwt>
<pdfrwt beam="2">  1       21 0.13330532E+00 0.12498294E+03</pdfrwt>
<totfact> 0.27152469E+06</totfact>
</mgrwt>
</event>
<event>
 5    0  0.1258683E+000  0.1249991E+03  0.7546771E-02  0.1235071E+00
         21   -1    0    0  503  502  0.00000000000E+00  0.00000000000E+00  0.55651106073E+01  0.55651106073E+01  0.00000000000E+00 0.  1.
         21   -1    0    0  502  503 -0.00000000000E+00 -0.00000000000E+00 -0.70190756069E+03  0.70190756069E+03  0.00000000000E+00 0.  1.
         25    2    1    2    0    0  0.00000000000E+00  0.00000000000E+00 -0.69634245008E+03  0.70747267129E+03  0.12499909138E+03 0.  0.
          4    1    3    3  501    0  0.44274612202E+01  0.55504731096E+02 -0.18774614183E+03  0.19583511906E+03  0.15500000000E+01 0.  1.
         -4    1    3    3    0  501 -0.44274612202E+01 -0.55504731096E+02 -0.50859630825E+03  0.51163755223E+03  0.15500000000E+01 0.  1.
<mgrwt>
<rscale>  2 0.12499909E+03</rscale>
<asrwt>0</asrwt>
<pdfrwt beam="1">  1       21 0.85617136E-03 0.12499909E+03</pdfrwt>
<pdfrwt beam="2">  1       21 0.10798572E+00 0.12499909E+03</pdfrwt>
<totfact> 0.32624778E+06</totfact>
</mgrwt>
</event>
<event>
 5    0  0.1352259E+000  0.1250069E+03  0.7546771E-02  0.1235058E+00
         21   -1    0    0  503  502  0.00000000000E+00  0.00000000000E+00  0.11740198395E+02  0.11740198395E+02  0.00000000000E+00 0.  1.
         21   -1    0    0  502  503 -0.00000000000E+00 -0.00000000000E+00 -0.33276134049E+03  0.33276134049E+03  0.00000000000E+00 0.  1.
         25    2    1    2    0    0  0.00000000000E+00  0.00000000000E+00 -0.32102114209E+03  0.34450153888E+03  0.12500694630E+03 0.  0.
          4    1    3    3  501    0  0.44500072145E+02  0.26794105818E+02 -0.64802429805E+02  0.83065865048E+02  0.15500000000E+01 0. -1.
         -4    1    3    3    0  501 -0.44500072145E+02 -0.26794105818E+02 -0.25621871229E+03  0.26143567384E+03  0.15500000000E+01 0. -1.
<mgrwt>
<rscale>  2 0.12500695E+03</rscale>
<asrwt>0</asrwt>
<pdfrwt beam="1">  1       21 0.18061847E-02 0.12500695E+03</pdfrwt>
<pdfrwt beam="2">  1       21 0.51194042E-01 0.12500695E+03</pdfrwt>
<totfact> 0.51938053E+06</totfact>
</mgrwt>
</event>
<event>
 5    0  0.1495860E+000  0.1249960E+03  0.7546771E-02  0.1235076E+00
         21   -1    0    0  503  502  0.00000000000E+00  0.00000000000E+00  0.39024009295E+02  0.39024009295E+02  0.00000000000E+00 0. -1.
         21   -1    0    0  502  503 -0.00000000000E+00 -0.00000000000E+00 -0.10009221035E+03  0.10009221035E+03  0.00000000000E+00 0. -1.
         25    2    1    2    0    0  0.00000000000E+00  0.00000000000E+00 -0.61068201055E+02  0.13911621965E+03  0.12499598949E+03 0.  0.
          4    1    3    3  501    0  0.25918842818E+01 -0.25645317100E+02 -0.93877351507E+02  0.97364057944E+02  0.15500000000E+01 0. -1.
         -4    1    3    3    0  501 -0.25918842818E+01  0.25645317100E+02  0.32809150452E+02  0.41752161701E+02  0.15500000000E+01 0. -1.
<mgrwt>
<rscale>  2 0.12499599E+03</rscale>
<asrwt>0</asrwt>
<pdfrwt beam="1">  1       21 0.60036938E-02 0.12499599E+03</pdfrwt>
<pdfrwt beam="2">  1       21 0.15398801E-01 0.12499599E+03</pdfrwt>
<totfact> 0.72162268E+06</totfact>
</mgrwt>
</event>
<event>
 5    0  0.1563919E+000  0.1250014E+03  0.7546771E-02  0.1235067E+00
         21   -1    0    0  503  502  0.00000000000E+00  0.00000000000E+00  0.72064957154E+02  0.72064957154E+02  0.00000000000E+00 0. -1.
         21   -1    0    0  502  503 -0.00000000000E+00 -0.00000000000E+00 -0.54205772137E+02  0.54205772137E+02  0.00000000000E+00 0. -1.
         25    2    1    2    0    0  0.00000000000E+00  0.00000000000E+00  0.17859185017E+02  0.12627072929E+03  0.12500138634E+03 0.  0.
          4    1    3    3  501    0  0.47363048512E+02 -0.16746226074E+02 -0.28599245331E+02  0.57827448375E+02  0.15500000000E+01 0.  1.
         -4    1    3    3    0  501 -0.47363048512E+02  0.16746226074E+02  0.46458430348E+02  0.68443280915E+02  0.15500000000E+01 0.  1.
<mgrwt>
<rscale>  2 0.12500139E+03</rscale>
<asrwt>0</asrwt>
<pdfrwt beam="1">  1       21 0.11086917E-01 0.12500139E+03</pdfrwt>
<pdfrwt beam="2">  1       21 0.83393495E-02 0.12500139E+03</pdfrwt>
<totfact> 0.73866183E+06</totfact>
</mgrwt>
</event>
<event>
 5    0  0.1316147E+000  0.1249997E+03  0.7546771E-02  0.1235070E+00
         21   -1    0    0  503  502  0.00000000000E+00  0.00000000000E+00  0.46546520195E+03  0.46546520195E+03  0.00000000000E+00 0.  1.
         21   -1    0    0  502  503 -0.00000000000E+00 -0.00000000000E+00 -0.83921075280E+01  0.83921075280E+01  0.00000000000E+00 0.  1.
         25    2    1    2    0    0  0.00000000000E+00  0.00000000000E+00  0.45707309443E+03  0.47385730948E+03  0.12499974441E+03 0.  0.
          4    1    3    3  501    0  0.12011559438E+02  0.25024109496E+02  0.44073527158E+03  0.44161121559E+03  0.15500000000E+01 0.  1.
         -4    1    3    3    0  501 -0.12011559438E+02 -0.25024109496E+02  0.16337822845E+02  0.32246093896E+02  0.15500000000E+01 0.  1.
<mgrwt>
<rscale>  2 0.12499974E+03</rscale>
<asrwt>0</asrwt>
<pdfrwt beam="1">  1       21 0.71610011E-01 0.12499974E+03</pdfrwt>
<pdfrwt beam="2">  1       21 0.12910938E-02 0.12499974E+03</pdfrwt>
<totfact> 0.43498565E+06</totfact>
</mgrwt>
</event>
<event>
 5    0  0.1222151E+000  0.1250003E+03  0.7546771E-02  0.1235069E+00
         21   -1    0    0  503  502  0.00000000000E+00  0.00000000000E+00  0.84898964837E+03  0.84898964837E+03  0.00000000000E+00 0.  1.
         21   -1    0    0  502  503 -0.00000000000E+00 -0.00000000000E+00 -0.46010816678E+01  0.46010816678E+01  0.00000000000E+00 0.  1.
         25    2    1    2    0    0  0.00000000000E+00  0.00000000000E+00  0.84438856670E+03  0.85359073004E+03  0.12500033132E+03 0.  0.
          4    1    3    3  501    0  0.37244666272E+02  0.15579315710E+02  0.96558136895E+02  0.10466974990E+03  0.15500000000E+01 0. -1.
         -4    1    3    3    0  501 -0.37244666272E+02 -0.15579315710E+02  0.74783042981E+03  0.74892098014E+03  0.15500000000E+01 0. -1.
<mgrwt>
<rscale>  2 0.12500033E+03</rscale>
<asrwt>0</asrwt>
<pdfrwt beam="1">  1       21 0.13061367E+00 0.12500033E+03</pdfrwt>
<pdfrwt beam="2">  1       21 0.70785939E-03 0.12500033E+03</pdfrwt>
<totfact> 0.27662136E+06</totfact>
</mgrwt>
</event>
<event>
 5    0  0.1222151E+000  0.1249996E+03  0.7546771E-02  0.1235070E+00
         21   -1    0    0  503  502  0.00000000000E+00  0.00000000000E+00  0.40624307921E+01  0.40624307921E+01  0.00000000000E+00 0. -1.
         21   -1    0    0  502  503 -0.00000000000E+00 -0.00000000000E+00 -0.96154809534E+03  0.96154809534E+03  0.00000000000E+00 0. -1.
         25    2    1    2    0    0  0.00000000000E+00  0.00000000000E+00 -0.95748566455E+03  0.96561052613E+03  0.12499956145E+03 0.  0.
          4    1    3    3  501    0  0.37357612968E+02 -0.27007185405E+02 -0.80455105488E+03  0.80587206287E+03  0.15500000000E+01 0. -1.
         -4    1    3    3    0  501 -0.37357612968E+02  0.27007185405E+02 -0.15293460966E+03  0.15973846326E+03  0.15500000000E+01 0. -1.
<mgrwt>
<rscale>  2 0.12499956E+03</rscale>
<asrwt>0</asrwt>
<pdfrwt beam="1">  1       21 0.62498913E-03 0.12499956E+03</pdfrwt>
<pdfrwt beam="2">  1       21 0.14793053E+00 0.12499956E+03</pdfrwt>
<totfact> 0.24498317E+06</totfact>
</mgrwt>
</event>
<event>
 5    0  0.1222151E+000  0.1250013E+03  0.7546771E-02  0.1235067E+00
         21   -1    0    0  503  502  0.00000000000E+00  0.00000000000E+00  0.21970411118E+04  0.21970411118E+04  0.00000000000E+00 0. -1.
         21   -1    0    0  502  503 -0.00000000000E+00 -0.00000000000E+00 -0.17779961417E+01  0.17779961417E+01  0.00000000000E+00 0. -1.
         25    2    1    2    0    0  0.00000000000E+00  0.00000000000E+00  0.21952631156E+04  0.21988191079E+04  0.12500128991E+03 0.  0.
          4    1    3    3  501    0  0.28504950593E+01  0.39181083151E+02  0.24297742611E+03  0.24613759302E+03  0.15500000000E+01 0.  1.
         -4    1    3    3    0  501 -0.28504950593E+01 -0.39181083151E+02  0.19522856895E+04  0.19526815149E+04  0.15500000000E+01 0.  1.
<mgrwt>
<rscale>  2 0.12500129E+03</rscale>
<asrwt>0</asrwt>
<pdfrwt beam="1">  1       21 0.33800415E+00 0.12500129E+03</pdfrwt>
<pdfrwt beam="2">  1       21 0.27353963E-03 0.12500129E+03</pdfrwt>
<totfact> 0.61668297E+05</totfact>
</mgrwt>
</event>
<event>
 5    0  0.1517869E+000  0.1249820E+03  0.7546771E-02  0.1235097E+00
         21   -1    0    0  503  502  0.00000000000E+00  0.00000000000E+00  0.23258555367E+02  0.23258555367E+02  0.00000000000E+00 0. -1.
         21   -1    0    0  502  503 -0.00000000000E+00 -0.00000000000E+00 -0.16790055994E+03  0.16790055994E+03  0.00000000000E+00 0. -1.
         25    2    1    2    0    0  0.00000000000E+00  0.00000000000E+00 -0.14464200457E+03  0.19115911530E+03  0.12498199021E+03 0.  0.
          4    1    3    3  501    0  0.38514096917E+02 -0.17614607930E+02 -0.20789185607E+01  0.42430348528E+02  0.15500000000E+01 0. -1.
         -4    1    3    3    0  501 -0.38514096917E+02  0.17614607930E+02 -0.14256308601E+03  0.14872876677E+03  0.15500000000E+01 0. -1.
<mgrwt>
<rscale>  2 0.12498199E+03</rscale>
<asrwt>0</asrwt>
<pdfrwt beam="1">  1       21 0.35782393E-02 0.12498199E+03</pdfrwt>
<pdfrwt beam="2">  1       21 0.25830855E-01 0.12498199E+03</pdfrwt>
<totfact> 0.65923950E+06</totfact>
</mgrwt>
</event>
<event>
 5    0  0.1361458E+000  0.1250062E+03  0.7546771E-02  0.1235060E+00
         21   -1    0    0  503  502  0.00000000000E+00  0.00000000000E+00  0.13897846895E+02  0.13897846895E+02  0.00000000000E+00 0.  1.
         21   -1    0    0  502  503 -0.00000000000E+00 -0.00000000000E+00 -0.28109660104E+03  0.28109660104E+03  0.00000000000E+00 0.  1.
         25    2    1    2    0    0  0.00000000000E+00  0.00000000000E+00 -0.26719875415E+03  0.29499444794E+03  0.12500620023E+03 0.  0.
          4    1    3    3  501    0  0.58170273109E+02 -0.83986050231E+01 -0.18365453870E+03  0.19283596481E+03  0.15500000000E+01 0.  1.
         -4    1    3    3    0  501 -0.58170273109E+02  0.83986050231E+01 -0.83544215448E+02  0.10215848313E+03  0.15500000000E+01 0.  1.
<mgrwt>
<rscale>  2 0.12500620E+03</rscale>
<asrwt>0</asrwt>
<pdfrwt beam="1">  1       21 0.21381304E-02 0.12500620E+03</pdfrwt>
<pdfrwt beam="2">  1       21 0.43245629E-01 0.12500620E+03</pdfrwt>
<totfact> 0.55866031E+06</totfact>
</mgrwt>
</event>
<event>
 5    0  0.1357035E+000  0.1249982E+03  0.7546771E-02  0.1235072E+00
         21   -1    0    0  503  502  0.00000000000E+00  0.00000000000E+00  0.66869211458E+01  0.66869211458E+01  0.00000000000E+00 0.  1.
         21   -1    0    0  502  503 -0.00000000000E+00 -0.00000000000E+00 -0.58414629143E+03  0.58414629143E+03  0.00000000000E+00 0.  1.
         25    2    1    2    0    0  0.00000000000E+00  0.00000000000E+00 -0.57745937028E+03  0.59083321258E+03  0.12499824300E+03 0.  0.
          4    1    3    3  501    0  0.48869962832E+02 -0.36790007168E+02 -0.22857567296E+03  0.23662421403E+03  0.15500000000E+01 0.  1.
         -4    1    3    3    0  501 -0.48869962832E+02  0.36790007168E+02 -0.34888369732E+03  0.35420899855E+03  0.15500000000E+01 0.  1.
<mgrwt>
<rscale>  2 0.12499824E+03</rscale>
<asrwt>0</asrwt>
<pdfrwt beam="1">  1       21 0.10287572E-02 0.12499824E+03</pdfrwt>
<pdfrwt beam="2">  1       21 0.89868654E-01 0.12499824E+03</pdfrwt>
<totfact> 0.37512134E+06</totfact>
</mgrwt>
</event>
<event>
 5    0  0.1222151E+000  0.1250001E+03  0.7546771E-02  0.1235069E+00
         21   -1    0    0  503  502  0.00000000000E+00  0.00000000000E+00  0.21217766502E+04  0.21217766502E+04  0.00000000000E+00 0. -1.
         21   -1    0    0  502  503 -0.00000000000E+00 -0.00000000000E+00 -0.18410318390E+01  0.18410318390E+01  0.00000000000E+00 0. -1.
         25    2    1    2    0    0  0.00000000000E+00  0.00000000000E+00  0.21199356184E+04  0.21236176820E+04  0.12500013389E+03 0.  0.
          4    1    3    3  501    0 -0.51287585112E+02  0.24664855244E+02  0.14980990630E+04  0.14991804349E+04  0.15500000000E+01 0. -1.
         -4    1    3    3    0  501  0.51287585112E+02 -0.24664855244E+02  0.62183655540E+03  0.62443724713E+03  0.15500000000E+01 0. -1.
<mgrwt>
<rscale>  2 0.12500013E+03</rscale>
<asrwt>0</asrwt>
<pdfrwt beam="1">  1       21 0.32642522E+00 0.12500013E+03</pdfrwt>
<pdfrwt beam="2">  1       21 0.28323736E-03 0.12500013E+03</pdfrwt>
<totfact> 0.68044100E+05</totfact>
</mgrwt>
</event>
<event>
 5    0  0.1349909E+000  0.1249950E+03  0.7546771E-02  0.1235077E+00
         21   -1    0    0  503  502  0.00000000000E+00  0.00000000000E+00  0.11650885685E+02  0.11650885685E+02  0.00000000000E+00 0.  1.
         21   -1    0    0  502  503 -0.00000000000E+00 -0.00000000000E+00 -0.33524829536E+03  0.33524829536E+03  0.00000000000E+00 0.  1.
         25    2    1    2    0    0  0.00000000000E+00  0.00000000000E+00 -0.32359740967E+03  0.34689918104E+03  0.12499503295E+03 0.  0.
          4    1    3    3  501    0 -0.14939690951E+02 -0.26528179040E+02 -0.10383097666E+02  0.32204811225E+02  0.15500000000E+01 0. -1.
         -4    1    3    3    0  501  0.14939690951E+02  0.26528179040E+02 -0.31321431201E+03  0.31469436982E+03  0.15500000000E+01 0. -1.
<mgrwt>
<rscale>  2 0.12499503E+03</rscale>
<asrwt>0</asrwt>
<pdfrwt beam="1">  1       21 0.17924439E-02 0.12499503E+03</pdfrwt>
<pdfrwt beam="2">  1       21 0.51576661E-01 0.12499503E+03</pdfrwt>
<totfact> 0.51774696E+06</totfact>
</mgrwt>
</event>
<event>
 5    0  0.1505946E+000  0.1250757E+03  0.7546771E-02  0.1234951E+00
         21   -1    0    0  503  502  0.00000000000E+00  0.00000000000E+00  0.28560766883E+02  0.28560766883E+02  0.00000000000E+00 0.  1.
         21   -1    0    0  502  503 -0.00000000000E+00 -0.00000000000E+00 -0.13693548611E+03  0.13693548611E+03  0.00000000000E+00 0.  1.
         25    2    1    2    0    0  0.00000000000E+00  0.00000000000E+00 -0.10837471923E+03  0.16549625299E+03  0.12507569703E+03 0.  0.
          4    1    3    3  501    0 -0.22952458063E+02 -0.53192858564E+02 -0.23091923900E+02  0.62385374750E+02  0.15500000000E+01 0.  1.
         -4    1    3    3    0  501  0.22952458063E+02  0.53192858564E+02 -0.85282795326E+02  0.10311087824E+03  0.15500000000E+01 0.  1.
<mgrwt>
<rscale>  2 0.12507570E+03</rscale>
<asrwt>0</asrwt>
<pdfrwt beam="1">  1       21 0.43939641E-02 0.12507570E+03</pdfrwt>
<pdfrwt beam="2">  1       21 0.21066998E-01 0.12507570E+03</pdfrwt>
<totfact> 0.68721796E+06</totfact>
</mgrwt>
</event>
<event>
 5    0  0.1511719E+000  0.1250018E+03  0.7546771E-02  0.1235067E+00
         21   -1    0    0  503  502  0.00000000000E+00  0.00000000000E+00  0.51214026717E+02  0.51214026717E+02  0.00000000000E+00 0. -1.
         21   -1    0    0  502  503 -0.00000000000E+00 -0.00000000000E+00 -0.76275208878E+02  0.76275208878E+02  0.00000000000E+00 0. -1.
         25    2    1    2    0    0  0.00000000000E+00  0.00000000000E+00 -0.25061182160E+02  0.12748923560E+03  0.12500176935E+03 0.  0.
          4    1    3    3  501    0 -0.11945072287E+02  0.40207991475E+02  0.34700673277E+02  0.54460137314E+02  0.15500000000E+01 0.  1.
         -4    1    3    3    0  501  0.11945072287E+02 -0.40207991475E+02 -0.59761855438E+02  0.73029098281E+02  0.15500000000E+01 0.  1.
<mgrwt>
<rscale>  2 0.12500177E+03</rscale>
<asrwt>0</asrwt>
<pdfrwt beam="1">  1       21 0.78790810E-02 0.12500177E+03</pdfrwt>
<pdfrwt beam="2">  1       21 0.11734648E-01 0.12500177E+03</pdfrwt>
<totfact> 0.73699348E+06</totfact>
</mgrwt>
</event>
<event>
 5    0  0.1225702E+000  0.1250029E+03  0.7546771E-02  0.1235065E+00
         21   -1    0    0  503  502  0.00000000000E+00  0.00000000000E+00  0.50734248646E+01  0.50734248646E+01  0.00000000000E+00 0. -1.
         21   -1    0    0  502  503 -0.00000000000E+00 -0.00000000000E+00 -0.76997862918E+03  0.76997862918E+03  0.00000000000E+00 0. -1.
         25    2    1    2    0    0  0.00000000000E+00  0.00000000000E+00 -0.76490520432E+03  0.77505205405E+03  0.12500285953E+03 0.  0.
          4    1    3    3  501    0 -0.31901687506E+02  0.53253805869E+02 -0.42644428981E+03  0.43094178298E+03  0.15500000000E+01 0.  1.
         -4    1    3    3    0  501  0.31901687506E+02 -0.53253805869E+02 -0.33846091451E+03  0.34411027107E+03  0.15500000000E+01 0.  1.
<mgrwt>
<rscale>  2 0.12500286E+03</rscale>
<asrwt>0</asrwt>
<pdfrwt beam="1">  1       21 0.78052743E-03 0.12500286E+03</pdfrwt>
<pdfrwt beam="2">  1       21 0.11845817E+00 0.12500286E+03</pdfrwt>
<totfact> 0.30204068E+06</totfact>
</mgrwt>
</event>
<event>
 5    0  0.1356876E+000  0.1249974E+03  0.7546771E-02  0.1235073E+00
         21   -1    0    0  503  502  0.00000000000E+00  0.00000000000E+00  0.57789915264E+03  0.57789915264E+03  0.00000000000E+00 0. -1.
         21   -1    0    0  502  503 -0.00000000000E+00 -0.00000000000E+00 -0.67591175674E+01  0.67591175674E+01  0.00000000000E+00 0. -1.
         25    2    1    2    0    0  0.00000000000E+00  0.00000000000E+00  0.57114003508E+03  0.58465827021E+03  0.12499741301E+03 0.  0.
          4    1    3    3  501    0 -0.52709695873E+02 -0.28682442290E+02  0.20419313893E+03  0.21283382020E+03  0.15500000000E+01 0. -1.
         -4    1    3    3    0  501  0.52709695873E+02  0.28682442290E+02  0.36694689615E+03  0.37182445001E+03  0.15500000000E+01 0. -1.
<mgrwt>
<rscale>  2 0.12499741E+03</rscale>
<asrwt>0</asrwt>
<pdfrwt beam="1">  1       21 0.88907523E-01 0.12499741E+03</pdfrwt>
<pdfrwt beam="2">  1       21 0.10398647E-02 0.12499741E+03</pdfrwt>
<totfact> 0.37798201E+06</totfact>
</mgrwt>
</event>
<event>
 5    0  0.1462768E+000  0.1250004E+03  0.7546771E-02  0.1235069E+00
         21   -1    0    0  503  502  0.00000000000E+00  0.00000000000E+00  0.21443903011E+02  0.21443903011E+02  0.00000000000E+00 0.  1.
         21   -1    0    0  502  503 -0.00000000000E+00 -0.00000000000E+00 -0.18216262984E+03  0.18216262984E+03  0.00000000000E+00 0.  1.
         25    2    1    2    0    0  0.00000000000E+00  0.00000000000E+00 -0.16071872683E+03  0.20360653285E+03  0.12500044427E+03 0.  0.
          4    1    3    3  501    0 -0.19554849473E+02 -0.51979158309E+02 -0.12699247929E+03  0.13861355393E+03  0.15500000000E+01 0.  1.
         -4    1    3    3    0  501  0.19554849473E+02  0.51979158309E+02 -0.33726247542E+02  0.64992978926E+02  0.15500000000E+01 0.  1.
<mgrwt>
<rscale>  2 0.12500044E+03</rscale>
<asrwt>0</asrwt>
<pdfrwt beam="1">  1       21 0.32990620E-02 0.12500044E+03</pdfrwt>
<pdfrwt beam="2">  1       21 0.28025020E-01 0.12500044E+03</pdfrwt>
<totfact> 0.64537817E+06</totfact>
</mgrwt>
</event>
<event>
 4    0  0.1508062E+000  0.1251339E+03  0.7546771E-02  0.1234860E+00
         21   -1    0    0  503  502  0.00000000000E+00  0.00000000000E+00  0.20836661981E+03  0.20836661981E+03  0.00000000000E+00 0.  1.
         21   -1    0    0  502  503 -0.00000000000E+00 -0.00000000000E+00 -0.18787180499E+02  0.18787180499E+02  0.00000000000E+00 0.  1.
          4    1    1    2  501    0  0.34330413776E+02  0.47019081967E+02  0.13629779703E+03  0.14821897097E+03  0.15500000000E+01 0.  1.
         -4    1    1    2    0  501 -0.34330413776E+02 -0.47019081967E+02  0.53281642278E+02  0.78934829340E+02  0.15500000000E+01 0.  1.
<mgrwt>
<rscale>  2 0.12513387E+03</rscale>
<asrwt>0</asrwt>
<pdfrwt beam="1">  1       21 0.32056401E-01 0.12513387E+03</pdfrwt>
<pdfrwt beam="2">  1       21 0.28903356E-02 0.12513387E+03</pdfrwt>
<totfact> 0.61888922E+06</totfact>
</mgrwt>
</event>
<event>
 5    0  0.1414249E+000  0.1249998E+03  0.7546771E-02  0.1235070E+00
         21   -1    0    0  503  502  0.00000000000E+00  0.00000000000E+00  0.10043894498E+02  0.10043894498E+02  0.00000000000E+00 0. -1.
         21   -1    0    0  502  503 -0.00000000000E+00 -0.00000000000E+00 -0.38891661794E+03  0.38891661794E+03  0.00000000000E+00 0. -1.
         25    2    1    2    0    0  0.00000000000E+00  0.00000000000E+00 -0.37887272345E+03  0.39896051244E+03  0.12499979966E+03 0.  0.
          4    1    3    3  501    0 -0.97451494991E+01  0.34422310644E+02 -0.35292973658E+03  0.35474168753E+03  0.15500000000E+01 0.  1.
         -4    1    3    3    0  501  0.97451494991E+01 -0.34422310644E+02 -0.25942986860E+02  0.44218824906E+02  0.15500000000E+01 0.  1.
<mgrwt>
<rscale>  2 0.12499980E+03</rscale>
<asrwt>0</asrwt>
<pdfrwt beam="1">  1       21 0.15452146E-02 0.12499980E+03</pdfrwt>
<pdfrwt beam="2">  1       21 0.59833323E-01 0.12499980E+03</pdfrwt>
<totfact> 0.48110617E+06</totfact>
</mgrwt>
</event>
<event>
 5    0  0.1222151E+000  0.1249224E+03  0.7546771E-02  0.1235191E+00
         21   -1    0    0  503  502  0.00000000000E+00  0.00000000000E+00  0.46186179614E+01  0.46186179614E+01  0.00000000000E+00 0.  1.
         21   -1    0    0  502  503 -0.00000000000E+00 -0.00000000000E+00 -0.84471246894E+03  0.84471246894E+03  0.00000000000E+00 0.  1.
         25    2    1    2    0    0  0.00000000000E+00  0.00000000000E+00 -0.84009385098E+03  0.84933108690E+03  0.12492244284E+03 0.  0.
          4    1    3    3  501    0 -0.12977978082E+02  0.47122810652E+02 -0.68424345496E+03  0.68598869914E+03  0.15500000000E+01 0. -1.
         -4    1    3    3    0  501  0.12977978082E+02 -0.47122810652E+02 -0.15585039602E+03  0.16334238776E+03  0.15500000000E+01 0. -1.
<mgrwt>
<rscale>  2 0.12492244E+03</rscale>
<asrwt>0</asrwt>
<pdfrwt beam="1">  1       21 0.71055697E-03 0.12492244E+03</pdfrwt>
<pdfrwt beam="2">  1       21 0.12995570E+00 0.12492244E+03</pdfrwt>
<totfact> 0.27845609E+06</totfact>
</mgrwt>
</event>
<event>
 5    0  0.1457046E+000  0.1249995E+03  0.7546771E-02  0.1235070E+00
         21   -1    0    0  503  502  0.00000000000E+00  0.00000000000E+00  0.17581162684E+02  0.17581162684E+02  0.00000000000E+00 0.  1.
         21   -1    0    0  502  503 -0.00000000000E+00 -0.00000000000E+00 -0.22218215416E+03  0.22218215416E+03  0.00000000000E+00 0.  1.
         25    2    1    2    0    0  0.00000000000E+00  0.00000000000E+00 -0.20460099148E+03  0.23976331685E+03  0.12499952956E+03 0.  0.
          4    1    3    3  501    0 -0.24420740607E+02  0.13064385661E+02 -0.20972800684E+03  0.21155446130E+03  0.15500000000E+01 0. -1.
         -4    1    3    3    0  501  0.24420740607E+02 -0.13064385661E+02  0.51270153607E+01  0.28208855542E+02  0.15500000000E+01 0. -1.
<mgrwt>
<rscale>  2 0.12499953E+03</rscale>
<asrwt>0</asrwt>
<pdfrwt beam="1">  1       21 0.27047942E-02 0.12499953E+03</pdfrwt>
<pdfrwt beam="2">  1       21 0.34181870E-01 0.12499953E+03</pdfrwt>
<totfact> 0.60856295E+06</totfact>
</mgrwt>
</event>
<event>
 5    0  0.1369453E+000  0.1249997E+03  0.7546771E-02  0.1235070E+00
         21   -1    0    0  503  502  0.00000000000E+00  0.00000000000E+00  0.61731565436E+03  0.61731565436E+03  0.00000000000E+00 0.  1.
         21   -1    0    0  502  503 -0.00000000000E+00 -0.00000000000E+00 -0.63277679391E+01  0.63277679391E+01  0.00000000000E+00 0.  1.
         25    2    1    2    0    0  0.00000000000E+00  0.00000000000E+00  0.61098788642E+03  0.62364342230E+03  0.12499968330E+03 0.  0.
          4    1    3    3  501    0 -0.61445526664E+02 -0.11323789493E+02  0.30657269291E+03  0.31287856989E+03  0.15500000000E+01 0. -1.
         -4    1    3    3    0  501  0.61445526664E+02  0.11323789493E+02  0.30441519350E+03  0.31076485241E+03  0.15500000000E+01 0. -1.
<mgrwt>
<rscale>  2 0.12499968E+03</rscale>
<asrwt>0</asrwt>
<pdfrwt beam="1">  1       21 0.94971591E-01 0.12499968E+03</pdfrwt>
<pdfrwt beam="2">  1       21 0.97350325E-03 0.12499968E+03</pdfrwt>
<totfact> 0.36045052E+06</totfact>
</mgrwt>
</event>
<event>
 5    0  0.1506789E+000  0.1250331E+03  0.7546771E-02  0.1235018E+00
         21   -1    0    0  503  502  0.00000000000E+00  0.00000000000E+00  0.28541525047E+02  0.28541525047E+02  0.00000000000E+00 0. -1.
         21   -1    0    0  502  503 -0.00000000000E+00 -0.00000000000E+00 -0.13693447025E+03  0.13693447025E+03  0.00000000000E+00 0. -1.
         25    2    1    2    0    0  0.00000000000E+00  0.00000000000E+00 -0.10839294520E+03  0.16547599529E+03  0.12503309342E+03 0.  0.
          4    1    3    3  501    0 -0.60263678487E+02 -0.97244736884E+01 -0.71934743453E+02  0.94357226268E+02  0.15500000000E+01 0. -1.
         -4    1    3    3    0  501  0.60263678487E+02  0.97244736884E+01 -0.36458201747E+02  0.71118769027E+02  0.15500000000E+01 0. -1.
<mgrwt>
<rscale>  2 0.12503309E+03</rscale>
<asrwt>0</asrwt>
<pdfrwt beam="1">  1       21 0.43910039E-02 0.12503309E+03</pdfrwt>
<pdfrwt beam="2">  1       21 0.21066841E-01 0.12503309E+03</pdfrwt>
<totfact> 0.68798631E+06</totfact>
</mgrwt>
</event>
<event>
 5    0  0.1482988E+000  0.1249992E+03  0.7546771E-02  0.1235070E+00
         21   -1    0    0  503  502  0.00000000000E+00  0.00000000000E+00  0.21216911656E+02  0.21216911656E+02  0.00000000000E+00 0.  1.
         21   -1    0    0  502  503 -0.00000000000E+00 -0.00000000000E+00 -0.18410795285E+03  0.18410795285E+03  0.00000000000E+00 0.  1.
         25    2    1    2    0    0  0.00000000000E+00  0.00000000000E+00 -0.16289104119E+03  0.20532486451E+03  0.12499923473E+03 0.  0.
          4    1    3    3  501    0 -0.39187134435E+02  0.19438757188E+02 -0.15472692385E+03  0.16079900575E+03  0.15500000000E+01 0. -1.
         -4    1    3    3    0  501  0.39187134435E+02 -0.19438757188E+02 -0.81641173488E+01  0.44525858760E+02  0.15500000000E+01 0. -1.
<mgrwt>
<rscale>  2 0.12499923E+03</rscale>
<asrwt>0</asrwt>
<pdfrwt beam="1">  1       21 0.32641401E-02 0.12499923E+03</pdfrwt>
<pdfrwt beam="2">  1       21 0.28324302E-01 0.12499923E+03</pdfrwt>
<totfact> 0.64356040E+06</totfact>
</mgrwt>
</event>
<event>
 5    0  0.1441689E+000  0.1250156E+03  0.7546771E-02  0.1235045E+00
         21   -1    0    0  503  502  0.00000000000E+00  0.00000000000E+00  0.16452256963E+02  0.16452256963E+02  0.00000000000E+00 0. -1.
         21   -1    0    0  502  503 -0.00000000000E+00 -0.00000000000E+00 -0.23748852015E+03  0.23748852015E+03  0.00000000000E+00 0. -1.
         25    2    1    2    0    0  0.00000000000E+00  0.00000000000E+00 -0.22103626319E+03  0.25394077712E+03  0.12501555358E+03 0.  0.
          4    1    3    3  501    0  0.33867337867E+02  0.25941632479E+00 -0.38471483169E+01  0.34121355794E+02  0.15500000000E+01 0.  1.
         -4    1    3    3    0  501 -0.33867337867E+02 -0.25941632479E+00 -0.21718911487E+03  0.21981942132E+03  0.15500000000E+01 0.  1.
<mgrwt>
<rscale>  2 0.12501555E+03</rscale>
<asrwt>0</asrwt>
<pdfrwt beam="1">  1       21 0.25311167E-02 0.12501555E+03</pdfrwt>
<pdfrwt beam="2">  1       21 0.36536691E-01 0.12501555E+03</pdfrwt>
<totfact> 0.59485825E+06</totfact>
</mgrwt>
</event>
<event>
 5    0  0.1454932E+000  0.1249930E+03  0.7546771E-02  0.1235080E+00
         21   -1    0    0  503  502  0.00000000000E+00  0.00000000000E+00  0.90955883813E+02  0.90955883813E+02  0.00000000000E+00 0.  1.
         21   -1    0    0  502  503 -0.00000000000E+00 -0.00000000000E+00 -0.42941867550E+02  0.42941867550E+02  0.00000000000E+00 0.  1.
         25    2    1    2    0    0  0.00000000000E+00  0.00000000000E+00  0.48014016263E+02  0.13389775136E+03  0.12499304806E+03 0.  0.
          4    1    3    3  501    0 -0.40674559042E+02 -0.15977696486E+02  0.71838952442E+02  0.84100797418E+02  0.15500000000E+01 0. -1.
         -4    1    3    3    0  501  0.40674559042E+02  0.15977696486E+02 -0.23824936179E+02  0.49796953945E+02  0.15500000000E+01 0. -1.
<mgrwt>
<rscale>  2 0.12499305E+03</rscale>
<asrwt>0</asrwt>
<pdfrwt beam="1">  1       21 0.13993213E-01 0.12499305E+03</pdfrwt>
<pdfrwt beam="2">  1       21 0.66064412E-02 0.12499305E+03</pdfrwt>
<totfact> 0.72855670E+06</totfact>
</mgrwt>
</event>
<event>
 5    0  0.1600574E+000  0.1249958E+03  0.7546771E-02  0.1235076E+00
         21   -1    0    0  503  502  0.00000000000E+00  0.00000000000E+00  0.72174196658E+02  0.72174196658E+02  0.00000000000E+00 0.  1.
         21   -1    0    0  502  503 -0.00000000000E+00 -0.00000000000E+00 -0.54118924900E+02  0.54118924900E+02  0.00000000000E+00 0.  1.
         25    2    1    2    0    0  0.00000000000E+00  0.00000000000E+00  0.18055271759E+02  0.12629312156E+03  0.12499583879E+03 0.  0.
          4    1    3    3  501    0 -0.95486451765E+01  0.57429259580E+02  0.31940985548E+02  0.66422327108E+02  0.15500000000E+01 0. -1.
         -4    1    3    3    0  501  0.95486451765E+01 -0.57429259580E+02 -0.13885713789E+02  0.59870794450E+02  0.15500000000E+01 0. -1.
<mgrwt>
<rscale>  2 0.12499584E+03</rscale>
<asrwt>0</asrwt>
<pdfrwt beam="1">  1       21 0.11103723E-01 0.12499584E+03</pdfrwt>
<pdfrwt beam="2">  1       21 0.83259884E-02 0.12499584E+03</pdfrwt>
<totfact> 0.73873566E+06</totfact>
</mgrwt>
</event>
<event>
 5    0  0.1586753E+000  0.1250006E+03  0.7546771E-02  0.1235068E+00
         21   -1    0    0  503  502  0.00000000000E+00  0.00000000000E+00  0.36059506965E+02  0.36059506965E+02  0.00000000000E+00 0. -1.
         21   -1    0    0  502  503 -0.00000000000E+00 -0.00000000000E+00 -0.10832889759E+03  0.10832889759E+03  0.00000000000E+00 0. -1.
         25    2    1    2    0    0  0.00000000000E+00  0.00000000000E+00 -0.72269390621E+02  0.14438840455E+03  0.12500058619E+03 0.  0.
          4    1    3    3  501    0 -0.55757408457E+02  0.18868367792E+02 -0.11933169254E+02  0.60080836624E+02  0.15500000000E+01 0.  1.
         -4    1    3    3    0  501  0.55757408457E+02 -0.18868367792E+02 -0.60336221367E+02  0.84307567927E+02  0.15500000000E+01 0.  1.
<mgrwt>
<rscale>  2 0.12500059E+03</rscale>
<asrwt>0</asrwt>
<pdfrwt beam="1">  1       21 0.55476165E-02 0.12500059E+03</pdfrwt>
<pdfrwt beam="2">  1       21 0.16665984E-01 0.12500059E+03</pdfrwt>
<totfact> 0.71470393E+06</totfact>
</mgrwt>
</event>
<event>
 5    0  0.1222151E+000  0.1249981E+03  0.7546771E-02  0.1235072E+00
         21   -1    0    0  503  502  0.00000000000E+00  0.00000000000E+00  0.52761373295E+01  0.52761373295E+01  0.00000000000E+00 0.  1.
         21   -1    0    0  502  503 -0.00000000000E+00 -0.00000000000E+00 -0.74033881695E+03  0.74033881695E+03  0.00000000000E+00 0.  1.
         25    2    1    2    0    0  0.00000000000E+00  0.00000000000E+00 -0.73506267962E+03  0.74561495428E+03  0.12499806828E+03 0.  0.
          4    1    3    3  501    0  0.23772631494E+02 -0.30817419443E+02 -0.75984687390E+02  0.85386922693E+02  0.15500000000E+01 0.  1.
         -4    1    3    3    0  501 -0.23772631494E+02  0.30817419443E+02 -0.65907799223E+03  0.66022803159E+03  0.15500000000E+01 0.  1.
<mgrwt>
<rscale>  2 0.12499807E+03</rscale>
<asrwt>0</asrwt>
<pdfrwt beam="1">  1       21 0.81171368E-03 0.12499807E+03</pdfrwt>
<pdfrwt beam="2">  1       21 0.11389824E+00 0.12499807E+03</pdfrwt>
<totfact> 0.31225193E+06</totfact>
</mgrwt>
</event>
<event>
 5    0  0.1392719E+000  0.1250076E+03  0.7546771E-02  0.1235057E+00
         21   -1    0    0  503  502  0.00000000000E+00  0.00000000000E+00  0.38096106603E+03  0.38096106603E+03  0.00000000000E+00 0. -1.
         21   -1    0    0  502  503 -0.00000000000E+00 -0.00000000000E+00 -0.10254926002E+02  0.10254926002E+02  0.00000000000E+00 0. -1.
         25    2    1    2    0    0  0.00000000000E+00  0.00000000000E+00  0.37070614003E+03  0.39121599204E+03  0.12500764044E+03 0.  0.
          4    1    3    3  501    0  0.47872050486E+02 -0.20081930721E+02  0.29418303353E+03  0.29873245032E+03  0.15500000000E+01 0.  1.
         -4    1    3    3    0  501 -0.47872050486E+02  0.20081930721E+02  0.76523106506E+02  0.92483541717E+02  0.15500000000E+01 0.  1.
<mgrwt>
<rscale>  2 0.12500764E+03</rscale>
<asrwt>0</asrwt>
<pdfrwt beam="1">  1       21 0.58609384E-01 0.12500764E+03</pdfrwt>
<pdfrwt beam="2">  1       21 0.15776812E-02 0.12500764E+03</pdfrwt>
<totfact> 0.48620210E+06</totfact>
</mgrwt>
</event>
<event>
 5    0  0.1557748E+000  0.1250015E+03  0.7546771E-02  0.1235067E+00
         21   -1    0    0  503  502  0.00000000000E+00  0.00000000000E+00  0.10835506520E+03  0.10835506520E+03  0.00000000000E+00 0.  1.
         21   -1    0    0  502  503 -0.00000000000E+00 -0.00000000000E+00 -0.36051344466E+02  0.36051344466E+02  0.00000000000E+00 0.  1.
         25    2    1    2    0    0  0.00000000000E+00  0.00000000000E+00  0.72303720732E+02  0.14440640966E+03  0.12500153247E+03 0.  0.
          4    1    3    3  501    0 -0.20861866231E+02 -0.58294567642E+02  0.26454114338E+02  0.67347581580E+02  0.15500000000E+01 0. -1.
         -4    1    3    3    0  501  0.20861866231E+02  0.58294567642E+02  0.45849606393E+02  0.77058828084E+02  0.15500000000E+01 0. -1.
<mgrwt>
<rscale>  2 0.12500153E+03</rscale>
<asrwt>0</asrwt>
<pdfrwt beam="1">  1       21 0.16670010E-01 0.12500153E+03</pdfrwt>
<pdfrwt beam="2">  1       21 0.55463607E-02 0.12500153E+03</pdfrwt>
<totfact> 0.71466361E+06</totfact>
</mgrwt>
</event>
<event>
 5    0  0.1487743E+000  0.1250242E+03  0.7546771E-02  0.1235031E+00
         21   -1    0    0  503  502  0.00000000000E+00  0.00000000000E+00  0.15999100184E+03  0.15999100184E+03  0.00000000000E+00 0.  1.
         21   -1    0    0  502  503 -0.00000000000E+00 -0.00000000000E+00 -0.24424908920E+02  0.24424908920E+02  0.00000000000E+00 0.  1.
         25    2    1    2    0    0  0.00000000000E+00  0.00000000000E+00  0.13556609292E+03  0.18441591076E+03  0.12502424802E+03 0.  0.
          4    1    3    3  501    0  0.29148525664E+02 -0.12845592372E+02  0.14708921191E+03  0.15050675916E+03  0.15500000000E+01 0. -1.
         -4    1    3    3    0  501 -0.29148525664E+02  0.12845592372E+02 -0.11523118983E+02  0.33909151609E+02  0.15500000000E+01 0. -1.
<mgrwt>
<rscale>  2 0.12502425E+03</rscale>
<asrwt>0</asrwt>
<pdfrwt beam="1">  1       21 0.24614000E-01 0.12502425E+03</pdfrwt>
<pdfrwt beam="2">  1       21 0.37576784E-02 0.12502425E+03</pdfrwt>
<totfact> 0.66607575E+06</totfact>
</mgrwt>
</event>
<event>
 5    0  0.1604187E+000  0.1249770E+03  0.7546771E-02  0.1235105E+00
         21   -1    0    0  503  502  0.00000000000E+00  0.00000000000E+00  0.10334380657E+03  0.10334380657E+03  0.00000000000E+00 0.  1.
         21   -1    0    0  502  503 -0.00000000000E+00 -0.00000000000E+00 -0.37784705589E+02  0.37784705589E+02  0.00000000000E+00 0.  1.
         25    2    1    2    0    0  0.00000000000E+00  0.00000000000E+00  0.65559100980E+02  0.14112851216E+03  0.12497704278E+03 0.  0.
          4    1    3    3  501    0 -0.10482990555E+02  0.61501466408E+02  0.29192677568E+02  0.68898028890E+02  0.15500000000E+01 0.  1.
         -4    1    3    3    0  501  0.10482990555E+02 -0.61501466408E+02  0.36366423412E+02  0.72230483268E+02  0.15500000000E+01 0.  1.
<mgrwt>
<rscale>  2 0.12497704E+03</rscale>
<asrwt>0</asrwt>
<pdfrwt beam="1">  1       21 0.15899047E-01 0.12497704E+03</pdfrwt>
<pdfrwt beam="2">  1       21 0.58130317E-02 0.12497704E+03</pdfrwt>
<totfact> 0.71934385E+06</totfact>
</mgrwt>
</event>
<event>
 5    0  0.1512520E+000  0.1250016E+03  0.7546771E-02  0.1235067E+00
         21   -1    0    0  503  502  0.00000000000E+00  0.00000000000E+00  0.72474787389E+02  0.72474787389E+02  0.00000000000E+00 0.  1.
         21   -1    0    0  502  503 -0.00000000000E+00 -0.00000000000E+00 -0.53899471647E+02  0.53899471647E+02  0.00000000000E+00 0.  1.
         25    2    1    2    0    0  0.00000000000E+00  0.00000000000E+00  0.18575315742E+02  0.12637425904E+03  0.12500164396E+03 0.  0.
          4    1    3    3  501    0 -0.42403914253E+01 -0.61966448944E+02  0.24212796386E+01  0.62177864303E+02  0.15500000000E+01 0.  1.
         -4    1    3    3    0  501  0.42403914253E+01  0.61966448944E+02  0.16154036103E+02  0.64196394732E+02  0.15500000000E+01 0.  1.
<mgrwt>
<rscale>  2 0.12500164E+03</rscale>
<asrwt>0</asrwt>
<pdfrwt beam="1">  1       21 0.11149967E-01 0.12500164E+03</pdfrwt>
<pdfrwt beam="2">  1       21 0.82922264E-02 0.12500164E+03</pdfrwt>
<totfact> 0.73851496E+06</totfact>
</mgrwt>
</event>
<event>
 5    0  0.1384582E+000  0.1249984E+03  0.7546771E-02  0.1235072E+00
         21   -1    0    0  503  502  0.00000000000E+00  0.00000000000E+00  0.10375246231E+02  0.10375246231E+02  0.00000000000E+00 0. -1.
         21   -1    0    0  502  503 -0.00000000000E+00 -0.00000000000E+00 -0.37648723123E+03  0.37648723123E+03  0.00000000000E+00 0. -1.
         25    2    1    2    0    0  0.00000000000E+00  0.00000000000E+00 -0.36611198500E+03  0.38686247746E+03  0.12499836362E+03 0.  0.
          4    1    3    3  501    0 -0.21512270904E+02  0.52111873774E+02 -0.99703782485E+02  0.11454986656E+03  0.15500000000E+01 0. -1.
         -4    1    3    3    0  501  0.21512270904E+02 -0.52111873774E+02 -0.26640820251E+03  0.27231261090E+03  0.15500000000E+01 0. -1.
<mgrwt>
<rscale>  2 0.12499836E+03</rscale>
<asrwt>0</asrwt>
<pdfrwt beam="1">  1       21 0.15961914E-02 0.12499836E+03</pdfrwt>
<pdfrwt beam="2">  1       21 0.57921124E-01 0.12499836E+03</pdfrwt>
<totfact> 0.48927129E+06</totfact>
</mgrwt>
</event>
<event>
 5    0  0.1430818E+000  0.1250018E+03  0.7546771E-02  0.1235067E+00
         21   -1    0    0  503  502  0.00000000000E+00  0.00000000000E+00  0.20542337406E+03  0.20542337406E+03  0.00000000000E+00 0.  1.
         21   -1    0    0  502  503 -0.00000000000E+00 -0.00000000000E+00 -0.19016144269E+02  0.19016144269E+02  0.00000000000E+00 0.  1.
         25    2    1    2    0    0  0.00000000000E+00  0.00000000000E+00  0.18640722979E+03  0.22443951832E+03  0.12500176826E+03 0.  0.
          4    1    3    3  501    0 -0.11930939474E+02  0.48039701601E+02  0.16166334312E+03  0.16907867770E+03  0.15500000000E+01 0. -1.
         -4    1    3    3    0  501  0.11930939474E+02 -0.48039701601E+02  0.24743886669E+02  0.55360840620E+02  0.15500000000E+01 0. -1.
<mgrwt>
<rscale>  2 0.12500177E+03</rscale>
<asrwt>0</asrwt>
<pdfrwt beam="1">  1       21 0.31603594E-01 0.12500177E+03</pdfrwt>
<pdfrwt beam="2">  1       21 0.29255608E-02 0.12500177E+03</pdfrwt>
<totfact> 0.62368833E+06</totfact>
</mgrwt>
</event>
<event>
 5    0  0.1222151E+000  0.1249977E+03  0.7546771E-02  0.1235073E+00
         21   -1    0    0  503  502  0.00000000000E+00  0.00000000000E+00  0.99899903571E+03  0.99899903571E+03  0.00000000000E+00 0.  1.
         21   -1    0    0  502  503 -0.00000000000E+00 -0.00000000000E+00 -0.39100230096E+01  0.39100230096E+01  0.00000000000E+00 0.  1.
         25    2    1    2    0    0  0.00000000000E+00  0.00000000000E+00  0.99508901270E+03  0.10029090587E+04  0.12499774744E+03 0.  0.
          4    1    3    3  501    0  0.15298576477E+02  0.52613397356E+02  0.73844627637E+03  0.74047790082E+03  0.15500000000E+01 0. -1.
         -4    1    3    3    0  501 -0.15298576477E+02 -0.52613397356E+02  0.25664273633E+03  0.26243115790E+03  0.15500000000E+01 0. -1.
<mgrwt>
<rscale>  2 0.12499775E+03</rscale>
<asrwt>0</asrwt>
<pdfrwt beam="1">  1       21 0.15369196E+00 0.12499775E+03</pdfrwt>
<pdfrwt beam="2">  1       21 0.60154280E-03 0.12499775E+03</pdfrwt>
<totfact> 0.23547519E+06</totfact>
</mgrwt>
</event>
<event>
 5    0  0.1500242E+000  0.1249998E+03  0.7546771E-02  0.1235070E+00
         21   -1    0    0  503  502  0.00000000000E+00  0.00000000000E+00  0.31222419975E+03  0.31222419975E+03  0.00000000000E+00 0.  1.
         21   -1    0    0  502  503 -0.00000000000E+00 -0.00000000000E+00 -0.12511002138E+02  0.12511002138E+02  0.00000000000E+00 0.  1.
         25    2    1    2    0    0  0.00000000000E+00  0.00000000000E+00  0.29971319761E+03  0.32473520189E+03  0.12499980209E+03 0.  0.
          4    1    3    3  501    0  0.60949812652E+02 -0.10716106668E+02  0.17222264879E+03  0.18301026709E+03  0.15500000000E+01 0.  1.
         -4    1    3    3    0  501 -0.60949812652E+02  0.10716106668E+02  0.12749054883E+03  0.14172493480E+03  0.15500000000E+01 0.  1.
<mgrwt>
<rscale>  2 0.12499980E+03</rscale>
<asrwt>0</asrwt>
<pdfrwt beam="1">  1       21 0.48034486E-01 0.12499980E+03</pdfrwt>
<pdfrwt beam="2">  1       21 0.19247698E-02 0.12499980E+03</pdfrwt>
<totfact> 0.53460491E+06</totfact>
</mgrwt>
</event>
<event>
 5    0  0.1476238E+000  0.1250058E+03  0.7546771E-02  0.1235060E+00
         21   -1    0    0  503  502  0.00000000000E+00  0.00000000000E+00  0.18288146067E+02  0.18288146067E+02  0.00000000000E+00 0.  1.
         21   -1    0    0  502  503 -0.00000000000E+00 -0.00000000000E+00 -0.21361443405E+03  0.21361443405E+03  0.00000000000E+00 0.  1.
         25    2    1    2    0    0  0.00000000000E+00  0.00000000000E+00 -0.19532628798E+03  0.23190258012E+03  0.12500579142E+03 0.  0.
          4    1    3    3  501    0  0.15181655038E+02 -0.60578852979E+02 -0.93985766330E+02  0.11285391819E+03  0.15500000000E+01 0. -1.
         -4    1    3    3    0  501 -0.15181655038E+02  0.60578852979E+02 -0.10134052165E+03  0.11904866193E+03  0.15500000000E+01 0. -1.
<mgrwt>
<rscale>  2 0.12500579E+03</rscale>
<asrwt>0</asrwt>
<pdfrwt beam="1">  1       21 0.28135606E-02 0.12500579E+03</pdfrwt>
<pdfrwt beam="2">  1       21 0.32863763E-01 0.12500579E+03</pdfrwt>
<totfact> 0.61616138E+06</totfact>
</mgrwt>
</event>
<event>
 5    0  0.1392739E+000  0.1249950E+03  0.7546771E-02  0.1235077E+00
         21   -1    0    0  503  502  0.00000000000E+00  0.00000000000E+00  0.35323970939E+03  0.35323970939E+03  0.00000000000E+00 0.  1.
         21   -1    0    0  502  503 -0.00000000000E+00 -0.00000000000E+00 -0.11057465390E+02  0.11057465390E+02  0.00000000000E+00 0.  1.
         25    2    1    2    0    0  0.00000000000E+00  0.00000000000E+00  0.34218224400E+03  0.36429717478E+03  0.12499497367E+03 0.  0.
          4    1    3    3  501    0  0.34133464610E+02  0.63176962659E+01  0.19690865488E+02  0.39939195986E+02  0.15500000000E+01 0. -1.
         -4    1    3    3    0  501 -0.34133464610E+02 -0.63176962659E+01  0.32249137851E+03  0.32435797879E+03  0.15500000000E+01 0. -1.
<mgrwt>
<rscale>  2 0.12499497E+03</rscale>
<asrwt>0</asrwt>
<pdfrwt beam="1">  1       21 0.54344562E-01 0.12499497E+03</pdfrwt>
<pdfrwt beam="2">  1       21 0.17011488E-02 0.12499497E+03</pdfrwt>
<totfact> 0.50505928E+06</totfact>
</mgrwt>
</event>
<event>
 5    0  0.1253265E+000  0.1249947E+03  0.7546771E-02  0.1235078E+00
         21   -1    0    0  503  502  0.00000000000E+00  0.00000000000E+00  0.56221146388E+01  0.56221146388E+01  0.00000000000E+00 0. -1.
         21   -1    0    0  502  503 -0.00000000000E+00 -0.00000000000E+00 -0.69474148828E+03  0.69474148828E+03  0.00000000000E+00 0. -1.
         25    2    1    2    0    0  0.00000000000E+00  0.00000000000E+00 -0.68911937364E+03  0.70036360291E+03  0.12499466055E+03 0.  0.
          4    1    3    3  501    0  0.43316294096E+02 -0.37588329240E+02 -0.20568184611E+03  0.21353362300E+03  0.15500000000E+01 0. -1.
         -4    1    3    3    0  501 -0.43316294096E+02  0.37588329240E+02 -0.48343752752E+03  0.48682997992E+03  0.15500000000E+01 0. -1.
<mgrwt>
<rscale>  2 0.12499466E+03</rscale>
<asrwt>0</asrwt>
<pdfrwt beam="1">  1       21 0.86494085E-03 0.12499466E+03</pdfrwt>
<pdfrwt beam="2">  1       21 0.10688329E+00 0.12499466E+03</pdfrwt>
<totfact> 0.32900485E+06</totfact>
</mgrwt>
</event>
<event>
 5    0  0.1507085E+000  0.1250012E+03  0.7546771E-02  0.1235067E+00
         21   -1    0    0  503  502  0.00000000000E+00  0.00000000000E+00  0.53799365009E+02  0.53799365009E+02  0.00000000000E+00 0.  1.
         21   -1    0    0  502  503 -0.00000000000E+00 -0.00000000000E+00 -0.72609101774E+02  0.72609101774E+02  0.00000000000E+00 0.  1.
         25    2    1    2    0    0  0.00000000000E+00  0.00000000000E+00 -0.18809736765E+02  0.12640846678E+03  0.12500117710E+03 0.  0.
          4    1    3    3  501    0  0.39468948083E+02 -0.75788368572E+01  0.38973923558E+02  0.56005409099E+02  0.15500000000E+01 0.  1.
         -4    1    3    3    0  501 -0.39468948083E+02  0.75788368572E+01 -0.57783660323E+02  0.70403057684E+02  0.15500000000E+01 0.  1.
<mgrwt>
<rscale>  2 0.12500118E+03</rscale>
<asrwt>0</asrwt>
<pdfrwt beam="1">  1       21 0.82768254E-02 0.12500118E+03</pdfrwt>
<pdfrwt beam="2">  1       21 0.11170631E-01 0.12500118E+03</pdfrwt>
<totfact> 0.73847688E+06</totfact>
</mgrwt>
</event>
<event>
 5    0  0.1406390E+000  0.1250050E+03  0.7546771E-02  0.1235061E+00
         21   -1    0    0  503  502  0.00000000000E+00  0.00000000000E+00  0.10978970168E+03  0.10978970168E+03  0.00000000000E+00 0. -1.
         21   -1    0    0  502  503 -0.00000000000E+00 -0.00000000000E+00 -0.35582219798E+02  0.35582219798E+02  0.00000000000E+00 0. -1.
         25    2    1    2    0    0  0.00000000000E+00  0.00000000000E+00  0.74207481882E+02  0.14537192148E+03  0.12500498065E+03 0.  0.
          4    1    3    3  501    0  0.43746669944E+02 -0.17333205495E+01 -0.14739724973E+02  0.46221613165E+02  0.15500000000E+01 0. -1.
         -4    1    3    3    0  501 -0.43746669944E+02  0.17333205495E+01  0.88947206856E+02  0.99150308314E+02  0.15500000000E+01 0. -1.
<mgrwt>
<rscale>  2 0.12500498E+03</rscale>
<asrwt>0</asrwt>
<pdfrwt beam="1">  1       21 0.16890723E-01 0.12500498E+03</pdfrwt>
<pdfrwt beam="2">  1       21 0.54741877E-02 0.12500498E+03</pdfrwt>
<totfact> 0.71336487E+06</totfact>
</mgrwt>
</event>
<event>
 5    0  0.1506270E+000  0.1250031E+03  0.7546771E-02  0.1235064E+00
         21   -1    0    0  503  502  0.00000000000E+00  0.00000000000E+00  0.26120485949E+02  0.26120485949E+02  0.00000000000E+00 0. -1.
         21   -1    0    0  502  503 -0.00000000000E+00 -0.00000000000E+00 -0.14955476070E+03  0.14955476070E+03  0.00000000000E+00 0. -1.
         25    2    1    2    0    0  0.00000000000E+00  0.00000000000E+00 -0.12343427475E+03  0.17567524665E+03  0.12500308837E+03 0.  0.
          4    1    3    3  501    0 -0.10525375640E+02  0.35944463194E+02  0.85688260130E+01  0.38452766428E+02  0.15500000000E+01 0. -1.
         -4    1    3    3    0  501  0.10525375640E+02 -0.35944463194E+02 -0.13200310076E+03  0.13722248022E+03  0.15500000000E+01 0. -1.
<mgrwt>
<rscale>  2 0.12500309E+03</rscale>
<asrwt>0</asrwt>
<pdfrwt beam="1">  1       21 0.40185363E-02 0.12500309E+03</pdfrwt>
<pdfrwt beam="2">  1       21 0.23008424E-01 0.12500309E+03</pdfrwt>
<totfact> 0.67645854E+06</totfact>
</mgrwt>
</event>
<event>
 5    0  0.1449102E+000  0.1250007E+03  0.7546771E-02  0.1235068E+00
         21   -1    0    0  503  502  0.00000000000E+00  0.00000000000E+00  0.28856719055E+03  0.28856719055E+03  0.00000000000E+00 0.  1.
         21   -1    0    0  502  503 -0.00000000000E+00 -0.00000000000E+00 -0.13536865398E+02  0.13536865398E+02  0.00000000000E+00 0.  1.
         25    2    1    2    0    0  0.00000000000E+00  0.00000000000E+00  0.27503032515E+03  0.30210405595E+03  0.12500072346E+03 0.  0.
          4    1    3    3  501    0  0.15058878750E+02  0.60607596920E+02  0.14225242455E+03  0.15536474962E+03  0.15500000000E+01 0.  1.
         -4    1    3    3    0  501 -0.15058878750E+02 -0.60607596920E+02  0.13277790060E+03  0.14673930633E+03  0.15500000000E+01 0.  1.
<mgrwt>
<rscale>  2 0.12500072E+03</rscale>
<asrwt>0</asrwt>
<pdfrwt beam="1">  1       21 0.44394948E-01 0.12500072E+03</pdfrwt>
<pdfrwt beam="2">  1       21 0.20825949E-02 0.12500072E+03</pdfrwt>
<totfact> 0.55280768E+06</totfact>
</mgrwt>
</event>
<event>
 5    0  0.1629636E+000  0.1249977E+03  0.7546771E-02  0.1235073E+00
         21   -1    0    0  503  502  0.00000000000E+00  0.00000000000E+00  0.94171606989E+02  0.94171606989E+02  0.00000000000E+00 0. -1.
         21   -1    0    0  502  503 -0.00000000000E+00 -0.00000000000E+00 -0.41478617490E+02  0.41478617490E+02  0.00000000000E+00 0. -1.
         25    2    1    2    0    0  0.00000000000E+00  0.00000000000E+00  0.52692989499E+02  0.13565022448E+03  0.12499772902E+03 0.  0.
          4    1    3    3  501    0 -0.55051249900E+02  0.29112590976E+02  0.20863978036E+02  0.65695442372E+02  0.15500000000E+01 0.  1.
         -4    1    3    3    0  501  0.55051249900E+02 -0.29112590976E+02  0.31829011463E+02  0.69954782107E+02  0.15500000000E+01 0.  1.
<mgrwt>
<rscale>  2 0.12499773E+03</rscale>
<asrwt>0</asrwt>
<pdfrwt beam="1">  1       21 0.14487939E-01 0.12499773E+03</pdfrwt>
<pdfrwt beam="2">  1       21 0.63813258E-02 0.12499773E+03</pdfrwt>
<totfact> 0.72614698E+06</totfact>
</mgrwt>
</event>
<event>
 5    0  0.1499419E+000  0.1250013E+03  0.7546771E-02  0.1235067E+00
         21   -1    0    0  503  502  0.00000000000E+00  0.00000000000E+00  0.20035628125E+03  0.20035628125E+03  0.00000000000E+00 0.  1.
         21   -1    0    0  502  503 -0.00000000000E+00 -0.00000000000E+00 -0.19496912662E+02  0.19496912662E+02  0.00000000000E+00 0.  1.
         25    2    1    2    0    0  0.00000000000E+00  0.00000000000E+00  0.18085936859E+03  0.21985319392E+03  0.12500126266E+03 0.  0.
          4    1    3    3  501    0  0.24227956883E+02 -0.56469176509E+02  0.70518253556E+02  0.93546717607E+02  0.15500000000E+01 0.  1.
         -4    1    3    3    0  501 -0.24227956883E+02  0.56469176509E+02  0.11034111504E+03  0.12630647631E+03  0.15500000000E+01 0.  1.
<mgrwt>
<rscale>  2 0.12500126E+03</rscale>
<asrwt>0</asrwt>
<pdfrwt beam="1">  1       21 0.30824042E-01 0.12500126E+03</pdfrwt>
<pdfrwt beam="2">  1       21 0.29995252E-02 0.12500126E+03</pdfrwt>
<totfact> 0.62835540E+06</totfact>
</mgrwt>
</event>
<event>
 5    0  0.1500111E+000  0.1250025E+03  0.7546771E-02  0.1235065E+00
         21   -1    0    0  503  502  0.00000000000E+00  0.00000000000E+00  0.11594842114E+03  0.11594842114E+03  0.00000000000E+00 0. -1.
         21   -1    0    0  502  503 -0.00000000000E+00 -0.00000000000E+00 -0.33690909985E+02  0.33690909985E+02  0.00000000000E+00 0. -1.
         25    2    1    2    0    0  0.00000000000E+00  0.00000000000E+00  0.82257511151E+02  0.14963933112E+03  0.12500252508E+03 0.  0.
          4    1    3    3  501    0 -0.34655336511E+02 -0.15602553914E+02 -0.18239850976E+02  0.42184436715E+02  0.15500000000E+01 0.  1.
         -4    1    3    3    0  501  0.34655336511E+02  0.15602553914E+02  0.10049736213E+03  0.10745489441E+03  0.15500000000E+01 0.  1.
<mgrwt>
<rscale>  2 0.12500253E+03</rscale>
<asrwt>0</asrwt>
<pdfrwt beam="1">  1       21 0.17838218E-01 0.12500253E+03</pdfrwt>
<pdfrwt beam="2">  1       21 0.51832170E-02 0.12500253E+03</pdfrwt>
<totfact> 0.70799986E+06</totfact>
</mgrwt>
</event>
<event>
 5    0  0.1517834E+000  0.1249961E+03  0.7546771E-02  0.1235075E+00
         21   -1    0    0  503  502  0.00000000000E+00  0.00000000000E+00  0.41635564109E+02  0.41635564109E+02  0.00000000000E+00 0. -1.
         21   -1    0    0  502  503 -0.00000000000E+00 -0.00000000000E+00 -0.93814137881E+02  0.93814137881E+02  0.00000000000E+00 0. -1.
         25    2    1    2    0    0  0.00000000000E+00  0.00000000000E+00 -0.52178573772E+02  0.13544970199E+03  0.12499607277E+03 0.  0.
          4    1    3    3  501    0  0.19811409834E+01 -0.29266722505E+02  0.33688849654E+02  0.44696834975E+02  0.15500000000E+01 0.  1.
         -4    1    3    3    0  501 -0.19811409834E+01  0.29266722505E+02 -0.85867423426E+02  0.90752867016E+02  0.15500000000E+01 0.  1.
<mgrwt>
<rscale>  2 0.12499607E+03</rscale>
<asrwt>0</asrwt>
<pdfrwt beam="1">  1       21 0.64054714E-02 0.12499607E+03</pdfrwt>
<pdfrwt beam="2">  1       21 0.14432944E-01 0.12499607E+03</pdfrwt>
<totfact> 0.72644259E+06</totfact>
</mgrwt>
</event>
<event>
 5    0  0.1428116E+000  0.1249964E+03  0.7546771E-02  0.1235075E+00
         21   -1    0    0  503  502  0.00000000000E+00  0.00000000000E+00  0.26125941169E+03  0.26125941169E+03  0.00000000000E+00 0.  1.
         21   -1    0    0  502  503 -0.00000000000E+00 -0.00000000000E+00 -0.14950757701E+02  0.14950757701E+02  0.00000000000E+00 0.  1.
         25    2    1    2    0    0  0.00000000000E+00  0.00000000000E+00  0.24630865399E+03  0.27621016939E+03  0.12499641853E+03 0.  0.
          4    1    3    3  501    0  0.44270290252E+02 -0.44088143033E+02  0.12309560080E+03  0.13805271599E+03  0.15500000000E+01 0. -1.
         -4    1    3    3    0  501 -0.44270290252E+02  0.44088143033E+02  0.12321305319E+03  0.13815745340E+03  0.15500000000E+01 0. -1.
<mgrwt>
<rscale>  2 0.12499642E+03</rscale>
<asrwt>0</asrwt>
<pdfrwt beam="1">  1       21 0.40193752E-01 0.12499642E+03</pdfrwt>
<pdfrwt beam="2">  1       21 0.23001168E-02 0.12499642E+03</pdfrwt>
<totfact> 0.57498204E+06</totfact>
</mgrwt>
</event>
<event>
 5    0  0.1445963E+000  0.1249993E+03  0.7546771E-02  0.1235070E+00
         21   -1    0    0  503  502  0.00000000000E+00  0.00000000000E+00  0.12244239406E+02  0.12244239406E+02  0.00000000000E+00 0.  1.
         21   -1    0    0  502  503 -0.00000000000E+00 -0.00000000000E+00 -0.31902407189E+03  0.31902407189E+03  0.00000000000E+00 0.  1.
         25    2    1    2    0    0  0.00000000000E+00  0.00000000000E+00 -0.30677983248E+03  0.33126831129E+03  0.12499931380E+03 0.  0.
          4    1    3    3  501    0  0.26028338838E+02  0.48998811720E+02 -0.22953059901E+03  0.23614626051E+03  0.15500000000E+01 0.  1.
         -4    1    3    3    0  501 -0.26028338838E+02 -0.48998811720E+02 -0.77249233475E+02  0.95122050783E+02  0.15500000000E+01 0.  1.
<mgrwt>
<rscale>  2 0.12499931E+03</rscale>
<asrwt>0</asrwt>
<pdfrwt beam="1">  1       21 0.18837295E-02 0.12499931E+03</pdfrwt>
<pdfrwt beam="2">  1       21 0.49080616E-01 0.12499931E+03</pdfrwt>
<totfact> 0.52953211E+06</totfact>
</mgrwt>
</event>
<event>
 5    0  0.1503322E+000  0.1249986E+03  0.7546771E-02  0.1235071E+00
         21   -1    0    0  503  502  0.00000000000E+00  0.00000000000E+00  0.20170021434E+03  0.20170021434E+03  0.00000000000E+00 0.  1.
         21   -1    0    0  502  503 -0.00000000000E+00 -0.00000000000E+00 -0.19366193592E+02  0.19366193592E+02  0.00000000000E+00 0.  1.
         25    2    1    2    0    0  0.00000000000E+00  0.00000000000E+00  0.18233402074E+03  0.22106640793E+03  0.12499864637E+03 0.  0.
          4    1    3    3  501    0 -0.53609402807E+02  0.27140327386E+02  0.60884104591E+02  0.85556075949E+02  0.15500000000E+01 0.  1.
         -4    1    3    3    0  501  0.53609402807E+02 -0.27140327386E+02  0.12144991615E+03  0.13551033198E+03  0.15500000000E+01 0.  1.
<mgrwt>
<rscale>  2 0.12499865E+03</rscale>
<asrwt>0</asrwt>
<pdfrwt beam="1">  1       21 0.31030801E-01 0.12499865E+03</pdfrwt>
<pdfrwt beam="2">  1       21 0.29794145E-02 0.12499865E+03</pdfrwt>
<totfact> 0.62715846E+06</totfact>
</mgrwt>
</event>
<event>
 5    0  0.1470479E+000  0.1250028E+03  0.7546771E-02  0.1235065E+00
         21   -1    0    0  503  502  0.00000000000E+00  0.00000000000E+00  0.13036699171E+02  0.13036699171E+02  0.00000000000E+00 0.  1.
         21   -1    0    0  502  503 -0.00000000000E+00 -0.00000000000E+00 -0.29964826938E+03  0.29964826938E+03  0.00000000000E+00 0.  1.
         25    2    1    2    0    0  0.00000000000E+00  0.00000000000E+00 -0.28661157020E+03  0.31268496855E+03  0.12500278949E+03 0.  0.
          4    1    3    3  501    0  0.29590857087E+02  0.45576220921E+02 -0.66157592436E+02  0.85627333682E+02  0.15500000000E+01 0. -1.
         -4    1    3    3    0  501 -0.29590857087E+02 -0.45576220921E+02 -0.22045397777E+03  0.22705763487E+03  0.15500000000E+01 0. -1.
<mgrwt>
<rscale>  2 0.12500279E+03</rscale>
<asrwt>0</asrwt>
<pdfrwt beam="1">  1       21 0.20056462E-02 0.12500279E+03</pdfrwt>
<pdfrwt beam="2">  1       21 0.46099731E-01 0.12500279E+03</pdfrwt>
<totfact> 0.54414351E+06</totfact>
</mgrwt>
</event>
<event>
 5    0  0.1524259E+000  0.1249979E+03  0.7546771E-02  0.1235072E+00
         21   -1    0    0  503  502  0.00000000000E+00  0.00000000000E+00  0.13961192383E+03  0.13961192383E+03  0.00000000000E+00 0.  1.
         21   -1    0    0  502  503 -0.00000000000E+00 -0.00000000000E+00 -0.27978422355E+02  0.27978422355E+02  0.00000000000E+00 0.  1.
         25    2    1    2    0    0  0.00000000000E+00  0.00000000000E+00  0.11163350147E+03  0.16759034618E+03  0.12499794191E+03 0.  0.
          4    1    3    3  501    0 -0.56125259988E+02  0.17171115675E+02  0.27097669170E+02  0.64665123496E+02  0.15500000000E+01 0. -1.
         -4    1    3    3    0  501  0.56125259988E+02 -0.17171115675E+02  0.84535832304E+02  0.10292522269E+03  0.15500000000E+01 0. -1.
<mgrwt>
<rscale>  2 0.12499794E+03</rscale>
<asrwt>0</asrwt>
<pdfrwt beam="1">  1       21 0.21478757E-01 0.12499794E+03</pdfrwt>
<pdfrwt beam="2">  1       21 0.43043728E-02 0.12499794E+03</pdfrwt>
<totfact> 0.68607313E+06</totfact>
</mgrwt>
</event>
<event>
 5    0  0.1343395E+000  0.1249984E+03  0.7546771E-02  0.1235072E+00
         21   -1    0    0  503  502  0.00000000000E+00  0.00000000000E+00  0.61460908487E+01  0.61460908487E+01  0.00000000000E+00 0. -1.
         21   -1    0    0  502  503 -0.00000000000E+00 -0.00000000000E+00 -0.63555038606E+03  0.63555038606E+03  0.00000000000E+00 0. -1.
         25    2    1    2    0    0  0.00000000000E+00  0.00000000000E+00 -0.62940429521E+03  0.64169647691E+03  0.12499840658E+03 0.  0.
          4    1    3    3  501    0  0.44821940270E+02 -0.43095860410E+02 -0.28327003172E+03  0.29001822854E+03  0.15500000000E+01 0. -1.
         -4    1    3    3    0  501 -0.44821940270E+02  0.43095860410E+02 -0.34613426348E+03  0.35167824836E+03  0.15500000000E+01 0. -1.
<mgrwt>
<rscale>  2 0.12499841E+03</rscale>
<asrwt>0</asrwt>
<pdfrwt beam="1">  1       21 0.94555270E-03 0.12499841E+03</pdfrwt>
<pdfrwt beam="2">  1       21 0.97776955E-01 0.12499841E+03</pdfrwt>
<totfact> 0.35273647E+06</totfact>
</mgrwt>
</event>
<event>
 5    0  0.1385940E+000  0.1250021E+03  0.7546771E-02  0.1235066E+00
         21   -1    0    0  503  502  0.00000000000E+00  0.00000000000E+00  0.36808273701E+03  0.36808273701E+03  0.00000000000E+00 0.  1.
         21   -1    0    0  502  503 -0.00000000000E+00 -0.00000000000E+00 -0.10612775957E+02  0.10612775957E+02  0.00000000000E+00 0.  1.
         25    2    1    2    0    0  0.00000000000E+00  0.00000000000E+00  0.35746996106E+03  0.37869551297E+03  0.12500207393E+03 0.  0.
          4    1    3    3  501    0 -0.31434103562E+02  0.53484615298E+02  0.15621238775E+03  0.16808753531E+03  0.15500000000E+01 0. -1.
         -4    1    3    3    0  501  0.31434103562E+02 -0.53484615298E+02  0.20125757331E+03  0.21060797766E+03  0.15500000000E+01 0. -1.
<mgrwt>
<rscale>  2 0.12500207E+03</rscale>
<asrwt>0</asrwt>
<pdfrwt beam="1">  1       21 0.56628104E-01 0.12500207E+03</pdfrwt>
<pdfrwt beam="2">  1       21 0.16327350E-02 0.12500207E+03</pdfrwt>
<totfact> 0.49483971E+06</totfact>
</mgrwt>
</event>
<event>
 5    0  0.1504548E+000  0.1249911E+03  0.7546771E-02  0.1235083E+00
         21   -1    0    0  503  502  0.00000000000E+00  0.00000000000E+00  0.65520952560E+02  0.65520952560E+02  0.00000000000E+00 0.  1.
         21   -1    0    0  502  503 -0.00000000000E+00 -0.00000000000E+00 -0.59609809180E+02  0.59609809180E+02  0.00000000000E+00 0.  1.
         25    2    1    2    0    0  0.00000000000E+00  0.00000000000E+00  0.59111433796E+01  0.12513076174E+03  0.12499106335E+03 0.  0.
          4    1    3    3  501    0 -0.55132434206E+02 -0.26707476109E+02 -0.93224905395E+01  0.61985368527E+02  0.15500000000E+01 0. -1.
         -4    1    3    3    0  501  0.55132434206E+02  0.26707476109E+02  0.15233633919E+02  0.63145393213E+02  0.15500000000E+01 0. -1.
<mgrwt>
<rscale>  2 0.12499106E+03</rscale>
<asrwt>0</asrwt>
<pdfrwt beam="1">  1       21 0.10080146E-01 0.12499106E+03</pdfrwt>
<pdfrwt beam="2">  1       21 0.91707399E-02 0.12499106E+03</pdfrwt>
<totfact> 0.74042837E+06</totfact>
</mgrwt>
</event>
<event>
 5    0  0.1446431E+000  0.1249991E+03  0.7546771E-02  0.1235071E+00
         21   -1    0    0  503  502  0.00000000000E+00  0.00000000000E+00  0.11934355491E+02  0.11934355491E+02  0.00000000000E+00 0.  1.
         21   -1    0    0  502  503 -0.00000000000E+00 -0.00000000000E+00 -0.32730660369E+03  0.32730660369E+03  0.00000000000E+00 0.  1.
         25    2    1    2    0    0  0.00000000000E+00  0.00000000000E+00 -0.31537224820E+03  0.33924095918E+03  0.12499909381E+03 0.  0.
          4    1    3    3  501    0  0.37741173448E+02  0.49789045709E+02 -0.15949780799E+03  0.17130469491E+03  0.15500000000E+01 0. -1.
         -4    1    3    3    0  501 -0.37741173448E+02 -0.49789045709E+02 -0.15587444021E+03  0.16793626427E+03  0.15500000000E+01 0. -1.
<mgrwt>
<rscale>  2 0.12499909E+03</rscale>
<asrwt>0</asrwt>
<pdfrwt beam="1">  1       21 0.18360546E-02 0.12499909E+03</pdfrwt>
<pdfrwt beam="2">  1       21 0.50354865E-01 0.12499909E+03</pdfrwt>
<totfact> 0.52344155E+06</totfact>
</mgrwt>
</event>
<event>
 5    0  0.1580198E+000  0.1250014E+03  0.7546771E-02  0.1235067E+00
         21   -1    0    0  503  502  0.00000000000E+00  0.00000000000E+00  0.59592053537E+02  0.59592053537E+02  0.00000000000E+00 0. -1.
         21   -1    0    0  502  503 -0.00000000000E+00 -0.00000000000E+00 -0.65551350453E+02  0.65551350453E+02  0.00000000000E+00 0. -1.
         25    2    1    2    0    0  0.00000000000E+00  0.00000000000E+00 -0.59592969158E+01  0.12514340399E+03  0.12500143336E+03 0.  0.
          4    1    3    3  501    0 -0.62440896158E+02  0.19761094330E+01 -0.40609511564E+01  0.62623193353E+02  0.15500000000E+01 0. -1.
         -4    1    3    3    0  501  0.62440896158E+02 -0.19761094330E+01 -0.18983457593E+01  0.62520210637E+02  0.15500000000E+01 0. -1.
<mgrwt>
<rscale>  2 0.12500143E+03</rscale>
<asrwt>0</asrwt>
<pdfrwt beam="1">  1       21 0.91680082E-02 0.12500143E+03</pdfrwt>
<pdfrwt beam="2">  1       21 0.10084823E-01 0.12500143E+03</pdfrwt>
<totfact> 0.74021501E+06</totfact>
</mgrwt>
</event>
<event>
 5    0  0.1454537E+000  0.1250062E+03  0.7546771E-02  0.1235060E+00
         21   -1    0    0  503  502  0.00000000000E+00  0.00000000000E+00  0.23558925420E+02  0.23558925420E+02  0.00000000000E+00 0.  1.
         21   -1    0    0  502  503 -0.00000000000E+00 -0.00000000000E+00 -0.16582400475E+03  0.16582400475E+03  0.00000000000E+00 0.  1.
         25    2    1    2    0    0  0.00000000000E+00  0.00000000000E+00 -0.14226507933E+03  0.18938293017E+03  0.12500616562E+03 0.  0.
          4    1    3    3  501    0 -0.35519319227E+02  0.51403741954E+02 -0.71914096942E+02  0.95278573479E+02  0.15500000000E+01 0. -1.
         -4    1    3    3    0  501  0.35519319227E+02 -0.51403741954E+02 -0.70350982388E+02  0.94104356691E+02  0.15500000000E+01 0. -1.
<mgrwt>
<rscale>  2 0.12500617E+03</rscale>
<asrwt>0</asrwt>
<pdfrwt beam="1">  1       21 0.36244499E-02 0.12500617E+03</pdfrwt>
<pdfrwt beam="2">  1       21 0.25511386E-01 0.12500617E+03</pdfrwt>
<totfact> 0.66080784E+06</totfact>
</mgrwt>
</event>
<event>
 5    0  0.1294860E+000  0.1249862E+03  0.7546771E-02  0.1235091E+00
         21   -1    0    0  503  502  0.00000000000E+00  0.00000000000E+00  0.56896092878E+01  0.56896092878E+01  0.00000000000E+00 0. -1.
         21   -1    0    0  502  503 -0.00000000000E+00 -0.00000000000E+00 -0.68640653896E+03  0.68640653896E+03  0.00000000000E+00 0. -1.
         25    2    1    2    0    0  0.00000000000E+00  0.00000000000E+00 -0.68071692967E+03  0.69209614824E+03  0.12498615954E+03 0.  0.
          4    1    3    3  501    0  0.19454744278E+02 -0.58115355982E+02 -0.40751868171E+03  0.41210406467E+03  0.15500000000E+01 0.  1.
         -4    1    3    3    0  501 -0.19454744278E+02  0.58115355982E+02 -0.27319824796E+03  0.27999208357E+03  0.15500000000E+01 0.  1.
<mgrwt>
<rscale>  2 0.12498616E+03</rscale>
<asrwt>0</asrwt>
<pdfrwt beam="1">  1       21 0.87532469E-03 0.12498616E+03</pdfrwt>
<pdfrwt beam="2">  1       21 0.10560098E+00 0.12498616E+03</pdfrwt>
<totfact> 0.33228500E+06</totfact>
</mgrwt>
</event>
<event>
 5    0  0.1600301E+000  0.1249924E+03  0.7546771E-02  0.1235081E+00
         21   -1    0    0  503  502  0.00000000000E+00  0.00000000000E+00  0.32526203004E+02  0.32526203004E+02  0.00000000000E+00 0. -1.
         21   -1    0    0  502  503 -0.00000000000E+00 -0.00000000000E+00 -0.12008085970E+03  0.12008085970E+03  0.00000000000E+00 0. -1.
         25    2    1    2    0    0  0.00000000000E+00  0.00000000000E+00 -0.87554656695E+02  0.15260706270E+03  0.12499239048E+03 0.  0.
          4    1    3    3  501    0  0.56246446619E+02  0.25638308827E+02 -0.32695318968E+02  0.69945493201E+02  0.15500000000E+01 0. -1.
         -4    1    3    3    0  501 -0.56246446619E+02 -0.25638308827E+02 -0.54859337728E+02  0.82661569503E+02  0.15500000000E+01 0. -1.
<mgrwt>
<rscale>  2 0.12499239E+03</rscale>
<asrwt>0</asrwt>
<pdfrwt beam="1">  1       21 0.50040312E-02 0.12499239E+03</pdfrwt>
<pdfrwt beam="2">  1       21 0.18473979E-01 0.12499239E+03</pdfrwt>
<totfact> 0.70446864E+06</totfact>
</mgrwt>
</event>
<event>
 5    0  0.1273192E+000  0.1249960E+03  0.7546771E-02  0.1235076E+00
         21   -1    0    0  503  502  0.00000000000E+00  0.00000000000E+00  0.75453935023E+01  0.75453935023E+01  0.00000000000E+00 0.  1.
         21   -1    0    0  502  503 -0.00000000000E+00 -0.00000000000E+00 -0.51766676220E+03  0.51766676220E+03  0.00000000000E+00 0.  1.
         25    2    1    2    0    0  0.00000000000E+00  0.00000000000E+00 -0.51012136870E+03  0.52521215570E+03  0.12499599072E+03 0.  0.
          4    1    3    3  501    0 -0.11427757380E+02 -0.39672096008E+02 -0.45210501696E+03  0.45398878588E+03  0.15500000000E+01 0.  1.
         -4    1    3    3    0  501  0.11427757380E+02  0.39672096008E+02 -0.58016351733E+02  0.71223369823E+02  0.15500000000E+01 0.  1.
<mgrwt>
<rscale>  2 0.12499599E+03</rscale>
<asrwt>0</asrwt>
<pdfrwt beam="1">  1       21 0.11608299E-02 0.12499599E+03</pdfrwt>
<pdfrwt beam="2">  1       21 0.79641031E-01 0.12499599E+03</pdfrwt>
<totfact> 0.40713020E+06</totfact>
</mgrwt>
</event>
<event>
 5    0  0.1532130E+000  0.1250032E+03  0.7546771E-02  0.1235064E+00
         21   -1    0    0  503  502  0.00000000000E+00  0.00000000000E+00  0.44314052133E+02  0.44314052133E+02  0.00000000000E+00 0.  1.
         21   -1    0    0  502  503 -0.00000000000E+00 -0.00000000000E+00 -0.88153741564E+02  0.88153741564E+02  0.00000000000E+00 0.  1.
         25    2    1    2    0    0  0.00000000000E+00  0.00000000000E+00 -0.43839689431E+02  0.13246779370E+03  0.12500319195E+03 0.  0.
          4    1    3    3  501    0  0.52096328179E+02  0.67769661276E+01 -0.57764114325E+02  0.78096415304E+02  0.15500000000E+01 0.  1.
         -4    1    3    3    0  501 -0.52096328179E+02 -0.67769661276E+01  0.13924424893E+02  0.54371378392E+02  0.15500000000E+01 0.  1.
<mgrwt>
<rscale>  2 0.12500319E+03</rscale>
<asrwt>0</asrwt>
<pdfrwt beam="1">  1       21 0.68175465E-02 0.12500319E+03</pdfrwt>
<pdfrwt beam="2">  1       21 0.13562114E-01 0.12500319E+03</pdfrwt>
<totfact> 0.73027603E+06</totfact>
</mgrwt>
</event>
<event>
 4    0  0.1919054E+000  0.1247211E+03  0.7546771E-02  0.1235506E+00
         21   -1    0    0  503  502  0.00000000000E+00  0.00000000000E+00  0.13663498946E+03  0.13663498946E+03  0.00000000000E+00 0. -1.
         21   -1    0    0  502  503 -0.00000000000E+00 -0.00000000000E+00 -0.28461491510E+02  0.28461491510E+02  0.00000000000E+00 0. -1.
          4    1    1    2  501    0  0.50293147036E+02 -0.18455741583E+02  0.96288863818E+02  0.11019964987E+03  0.15500000000E+01 0.  1.
         -4    1    1    2    0  501 -0.50293147036E+02  0.18455741583E+02  0.11884634130E+02  0.54896831098E+02  0.15500000000E+01 0.  1.
<mgrwt>
<rscale>  2 0.12472106E+03</rscale>
<asrwt>0</asrwt>
<pdfrwt beam="1">  1       21 0.21020767E-01 0.12472106E+03</pdfrwt>
<pdfrwt beam="2">  1       21 0.43786911E-02 0.12472106E+03</pdfrwt>
<totfact> 0.69392683E+06</totfact>
</mgrwt>
</event>
<event>
 5    0  0.1463131E+000  0.1250068E+03  0.7546771E-02  0.1235059E+00
         21   -1    0    0  503  502  0.00000000000E+00  0.00000000000E+00  0.11280091090E+02  0.11280091090E+02  0.00000000000E+00 0. -1.
         21   -1    0    0  502  503 -0.00000000000E+00 -0.00000000000E+00 -0.34633360468E+03  0.34633360468E+03  0.00000000000E+00 0. -1.
         25    2    1    2    0    0  0.00000000000E+00  0.00000000000E+00 -0.33505351359E+03  0.35761369577E+03  0.12500679355E+03 0.  0.
          4    1    3    3  501    0  0.58786276747E+02  0.18958847496E+02 -0.14053726253E+03  0.15351999508E+03  0.15500000000E+01 0.  1.
         -4    1    3    3    0  501 -0.58786276747E+02 -0.18958847496E+02 -0.19451625106E+03  0.20409370069E+03  0.15500000000E+01 0.  1.
<mgrwt>
<rscale>  2 0.12500679E+03</rscale>
<asrwt>0</asrwt>
<pdfrwt beam="1">  1       21 0.17353987E-02 0.12500679E+03</pdfrwt>
<pdfrwt beam="2">  1       21 0.53282091E-01 0.12500679E+03</pdfrwt>
<totfact> 0.50972337E+06</totfact>
</mgrwt>
</event>
<event>
 5    0  0.1338382E+000  0.1249745E+03  0.7546771E-02  0.1235109E+00
         21   -1    0    0  503  502  0.00000000000E+00  0.00000000000E+00  0.96244963417E+01  0.96244963417E+01  0.00000000000E+00 0. -1.
         21   -1    0    0  502  503 -0.00000000000E+00 -0.00000000000E+00 -0.40569978031E+03  0.40569978031E+03  0.00000000000E+00 0. -1.
         25    2    1    2    0    0  0.00000000000E+00  0.00000000000E+00 -0.39607528397E+03  0.41532427665E+03  0.12497449422E+03 0.  0.
          4    1    3    3  501    0  0.59528735717E+02 -0.41470873640E+01 -0.13663486027E+03  0.14910518519E+03  0.15500000000E+01 0. -1.
         -4    1    3    3    0  501 -0.59528735717E+02  0.41470873640E+01 -0.25944042370E+03  0.26621909146E+03  0.15500000000E+01 0. -1.
<mgrwt>
<rscale>  2 0.12497449E+03</rscale>
<asrwt>0</asrwt>
<pdfrwt beam="1">  1       21 0.14806919E-02 0.12497449E+03</pdfrwt>
<pdfrwt beam="2">  1       21 0.62415344E-01 0.12497449E+03</pdfrwt>
<totfact> 0.47071230E+06</totfact>
</mgrwt>
</event>
<event>
 5    0  0.1222151E+000  0.1250044E+03  0.7546771E-02  0.1235062E+00
         21   -1    0    0  503  502  0.00000000000E+00  0.00000000000E+00  0.38597571170E+03  0.38597571170E+03  0.00000000000E+00 0.  1.
         21   -1    0    0  502  503 -0.00000000000E+00 -0.00000000000E+00 -0.10121168061E+02  0.10121168061E+02  0.00000000000E+00 0.  1.
         25    2    1    2    0    0  0.00000000000E+00  0.00000000000E+00  0.37585454364E+03  0.39609687976E+03  0.12500440065E+03 0.  0.
          4    1    3    3  501    0 -0.20740606511E+02 -0.43655681892E+01  0.16785366950E+01  0.21317854711E+02  0.15500000000E+01 0. -1.
         -4    1    3    3    0  501  0.20740606511E+02  0.43655681892E+01  0.37417600694E+03  0.37477902505E+03  0.15500000000E+01 0. -1.
<mgrwt>
<rscale>  2 0.12500440E+03</rscale>
<asrwt>0</asrwt>
<pdfrwt beam="1">  1       21 0.59380867E-01 0.12500440E+03</pdfrwt>
<pdfrwt beam="2">  1       21 0.15571031E-02 0.12500440E+03</pdfrwt>
<totfact> 0.48296014E+06</totfact>
</mgrwt>
</event>
<event>
 5    0  0.1222151E+000  0.1250094E+03  0.7546771E-02  0.1235055E+00
         21   -1    0    0  503  502  0.00000000000E+00  0.00000000000E+00  0.35687162419E+01  0.35687162419E+01  0.00000000000E+00 0.  1.
         21   -1    0    0  502  503 -0.00000000000E+00 -0.00000000000E+00 -0.10947464573E+04  0.10947464573E+04  0.00000000000E+00 0.  1.
         25    2    1    2    0    0  0.00000000000E+00  0.00000000000E+00 -0.10911777410E+04  0.10983151735E+04  0.12500943105E+03 0.  0.
          4    1    3    3  501    0 -0.92844566649E+01 -0.34570857795E+02 -0.99556651174E+03  0.99621103545E+03  0.15500000000E+01 0. -1.
         -4    1    3    3    0  501  0.92844566649E+01  0.34570857795E+02 -0.95611229276E+02  0.10210413805E+03  0.15500000000E+01 0. -1.
<mgrwt>
<rscale>  2 0.12500943E+03</rscale>
<asrwt>0</asrwt>
<pdfrwt beam="1">  1       21 0.54903363E-03 0.12500943E+03</pdfrwt>
<pdfrwt beam="2">  1       21 0.16842242E+00 0.12500943E+03</pdfrwt>
<totfact> 0.21283958E+06</totfact>
</mgrwt>
</event>
<event>
 5    0  0.1524263E+000  0.1249914E+03  0.7546771E-02  0.1235083E+00
         21   -1    0    0  503  502  0.00000000000E+00  0.00000000000E+00  0.45338042126E+02  0.45338042126E+02  0.00000000000E+00 0.  1.
         21   -1    0    0  502  503 -0.00000000000E+00 -0.00000000000E+00 -0.86146448530E+02  0.86146448530E+02  0.00000000000E+00 0.  1.
         25    2    1    2    0    0  0.00000000000E+00  0.00000000000E+00 -0.40808406404E+02  0.13148449066E+03  0.12499138070E+03 0.  0.
          4    1    3    3  501    0  0.97755249548E+01  0.58403904913E+02  0.54864070211E+00  0.59239180479E+02  0.15500000000E+01 0.  1.
         -4    1    3    3    0  501 -0.97755249548E+01 -0.58403904913E+02 -0.41357047106E+02  0.72245310177E+02  0.15500000000E+01 0.  1.
<mgrwt>
<rscale>  2 0.12499138E+03</rscale>
<asrwt>0</asrwt>
<pdfrwt beam="1">  1       21 0.69750835E-02 0.12499138E+03</pdfrwt>
<pdfrwt beam="2">  1       21 0.13253300E-01 0.12499138E+03</pdfrwt>
<totfact> 0.73181547E+06</totfact>
</mgrwt>
</event>
<event>
 5    0  0.1412958E+000  0.1250050E+03  0.7546771E-02  0.1235062E+00
         21   -1    0    0  503  502  0.00000000000E+00  0.00000000000E+00  0.43671276366E+02  0.43671276366E+02  0.00000000000E+00 0.  1.
         21   -1    0    0  502  503 -0.00000000000E+00 -0.00000000000E+00 -0.89453789101E+02  0.89453789101E+02  0.00000000000E+00 0.  1.
         25    2    1    2    0    0  0.00000000000E+00  0.00000000000E+00 -0.45782512736E+02  0.13312506547E+03  0.12500497823E+03 0.  0.
          4    1    3    3  501    0 -0.56252681675E+02 -0.42175239602E+01  0.57243670679E+01  0.56721447287E+02  0.15500000000E+01 0. -1.
         -4    1    3    3    0  501  0.56252681675E+02  0.42175239602E+01 -0.51506879803E+02  0.76403618180E+02  0.15500000000E+01 0. -1.
<mgrwt>
<rscale>  2 0.12500498E+03</rscale>
<asrwt>0</asrwt>
<pdfrwt beam="1">  1       21 0.67186579E-02 0.12500498E+03</pdfrwt>
<pdfrwt beam="2">  1       21 0.13762121E-01 0.12500498E+03</pdfrwt>
<totfact> 0.72936440E+06</totfact>
</mgrwt>
</event>
<event>
 5    0  0.1390232E+000  0.1249987E+03  0.7546771E-02  0.1235071E+00
         21   -1    0    0  503  502  0.00000000000E+00  0.00000000000E+00  0.16805653711E+03  0.16805653711E+03  0.00000000000E+00 0. -1.
         21   -1    0    0  502  503 -0.00000000000E+00 -0.00000000000E+00 -0.23243170358E+02  0.23243170358E+02  0.00000000000E+00 0. -1.
         25    2    1    2    0    0  0.00000000000E+00  0.00000000000E+00  0.14481336675E+03  0.19129970747E+03  0.12499866754E+03 0.  0.
          4    1    3    3  501    0 -0.19651841097E+02 -0.18687125895E+02  0.15855092072E+03  0.16086081094E+03  0.15500000000E+01 0. -1.
         -4    1    3    3    0  501  0.19651841097E+02  0.18687125895E+02 -0.13737553975E+02  0.30438896529E+02  0.15500000000E+01 0. -1.
<mgrwt>
<rscale>  2 0.12499867E+03</rscale>
<asrwt>0</asrwt>
<pdfrwt beam="1">  1       21 0.25854851E-01 0.12499867E+03</pdfrwt>
<pdfrwt beam="2">  1       21 0.35758725E-02 0.12499867E+03</pdfrwt>
<totfact> 0.65880529E+06</totfact>
</mgrwt>
</event>
<event>
 5    0  0.1586645E+000  0.1250030E+03  0.7546771E-02  0.1235065E+00
         21   -1    0    0  503  502  0.00000000000E+00  0.00000000000E+00  0.26431857757E+02  0.26431857757E+02  0.00000000000E+00 0.  1.
         21   -1    0    0  502  503 -0.00000000000E+00 -0.00000000000E+00 -0.14779283337E+03  0.14779283337E+03  0.00000000000E+00 0.  1.
         25    2    1    2    0    0  0.00000000000E+00  0.00000000000E+00 -0.12136097561E+03  0.17422469112E+03  0.12500302635E+03 0.  0.
          4    1    3    3  501    0  0.24702248234E+01 -0.61923334161E+02 -0.71781300109E+02  0.94844920105E+02  0.15500000000E+01 0. -1.
         -4    1    3    3    0  501 -0.24702248234E+01  0.61923334161E+02 -0.49579675501E+02  0.79379771019E+02  0.15500000000E+01 0. -1.
<mgrwt>
<rscale>  2 0.12500303E+03</rscale>
<asrwt>0</asrwt>
<pdfrwt beam="1">  1       21 0.40664396E-02 0.12500303E+03</pdfrwt>
<pdfrwt beam="2">  1       21 0.22737360E-01 0.12500303E+03</pdfrwt>
<totfact> 0.67815109E+06</totfact>
</mgrwt>
</event>
<event>
 5    0  0.1572792E+000  0.1250046E+03  0.7546771E-02  0.1235062E+00
         21   -1    0    0  503  502  0.00000000000E+00  0.00000000000E+00  0.47459965161E+02  0.47459965161E+02  0.00000000000E+00 0. -1.
         21   -1    0    0  502  503 -0.00000000000E+00 -0.00000000000E+00 -0.82312319703E+02  0.82312319703E+02  0.00000000000E+00 0. -1.
         25    2    1    2    0    0  0.00000000000E+00  0.00000000000E+00 -0.34852354542E+02  0.12977228486E+03  0.12500463712E+03 0.  0.
          4    1    3    3  501    0 -0.44469909498E+01  0.46435910936E+02  0.25729328714E+02  0.53296063730E+02  0.15500000000E+01 0.  1.
         -4    1    3    3    0  501  0.44469909498E+01 -0.46435910936E+02 -0.60581683256E+02  0.76476221135E+02  0.15500000000E+01 0.  1.
<mgrwt>
<rscale>  2 0.12500464E+03</rscale>
<asrwt>0</asrwt>
<pdfrwt beam="1">  1       21 0.73015331E-02 0.12500464E+03</pdfrwt>
<pdfrwt beam="2">  1       21 0.12663434E-01 0.12500464E+03</pdfrwt>
<totfact> 0.73386676E+06</totfact>
</mgrwt>
</event>
<event>
 5    0  0.1535519E+000  0.1250068E+03  0.7546771E-02  0.1235059E+00
         21   -1    0    0  503  502  0.00000000000E+00  0.00000000000E+00  0.23836157970E+02  0.23836157970E+02  0.00000000000E+00 0. -1.
         21   -1    0    0  502  503 -0.00000000000E+00 -0.00000000000E+00 -0.16389701688E+03  0.16389701688E+03  0.00000000000E+00 0. -1.
         25    2    1    2    0    0  0.00000000000E+00  0.00000000000E+00 -0.14006085891E+03  0.18773317485E+03  0.12500680278E+03 0.  0.
          4    1    3    3  501    0 -0.50962866415E+02  0.36029885277E+02 -0.65548592969E+02  0.90522853062E+02  0.15500000000E+01 0.  1.
         -4    1    3    3    0  501  0.50962866415E+02 -0.36029885277E+02 -0.74512265940E+02  0.97210321786E+02  0.15500000000E+01 0.  1.
<mgrwt>
<rscale>  2 0.12500680E+03</rscale>
<asrwt>0</asrwt>
<pdfrwt beam="1">  1       21 0.36671013E-02 0.12500680E+03</pdfrwt>
<pdfrwt beam="2">  1       21 0.25214925E-01 0.12500680E+03</pdfrwt>
<totfact> 0.66263864E+06</totfact>
</mgrwt>
</event>
<event>
 5    0  0.1476923E+000  0.1250010E+03  0.7546771E-02  0.1235068E+00
         21   -1    0    0  503  502  0.00000000000E+00  0.00000000000E+00  0.20683313637E+02  0.20683313637E+02  0.00000000000E+00 0.  1.
         21   -1    0    0  502  503 -0.00000000000E+00 -0.00000000000E+00 -0.18886302062E+03  0.18886302062E+03  0.00000000000E+00 0.  1.
         25    2    1    2    0    0  0.00000000000E+00  0.00000000000E+00 -0.16817970698E+03  0.20954633426E+03  0.12500100944E+03 0.  0.
          4    1    3    3  501    0 -0.33045920062E+02 -0.52208668824E+02 -0.99647735359E+02  0.11725976119E+03  0.15500000000E+01 0.  1.
         -4    1    3    3    0  501  0.33045920062E+02  0.52208668824E+02 -0.68531971622E+02  0.92286573062E+02  0.15500000000E+01 0.  1.
<mgrwt>
<rscale>  2 0.12500101E+03</rscale>
<asrwt>0</asrwt>
<pdfrwt beam="1">  1       21 0.31820483E-02 0.12500101E+03</pdfrwt>
<pdfrwt beam="2">  1       21 0.29055849E-01 0.12500101E+03</pdfrwt>
<totfact> 0.63905666E+06</totfact>
</mgrwt>
</event>
<event>
 5    0  0.1341452E+000  0.1250058E+03  0.7546771E-02  0.1235060E+00
         21   -1    0    0  503  502  0.00000000000E+00  0.00000000000E+00  0.84105334807E+01  0.84105334807E+01  0.00000000000E+00 0. -1.
         21   -1    0    0  502  503 -0.00000000000E+00 -0.00000000000E+00 -0.46449064040E+03  0.46449064040E+03  0.00000000000E+00 0. -1.
         25    2    1    2    0    0  0.00000000000E+00  0.00000000000E+00 -0.45608010692E+03  0.47290117388E+03  0.12500582518E+03 0.  0.
          4    1    3    3  501    0 -0.21186163100E+02 -0.53242573285E+02 -0.13379874861E+03  0.14556143976E+03  0.15500000000E+01 0.  1.
         -4    1    3    3    0  501  0.21186163100E+02  0.53242573285E+02 -0.32228135831E+03  0.32733973411E+03  0.15500000000E+01 0.  1.
<mgrwt>
<rscale>  2 0.12500583E+03</rscale>
<asrwt>0</asrwt>
<pdfrwt beam="1">  1       21 0.12939285E-02 0.12500583E+03</pdfrwt>
<pdfrwt beam="2">  1       21 0.71460084E-01 0.12500583E+03</pdfrwt>
<totfact> 0.43546570E+06</totfact>
</mgrwt>
</event>
<event>
 5    0  0.1561460E+000  0.1249872E+03  0.7546771E-02  0.1235089E+00
         21   -1    0    0  503  502  0.00000000000E+00  0.00000000000E+00  0.63961026910E+02  0.63961026910E+02  0.00000000000E+00 0.  1.
         21   -1    0    0  502  503 -0.00000000000E+00 -0.00000000000E+00 -0.61059819694E+02  0.61059819694E+02  0.00000000000E+00 0.  1.
         25    2    1    2    0    0  0.00000000000E+00  0.00000000000E+00  0.29012072161E+01  0.12502084660E+03  0.12498717967E+03 0.  0.
          4    1    3    3  501    0 -0.25131304216E+02  0.55519496582E+02 -0.12302620660E+02  0.62191268900E+02  0.15500000000E+01 0. -1.
         -4    1    3    3    0  501  0.25131304216E+02 -0.55519496582E+02  0.15203827876E+02  0.62829577703E+02  0.15500000000E+01 0. -1.
<mgrwt>
<rscale>  2 0.12498718E+03</rscale>
<asrwt>0</asrwt>
<pdfrwt beam="1">  1       21 0.98401580E-02 0.12498718E+03</pdfrwt>
<pdfrwt beam="2">  1       21 0.93938184E-02 0.12498718E+03</pdfrwt>
<totfact> 0.74065039E+06</totfact>
</mgrwt>
</event>
<event>
 5    0  0.1452121E+000  0.1250007E+03  0.7546771E-02  0.1235068E+00
         21   -1    0    0  503  502  0.00000000000E+00  0.00000000000E+00  0.12932889025E+02  0.12932889025E+02  0.00000000000E+00 0. -1.
         21   -1    0    0  502  503 -0.00000000000E+00 -0.00000000000E+00 -0.30204338511E+03  0.30204338511E+03  0.00000000000E+00 0. -1.
         25    2    1    2    0    0  0.00000000000E+00  0.00000000000E+00 -0.28911049608E+03  0.31497627413E+03  0.12500069728E+03 0.  0.
          4    1    3    3  501    0  0.58619662671E+02 -0.19861387774E+02 -0.12300377115E+03  0.13770646242E+03  0.15500000000E+01 0. -1.
         -4    1    3    3    0  501 -0.58619662671E+02  0.19861387774E+02 -0.16610672493E+03  0.17726981171E+03  0.15500000000E+01 0. -1.
<mgrwt>
<rscale>  2 0.12500070E+03</rscale>
<asrwt>0</asrwt>
<pdfrwt beam="1">  1       21 0.19896751E-02 0.12500070E+03</pdfrwt>
<pdfrwt beam="2">  1       21 0.46468216E-01 0.12500070E+03</pdfrwt>
<totfact> 0.54232913E+06</totfact>
</mgrwt>
</event>
<event>
 5    0  0.1524712E+000  0.1249997E+03  0.7546771E-02  0.1235070E+00
         21   -1    0    0  503  502  0.00000000000E+00  0.00000000000E+00  0.13286137026E+03  0.13286137026E+03  0.00000000000E+00 0. -1.
         21   -1    0    0  502  503 -0.00000000000E+00 -0.00000000000E+00 -0.29400801023E+02  0.29400801023E+02  0.00000000000E+00 0. -1.
         25    2    1    2    0    0  0.00000000000E+00  0.00000000000E+00  0.10346056923E+03  0.16226217128E+03  0.12499969137E+03 0.  0.
          4    1    3    3  501    0  0.42245418865E+02  0.68863655864E+01  0.11081497989E+03  0.11880429165E+03  0.15500000000E+01 0. -1.
         -4    1    3    3    0  501 -0.42245418865E+02 -0.68863655864E+01 -0.73544106545E+01  0.43457879633E+02  0.15500000000E+01 0. -1.
<mgrwt>
<rscale>  2 0.12499969E+03</rscale>
<asrwt>0</asrwt>
<pdfrwt beam="1">  1       21 0.20440210E-01 0.12499969E+03</pdfrwt>
<pdfrwt beam="2">  1       21 0.45232002E-02 0.12499969E+03</pdfrwt>
<totfact> 0.69244677E+06</totfact>
</mgrwt>
</event>
<event>
 5    0  0.1500848E+000  0.1249990E+03  0.7546771E-02  0.1235071E+00
         21   -1    0    0  503  502  0.00000000000E+00  0.00000000000E+00  0.18006122312E+03  0.18006122312E+03  0.00000000000E+00 0.  1.
         21   -1    0    0  502  503 -0.00000000000E+00 -0.00000000000E+00 -0.21693649896E+02  0.21693649896E+02  0.00000000000E+00 0.  1.
         25    2    1    2    0    0  0.00000000000E+00  0.00000000000E+00  0.15836757322E+03  0.20175487301E+03  0.12499896214E+03 0.  0.
          4    1    3    3  501    0  0.60811541999E+02  0.58054193085E+01  0.10035410653E+03  0.11749508811E+03  0.15500000000E+01 0. -1.
         -4    1    3    3    0  501 -0.60811541999E+02 -0.58054193085E+01  0.58013466691E+02  0.84259784899E+02  0.15500000000E+01 0. -1.
<mgrwt>
<rscale>  2 0.12499896E+03</rscale>
<asrwt>0</asrwt>
<pdfrwt beam="1">  1       21 0.27701726E-01 0.12499896E+03</pdfrwt>
<pdfrwt beam="2">  1       21 0.33374847E-02 0.12499896E+03</pdfrwt>
<totfact> 0.64739296E+06</totfact>
</mgrwt>
</event>
<event>
 5    0  0.1384004E+000  0.1249749E+03  0.7546771E-02  0.1235109E+00
         21   -1    0    0  503  502  0.00000000000E+00  0.00000000000E+00  0.12081087852E+02  0.12081087852E+02  0.00000000000E+00 0. -1.
         21   -1    0    0  502  503 -0.00000000000E+00 -0.00000000000E+00 -0.32320594673E+03  0.32320594673E+03  0.00000000000E+00 0. -1.
         25    2    1    2    0    0  0.00000000000E+00  0.00000000000E+00 -0.31112485888E+03  0.33528703458E+03  0.12497486846E+03 0.  0.
          4    1    3    3  501    0 -0.33370370147E+02 -0.36696108258E+02 -0.53682085979E+02  0.73105094351E+02  0.15500000000E+01 0.  1.
         -4    1    3    3    0  501  0.33370370147E+02  0.36696108258E+02 -0.25744277290E+03  0.26218194023E+03  0.15500000000E+01 0.  1.
<mgrwt>
<rscale>  2 0.12497487E+03</rscale>
<asrwt>0</asrwt>
<pdfrwt beam="1">  1       21 0.18586290E-02 0.12497487E+03</pdfrwt>
<pdfrwt beam="2">  1       21 0.49723989E-01 0.12497487E+03</pdfrwt>
<totfact> 0.52676910E+06</totfact>
</mgrwt>
</event>
<event>
 5    0  0.1382157E+000  0.1249996E+03  0.7546771E-02  0.1235070E+00
         21   -1    0    0  503  502  0.00000000000E+00  0.00000000000E+00  0.81020343017E+01  0.81020343017E+01  0.00000000000E+00 0.  1.
         21   -1    0    0  502  503 -0.00000000000E+00 -0.00000000000E+00 -0.48212909151E+03  0.48212909151E+03  0.00000000000E+00 0.  1.
         25    2    1    2    0    0  0.00000000000E+00  0.00000000000E+00 -0.47402705721E+03  0.49023112582E+03  0.12499962300E+03 0.  0.
          4    1    3    3  501    0 -0.50910369011E+02 -0.27639990216E+02 -0.32882103270E+03  0.33388846757E+03  0.15500000000E+01 0.  1.
         -4    1    3    3    0  501  0.50910369011E+02  0.27639990216E+02 -0.14520602452E+03  0.15634265825E+03  0.15500000000E+01 0.  1.
<mgrwt>
<rscale>  2 0.12499962E+03</rscale>
<asrwt>0</asrwt>
<pdfrwt beam="1">  1       21 0.12464668E-02 0.12499962E+03</pdfrwt>
<pdfrwt beam="2">  1       21 0.74173707E-01 0.12499962E+03</pdfrwt>
<totfact> 0.42579262E+06</totfact>
</mgrwt>
</event>
<event>
 5    0  0.1541236E+000  0.1249970E+03  0.7546771E-02  0.1235074E+00
         21   -1    0    0  503  502  0.00000000000E+00  0.00000000000E+00  0.35706119741E+02  0.35706119741E+02  0.00000000000E+00 0. -1.
         21   -1    0    0  502  503 -0.00000000000E+00 -0.00000000000E+00 -0.10939467966E+03  0.10939467966E+03  0.00000000000E+00 0. -1.
         25    2    1    2    0    0  0.00000000000E+00  0.00000000000E+00 -0.73688559923E+02  0.14510079940E+03  0.12499695246E+03 0.  0.
          4    1    3    3  501    0  0.50286267318E+02  0.10081125169E+01 -0.79872463180E+02  0.94402001282E+02  0.15500000000E+01 0.  1.
         -4    1    3    3    0  501 -0.50286267318E+02 -0.10081125169E+01  0.61839032564E+01  0.50698798123E+02  0.15500000000E+01 0.  1.
<mgrwt>
<rscale>  2 0.12499695E+03</rscale>
<asrwt>0</asrwt>
<pdfrwt beam="1">  1       21 0.54932491E-02 0.12499695E+03</pdfrwt>
<pdfrwt beam="2">  1       21 0.16829951E-01 0.12499695E+03</pdfrwt>
<totfact> 0.71385741E+06</totfact>
</mgrwt>
</event>
<event>
 5    0  0.1222151E+000  0.1250174E+03  0.7546771E-02  0.1235042E+00
         21   -1    0    0  503  502  0.00000000000E+00  0.00000000000E+00  0.20707031310E+04  0.20707031310E+04  0.00000000000E+00 0.  1.
         21   -1    0    0  502  503 -0.00000000000E+00 -0.00000000000E+00 -0.18869620852E+01  0.18869620852E+01  0.00000000000E+00 0.  1.
         25    2    1    2    0    0  0.00000000000E+00  0.00000000000E+00  0.20688161690E+04  0.20725900931E+04  0.12501741156E+03 0.  0.
          4    1    3    3  501    0 -0.58337289896E+02 -0.16555792622E+02  0.78429806953E+03  0.78664045029E+03  0.15500000000E+01 0.  1.
         -4    1    3    3    0  501  0.58337289896E+02  0.16555792622E+02  0.12845180994E+04  0.12859496428E+04  0.15500000000E+01 0.  1.
<mgrwt>
<rscale>  2 0.12501741E+03</rscale>
<asrwt>0</asrwt>
<pdfrwt beam="1">  1       21 0.31856789E+00 0.12501741E+03</pdfrwt>
<pdfrwt beam="2">  1       21 0.29030352E-03 0.12501741E+03</pdfrwt>
<totfact> 0.72586275E+05</totfact>
</mgrwt>
</event>
<event>
 5    0  0.1579289E+000  0.1249944E+03  0.7546771E-02  0.1235078E+00
         21   -1    0    0  503  502  0.00000000000E+00  0.00000000000E+00  0.34240845168E+02  0.34240845168E+02  0.00000000000E+00 0. -1.
         21   -1    0    0  502  503 -0.00000000000E+00 -0.00000000000E+00 -0.11407135932E+03  0.11407135932E+03  0.00000000000E+00 0. -1.
         25    2    1    2    0    0  0.00000000000E+00  0.00000000000E+00 -0.79830514155E+02  0.14831220449E+03  0.12499439592E+03 0.  0.
          4    1    3    3  501    0 -0.41119746729E+02 -0.38984606579E+02 -0.71148018791E+02  0.90967445820E+02  0.15500000000E+01 0.  1.
         -4    1    3    3    0  501  0.41119746729E+02  0.38984606579E+02 -0.86824953640E+01  0.57344758670E+02  0.15500000000E+01 0.  1.
<mgrwt>
<rscale>  2 0.12499440E+03</rscale>
<asrwt>0</asrwt>
<pdfrwt beam="1">  1       21 0.52678222E-02 0.12499440E+03</pdfrwt>
<pdfrwt beam="2">  1       21 0.17549440E-01 0.12499440E+03</pdfrwt>
<totfact> 0.70981994E+06</totfact>
</mgrwt>
</event>
<event>
 5    0  0.1536176E+000  0.1250172E+03  0.7546771E-02  0.1235042E+00
         21   -1    0    0  503  502  0.00000000000E+00  0.00000000000E+00  0.42924284870E+02  0.42924284870E+02  0.00000000000E+00 0.  1.
         21   -1    0    0  502  503 -0.00000000000E+00 -0.00000000000E+00 -0.91028349371E+02  0.91028349371E+02  0.00000000000E+00 0.  1.
         25    2    1    2    0    0  0.00000000000E+00  0.00000000000E+00 -0.48104064501E+02  0.13395263424E+03  0.12501722761E+03 0.  0.
          4    1    3    3  501    0 -0.11665754596E+02 -0.47899508808E+02  0.17091312036E+02  0.52201228160E+02  0.15500000000E+01 0.  1.
         -4    1    3    3    0  501  0.11665754596E+02  0.47899508808E+02 -0.65195376537E+02  0.81751406080E+02  0.15500000000E+01 0.  1.
<mgrwt>
<rscale>  2 0.12501723E+03</rscale>
<asrwt>0</asrwt>
<pdfrwt beam="1">  1       21 0.66037362E-02 0.12501723E+03</pdfrwt>
<pdfrwt beam="2">  1       21 0.14004361E-01 0.12501723E+03</pdfrwt>
<totfact> 0.72803454E+06</totfact>
</mgrwt>
</event>
<event>
 4    0  0.1222151E+000  0.1248726E+03  0.7546771E-02  0.1235268E+00
         21   -1    0    0  503  502  0.00000000000E+00  0.00000000000E+00  0.59209052758E+01  0.59209052758E+01  0.00000000000E+00 0. -1.
         21   -1    0    0  502  503 -0.00000000000E+00 -0.00000000000E+00 -0.65839502037E+03  0.65839502037E+03  0.00000000000E+00 0. -1.
          4    1    1    2  501    0 -0.11631578009E+02  0.20494155992E+02 -0.18755691327E+02  0.30157627459E+02  0.15500000000E+01 0.  1.
         -4    1    1    2    0  501  0.11631578009E+02 -0.20494155992E+02 -0.63371842376E+03  0.63415829818E+03  0.15500000000E+01 0.  1.
<mgrwt>
<rscale>  2 0.12487265E+03</rscale>
<asrwt>0</asrwt>
<pdfrwt beam="1">  1       21 0.91090879E-03 0.12487265E+03</pdfrwt>
<pdfrwt beam="2">  1       21 0.10129151E+00 0.12487265E+03</pdfrwt>
<totfact> 0.34440393E+06</totfact>
</mgrwt>
</event>
<event>
 5    0  0.1349785E+000  0.1249989E+03  0.7546771E-02  0.1235071E+00
         21   -1    0    0  503  502  0.00000000000E+00  0.00000000000E+00  0.46231428931E+03  0.46231428931E+03  0.00000000000E+00 0. -1.
         21   -1    0    0  502  503 -0.00000000000E+00 -0.00000000000E+00 -0.84491858731E+01  0.84491858731E+01  0.00000000000E+00 0. -1.
         25    2    1    2    0    0  0.00000000000E+00  0.00000000000E+00  0.45386510344E+03  0.47076347518E+03  0.12499886979E+03 0.  0.
          4    1    3    3  501    0  0.83256273492E+01 -0.60543649439E+02  0.17798323889E+03  0.18818949329E+03  0.15500000000E+01 0. -1.
         -4    1    3    3    0  501 -0.83256273492E+01  0.60543649439E+02  0.27588186455E+03  0.28257398190E+03  0.15500000000E+01 0. -1.
<mgrwt>
<rscale>  2 0.12499887E+03</rscale>
<asrwt>0</asrwt>
<pdfrwt beam="1">  1       21 0.71125256E-01 0.12499887E+03</pdfrwt>
<pdfrwt beam="2">  1       21 0.12998751E-02 0.12499887E+03</pdfrwt>
<totfact> 0.43676582E+06</totfact>
</mgrwt>
</event>
<event>
 5    0  0.1468743E+000  0.1249997E+03  0.7546771E-02  0.1235070E+00
         21   -1    0    0  503  502  0.00000000000E+00  0.00000000000E+00  0.19628539130E+03  0.19628539130E+03  0.00000000000E+00 0. -1.
         21   -1    0    0  502  503 -0.00000000000E+00 -0.00000000000E+00 -0.19900783830E+02  0.19900783830E+02  0.00000000000E+00 0. -1.
         25    2    1    2    0    0  0.00000000000E+00  0.00000000000E+00  0.17638460747E+03  0.21618617513E+03  0.12499973026E+03 0.  0.
          4    1    3    3  501    0 -0.81115589776E+01 -0.28636341756E+02  0.18320419635E+03  0.18561254677E+03  0.15500000000E+01 0. -1.
         -4    1    3    3    0  501  0.81115589776E+01  0.28636341756E+02 -0.68195888855E+01  0.30573628355E+02  0.15500000000E+01 0. -1.
<mgrwt>
<rscale>  2 0.12499973E+03</rscale>
<asrwt>0</asrwt>
<pdfrwt beam="1">  1       21 0.30197751E-01 0.12499973E+03</pdfrwt>
<pdfrwt beam="2">  1       21 0.30616592E-02 0.12499973E+03</pdfrwt>
<totfact> 0.63214931E+06</totfact>
</mgrwt>
</event>
<event>
 5    0  0.1580939E+000  0.1250013E+03  0.7546771E-02  0.1235067E+00
         21   -1    0    0  503  502  0.00000000000E+00  0.00000000000E+00  0.68420733464E+02  0.68420733464E+02  0.00000000000E+00 0.  1.
         21   -1    0    0  502  503 -0.00000000000E+00 -0.00000000000E+00 -0.57092774057E+02  0.57092774057E+02  0.00000000000E+00 0.  1.
         25    2    1    2    0    0  0.00000000000E+00  0.00000000000E+00  0.11327959407E+02  0.12551350752E+03  0.12500127162E+03 0.  0.
          4    1    3    3  501    0 -0.10440732522E+02 -0.52432373247E+02 -0.26806817003E+02  0.59826169840E+02  0.15500000000E+01 0. -1.
         -4    1    3    3    0  501  0.10440732522E+02  0.52432373247E+02  0.38134776410E+02  0.65687337682E+02  0.15500000000E+01 0. -1.
<mgrwt>
<rscale>  2 0.12500127E+03</rscale>
<asrwt>0</asrwt>
<pdfrwt beam="1">  1       21 0.10526267E-01 0.12500127E+03</pdfrwt>
<pdfrwt beam="2">  1       21 0.87835038E-02 0.12500127E+03</pdfrwt>
<totfact> 0.73971111E+06</totfact>
</mgrwt>
</event>
<event>
 5    0  0.1514211E+000  0.1249851E+03  0.7546771E-02  0.1235093E+00
         21   -1    0    0  503  502  0.00000000000E+00  0.00000000000E+00  0.54412197107E+02  0.54412197107E+02  0.00000000000E+00 0. -1.
         21   -1    0    0  502  503 -0.00000000000E+00 -0.00000000000E+00 -0.71772906580E+02  0.71772906580E+02  0.00000000000E+00 0. -1.
         25    2    1    2    0    0  0.00000000000E+00  0.00000000000E+00 -0.17360709472E+02  0.12618510369E+03  0.12498514375E+03 0.  0.
          4    1    3    3  501    0  0.46826305889E+02 -0.35707658048E+01 -0.50276224018E+02  0.68815365240E+02  0.15500000000E+01 0.  1.
         -4    1    3    3    0  501 -0.46826305889E+02  0.35707658048E+01  0.32915514546E+02  0.57369738447E+02  0.15500000000E+01 0.  1.
<mgrwt>
<rscale>  2 0.12498514E+03</rscale>
<asrwt>0</asrwt>
<pdfrwt beam="1">  1       21 0.83711073E-02 0.12498514E+03</pdfrwt>
<pdfrwt beam="2">  1       21 0.11041986E-01 0.12498514E+03</pdfrwt>
<totfact> 0.73908570E+06</totfact>
</mgrwt>
</event>
<event>
 5    0  0.1481011E+000  0.1250028E+03  0.7546771E-02  0.1235065E+00
         21   -1    0    0  503  502  0.00000000000E+00  0.00000000000E+00  0.28275825442E+02  0.28275825442E+02  0.00000000000E+00 0. -1.
         21   -1    0    0  502  503 -0.00000000000E+00 -0.00000000000E+00 -0.13815422358E+03  0.13815422358E+03  0.00000000000E+00 0. -1.
         25    2    1    2    0    0  0.00000000000E+00  0.00000000000E+00 -0.10987839813E+03  0.16643004902E+03  0.12500279533E+03 0.  0.
          4    1    3    3  501    0 -0.21514081369E+02 -0.34910852560E+02  0.78265941376E+01  0.41776565194E+02  0.15500000000E+01 0.  1.
         -4    1    3    3    0  501  0.21514081369E+02  0.34910852560E+02 -0.11770499227E+03  0.12465348382E+03  0.15500000000E+01 0.  1.
<mgrwt>
<rscale>  2 0.12500280E+03</rscale>
<asrwt>0</asrwt>
<pdfrwt beam="1">  1       21 0.43501269E-02 0.12500280E+03</pdfrwt>
<pdfrwt beam="2">  1       21 0.21254496E-01 0.12500280E+03</pdfrwt>
<totfact> 0.68737342E+06</totfact>
</mgrwt>
</event>
<event>
 5    0  0.1485470E+000  0.1249925E+03  0.7546771E-02  0.1235081E+00
         21   -1    0    0  503  502  0.00000000000E+00  0.00000000000E+00  0.76917339255E+02  0.76917339255E+02  0.00000000000E+00 0.  1.
         21   -1    0    0  502  503 -0.00000000000E+00 -0.00000000000E+00 -0.50778950813E+02  0.50778950813E+02  0.00000000000E+00 0.  1.
         25    2    1    2    0    0  0.00000000000E+00  0.00000000000E+00  0.26138388441E+02  0.12769629007E+03  0.12499250836E+03 0.  0.
          4    1    3    3  501    0 -0.42727547039E+01 -0.48741006055E+02  0.52761087808E+02  0.71972751724E+02  0.15500000000E+01 0. -1.
         -4    1    3    3    0  501  0.42727547039E+01  0.48741006055E+02 -0.26622699367E+02  0.55723538344E+02  0.15500000000E+01 0. -1.
<mgrwt>
<rscale>  2 0.12499251E+03</rscale>
<asrwt>0</asrwt>
<pdfrwt beam="1">  1       21 0.11833437E-01 0.12499251E+03</pdfrwt>
<pdfrwt beam="2">  1       21 0.78121462E-02 0.12499251E+03</pdfrwt>
<totfact> 0.73688720E+06</totfact>
</mgrwt>
</event>
<event>
 5    0  0.1393003E+000  0.1250063E+03  0.7546771E-02  0.1235059E+00
         21   -1    0    0  503  502  0.00000000000E+00  0.00000000000E+00  0.37911092033E+02  0.37911092033E+02  0.00000000000E+00 0.  1.
         21   -1    0    0  502  503 -0.00000000000E+00 -0.00000000000E+00 -0.10304750094E+03  0.10304750094E+03  0.00000000000E+00 0.  1.
         25    2    1    2    0    0  0.00000000000E+00  0.00000000000E+00 -0.65136408908E+02  0.14095859297E+03  0.12500629251E+03 0.  0.
          4    1    3    3  501    0 -0.20957916838E+02  0.37195181002E+02 -0.84014072481E+02  0.94252228848E+02  0.15500000000E+01 0. -1.
         -4    1    3    3    0  501  0.20957916838E+02 -0.37195181002E+02  0.18877663573E+02  0.46706364127E+02  0.15500000000E+01 0. -1.
<mgrwt>
<rscale>  2 0.12500629E+03</rscale>
<asrwt>0</asrwt>
<pdfrwt beam="1">  1       21 0.58324757E-02 0.12500629E+03</pdfrwt>
<pdfrwt beam="2">  1       21 0.15853462E-01 0.12500629E+03</pdfrwt>
<totfact> 0.71902885E+06</totfact>
</mgrwt>
</event>
<event>
 5    0  0.1222151E+000  0.1250082E+03  0.7546771E-02  0.1235056E+00
         21   -1    0    0  503  502  0.00000000000E+00  0.00000000000E+00  0.41880061164E+01  0.41880061164E+01  0.00000000000E+00 0. -1.
         21   -1    0    0  502  503 -0.00000000000E+00 -0.00000000000E+00 -0.93284580057E+03  0.93284580057E+03  0.00000000000E+00 0. -1.
         25    2    1    2    0    0  0.00000000000E+00  0.00000000000E+00 -0.92865779445E+03  0.93703380668E+03  0.12500822242E+03 0.  0.
          4    1    3    3  501    0  0.42656864562E+02  0.44558144829E+02 -0.38962451404E+03  0.39448029204E+03  0.15500000000E+01 0. -1.
         -4    1    3    3    0  501 -0.42656864562E+02 -0.44558144829E+02 -0.53903328041E+03  0.54255351464E+03  0.15500000000E+01 0. -1.
<mgrwt>
<rscale>  2 0.12500822E+03</rscale>
<asrwt>0</asrwt>
<pdfrwt beam="1">  1       21 0.64430849E-03 0.12500822E+03</pdfrwt>
<pdfrwt beam="2">  1       21 0.14351477E+00 0.12500822E+03</pdfrwt>
<totfact> 0.25256659E+06</totfact>
</mgrwt>
</event>
<event>
 5    0  0.1222151E+000  0.1249988E+03  0.7546771E-02  0.1235071E+00
         21   -1    0    0  503  502  0.00000000000E+00  0.00000000000E+00  0.39935100263E+02  0.39935100263E+02  0.00000000000E+00 0. -1.
         21   -1    0    0  502  503 -0.00000000000E+00 -0.00000000000E+00 -0.97813048242E+02  0.97813048242E+02  0.00000000000E+00 0. -1.
         25    2    1    2    0    0  0.00000000000E+00  0.00000000000E+00 -0.57877947979E+02  0.13774814850E+03  0.12499878221E+03 0.  0.
          4    1    3    3  501    0 -0.96929156261E+01  0.22165703773E+02  0.34543072994E+02  0.42200680433E+02  0.15500000000E+01 0. -1.
         -4    1    3    3    0  501  0.96929156261E+01 -0.22165703773E+02 -0.92421020974E+02  0.95547468072E+02  0.15500000000E+01 0. -1.
<mgrwt>
<rscale>  2 0.12499878E+03</rscale>
<asrwt>0</asrwt>
<pdfrwt beam="1">  1       21 0.61438616E-02 0.12499878E+03</pdfrwt>
<pdfrwt beam="2">  1       21 0.15048161E-01 0.12499878E+03</pdfrwt>
<totfact> 0.72336847E+06</totfact>
</mgrwt>
</event>
<event>
 5    0  0.1496210E+000  0.1250108E+03  0.7546771E-02  0.1235052E+00
         21   -1    0    0  503  502  0.00000000000E+00  0.00000000000E+00  0.11841918429E+03  0.11841918429E+03  0.00000000000E+00 0. -1.
         21   -1    0    0  502  503 -0.00000000000E+00 -0.00000000000E+00 -0.32992334722E+02  0.32992334722E+02  0.00000000000E+00 0. -1.
         25    2    1    2    0    0  0.00000000000E+00  0.00000000000E+00  0.85426849569E+02  0.15141151901E+03  0.12501080538E+03 0.  0.
          4    1    3    3  501    0 -0.26271110062E+02 -0.20609757322E+02  0.10668418572E+03  0.11179826163E+03  0.15500000000E+01 0.  1.
         -4    1    3    3    0  501  0.26271110062E+02  0.20609757322E+02 -0.21257336147E+02  0.39613257388E+02  0.15500000000E+01 0.  1.
<mgrwt>
<rscale>  2 0.12501081E+03</rscale>
<asrwt>0</asrwt>
<pdfrwt beam="1">  1       21 0.18218336E-01 0.12501081E+03</pdfrwt>
<pdfrwt beam="2">  1       21 0.50757438E-02 0.12501081E+03</pdfrwt>
<totfact> 0.70562928E+06</totfact>
</mgrwt>
</event>
<event>
 5    0  0.1533981E+000  0.1249996E+03  0.7546771E-02  0.1235070E+00
         21   -1    0    0  503  502  0.00000000000E+00  0.00000000000E+00  0.17895810540E+03  0.17895810540E+03  0.00000000000E+00 0.  1.
         21   -1    0    0  502  503 -0.00000000000E+00 -0.00000000000E+00 -0.21827607781E+02  0.21827607781E+02  0.00000000000E+00 0.  1.
         25    2    1    2    0    0  0.00000000000E+00  0.00000000000E+00  0.15713049762E+03  0.20078571318E+03  0.12499963734E+03 0.  0.
          4    1    3    3  501    0 -0.33092020423E+02 -0.50962803253E+02  0.10192756478E+03  0.11867569293E+03  0.15500000000E+01 0. -1.
         -4    1    3    3    0  501  0.33092020423E+02  0.50962803253E+02  0.55202932839E+02  0.82110020247E+02  0.15500000000E+01 0. -1.
<mgrwt>
<rscale>  2 0.12499964E+03</rscale>
<asrwt>0</asrwt>
<pdfrwt beam="1">  1       21 0.27532015E-01 0.12499964E+03</pdfrwt>
<pdfrwt beam="2">  1       21 0.33580936E-02 0.12499964E+03</pdfrwt>
<totfact> 0.64842810E+06</totfact>
</mgrwt>
</event>
<event>
 5    0  0.1760949E+000  0.1249980E+03  0.7546771E-02  0.1235072E+00
         21   -1    0    0  503  502  0.00000000000E+00  0.00000000000E+00  0.51442976033E+02  0.51442976033E+02  0.00000000000E+00 0. -1.
         21   -1    0    0  502  503 -0.00000000000E+00 -0.00000000000E+00 -0.75931142637E+02  0.75931142637E+02  0.00000000000E+00 0. -1.
         25    2    1    2    0    0  0.00000000000E+00  0.00000000000E+00 -0.24488166604E+02  0.12737411867E+03  0.12499798320E+03 0.  0.
          4    1    3    3  501    0 -0.60964001108E+02 -0.27901514269E+01 -0.25889949803E+02  0.66310529910E+02  0.15500000000E+01 0. -1.
         -4    1    3    3    0  501  0.60964001108E+02  0.27901514269E+01  0.14017831993E+01  0.61063588760E+02  0.15500000000E+01 0. -1.
<mgrwt>
<rscale>  2 0.12499798E+03</rscale>
<asrwt>0</asrwt>
<pdfrwt beam="1">  1       21 0.79143041E-02 0.12499798E+03</pdfrwt>
<pdfrwt beam="2">  1       21 0.11681714E-01 0.12499798E+03</pdfrwt>
<totfact> 0.73722087E+06</totfact>
</mgrwt>
</event>
<event>
 5    0  0.1402378E+000  0.1250508E+03  0.7546771E-02  0.1234990E+00
         21   -1    0    0  503  502  0.00000000000E+00  0.00000000000E+00  0.68469441645E+01  0.68469441645E+01  0.00000000000E+00 0.  1.
         21   -1    0    0  502  503 -0.00000000000E+00 -0.00000000000E+00 -0.57097357409E+03  0.57097357409E+03  0.00000000000E+00 0.  1.
         25    2    1    2    0    0  0.00000000000E+00  0.00000000000E+00 -0.56412662993E+03  0.57782051826E+03  0.12505077659E+03 0.  0.
          4    1    3    3  501    0 -0.48353038233E+02 -0.69300825340E+00 -0.46506382694E+03  0.46757380401E+03  0.15500000000E+01 0. -1.
         -4    1    3    3    0  501  0.48353038233E+02  0.69300825340E+00 -0.99062802988E+02  0.11024671425E+03  0.15500000000E+01 0. -1.
<mgrwt>
<rscale>  2 0.12505078E+03</rscale>
<asrwt>0</asrwt>
<pdfrwt beam="1">  1       21 0.10533759E-02 0.12505078E+03</pdfrwt>
<pdfrwt beam="2">  1       21 0.87842102E-01 0.12505078E+03</pdfrwt>
<totfact> 0.38067211E+06</totfact>
</mgrwt>
</event>
<event>
 5    0  0.1556175E+000  0.1249978E+03  0.7546771E-02  0.1235073E+00
         21   -1    0    0  503  502  0.00000000000E+00  0.00000000000E+00  0.19028729808E+03  0.19028729808E+03  0.00000000000E+00 0.  1.
         21   -1    0    0  502  503 -0.00000000000E+00 -0.00000000000E+00 -0.20527450356E+02  0.20527450356E+02  0.00000000000E+00 0.  1.
         25    2    1    2    0    0  0.00000000000E+00  0.00000000000E+00  0.16975984773E+03  0.21081474844E+03  0.12499780902E+03 0.  0.
          4    1    3    3  501    0 -0.52615718791E+02 -0.33665762066E+02  0.87212709534E+02  0.10728586395E+03  0.15500000000E+01 0.  1.
         -4    1    3    3    0  501  0.52615718791E+02  0.33665762066E+02  0.82547138192E+02  0.10352888449E+03  0.15500000000E+01 0.  1.
<mgrwt>
<rscale>  2 0.12499781E+03</rscale>
<asrwt>0</asrwt>
<pdfrwt beam="1">  1       21 0.29274968E-01 0.12499781E+03</pdfrwt>
<pdfrwt beam="2">  1       21 0.31580694E-02 0.12499781E+03</pdfrwt>
<totfact> 0.63777452E+06</totfact>
</mgrwt>
</event>
<event>
 5    0  0.1222151E+000  0.1249981E+03  0.7546771E-02  0.1235072E+00
         21   -1    0    0  503  502  0.00000000000E+00  0.00000000000E+00  0.38105583430E+01  0.38105583430E+01  0.00000000000E+00 0. -1.
         21   -1    0    0  502  503 -0.00000000000E+00 -0.00000000000E+00 -0.10250806202E+04  0.10250806202E+04  0.00000000000E+00 0. -1.
         25    2    1    2    0    0  0.00000000000E+00  0.00000000000E+00 -0.10212700619E+04  0.10288911786E+04  0.12499807214E+03 0.  0.
          4    1    3    3  501    0 -0.49378700914E+02 -0.37788006643E+02 -0.46020391620E+03  0.46438802368E+03  0.15500000000E+01 0. -1.
         -4    1    3    3    0  501  0.49378700914E+02  0.37788006643E+02 -0.56106614569E+03  0.56450315490E+03  0.15500000000E+01 0. -1.
<mgrwt>
<rscale>  2 0.12499807E+03</rscale>
<asrwt>0</asrwt>
<pdfrwt beam="1">  1       21 0.58624014E-03 0.12499807E+03</pdfrwt>
<pdfrwt beam="2">  1       21 0.15770460E+00 0.12499807E+03</pdfrwt>
<totfact> 0.22906959E+06</totfact>
</mgrwt>
</event>
<event>
 4    0  0.1526288E+000  0.1248821E+03  0.7546771E-02  0.1235254E+00
         21   -1    0    0  503  502  0.00000000000E+00  0.00000000000E+00  0.78885737616E+03  0.78885737616E+03  0.00000000000E+00 0.  1.
         21   -1    0    0  502  503 -0.00000000000E+00 -0.00000000000E+00 -0.49424467526E+01  0.49424467526E+01  0.00000000000E+00 0.  1.
          4    1    1    2  501    0 -0.43473223758E+01  0.62270007910E+02  0.39085686925E+03  0.39581302131E+03  0.15500000000E+01 0.  1.
         -4    1    1    2    0  501  0.43473223758E+01 -0.62270007910E+02  0.39305806016E+03  0.39798680160E+03  0.15500000000E+01 0.  1.
<mgrwt>
<rscale>  2 0.12488211E+03</rscale>
<asrwt>0</asrwt>
<pdfrwt beam="1">  1       21 0.12136257E+00 0.12488211E+03</pdfrwt>
<pdfrwt beam="2">  1       21 0.76037705E-03 0.12488211E+03</pdfrwt>
<totfact> 0.29655789E+06</totfact>
</mgrwt>
</event>
<event>
 5    0  0.1577004E+000  0.1250150E+03  0.7546771E-02  0.1235046E+00
         21   -1    0    0  503  502  0.00000000000E+00  0.00000000000E+00  0.25846189073E+02  0.25846189073E+02  0.00000000000E+00 0.  1.
         21   -1    0    0  502  503 -0.00000000000E+00 -0.00000000000E+00 -0.15117066581E+03  0.15117066581E+03  0.00000000000E+00 0.  1.
         25    2    1    2    0    0  0.00000000000E+00  0.00000000000E+00 -0.12532447673E+03  0.17701685488E+03  0.12501496888E+03 0.  0.
          4    1    3    3  501    0  0.52992370586E+02  0.20478185254E+02 -0.25813508348E+02  0.62420246114E+02  0.15500000000E+01 0. -1.
         -4    1    3    3    0  501 -0.52992370586E+02 -0.20478185254E+02 -0.99510968386E+02  0.11459660877E+03  0.15500000000E+01 0. -1.
<mgrwt>
<rscale>  2 0.12501497E+03</rscale>
<asrwt>0</asrwt>
<pdfrwt beam="1">  1       21 0.39763367E-02 0.12501497E+03</pdfrwt>
<pdfrwt beam="2">  1       21 0.23257026E-01 0.12501497E+03</pdfrwt>
<totfact> 0.67469785E+06</totfact>
</mgrwt>
</event>
<event>
 5    0  0.1422177E+000  0.1250041E+03  0.7546771E-02  0.1235063E+00
         21   -1    0    0  503  502  0.00000000000E+00  0.00000000000E+00  0.35737519622E+03  0.35737519622E+03  0.00000000000E+00 0. -1.
         21   -1    0    0  502  503 -0.00000000000E+00 -0.00000000000E+00 -0.10931110591E+02  0.10931110591E+02  0.00000000000E+00 0. -1.
         25    2    1    2    0    0  0.00000000000E+00  0.00000000000E+00  0.34644408563E+03  0.36830630681E+03  0.12500412461E+03 0.  0.
          4    1    3    3  501    0  0.40782534045E+02 -0.39147945909E+02  0.94806494593E+02  0.11039225819E+03  0.15500000000E+01 0. -1.
         -4    1    3    3    0  501 -0.40782534045E+02  0.39147945909E+02  0.25163759104E+03  0.25791404862E+03  0.15500000000E+01 0. -1.
<mgrwt>
<rscale>  2 0.12500412E+03</rscale>
<asrwt>0</asrwt>
<pdfrwt beam="1">  1       21 0.54980790E-01 0.12500412E+03</pdfrwt>
<pdfrwt beam="2">  1       21 0.16817096E-02 0.12500412E+03</pdfrwt>
<totfact> 0.50209049E+06</totfact>
</mgrwt>
</event>
<event>
 5    0  0.1362914E+000  0.1250011E+03  0.7546771E-02  0.1235068E+00
         21   -1    0    0  503  502  0.00000000000E+00  0.00000000000E+00  0.47206195317E+03  0.47206195317E+03  0.00000000000E+00 0. -1.
         21   -1    0    0  502  503 -0.00000000000E+00 -0.00000000000E+00 -0.82750091287E+01  0.82750091287E+01  0.00000000000E+00 0. -1.
         25    2    1    2    0    0  0.00000000000E+00  0.00000000000E+00  0.46378694404E+03  0.48033696230E+03  0.12500107154E+03 0.  0.
          4    1    3    3  501    0  0.53133120041E+02 -0.26597263796E+02  0.30614457392E+03  0.31186126006E+03  0.15500000000E+01 0. -1.
         -4    1    3    3    0  501 -0.53133120041E+02  0.26597263796E+02  0.15764237012E+03  0.16847570223E+03  0.15500000000E+01 0. -1.
<mgrwt>
<rscale>  2 0.12500107E+03</rscale>
<asrwt>0</asrwt>
<pdfrwt beam="1">  1       21 0.72624895E-01 0.12500107E+03</pdfrwt>
<pdfrwt beam="2">  1       21 0.12730787E-02 0.12500107E+03</pdfrwt>
<totfact> 0.43129773E+06</totfact>
</mgrwt>
</event>
<event>
 5    0  0.1231512E+000  0.1249987E+03  0.7546771E-02  0.1235071E+00
         21   -1    0    0  503  502  0.00000000000E+00  0.00000000000E+00  0.71170670072E+01  0.71170670072E+01  0.00000000000E+00 0.  1.
         21   -1    0    0  502  503 -0.00000000000E+00 -0.00000000000E+00 -0.54884558029E+03  0.54884558029E+03  0.00000000000E+00 0.  1.
         25    2    1    2    0    0  0.00000000000E+00  0.00000000000E+00 -0.54172851328E+03  0.55596264729E+03  0.12499873234E+03 0.  0.
          4    1    3    3  501    0 -0.41470862930E+02 -0.10630968780E+02 -0.47326937410E+03  0.47520432756E+03  0.15500000000E+01 0.  1.
         -4    1    3    3    0  501  0.41470862930E+02  0.10630968780E+02 -0.68459139182E+02  0.80758319738E+02  0.15500000000E+01 0.  1.
<mgrwt>
<rscale>  2 0.12499873E+03</rscale>
<asrwt>0</asrwt>
<pdfrwt beam="1">  1       21 0.10949336E-02 0.12499873E+03</pdfrwt>
<pdfrwt beam="2">  1       21 0.84437762E-01 0.12499873E+03</pdfrwt>
<totfact> 0.39164280E+06</totfact>
</mgrwt>
</event>
<event>
 5    0  0.1399375E+000  0.1250049E+03  0.7546771E-02  0.1235062E+00
         21   -1    0    0  503  502  0.00000000000E+00  0.00000000000E+00  0.25872534198E+02  0.25872534198E+02  0.00000000000E+00 0.  1.
         21   -1    0    0  502  503 -0.00000000000E+00 -0.00000000000E+00 -0.15099242332E+03  0.15099242332E+03  0.00000000000E+00 0.  1.
         25    2    1    2    0    0  0.00000000000E+00  0.00000000000E+00 -0.12511988913E+03  0.17686495752E+03  0.12500490608E+03 0.  0.
          4    1    3    3  501    0 -0.22833772271E+01 -0.25895891461E+02  0.17830527720E+02  0.31561705038E+02  0.15500000000E+01 0. -1.
         -4    1    3    3    0  501  0.22833772271E+01  0.25895891461E+02 -0.14295041685E+03  0.14530325249E+03  0.15500000000E+01 0. -1.
<mgrwt>
<rscale>  2 0.12500491E+03</rscale>
<asrwt>0</asrwt>
<pdfrwt beam="1">  1       21 0.39803900E-02 0.12500491E+03</pdfrwt>
<pdfrwt beam="2">  1       21 0.23229603E-01 0.12500491E+03</pdfrwt>
<totfact> 0.67504608E+06</totfact>
</mgrwt>
</event>
<event>
 5    0  0.1474478E+000  0.1250137E+03  0.7546771E-02  0.1235048E+00
         21   -1    0    0  503  502  0.00000000000E+00  0.00000000000E+00  0.23548162507E+02  0.23548162507E+02  0.00000000000E+00 0.  1.
         21   -1    0    0  502  503 -0.00000000000E+00 -0.00000000000E+00 -0.16591992480E+03  0.16591992480E+03  0.00000000000E+00 0.  1.
         25    2    1    2    0    0  0.00000000000E+00  0.00000000000E+00 -0.14237176229E+03  0.18946808731E+03  0.12501374888E+03 0.  0.
          4    1    3    3  501    0  0.41876197171E+02  0.83672448300E+01 -0.14032481817E+03  0.14668702659E+03  0.15500000000E+01 0. -1.
         -4    1    3    3    0  501 -0.41876197171E+02 -0.83672448300E+01 -0.20469441206E+01  0.42781060714E+02  0.15500000000E+01 0. -1.
<mgrwt>
<rscale>  2 0.12501375E+03</rscale>
<asrwt>0</asrwt>
<pdfrwt beam="1">  1       21 0.36227943E-02 0.12501375E+03</pdfrwt>
<pdfrwt beam="2">  1       21 0.25526142E-01 0.12501375E+03</pdfrwt>
<totfact> 0.66058610E+06</totfact>
</mgrwt>
</event>
<event>
 5    0  0.1577712E+000  0.1249999E+03  0.7546771E-02  0.1235069E+00
         21   -1    0    0  503  502  0.00000000000E+00  0.00000000000E+00  0.74990036562E+02  0.74990036562E+02  0.00000000000E+00 0.  1.
         21   -1    0    0  502  503 -0.00000000000E+00 -0.00000000000E+00 -0.52090190483E+02  0.52090190483E+02  0.00000000000E+00 0.  1.
         25    2    1    2    0    0  0.00000000000E+00  0.00000000000E+00  0.22899846079E+02  0.12708022704E+03  0.12499992462E+03 0.  0.
          4    1    3    3  501    0 -0.23657210323E+02  0.56768584847E+02  0.22656392556E+02  0.65559518374E+02  0.15500000000E+01 0.  1.
         -4    1    3    3    0  501  0.23657210323E+02 -0.56768584847E+02  0.24345352338E+00  0.61520708671E+02  0.15500000000E+01 0.  1.
<mgrwt>
<rscale>  2 0.12499992E+03</rscale>
<asrwt>0</asrwt>
<pdfrwt beam="1">  1       21 0.11536929E-01 0.12499992E+03</pdfrwt>
<pdfrwt beam="2">  1       21 0.80138754E-02 0.12499992E+03</pdfrwt>
<totfact> 0.73758361E+06</totfact>
</mgrwt>
</event>
<event>
 5    0  0.1408199E+000  0.1249656E+03  0.7546771E-02  0.1235123E+00
         21   -1    0    0  503  502  0.00000000000E+00  0.00000000000E+00  0.10915896678E+02  0.10915896678E+02  0.00000000000E+00 0. -1.
         21   -1    0    0  502  503 -0.00000000000E+00 -0.00000000000E+00 -0.35765248366E+03  0.35765248366E+03  0.00000000000E+00 0. -1.
         25    2    1    2    0    0  0.00000000000E+00  0.00000000000E+00 -0.34673658698E+03  0.36856838034E+03  0.12496555619E+03 0.  0.
          4    1    3    3  501    0 -0.38308858403E+02 -0.56563875177E+01 -0.28815610953E+02  0.48293946686E+02  0.15500000000E+01 0.  1.
         -4    1    3    3    0  501  0.38308858403E+02  0.56563875177E+01 -0.31792097603E+03  0.32027443365E+03  0.15500000000E+01 0.  1.
<mgrwt>
<rscale>  2 0.12496556E+03</rscale>
<asrwt>0</asrwt>
<pdfrwt beam="1">  1       21 0.16793688E-02 0.12496556E+03</pdfrwt>
<pdfrwt beam="2">  1       21 0.55023457E-01 0.12496556E+03</pdfrwt>
<totfact> 0.50238962E+06</totfact>
</mgrwt>
</event>
<event>
 5    0  0.1443873E+000  0.1249983E+03  0.7546771E-02  0.1235072E+00
         21   -1    0    0  503  502  0.00000000000E+00  0.00000000000E+00  0.20717042533E+03  0.20717042533E+03  0.00000000000E+00 0.  1.
         21   -1    0    0  502  503 -0.00000000000E+00 -0.00000000000E+00 -0.18854747446E+02  0.18854747446E+02  0.00000000000E+00 0.  1.
         25    2    1    2    0    0  0.00000000000E+00  0.00000000000E+00  0.18831567789E+03  0.22602517278E+03  0.12499833676E+03 0.  0.
          4    1    3    3  501    0  0.24668227369E+02  0.14734520003E+02  0.19447958187E+03  0.19659689159E+03  0.15500000000E+01 0. -1.
         -4    1    3    3    0  501 -0.24668227369E+02 -0.14734520003E+02 -0.61639039797E+01  0.29428281185E+02  0.15500000000E+01 0. -1.
<mgrwt>
<rscale>  2 0.12499834E+03</rscale>
<asrwt>0</asrwt>
<pdfrwt beam="1">  1       21 0.31872371E-01 0.12499834E+03</pdfrwt>
<pdfrwt beam="2">  1       21 0.29007305E-02 0.12499834E+03</pdfrwt>
<totfact> 0.62214395E+06</totfact>
</mgrwt>
</event>
<event>
 5    0  0.1544129E+000  0.1249977E+03  0.7546771E-02  0.1235073E+00
         21   -1    0    0  503  502  0.00000000000E+00  0.00000000000E+00  0.18910391737E+02  0.18910391737E+02  0.00000000000E+00 0. -1.
         21   -1    0    0  502  503 -0.00000000000E+00 -0.00000000000E+00 -0.20655858621E+03  0.20655858621E+03  0.00000000000E+00 0. -1.
         25    2    1    2    0    0  0.00000000000E+00  0.00000000000E+00 -0.18764819447E+03  0.22546897794E+03  0.12499766049E+03 0.  0.
          4    1    3    3  501    0 -0.54233126208E+02 -0.30882843064E+02 -0.88497793668E+02  0.10830163414E+03  0.15500000000E+01 0. -1.
         -4    1    3    3    0  501  0.54233126208E+02  0.30882843064E+02 -0.99150400801E+02  0.11716734380E+03  0.15500000000E+01 0. -1.
<mgrwt>
<rscale>  2 0.12499766E+03</rscale>
<asrwt>0</asrwt>
<pdfrwt beam="1">  1       21 0.29092911E-02 0.12499766E+03</pdfrwt>
<pdfrwt beam="2">  1       21 0.31778244E-01 0.12499766E+03</pdfrwt>
<totfact> 0.62271484E+06</totfact>
</mgrwt>
</event>
<event>
 5    0  0.1222151E+000  0.1249460E+03  0.7546771E-02  0.1235154E+00
         21   -1    0    0  503  502  0.00000000000E+00  0.00000000000E+00  0.64188041478E+01  0.64188041478E+01  0.00000000000E+00 0.  1.
         21   -1    0    0  502  503 -0.00000000000E+00 -0.00000000000E+00 -0.60803824769E+03  0.60803824769E+03  0.00000000000E+00 0.  1.
         25    2    1    2    0    0  0.00000000000E+00  0.00000000000E+00 -0.60161944354E+03  0.61445705183E+03  0.12494604317E+03 0.  0.
          4    1    3    3  501    0  0.35575945566E+02  0.13614145735E+02 -0.54420169160E+03  0.54553540353E+03  0.15500000000E+01 0.  1.
         -4    1    3    3    0  501 -0.35575945566E+02 -0.13614145735E+02 -0.57417751940E+02  0.68921648303E+02  0.15500000000E+01 0.  1.
<mgrwt>
<rscale>  2 0.12494604E+03</rscale>
<asrwt>0</asrwt>
<pdfrwt beam="1">  1       21 0.98750792E-03 0.12494604E+03</pdfrwt>
<pdfrwt beam="2">  1       21 0.93544385E-01 0.12494604E+03</pdfrwt>
<totfact> 0.36495748E+06</totfact>
</mgrwt>
</event>
<event>
 5    0  0.1526185E+000  0.1250018E+03  0.7546771E-02  0.1235066E+00
         21   -1    0    0  503  502  0.00000000000E+00  0.00000000000E+00  0.44174608276E+02  0.44174608276E+02  0.00000000000E+00 0.  1.
         21   -1    0    0  502  503 -0.00000000000E+00 -0.00000000000E+00 -0.88430035914E+02  0.88430035914E+02  0.00000000000E+00 0.  1.
         25    2    1    2    0    0  0.00000000000E+00  0.00000000000E+00 -0.44255427638E+02  0.13260464419E+03  0.12500179513E+03 0.  0.
          4    1    3    3  501    0 -0.53471751434E+02  0.53022031762E+01  0.11696009360E+02  0.55014004535E+02  0.15500000000E+01 0. -1.
         -4    1    3    3    0  501  0.53471751434E+02 -0.53022031762E+01 -0.55951436998E+02  0.77590639656E+02  0.15500000000E+01 0. -1.
<mgrwt>
<rscale>  2 0.12500180E+03</rscale>
<asrwt>0</asrwt>
<pdfrwt beam="1">  1       21 0.67960936E-02 0.12500180E+03</pdfrwt>
<pdfrwt beam="2">  1       21 0.13604621E-01 0.12500180E+03</pdfrwt>
<totfact> 0.73011894E+06</totfact>
</mgrwt>
</event>
<event>
 5    0  0.1580626E+000  0.1249985E+03  0.7546771E-02  0.1235072E+00
         21   -1    0    0  503  502  0.00000000000E+00  0.00000000000E+00  0.18445552224E+02  0.18445552224E+02  0.00000000000E+00 0. -1.
         21   -1    0    0  502  503 -0.00000000000E+00 -0.00000000000E+00 -0.21176676488E+03  0.21176676488E+03  0.00000000000E+00 0. -1.
         25    2    1    2    0    0  0.00000000000E+00  0.00000000000E+00 -0.19332121265E+03  0.23021231710E+03  0.12499847872E+03 0.  0.
          4    1    3    3  501    0  0.20260670402E+02 -0.58856248049E+02 -0.86708541824E+02  0.10674889426E+03  0.15500000000E+01 0. -1.
         -4    1    3    3    0  501 -0.20260670402E+02  0.58856248049E+02 -0.10661267083E+03  0.12346342285E+03  0.15500000000E+01 0. -1.
<mgrwt>
<rscale>  2 0.12499848E+03</rscale>
<asrwt>0</asrwt>
<pdfrwt beam="1">  1       21 0.28377773E-02 0.12499848E+03</pdfrwt>
<pdfrwt beam="2">  1       21 0.32579502E-01 0.12499848E+03</pdfrwt>
<totfact> 0.61795230E+06</totfact>
</mgrwt>
</event>
<event>
 5    0  0.1636452E+000  0.1250012E+03  0.7546771E-02  0.1235067E+00
         21   -1    0    0  503  502  0.00000000000E+00  0.00000000000E+00  0.11554883361E+03  0.11554883361E+03  0.00000000000E+00 0. -1.
         21   -1    0    0  502  503 -0.00000000000E+00 -0.00000000000E+00 -0.33806705746E+02  0.33806705746E+02  0.00000000000E+00 0. -1.
         25    2    1    2    0    0  0.00000000000E+00  0.00000000000E+00  0.81742127868E+02  0.14935553936E+03  0.12500120667E+03 0.  0.
          4    1    3    3  501    0 -0.57379375741E+02  0.24655840367E+02  0.43144291810E+02  0.75921904879E+02  0.15500000000E+01 0.  1.
         -4    1    3    3    0  501  0.57379375741E+02 -0.24655840367E+02  0.38597836058E+02  0.73433634481E+02  0.15500000000E+01 0.  1.
<mgrwt>
<rscale>  2 0.12500121E+03</rscale>
<asrwt>0</asrwt>
<pdfrwt beam="1">  1       21 0.17776743E-01 0.12500121E+03</pdfrwt>
<pdfrwt beam="2">  1       21 0.52010317E-02 0.12500121E+03</pdfrwt>
<totfact> 0.70838075E+06</totfact>
</mgrwt>
</event>
<event>
 5    0  0.1501568E+000  0.1250171E+03  0.7546771E-02  0.1235042E+00
         21   -1    0    0  503  502  0.00000000000E+00  0.00000000000E+00  0.39664798706E+02  0.39664798706E+02  0.00000000000E+00 0. -1.
         21   -1    0    0  502  503 -0.00000000000E+00 -0.00000000000E+00 -0.98508536033E+02  0.98508536033E+02  0.00000000000E+00 0. -1.
         25    2    1    2    0    0  0.00000000000E+00  0.00000000000E+00 -0.58843737327E+02  0.13817333474E+03  0.12501713887E+03 0.  0.
          4    1    3    3  501    0  0.25330809870E+02 -0.15002051176E+02  0.31498620809E+02  0.43142520569E+02  0.15500000000E+01 0. -1.
         -4    1    3    3    0  501 -0.25330809870E+02  0.15002051176E+02 -0.90342358136E+02  0.95030814170E+02  0.15500000000E+01 0. -1.
<mgrwt>
<rscale>  2 0.12501714E+03</rscale>
<asrwt>0</asrwt>
<pdfrwt beam="1">  1       21 0.61022768E-02 0.12501714E+03</pdfrwt>
<pdfrwt beam="2">  1       21 0.15155159E-01 0.12501714E+03</pdfrwt>
<totfact> 0.72247126E+06</totfact>
</mgrwt>
</event>
<event>
 5    0  0.1222151E+000  0.1250026E+03  0.7546771E-02  0.1235065E+00
         21   -1    0    0  503  502  0.00000000000E+00  0.00000000000E+00  0.73050387808E+03  0.73050387808E+03  0.00000000000E+00 0. -1.
         21   -1    0    0  502  503 -0.00000000000E+00 -0.00000000000E+00 -0.53475595195E+01  0.53475595195E+01  0.00000000000E+00 0. -1.
         25    2    1    2    0    0  0.00000000000E+00  0.00000000000E+00  0.72515631857E+03  0.73585143760E+03  0.12500260745E+03 0.  0.
          4    1    3    3  501    0  0.41537622161E+02 -0.12315880391E+02  0.97549293494E+02  0.10674887412E+03  0.15500000000E+01 0.  1.
         -4    1    3    3    0  501 -0.41537622161E+02  0.12315880391E+02  0.62760702507E+03  0.62910256348E+03  0.15500000000E+01 0.  1.
<mgrwt>
<rscale>  2 0.12500261E+03</rscale>
<asrwt>0</asrwt>
<pdfrwt beam="1">  1       21 0.11238513E+00 0.12500261E+03</pdfrwt>
<pdfrwt beam="2">  1       21 0.82270204E-03 0.12500261E+03</pdfrwt>
<totfact> 0.31570836E+06</totfact>
</mgrwt>
</event>
<event>
 5    0  0.1264541E+000  0.1250025E+03  0.7546771E-02  0.1235065E+00
         21   -1    0    0  503  502  0.00000000000E+00  0.00000000000E+00  0.61323602873E+01  0.61323602873E+01  0.00000000000E+00 0. -1.
         21   -1    0    0  502  503 -0.00000000000E+00 -0.00000000000E+00 -0.63701535323E+03  0.63701535323E+03  0.00000000000E+00 0. -1.
         25    2    1    2    0    0  0.00000000000E+00  0.00000000000E+00 -0.63088299294E+03  0.64314771352E+03  0.12500252245E+03 0.  0.
          4    1    3    3  501    0  0.57318764041E+02  0.24628064227E+02 -0.33328156408E+03  0.33907371722E+03  0.15500000000E+01 0. -1.
         -4    1    3    3    0  501 -0.57318764041E+02 -0.24628064227E+02 -0.29760142887E+03  0.30407399629E+03  0.15500000000E+01 0. -1.
<mgrwt>
<rscale>  2 0.12500252E+03</rscale>
<asrwt>0</asrwt>
<pdfrwt beam="1">  1       21 0.94343989E-03 0.12500252E+03</pdfrwt>
<pdfrwt beam="2">  1       21 0.98002378E-01 0.12500252E+03</pdfrwt>
<totfact> 0.35208921E+06</totfact>
</mgrwt>
</event>
<event>
 5    0  0.1222151E+000  0.1250103E+03  0.7546771E-02  0.1235053E+00
         21   -1    0    0  503  502  0.00000000000E+00  0.00000000000E+00  0.54832421094E+01  0.54832421094E+01  0.00000000000E+00 0. -1.
         21   -1    0    0  502  503 -0.00000000000E+00 -0.00000000000E+00 -0.71251525188E+03  0.71251525188E+03  0.00000000000E+00 0. -1.
         25    2    1    2    0    0  0.00000000000E+00  0.00000000000E+00 -0.70703200977E+03  0.71799849399E+03  0.12501029770E+03 0.  0.
          4    1    3    3  501    0 -0.21987999003E+02 -0.42289135284E+02 -0.12144331639E+03  0.13047116409E+03  0.15500000000E+01 0. -1.
         -4    1    3    3    0  501  0.21987999003E+02  0.42289135284E+02 -0.58558869338E+03  0.58752732990E+03  0.15500000000E+01 0. -1.
<mgrwt>
<rscale>  2 0.12501030E+03</rscale>
<asrwt>0</asrwt>
<pdfrwt beam="1">  1       21 0.84357618E-03 0.12501030E+03</pdfrwt>
<pdfrwt beam="2">  1       21 0.10961767E+00 0.12501030E+03</pdfrwt>
<totfact> 0.32219479E+06</totfact>
</mgrwt>
</event>
<event>
 5    0  0.1222151E+000  0.1250013E+03  0.7546771E-02  0.1235067E+00
         21   -1    0    0  503  502  0.00000000000E+00  0.00000000000E+00  0.14710870234E+04  0.14710870234E+04  0.00000000000E+00 0.  1.
         21   -1    0    0  502  503 -0.00000000000E+00 -0.00000000000E+00 -0.26554027404E+01  0.26554027404E+01  0.00000000000E+00 0.  1.
         25    2    1    2    0    0  0.00000000000E+00  0.00000000000E+00  0.14684316207E+04  0.14737424262E+04  0.12500125621E+03 0.  0.
          4    1    3    3  501    0 -0.38724674073E+02  0.37288123314E+02  0.35880275383E+03  0.36281100201E+03  0.15500000000E+01 0. -1.
         -4    1    3    3    0  501  0.38724674073E+02 -0.37288123314E+02  0.11096288669E+04  0.11109314242E+04  0.15500000000E+01 0. -1.
<mgrwt>
<rscale>  2 0.12500126E+03</rscale>
<asrwt>0</asrwt>
<pdfrwt beam="1">  1       21 0.22632043E+00 0.12500126E+03</pdfrwt>
<pdfrwt beam="2">  1       21 0.40852467E-03 0.12500126E+03</pdfrwt>
<totfact> 0.14386423E+06</totfact>
</mgrwt>
</event>
<event>
 5    0  0.1542611E+000  0.1249923E+03  0.7546771E-02  0.1235081E+00
         21   -1    0    0  503  502  0.00000000000E+00  0.00000000000E+00  0.40590077414E+02  0.40590077414E+02  0.00000000000E+00 0.  1.
         21   -1    0    0  502  503 -0.00000000000E+00 -0.00000000000E+00 -0.96224672572E+02  0.96224672572E+02  0.00000000000E+00 0.  1.
         25    2    1    2    0    0  0.00000000000E+00  0.00000000000E+00 -0.55634595157E+02  0.13681474999E+03  0.12499227030E+03 0.  0.
          4    1    3    3  501    0  0.51296230343E+02  0.27809328523E+02 -0.33733976240E+01  0.58467463703E+02  0.15500000000E+01 0. -1.
         -4    1    3    3    0  501 -0.51296230343E+02 -0.27809328523E+02 -0.52261197533E+02  0.78347286283E+02  0.15500000000E+01 0. -1.
<mgrwt>
<rscale>  2 0.12499227E+03</rscale>
<asrwt>0</asrwt>
<pdfrwt beam="1">  1       21 0.62446274E-02 0.12499227E+03</pdfrwt>
<pdfrwt beam="2">  1       21 0.14803796E-01 0.12499227E+03</pdfrwt>
<totfact> 0.72471353E+06</totfact>
</mgrwt>
</event>
<event>
 5    0  0.1485130E+000  0.1250068E+03  0.7546771E-02  0.1235059E+00
         21   -1    0    0  503  502  0.00000000000E+00  0.00000000000E+00  0.16770003643E+02  0.16770003643E+02  0.00000000000E+00 0.  1.
         21   -1    0    0  502  503 -0.00000000000E+00 -0.00000000000E+00 -0.23295622532E+03  0.23295622532E+03  0.00000000000E+00 0.  1.
         25    2    1    2    0    0  0.00000000000E+00  0.00000000000E+00 -0.21618622168E+03  0.24972622897E+03  0.12500682777E+03 0.  0.
          4    1    3    3  501    0 -0.87885584565E+01  0.61772092581E+02 -0.10139438640E+03  0.11906407635E+03  0.15500000000E+01 0. -1.
         -4    1    3    3    0  501  0.87885584565E+01 -0.61772092581E+02 -0.11479183528E+03  0.13066215262E+03  0.15500000000E+01 0. -1.
<mgrwt>
<rscale>  2 0.12500683E+03</rscale>
<asrwt>0</asrwt>
<pdfrwt beam="1">  1       21 0.25800008E-02 0.12500683E+03</pdfrwt>
<pdfrwt beam="2">  1       21 0.35839416E-01 0.12500683E+03</pdfrwt>
<totfact> 0.59893666E+06</totfact>
</mgrwt>
</event>
<event>
 5    0  0.1536696E+000  0.1249983E+03  0.7546771E-02  0.1235072E+00
         21   -1    0    0  503  502  0.00000000000E+00  0.00000000000E+00  0.28377877978E+03  0.28377877978E+03  0.00000000000E+00 0. -1.
         21   -1    0    0  502  503 -0.00000000000E+00 -0.00000000000E+00 -0.13764748466E+02  0.13764748466E+02  0.00000000000E+00 0. -1.
         25    2    1    2    0    0  0.00000000000E+00  0.00000000000E+00  0.27001403131E+03  0.29754352825E+03  0.12499829637E+03 0.  0.
          4    1    3    3  501    0  0.20694915053E+02 -0.58502214640E+02  0.11768536697E+03  0.13305275918E+03  0.15500000000E+01 0.  1.
         -4    1    3    3    0  501 -0.20694915053E+02  0.58502214640E+02  0.15232866434E+03  0.16449076906E+03  0.15500000000E+01 0.  1.
<mgrwt>
<rscale>  2 0.12499830E+03</rscale>
<asrwt>0</asrwt>
<pdfrwt beam="1">  1       21 0.43658269E-01 0.12499830E+03</pdfrwt>
<pdfrwt beam="2">  1       21 0.21176538E-02 0.12499830E+03</pdfrwt>
<totfact> 0.55663321E+06</totfact>
</mgrwt>
</event>
<event>
 5    0  0.1222151E+000  0.1249980E+03  0.7546771E-02  0.1235072E+00
         21   -1    0    0  503  502  0.00000000000E+00  0.00000000000E+00  0.36118696090E+01  0.36118696090E+01  0.00000000000E+00 0.  1.
         21   -1    0    0  502  503 -0.00000000000E+00 -0.00000000000E+00 -0.10814685631E+04  0.10814685631E+04  0.00000000000E+00 0.  1.
         25    2    1    2    0    0  0.00000000000E+00  0.00000000000E+00 -0.10778566935E+04  0.10850804327E+04  0.12499797496E+03 0.  0.
          4    1    3    3  501    0 -0.10207495280E+02 -0.55379798938E+02 -0.77388846093E+03  0.77593612337E+03  0.15500000000E+01 0. -1.
         -4    1    3    3    0  501  0.10207495280E+02  0.55379798938E+02 -0.30396823256E+03  0.30914430934E+03  0.15500000000E+01 0. -1.
<mgrwt>
<rscale>  2 0.12499797E+03</rscale>
<asrwt>0</asrwt>
<pdfrwt beam="1">  1       21 0.55567093E-03 0.12499797E+03</pdfrwt>
<pdfrwt beam="2">  1       21 0.16638017E+00 0.12499797E+03</pdfrwt>
<totfact> 0.21587324E+06</totfact>
</mgrwt>
</event>
<event>
 5    0  0.1294563E+000  0.1249089E+03  0.7546771E-02  0.1235212E+00
         21   -1    0    0  503  502  0.00000000000E+00  0.00000000000E+00  0.69238364142E+02  0.69238364142E+02  0.00000000000E+00 0. -1.
         21   -1    0    0  502  503 -0.00000000000E+00 -0.00000000000E+00 -0.56335242796E+02  0.56335242796E+02  0.00000000000E+00 0. -1.
         25    2    1    2    0    0  0.00000000000E+00  0.00000000000E+00  0.12903121346E+02  0.12557360694E+03  0.12490892770E+03 0.  0.
          4    1    3    3  501    0 -0.30877099556E+02 -0.38060919222E+02  0.45337211016E+02  0.66782438199E+02  0.15500000000E+01 0. -1.
         -4    1    3    3    0  501  0.30877099556E+02  0.38060919222E+02 -0.32434089670E+02  0.58791168739E+02  0.15500000000E+01 0. -1.
<mgrwt>
<rscale>  2 0.12490893E+03</rscale>
<asrwt>0</asrwt>
<pdfrwt beam="1">  1       21 0.10652056E-01 0.12490893E+03</pdfrwt>
<pdfrwt beam="2">  1       21 0.86669604E-02 0.12490893E+03</pdfrwt>
<totfact> 0.74137137E+06</totfact>
</mgrwt>
</event>
<event>
 5    0  0.1353864E+000  0.1250003E+03  0.7546771E-02  0.1235069E+00
         21   -1    0    0  503  502  0.00000000000E+00  0.00000000000E+00  0.27115773050E+03  0.27115773050E+03  0.00000000000E+00 0. -1.
         21   -1    0    0  502  503 -0.00000000000E+00 -0.00000000000E+00 -0.14405880817E+02  0.14405880817E+02  0.00000000000E+00 0. -1.
         25    2    1    2    0    0  0.00000000000E+00  0.00000000000E+00  0.25675184968E+03  0.28556361131E+03  0.12500025517E+03 0.  0.
          4    1    3    3  501    0  0.25014072944E+02  0.44354430524E+01  0.25878263099E+03  0.26003120890E+03  0.15500000000E+01 0.  1.
         -4    1    3    3    0  501 -0.25014072944E+02 -0.44354430524E+01 -0.20307813088E+01  0.25532402414E+02  0.15500000000E+01 0.  1.
<mgrwt>
<rscale>  2 0.12500026E+03</rscale>
<asrwt>0</asrwt>
<pdfrwt beam="1">  1       21 0.41716570E-01 0.12500026E+03</pdfrwt>
<pdfrwt beam="2">  1       21 0.22162896E-02 0.12500026E+03</pdfrwt>
<totfact> 0.56677285E+06</totfact>
</mgrwt>
</event>
<event>
 5    0  0.1319706E+000  0.1249945E+03  0.7546771E-02  0.1235078E+00
         21   -1    0    0  503  502  0.00000000000E+00  0.00000000000E+00  0.63054195149E+03  0.63054195149E+03  0.00000000000E+00 0.  1.
         21   -1    0    0  502  503 -0.00000000000E+00 -0.00000000000E+00 -0.61945264713E+01  0.61945264713E+01  0.00000000000E+00 0.  1.
         25    2    1    2    0    0  0.00000000000E+00  0.00000000000E+00  0.62434742502E+03  0.63673647796E+03  0.12499454084E+03 0.  0.
          4    1    3    3  501    0  0.61593239208E+02 -0.18599140420E+00  0.36553917369E+03  0.37069536241E+03  0.15500000000E+01 0.  1.
         -4    1    3    3    0  501 -0.61593239208E+02  0.18599140420E+00  0.25880825133E+03  0.26604111556E+03  0.15500000000E+01 0.  1.
<mgrwt>
<rscale>  2 0.12499454E+03</rscale>
<asrwt>0</asrwt>
<pdfrwt beam="1">  1       21 0.97006403E-01 0.12499454E+03</pdfrwt>
<pdfrwt beam="2">  1       21 0.95300457E-03 0.12499454E+03</pdfrwt>
<totfact> 0.35487062E+06</totfact>
</mgrwt>
</event>
<event>
 5    0  0.1347128E+000  0.1250043E+03  0.7546771E-02  0.1235063E+00
         21   -1    0    0  503  502  0.00000000000E+00  0.00000000000E+00  0.34146885553E+03  0.34146885553E+03  0.00000000000E+00 0.  1.
         21   -1    0    0  502  503 -0.00000000000E+00 -0.00000000000E+00 -0.11440332047E+02  0.11440332047E+02  0.00000000000E+00 0.  1.
         25    2    1    2    0    0  0.00000000000E+00  0.00000000000E+00  0.33002852348E+03  0.35290918758E+03  0.12500427338E+03 0.  0.
          4    1    3    3  501    0 -0.43218087229E+02 -0.20081850476E+02  0.27910103418E+03  0.28314461599E+03  0.15500000000E+01 0. -1.
         -4    1    3    3    0  501  0.43218087229E+02  0.20081850476E+02  0.50927489296E+02  0.69764571584E+02  0.15500000000E+01 0. -1.
<mgrwt>
<rscale>  2 0.12500427E+03</rscale>
<asrwt>0</asrwt>
<pdfrwt beam="1">  1       21 0.52533662E-01 0.12500427E+03</pdfrwt>
<pdfrwt beam="2">  1       21 0.17600513E-02 0.12500427E+03</pdfrwt>
<totfact> 0.51318806E+06</totfact>
</mgrwt>
</event>
<event>
 5    0  0.1222151E+000  0.1249946E+03  0.7546771E-02  0.1235078E+00
         21   -1    0    0  503  502  0.00000000000E+00  0.00000000000E+00  0.39597911487E+02  0.39597911487E+02  0.00000000000E+00 0. -1.
         21   -1    0    0  502  503 -0.00000000000E+00 -0.00000000000E+00 -0.98639311991E+02  0.98639311991E+02  0.00000000000E+00 0. -1.
         25    2    1    2    0    0  0.00000000000E+00  0.00000000000E+00 -0.59041400504E+02  0.13823722348E+03  0.12499457181E+03 0.  0.
          4    1    3    3  501    0  0.38231535815E+01  0.21867381510E+02 -0.94109350103E+02  0.96704556016E+02  0.15500000000E+01 0.  1.
         -4    1    3    3    0  501 -0.38231535815E+01 -0.21867381510E+02  0.35067949600E+02  0.41532667462E+02  0.15500000000E+01 0.  1.
<mgrwt>
<rscale>  2 0.12499457E+03</rscale>
<asrwt>0</asrwt>
<pdfrwt beam="1">  1       21 0.60919863E-02 0.12499457E+03</pdfrwt>
<pdfrwt beam="2">  1       21 0.15175279E-01 0.12499457E+03</pdfrwt>
<totfact> 0.72280275E+06</totfact>
</mgrwt>
</event>
<event>
 5    0  0.1222151E+000  0.1250054E+03  0.7546771E-02  0.1235061E+00
         21   -1    0    0  503  502  0.00000000000E+00  0.00000000000E+00  0.50932273769E+02  0.50932273769E+02  0.00000000000E+00 0.  1.
         21   -1    0    0  502  503 -0.00000000000E+00 -0.00000000000E+00 -0.76701663854E+02  0.76701663854E+02  0.00000000000E+00 0.  1.
         25    2    1    2    0    0  0.00000000000E+00  0.00000000000E+00 -0.25769390086E+02  0.12763393762E+03  0.12500544215E+03 0.  0.
          4    1    3    3  501    0  0.22755771871E+02 -0.31125052494E+00  0.46530531501E+02  0.51820988915E+02  0.15500000000E+01 0.  1.
         -4    1    3    3    0  501 -0.22755771871E+02  0.31125052494E+00 -0.72299921587E+02  0.75812948708E+02  0.15500000000E+01 0.  1.
<mgrwt>
<rscale>  2 0.12500544E+03</rscale>
<asrwt>0</asrwt>
<pdfrwt beam="1">  1       21 0.78357344E-02 0.12500544E+03</pdfrwt>
<pdfrwt beam="2">  1       21 0.11800256E-01 0.12500544E+03</pdfrwt>
<totfact> 0.73672834E+06</totfact>
</mgrwt>
</event>
<event>
 5    0  0.1563803E+000  0.1249985E+03  0.7546771E-02  0.1235072E+00
         21   -1    0    0  503  502  0.00000000000E+00  0.00000000000E+00  0.17259190169E+02  0.17259190169E+02  0.00000000000E+00 0. -1.
         21   -1    0    0  502  503 -0.00000000000E+00 -0.00000000000E+00 -0.22632332505E+03  0.22632332505E+03  0.00000000000E+00 0. -1.
         25    2    1    2    0    0  0.00000000000E+00  0.00000000000E+00 -0.20906413488E+03  0.24358251522E+03  0.12499851690E+03 0.  0.
          4    1    3    3  501    0 -0.44447658565E+02  0.41106927456E+02 -0.74445195207E+02  0.95968033356E+02  0.15500000000E+01 0. -1.
         -4    1    3    3    0  501  0.44447658565E+02 -0.41106927456E+02 -0.13461893967E+03  0.14761448186E+03  0.15500000000E+01 0. -1.
<mgrwt>
<rscale>  2 0.12499852E+03</rscale>
<asrwt>0</asrwt>
<pdfrwt beam="1">  1       21 0.26552602E-02 0.12499852E+03</pdfrwt>
<pdfrwt beam="2">  1       21 0.34818970E-01 0.12499852E+03</pdfrwt>
<totfact> 0.60489967E+06</totfact>
</mgrwt>
</event>
<event>
 5    0  0.1403669E+000  0.1250072E+03  0.7546771E-02  0.1235058E+00
         21   -1    0    0  503  502  0.00000000000E+00  0.00000000000E+00  0.15680408564E+03  0.15680408564E+03  0.00000000000E+00 0.  1.
         21   -1    0    0  502  503 -0.00000000000E+00 -0.00000000000E+00 -0.24914523271E+02  0.24914523271E+02  0.00000000000E+00 0.  1.
         25    2    1    2    0    0  0.00000000000E+00  0.00000000000E+00  0.13188956237E+03  0.18171860891E+03  0.12500718445E+03 0.  0.
          4    1    3    3  501    0  0.45854738046E+02 -0.58596811487E+01  0.48336925422E+01  0.46505482989E+02  0.15500000000E+01 0.  1.
         -4    1    3    3    0  501 -0.45854738046E+02  0.58596811487E+01  0.12705586983E+03  0.13521312593E+03  0.15500000000E+01 0.  1.
<mgrwt>
<rscale>  2 0.12500718E+03</rscale>
<asrwt>0</asrwt>
<pdfrwt beam="1">  1       21 0.24123705E-01 0.12500718E+03</pdfrwt>
<pdfrwt beam="2">  1       21 0.38330037E-02 0.12500718E+03</pdfrwt>
<totfact> 0.66942731E+06</totfact>
</mgrwt>
</event>
<event>
 5    0  0.1222151E+000  0.1250062E+03  0.7546771E-02  0.1235060E+00
         21   -1    0    0  503  502  0.00000000000E+00  0.00000000000E+00  0.16321145968E+01  0.16321145968E+01  0.00000000000E+00 0. -1.
         21   -1    0    0  502  503 -0.00000000000E+00 -0.00000000000E+00 -0.23936034028E+04  0.23936034028E+04  0.00000000000E+00 0. -1.
         25    2    1    2    0    0  0.00000000000E+00  0.00000000000E+00 -0.23919712882E+04  0.23952355174E+04  0.12500616069E+03 0.  0.
          4    1    3    3  501    0 -0.66736327473E+01  0.60406487378E+02 -0.91782088808E+03  0.91983208587E+03  0.15500000000E+01 0.  1.
         -4    1    3    3    0  501  0.66736327473E+01 -0.60406487378E+02 -0.14741504001E+04  0.14754034315E+04  0.15500000000E+01 0.  1.
<mgrwt>
<rscale>  2 0.12500616E+03</rscale>
<asrwt>0</asrwt>
<pdfrwt beam="1">  1       21 0.25109455E-03 0.12500616E+03</pdfrwt>
<pdfrwt beam="2">  1       21 0.36824668E+00 0.12500616E+03</pdfrwt>
<totfact> 0.46958413E+05</totfact>
</mgrwt>
</event>
<event>
 5    0  0.1222151E+000  0.1250059E+03  0.7546771E-02  0.1235060E+00
         21   -1    0    0  503  502  0.00000000000E+00  0.00000000000E+00  0.37051053394E+01  0.37051053394E+01  0.00000000000E+00 0. -1.
         21   -1    0    0  502  503 -0.00000000000E+00 -0.00000000000E+00 -0.10543877970E+04  0.10543877970E+04  0.00000000000E+00 0. -1.
         25    2    1    2    0    0  0.00000000000E+00  0.00000000000E+00 -0.10506826917E+04  0.10580929024E+04  0.12500588557E+03 0.  0.
          4    1    3    3  501    0  0.31139528588E+02 -0.37568736435E+02 -0.19500028310E+03  0.20101888744E+03  0.15500000000E+01 0.  1.
         -4    1    3    3    0  501 -0.31139528588E+02  0.37568736435E+02 -0.85568240857E+03  0.85707401491E+03  0.15500000000E+01 0.  1.
<mgrwt>
<rscale>  2 0.12500589E+03</rscale>
<asrwt>0</asrwt>
<pdfrwt beam="1">  1       21 0.57001588E-03 0.12500589E+03</pdfrwt>
<pdfrwt beam="2">  1       21 0.16221360E+00 0.12500589E+03</pdfrwt>
<totfact> 0.22205047E+06</totfact>
</mgrwt>
</event>
<event>
 5    0  0.1507899E+000  0.1249915E+03  0.7546771E-02  0.1235083E+00
         21   -1    0    0  503  502  0.00000000000E+00  0.00000000000E+00  0.12392790196E+03  0.12392790196E+03  0.00000000000E+00 0. -1.
         21   -1    0    0  502  503 -0.00000000000E+00 -0.00000000000E+00 -0.31516032581E+02  0.31516032581E+02  0.00000000000E+00 0. -1.
         25    2    1    2    0    0  0.00000000000E+00  0.00000000000E+00  0.92411869377E+02  0.15544393454E+03  0.12499145244E+03 0.  0.
          4    1    3    3  501    0 -0.18153032790E+02 -0.59763136153E+02  0.48028723006E+02  0.78805620205E+02  0.15500000000E+01 0.  1.
         -4    1    3    3    0  501  0.18153032790E+02  0.59763136153E+02  0.44383146372E+02  0.76638314335E+02  0.15500000000E+01 0.  1.
<mgrwt>
<rscale>  2 0.12499145E+03</rscale>
<asrwt>0</asrwt>
<pdfrwt beam="1">  1       21 0.19065831E-01 0.12499145E+03</pdfrwt>
<pdfrwt beam="2">  1       21 0.48486205E-02 0.12499145E+03</pdfrwt>
<totfact> 0.70095764E+06</totfact>
</mgrwt>
</event>
<event>
 5    0  0.1510724E+000  0.1249998E+03  0.7546771E-02  0.1235070E+00
         21   -1    0    0  503  502  0.00000000000E+00  0.00000000000E+00  0.12047533522E+03  0.12047533522E+03  0.00000000000E+00 0.  1.
         21   -1    0    0  502  503 -0.00000000000E+00 -0.00000000000E+00 -0.32423554065E+02  0.32423554065E+02  0.00000000000E+00 0.  1.
         25    2    1    2    0    0  0.00000000000E+00  0.00000000000E+00  0.88051781150E+02  0.15289888928E+03  0.12499981672E+03 0.  0.
          4    1    3    3  501    0  0.87251561165E+00  0.31537056179E+02  0.10999318249E+03  0.11443884782E+03  0.15500000000E+01 0.  1.
         -4    1    3    3    0  501 -0.87251561165E+00 -0.31537056179E+02 -0.21941401344E+02  0.38460041457E+02  0.15500000000E+01 0.  1.
<mgrwt>
<rscale>  2 0.12499982E+03</rscale>
<asrwt>0</asrwt>
<pdfrwt beam="1">  1       21 0.18534667E-01 0.12499982E+03</pdfrwt>
<pdfrwt beam="2">  1       21 0.49882391E-02 0.12499982E+03</pdfrwt>
<totfact> 0.70397247E+06</totfact>
</mgrwt>
</event>
<event>
 5    0  0.1502778E+000  0.1250029E+03  0.7546771E-02  0.1235065E+00
         21   -1    0    0  503  502  0.00000000000E+00  0.00000000000E+00  0.22692329180E+02  0.22692329180E+02  0.00000000000E+00 0. -1.
         21   -1    0    0  502  503 -0.00000000000E+00 -0.00000000000E+00 -0.17214755076E+03  0.17214755076E+03  0.00000000000E+00 0. -1.
         25    2    1    2    0    0  0.00000000000E+00  0.00000000000E+00 -0.14945522158E+03  0.19483987994E+03  0.12500286220E+03 0.  0.
          4    1    3    3  501    0 -0.14422740473E+02 -0.31359908358E+02  0.64522197977E+01  0.35149579447E+02  0.15500000000E+01 0.  1.
         -4    1    3    3    0  501  0.14422740473E+02  0.31359908358E+02 -0.15590744138E+03  0.15969030050E+03  0.15500000000E+01 0.  1.
<mgrwt>
<rscale>  2 0.12500286E+03</rscale>
<asrwt>0</asrwt>
<pdfrwt beam="1">  1       21 0.34911277E-02 0.12500286E+03</pdfrwt>
<pdfrwt beam="2">  1       21 0.26484237E-01 0.12500286E+03</pdfrwt>
<totfact> 0.65483804E+06</totfact>
</mgrwt>
</event>
<event>
 5    0  0.1507767E+000  0.1250018E+03  0.7546771E-02  0.1235066E+00
         21   -1    0    0  503  502  0.00000000000E+00  0.00000000000E+00  0.32607218740E+02  0.32607218740E+02  0.00000000000E+00 0.  1.
         21   -1    0    0  502  503 -0.00000000000E+00 -0.00000000000E+00 -0.11980055204E+03  0.11980055204E+03  0.00000000000E+00 0.  1.
         25    2    1    2    0    0  0.00000000000E+00  0.00000000000E+00 -0.87193333298E+02  0.15240777078E+03  0.12500180487E+03 0.  0.
          4    1    3    3  501    0 -0.87185594497E+01 -0.48648842622E+02 -0.90203669728E+02  0.10286801106E+03  0.15500000000E+01 0. -1.
         -4    1    3    3    0  501  0.87185594497E+01  0.48648842622E+02  0.30103364303E+01  0.49539759716E+02  0.15500000000E+01 0. -1.
<mgrwt>
<rscale>  2 0.12500180E+03</rscale>
<asrwt>0</asrwt>
<pdfrwt beam="1">  1       21 0.50164950E-02 0.12500180E+03</pdfrwt>
<pdfrwt beam="2">  1       21 0.18430855E-01 0.12500180E+03</pdfrwt>
<totfact> 0.70454799E+06</totfact>
</mgrwt>
</event>
<event>
 5    0  0.1447977E+000  0.1250002E+03  0.7546771E-02  0.1235069E+00
         21   -1    0    0  503  502  0.00000000000E+00  0.00000000000E+00  0.47071021739E+02  0.47071021739E+02  0.00000000000E+00 0. -1.
         21   -1    0    0  502  503 -0.00000000000E+00 -0.00000000000E+00 -0.82986563676E+02  0.82986563676E+02  0.00000000000E+00 0. -1.
         25    2    1    2    0    0  0.00000000000E+00  0.00000000000E+00 -0.35915541937E+02  0.13005758542E+03  0.12500019749E+03 0.  0.
          4    1    3    3  501    0  0.43438161702E+02  0.14390787234E+01 -0.64661693046E+02  0.77926130965E+02  0.15500000000E+01 0.  1.
         -4    1    3    3    0  501 -0.43438161702E+02 -0.14390787234E+01  0.28746151109E+02  0.52131454451E+02  0.15500000000E+01 0.  1.
<mgrwt>
<rscale>  2 0.12500020E+03</rscale>
<asrwt>0</asrwt>
<pdfrwt beam="1">  1       21 0.72416956E-02 0.12500020E+03</pdfrwt>
<pdfrwt beam="2">  1       21 0.12767164E-01 0.12500020E+03</pdfrwt>
<totfact> 0.73356850E+06</totfact>
</mgrwt>
</event>
<event>
 5    0  0.1461431E+000  0.1250018E+03  0.7546771E-02  0.1235067E+00
         21   -1    0    0  503  502  0.00000000000E+00  0.00000000000E+00  0.12973762893E+03  0.12973762893E+03  0.00000000000E+00 0. -1.
         21   -1    0    0  502  503 -0.00000000000E+00 -0.00000000000E+00 -0.30109688872E+02  0.30109688872E+02  0.00000000000E+00 0. -1.
         25    2    1    2    0    0  0.00000000000E+00  0.00000000000E+00  0.99627940062E+02  0.15984731781E+03  0.12500175426E+03 0.  0.
          4    1    3    3  501    0  0.60283403202E+02  0.26094121212E+01  0.70554324062E+02  0.92850486682E+02  0.15500000000E+01 0. -1.
         -4    1    3    3    0  501 -0.60283403202E+02 -0.26094121212E+01  0.29073615999E+02  0.66996831123E+02  0.15500000000E+01 0. -1.
<mgrwt>
<rscale>  2 0.12500175E+03</rscale>
<asrwt>0</asrwt>
<pdfrwt beam="1">  1       21 0.19959635E-01 0.12500175E+03</pdfrwt>
<pdfrwt beam="2">  1       21 0.46322599E-02 0.12500175E+03</pdfrwt>
<totfact> 0.69535056E+06</totfact>
</mgrwt>
</event>
<event>
 5    0  0.1473901E+000  0.1249989E+03  0.7546771E-02  0.1235071E+00
         21   -1    0    0  503  502  0.00000000000E+00  0.00000000000E+00  0.15553230148E+03  0.15553230148E+03  0.00000000000E+00 0. -1.
         21   -1    0    0  502  503 -0.00000000000E+00 -0.00000000000E+00 -0.25114934268E+02  0.25114934268E+02  0.00000000000E+00 0. -1.
         25    2    1    2    0    0  0.00000000000E+00  0.00000000000E+00  0.13041736721E+03  0.18064723575E+03  0.12499893645E+03 0.  0.
          4    1    3    3  501    0 -0.46963930007E+02  0.19267107919E+02  0.11785307329E+03  0.12832997138E+03  0.15500000000E+01 0.  1.
         -4    1    3    3    0  501  0.46963930007E+02 -0.19267107919E+02  0.12564293918E+02  0.52317264368E+02  0.15500000000E+01 0.  1.
<mgrwt>
<rscale>  2 0.12499894E+03</rscale>
<asrwt>0</asrwt>
<pdfrwt beam="1">  1       21 0.23928046E-01 0.12499894E+03</pdfrwt>
<pdfrwt beam="2">  1       21 0.38638361E-02 0.12499894E+03</pdfrwt>
<totfact> 0.67079175E+06</totfact>
</mgrwt>
</event>
<event>
 5    0  0.1366282E+000  0.1250000E+03  0.7546771E-02  0.1235069E+00
         21   -1    0    0  503  502  0.00000000000E+00  0.00000000000E+00  0.11148895531E+02  0.11148895531E+02  0.00000000000E+00 0. -1.
         21   -1    0    0  502  503 -0.00000000000E+00 -0.00000000000E+00 -0.35037076802E+03  0.35037076802E+03  0.00000000000E+00 0. -1.
         25    2    1    2    0    0  0.00000000000E+00  0.00000000000E+00 -0.33922187249E+03  0.36151966355E+03  0.12499995343E+03 0.  0.
          4    1    3    3  501    0 -0.40264166394E+02 -0.38860385468E+02 -0.89225999940E+02  0.10533287340E+03  0.15500000000E+01 0. -1.
         -4    1    3    3    0  501  0.40264166394E+02  0.38860385468E+02 -0.24999587255E+03  0.25618679014E+03  0.15500000000E+01 0. -1.
<mgrwt>
<rscale>  2 0.12499995E+03</rscale>
<asrwt>0</asrwt>
<pdfrwt beam="1">  1       21 0.17152150E-02 0.12499995E+03</pdfrwt>
<pdfrwt beam="2">  1       21 0.53903186E-01 0.12499995E+03</pdfrwt>
<totfact> 0.50698826E+06</totfact>
</mgrwt>
</event>
<event>
 5    0  0.1239873E+000  0.1250031E+03  0.7546771E-02  0.1235064E+00
         21   -1    0    0  503  502  0.00000000000E+00  0.00000000000E+00  0.55808750981E+01  0.55808750981E+01  0.00000000000E+00 0.  1.
         21   -1    0    0  502  503 -0.00000000000E+00 -0.00000000000E+00 -0.69996997255E+03  0.69996997255E+03  0.00000000000E+00 0.  1.
         25    2    1    2    0    0  0.00000000000E+00  0.00000000000E+00 -0.69438909745E+03  0.70555084765E+03  0.12500311979E+03 0.  0.
          4    1    3    3  501    0 -0.39533641823E+02 -0.41147549828E+02 -0.20351357686E+03  0.21136747186E+03  0.15500000000E+01 0. -1.
         -4    1    3    3    0  501  0.39533641823E+02  0.41147549828E+02 -0.49087552059E+03  0.49418337579E+03  0.15500000000E+01 0. -1.
<mgrwt>
<rscale>  2 0.12500312E+03</rscale>
<asrwt>0</asrwt>
<pdfrwt beam="1">  1       21 0.85859656E-03 0.12500312E+03</pdfrwt>
<pdfrwt beam="2">  1       21 0.10768764E+00 0.12500312E+03</pdfrwt>
<totfact> 0.32694715E+06</totfact>
</mgrwt>
</event>
<event>
 5    0  0.1481346E+000  0.1249964E+03  0.7546771E-02  0.1235075E+00
         21   -1    0    0  503  502  0.00000000000E+00  0.00000000000E+00  0.13472213319E+03  0.13472213319E+03  0.00000000000E+00 0. -1.
         21   -1    0    0  502  503 -0.00000000000E+00 -0.00000000000E+00 -0.28993203636E+02  0.28993203636E+02  0.00000000000E+00 0. -1.
         25    2    1    2    0    0  0.00000000000E+00  0.00000000000E+00  0.10572892955E+03  0.16371533682E+03  0.12499641982E+03 0.  0.
          4    1    3    3  501    0 -0.30407042670E+02  0.56367147236E+01  0.12396964375E+03  0.12777807272E+03  0.15500000000E+01 0.  1.
         -4    1    3    3    0  501  0.30407042670E+02 -0.56367147236E+01 -0.18240714197E+02  0.35937264103E+02  0.15500000000E+01 0.  1.
<mgrwt>
<rscale>  2 0.12499642E+03</rscale>
<asrwt>0</asrwt>
<pdfrwt beam="1">  1       21 0.20726482E-01 0.12499642E+03</pdfrwt>
<pdfrwt beam="2">  1       21 0.44604930E-02 0.12499642E+03</pdfrwt>
<totfact> 0.69074633E+06</totfact>
</mgrwt>
</event>
<event>
 4    0  0.1592258E+000  0.1248617E+03  0.7546771E-02  0.1235286E+00
         21   -1    0    0  503  502  0.00000000000E+00  0.00000000000E+00  0.56779607826E+03  0.56779607826E+03  0.00000000000E+00 0.  1.
         21   -1    0    0  502  503 -0.00000000000E+00 -0.00000000000E+00 -0.68644518244E+01  0.68644518244E+01  0.00000000000E+00 0.  1.
          4    1    1    2  501    0 -0.31368893175E+02  0.49409986467E+02  0.18070434405E+03  0.18995214313E+03  0.15500000000E+01 0.  1.
         -4    1    1    2    0  501  0.31368893175E+02 -0.49409986467E+02  0.38022728238E+03  0.38470838695E+03  0.15500000000E+01 0.  1.
<mgrwt>
<rscale>  2 0.12486166E+03</rscale>
<asrwt>0</asrwt>
<pdfrwt beam="1">  1       21 0.87353206E-01 0.12486166E+03</pdfrwt>
<pdfrwt beam="2">  1       21 0.10560700E-02 0.12486166E+03</pdfrwt>
<totfact> 0.38396089E+06</totfact>
</mgrwt>
</event>
<event>
 5    0  0.1603859E+000  0.1249997E+03  0.7546771E-02  0.1235070E+00
         21   -1    0    0  503  502  0.00000000000E+00  0.00000000000E+00  0.43486040418E+02  0.43486040418E+02  0.00000000000E+00 0.  1.
         21   -1    0    0  502  503 -0.00000000000E+00 -0.00000000000E+00 -0.89827232849E+02  0.89827232849E+02  0.00000000000E+00 0.  1.
         25    2    1    2    0    0  0.00000000000E+00  0.00000000000E+00 -0.46341192430E+02  0.13331327327E+03  0.12499969085E+03 0.  0.
          4    1    3    3  501    0  0.39751583234E+02  0.41558852118E+02  0.28771568729E+01  0.57602144844E+02  0.15500000000E+01 0.  1.
         -4    1    3    3    0  501 -0.39751583234E+02 -0.41558852118E+02 -0.49218349303E+02  0.75711128423E+02  0.15500000000E+01 0.  1.
<mgrwt>
<rscale>  2 0.12499969E+03</rscale>
<asrwt>0</asrwt>
<pdfrwt beam="1">  1       21 0.66901602E-02 0.12499969E+03</pdfrwt>
<pdfrwt beam="2">  1       21 0.13819574E-01 0.12499969E+03</pdfrwt>
<totfact> 0.72921169E+06</totfact>
</mgrwt>
</event>
<event>
 4    0  0.1520705E+000  0.1251004E+03  0.7546771E-02  0.1234912E+00
         21   -1    0    0  503  502  0.00000000000E+00  0.00000000000E+00  0.39931692480E+02  0.39931692480E+02  0.00000000000E+00 0.  1.
         21   -1    0    0  502  503 -0.00000000000E+00 -0.00000000000E+00 -0.97980534641E+02  0.97980534641E+02  0.00000000000E+00 0.  1.
          4    1    1    2  501    0  0.17748286973E+02  0.59328880203E+02 -0.38584843445E+02  0.72980205263E+02  0.15500000000E+01 0.  1.
         -4    1    1    2    0  501 -0.17748286973E+02 -0.59328880203E+02 -0.19463998717E+02  0.64932021858E+02  0.15500000000E+01 0.  1.
<mgrwt>
<rscale>  2 0.12510042E+03</rscale>
<asrwt>0</asrwt>
<pdfrwt beam="1">  1       21 0.61433374E-02 0.12510042E+03</pdfrwt>
<pdfrwt beam="2">  1       21 0.15073928E-01 0.12510042E+03</pdfrwt>
<totfact> 0.72128265E+06</totfact>
</mgrwt>
</event>
<event>
 5    0  0.1261588E+000  0.1249996E+03  0.7546771E-02  0.1235070E+00
         21   -1    0    0  503  502  0.00000000000E+00  0.00000000000E+00  0.79795844029E+03  0.79795844029E+03  0.00000000000E+00 0.  1.
         21   -1    0    0  502  503 -0.00000000000E+00 -0.00000000000E+00 -0.48952702805E+01  0.48952702805E+01  0.00000000000E+00 0.  1.
         25    2    1    2    0    0  0.00000000000E+00  0.00000000000E+00  0.79306317001E+03  0.80285371057E+03  0.12499955581E+03 0.  0.
          4    1    3    3  501    0  0.34298068433E+02  0.52062970568E+02  0.37012019749E+03  0.37533754608E+03  0.15500000000E+01 0.  1.
         -4    1    3    3    0  501 -0.34298068433E+02 -0.52062970568E+02  0.42294297252E+03  0.42751616450E+03  0.15500000000E+01 0.  1.
<mgrwt>
<rscale>  2 0.12499956E+03</rscale>
<asrwt>0</asrwt>
<pdfrwt beam="1">  1       21 0.12276273E+00 0.12499956E+03</pdfrwt>
<pdfrwt beam="2">  1       21 0.75311914E-03 0.12499956E+03</pdfrwt>
<totfact> 0.29268825E+06</totfact>
</mgrwt>
</event>
<event>
 5    0  0.1363963E+000  0.1250081E+03  0.7546771E-02  0.1235057E+00
         21   -1    0    0  503  502  0.00000000000E+00  0.00000000000E+00  0.42415776307E+03  0.42415776307E+03  0.00000000000E+00 0.  1.
         21   -1    0    0  502  503 -0.00000000000E+00 -0.00000000000E+00 -0.92106227549E+01  0.92106227549E+01  0.00000000000E+00 0.  1.
         25    2    1    2    0    0  0.00000000000E+00  0.00000000000E+00  0.41494714031E+03  0.43336838582E+03  0.12500811404E+03 0.  0.
          4    1    3    3  501    0  0.54111430544E+02 -0.27436230981E+02  0.15563929803E+03  0.16705324683E+03  0.15500000000E+01 0.  1.
         -4    1    3    3    0  501 -0.54111430544E+02  0.27436230981E+02  0.25930784229E+03  0.26631513899E+03  0.15500000000E+01 0.  1.
<mgrwt>
<rscale>  2 0.12500811E+03</rscale>
<asrwt>0</asrwt>
<pdfrwt beam="1">  1       21 0.65255025E-01 0.12500811E+03</pdfrwt>
<pdfrwt beam="2">  1       21 0.14170192E-02 0.12500811E+03</pdfrwt>
<totfact> 0.45894759E+06</totfact>
</mgrwt>
</event>
<event>
 5    0  0.1353576E+000  0.1249931E+03  0.7546771E-02  0.1235080E+00
         21   -1    0    0  503  502  0.00000000000E+00  0.00000000000E+00  0.10206647670E+02  0.10206647670E+02  0.00000000000E+00 0.  1.
         21   -1    0    0  502  503 -0.00000000000E+00 -0.00000000000E+00 -0.38267396300E+03  0.38267396300E+03  0.00000000000E+00 0.  1.
         25    2    1    2    0    0  0.00000000000E+00  0.00000000000E+00 -0.37246731533E+03  0.39288061067E+03  0.12499309281E+03 0.  0.
          4    1    3    3  501    0 -0.55710499672E+02 -0.21122114327E+02 -0.24534057081E+03  0.25247614080E+03  0.15500000000E+01 0.  1.
         -4    1    3    3    0  501  0.55710499672E+02  0.21122114327E+02 -0.12712674452E+03  0.14040446987E+03  0.15500000000E+01 0.  1.
<mgrwt>
<rscale>  2 0.12499309E+03</rscale>
<asrwt>0</asrwt>
<pdfrwt beam="1">  1       21 0.15702537E-02 0.12499309E+03</pdfrwt>
<pdfrwt beam="2">  1       21 0.58872910E-01 0.12499309E+03</pdfrwt>
<totfact> 0.48525567E+06</totfact>
</mgrwt>
</event>
<event>
 5    0  0.1456190E+000  0.1250036E+03  0.7546771E-02  0.1235064E+00
         21   -1    0    0  503  502  0.00000000000E+00  0.00000000000E+00  0.23430092336E+02  0.23430092336E+02  0.00000000000E+00 0.  1.
         21   -1    0    0  502  503 -0.00000000000E+00 -0.00000000000E+00 -0.16672897954E+03  0.16672897954E+03  0.00000000000E+00 0.  1.
         25    2    1    2    0    0  0.00000000000E+00  0.00000000000E+00 -0.14329888721E+03  0.19015907188E+03  0.12500360612E+03 0.  0.
          4    1    3    3  501    0 -0.37239216381E+02 -0.22515232379E+02 -0.13985713722E+03  0.14647906422E+03  0.15500000000E+01 0.  1.
         -4    1    3    3    0  501  0.37239216381E+02  0.22515232379E+02 -0.34417499903E+01  0.43680007655E+02  0.15500000000E+01 0.  1.
<mgrwt>
<rscale>  2 0.12500361E+03</rscale>
<asrwt>0</asrwt>
<pdfrwt beam="1">  1       21 0.36046297E-02 0.12500361E+03</pdfrwt>
<pdfrwt beam="2">  1       21 0.25650611E-01 0.12500361E+03</pdfrwt>
<totfact> 0.65998758E+06</totfact>
</mgrwt>
</event>
<event>
 5    0  0.1619582E+000  0.1250036E+03  0.7546771E-02  0.1235064E+00
         21   -1    0    0  503  502  0.00000000000E+00  0.00000000000E+00  0.58895775860E+02  0.58895775860E+02  0.00000000000E+00 0. -1.
         21   -1    0    0  502  503 -0.00000000000E+00 -0.00000000000E+00 -0.66328620821E+02  0.66328620821E+02  0.00000000000E+00 0. -1.
         25    2    1    2    0    0  0.00000000000E+00  0.00000000000E+00 -0.74328449603E+01  0.12522439668E+03  0.12500360931E+03 0.  0.
          4    1    3    3  501    0 -0.25991936571E+02 -0.54613323601E+02  0.11991745166E+02  0.61679821122E+02  0.15500000000E+01 0.  1.
         -4    1    3    3    0  501  0.25991936571E+02  0.54613323601E+02 -0.19424590126E+02  0.63544575559E+02  0.15500000000E+01 0.  1.
<mgrwt>
<rscale>  2 0.12500361E+03</rscale>
<asrwt>0</asrwt>
<pdfrwt beam="1">  1       21 0.90608885E-02 0.12500361E+03</pdfrwt>
<pdfrwt beam="2">  1       21 0.10204403E-01 0.12500361E+03</pdfrwt>
<totfact> 0.74006449E+06</totfact>
</mgrwt>
</event>
<event>
 5    0  0.1425459E+000  0.1249954E+03  0.7546771E-02  0.1235076E+00
         21   -1    0    0  503  502  0.00000000000E+00  0.00000000000E+00  0.14784363118E+02  0.14784363118E+02  0.00000000000E+00 0. -1.
         21   -1    0    0  502  503 -0.00000000000E+00 -0.00000000000E+00 -0.26419568547E+03  0.26419568547E+03  0.00000000000E+00 0. -1.
         25    2    1    2    0    0  0.00000000000E+00  0.00000000000E+00 -0.24941132235E+03  0.27898004859E+03  0.12499543909E+03 0.  0.
          4    1    3    3  501    0  0.40122785612E+02  0.43143577162E+02 -0.17111441011E+03  0.18097997133E+03  0.15500000000E+01 0. -1.
         -4    1    3    3    0  501 -0.40122785612E+02 -0.43143577162E+02 -0.78296912238E+02  0.98000077253E+02  0.15500000000E+01 0. -1.
<mgrwt>
<rscale>  2 0.12499544E+03</rscale>
<asrwt>0</asrwt>
<pdfrwt beam="1">  1       21 0.22745173E-02 0.12499544E+03</pdfrwt>
<pdfrwt beam="2">  1       21 0.40645491E-01 0.12499544E+03</pdfrwt>
<totfact> 0.57256109E+06</totfact>
</mgrwt>
</event>
<event>
 5    0  0.1566930E+000  0.1249982E+03  0.7546771E-02  0.1235072E+00
         21   -1    0    0  503  502  0.00000000000E+00  0.00000000000E+00  0.61493596127E+02  0.61493596127E+02  0.00000000000E+00 0. -1.
         21   -1    0    0  502  503 -0.00000000000E+00 -0.00000000000E+00 -0.63521034411E+02  0.63521034411E+02  0.00000000000E+00 0. -1.
         25    2    1    2    0    0  0.00000000000E+00  0.00000000000E+00 -0.20274382839E+01  0.12501463054E+03  0.12499818936E+03 0.  0.
          4    1    3    3  501    0  0.24839851293E+02 -0.50444540429E+02  0.26230724083E+02  0.62065475566E+02  0.15500000000E+01 0. -1.
         -4    1    3    3    0  501 -0.24839851293E+02  0.50444540429E+02 -0.28258162367E+02  0.62949154972E+02  0.15500000000E+01 0. -1.
<mgrwt>
<rscale>  2 0.12499819E+03</rscale>
<asrwt>0</asrwt>
<pdfrwt beam="1">  1       21 0.94605532E-02 0.12499819E+03</pdfrwt>
<pdfrwt beam="2">  1       21 0.97724668E-02 0.12499819E+03</pdfrwt>
<totfact> 0.74045033E+06</totfact>
</mgrwt>
</event>
<event>
 5    0  0.1222151E+000  0.1249255E+03  0.7546771E-02  0.1235186E+00
         21   -1    0    0  503  502  0.00000000000E+00  0.00000000000E+00  0.71562578791E+01  0.71562578791E+01  0.00000000000E+00 0.  1.
         21   -1    0    0  502  503 -0.00000000000E+00 -0.00000000000E+00 -0.54520082391E+03  0.54520082391E+03  0.00000000000E+00 0.  1.
         25    2    1    2    0    0  0.00000000000E+00  0.00000000000E+00 -0.53804456603E+03  0.55235708179E+03  0.12492554089E+03 0.  0.
          4    1    3    3  501    0 -0.19097775112E+02  0.58119869106E+02 -0.32434412106E+03  0.33006689559E+03  0.15500000000E+01 0. -1.
         -4    1    3    3    0  501  0.19097775112E+02 -0.58119869106E+02 -0.21370044497E+03  0.22229018620E+03  0.15500000000E+01 0. -1.
<mgrwt>
<rscale>  2 0.12492554E+03</rscale>
<asrwt>0</asrwt>
<pdfrwt beam="1">  1       21 0.11009627E-02 0.12492554E+03</pdfrwt>
<pdfrwt beam="2">  1       21 0.83877055E-01 0.12492554E+03</pdfrwt>
<totfact> 0.39412777E+06</totfact>
</mgrwt>
</event>
<event>
 5    0  0.1591731E+000  0.1250009E+03  0.7546771E-02  0.1235068E+00
         21   -1    0    0  503  502  0.00000000000E+00  0.00000000000E+00  0.40091439775E+02  0.40091439775E+02  0.00000000000E+00 0.  1.
         21   -1    0    0  502  503 -0.00000000000E+00 -0.00000000000E+00 -0.97434928033E+02  0.97434928033E+02  0.00000000000E+00 0.  1.
         25    2    1    2    0    0  0.00000000000E+00  0.00000000000E+00 -0.57343488258E+02  0.13752636781E+03  0.12500090478E+03 0.  0.
          4    1    3    3  501    0  0.50670572691E+02 -0.31746138780E+02 -0.48614870306E+02  0.77078741422E+02  0.15500000000E+01 0. -1.
         -4    1    3    3    0  501 -0.50670572691E+02  0.31746138780E+02 -0.87286179514E+01  0.60447626386E+02  0.15500000000E+01 0. -1.
<mgrwt>
<rscale>  2 0.12500090E+03</rscale>
<asrwt>0</asrwt>
<pdfrwt beam="1">  1       21 0.61679138E-02 0.12500090E+03</pdfrwt>
<pdfrwt beam="2">  1       21 0.14989989E-01 0.12500090E+03</pdfrwt>
<totfact> 0.72361990E+06</totfact>
</mgrwt>
</event>
<event>
 5    0  0.1222151E+000  0.1249714E+03  0.7546771E-02  0.1235114E+00
         21   -1    0    0  503  502  0.00000000000E+00  0.00000000000E+00  0.81313915720E+03  0.81313915720E+03  0.00000000000E+00 0.  1.
         21   -1    0    0  502  503 -0.00000000000E+00 -0.00000000000E+00 -0.48017174579E+01  0.48017174579E+01  0.00000000000E+00 0.  1.
         25    2    1    2    0    0  0.00000000000E+00  0.00000000000E+00  0.80833743974E+03  0.81794087466E+03  0.12497142852E+03 0.  0.
          4    1    3    3  501    0  0.34087226745E+02  0.41600058896E+02  0.19621014743E+03  0.20345350423E+03  0.15500000000E+01 0. -1.
         -4    1    3    3    0  501 -0.34087226745E+02 -0.41600058896E+02  0.61212729231E+03  0.61448737043E+03  0.15500000000E+01 0. -1.
<mgrwt>
<rscale>  2 0.12497143E+03</rscale>
<asrwt>0</asrwt>
<pdfrwt beam="1">  1       21 0.12509822E+00 0.12497143E+03</pdfrwt>
<pdfrwt beam="2">  1       21 0.73872641E-03 0.12497143E+03</pdfrwt>
<totfact> 0.28797346E+06</totfact>
</mgrwt>
</event>
<event>
 5    0  0.1621539E+000  0.1249972E+03  0.7546771E-02  0.1235074E+00
         21   -1    0    0  503  502  0.00000000000E+00  0.00000000000E+00  0.34011069435E+02  0.34011069435E+02  0.00000000000E+00 0. -1.
         21   -1    0    0  502  503 -0.00000000000E+00 -0.00000000000E+00 -0.11484715104E+03  0.11484715104E+03  0.00000000000E+00 0. -1.
         25    2    1    2    0    0  0.00000000000E+00  0.00000000000E+00 -0.80836081608E+02  0.14885822048E+03  0.12499719083E+03 0.  0.
          4    1    3    3  501    0  0.60902476925E+02  0.20833640971E+01 -0.23993226762E+02  0.65509766692E+02  0.15500000000E+01 0.  1.
         -4    1    3    3    0  501 -0.60902476925E+02 -0.20833640971E+01 -0.56842854845E+02  0.83348453786E+02  0.15500000000E+01 0.  1.
<mgrwt>
<rscale>  2 0.12499719E+03</rscale>
<asrwt>0</asrwt>
<pdfrwt beam="1">  1       21 0.52324722E-02 0.12499719E+03</pdfrwt>
<pdfrwt beam="2">  1       21 0.17668792E-01 0.12499719E+03</pdfrwt>
<totfact> 0.70907996E+06</totfact>
</mgrwt>
</event>
<event>
 5    0  0.1538164E+000  0.1249966E+03  0.7546771E-02  0.1235075E+00
         21   -1    0    0  503  502  0.00000000000E+00  0.00000000000E+00  0.12255130785E+03  0.12255130785E+03  0.00000000000E+00 0. -1.
         21   -1    0    0  502  503 -0.00000000000E+00 -0.00000000000E+00 -0.31872667677E+02  0.31872667677E+02  0.00000000000E+00 0. -1.
         25    2    1    2    0    0  0.00000000000E+00  0.00000000000E+00  0.90678640169E+02  0.15442397552E+03  0.12499659369E+03 0.  0.
          4    1    3    3  501    0  0.22134699459E+02  0.55428998631E+02  0.68163477108E+02  0.90614463089E+02  0.15500000000E+01 0. -1.
         -4    1    3    3    0  501 -0.22134699459E+02 -0.55428998631E+02  0.22515163060E+02  0.63809512434E+02  0.15500000000E+01 0. -1.
<mgrwt>
<rscale>  2 0.12499659E+03</rscale>
<asrwt>0</asrwt>
<pdfrwt beam="1">  1       21 0.18854047E-01 0.12499659E+03</pdfrwt>
<pdfrwt beam="2">  1       21 0.49034874E-02 0.12499659E+03</pdfrwt>
<totfact> 0.70213406E+06</totfact>
</mgrwt>
</event>
<event>
 5    0  0.1474016E+000  0.1249899E+03  0.7546771E-02  0.1235085E+00
         21   -1    0    0  503  502  0.00000000000E+00  0.00000000000E+00  0.34576544361E+02  0.34576544361E+02  0.00000000000E+00 0.  1.
         21   -1    0    0  502  503 -0.00000000000E+00 -0.00000000000E+00 -0.11295566231E+03  0.11295566231E+03  0.00000000000E+00 0.  1.
         25    2    1    2    0    0  0.00000000000E+00  0.00000000000E+00 -0.78379117954E+02  0.14753220668E+03  0.12498986309E+03 0.  0.
          4    1    3    3  501    0  0.47800368105E+02 -0.20797876515E+01 -0.86610000719E+02  0.98959059374E+02  0.15500000000E+01 0.  1.
         -4    1    3    3    0  501 -0.47800368105E+02  0.20797876515E+01  0.82308827652E+01  0.48573147301E+02  0.15500000000E+01 0.  1.
<mgrwt>
<rscale>  2 0.12498986E+03</rscale>
<asrwt>0</asrwt>
<pdfrwt beam="1">  1       21 0.53194685E-02 0.12498986E+03</pdfrwt>
<pdfrwt beam="2">  1       21 0.17377794E-01 0.12498986E+03</pdfrwt>
<totfact> 0.71088941E+06</totfact>
</mgrwt>
</event>
<event>
 5    0  0.1514179E+000  0.1249906E+03  0.7546771E-02  0.1235084E+00
         21   -1    0    0  503  502  0.00000000000E+00  0.00000000000E+00  0.44921535545E+02  0.44921535545E+02  0.00000000000E+00 0. -1.
         21   -1    0    0  502  503 -0.00000000000E+00 -0.00000000000E+00 -0.86944061788E+02  0.86944061788E+02  0.00000000000E+00 0. -1.
         25    2    1    2    0    0  0.00000000000E+00  0.00000000000E+00 -0.42022526243E+02  0.13186559733E+03  0.12499057184E+03 0.  0.
          4    1    3    3  501    0 -0.45239151957E+02  0.70564105162E+01 -0.65856822256E+02  0.80224044630E+02  0.15500000000E+01 0. -1.
         -4    1    3    3    0  501  0.45239151957E+02 -0.70564105162E+01  0.23834296013E+02  0.51641552703E+02  0.15500000000E+01 0. -1.
<mgrwt>
<rscale>  2 0.12499057E+03</rscale>
<asrwt>0</asrwt>
<pdfrwt beam="1">  1       21 0.69110056E-02 0.12499057E+03</pdfrwt>
<pdfrwt beam="2">  1       21 0.13376009E-01 0.12499057E+03</pdfrwt>
<totfact> 0.73131850E+06</totfact>
</mgrwt>
</event>
<event>
 5    0  0.1222151E+000  0.1250009E+03  0.7546771E-02  0.1235068E+00
         21   -1    0    0  503  502  0.00000000000E+00  0.00000000000E+00  0.11092540361E+04  0.11092540361E+04  0.00000000000E+00 0.  1.
         21   -1    0    0  502  503 -0.00000000000E+00 -0.00000000000E+00 -0.35215589033E+01  0.35215589033E+01  0.00000000000E+00 0.  1.
         25    2    1    2    0    0  0.00000000000E+00  0.00000000000E+00  0.11057324772E+04  0.11127755950E+04  0.12500085482E+03 0.  0.
          4    1    3    3  501    0 -0.44855361026E+02 -0.15928663444E+02  0.91317496629E+03  0.91441601434E+03  0.15500000000E+01 0.  1.
         -4    1    3    3    0  501  0.44855361026E+02  0.15928663444E+02  0.19255751087E+03  0.19835958062E+03  0.15500000000E+01 0.  1.
<mgrwt>
<rscale>  2 0.12500085E+03</rscale>
<asrwt>0</asrwt>
<pdfrwt beam="1">  1       21 0.17065419E+00 0.12500085E+03</pdfrwt>
<pdfrwt beam="2">  1       21 0.54177918E-03 0.12500085E+03</pdfrwt>
<totfact> 0.20969098E+06</totfact>
</mgrwt>
</event>
<event>
 5    0  0.1222151E+000  0.1249982E+03  0.7546771E-02  0.1235072E+00
         21   -1    0    0  503  502  0.00000000000E+00  0.00000000000E+00  0.12142273104E+02  0.12142273104E+02  0.00000000000E+00 0.  1.
         21   -1    0    0  502  503 -0.00000000000E+00 -0.00000000000E+00 -0.32169718958E+03  0.32169718958E+03  0.00000000000E+00 0.  1.
         25    2    1    2    0    0  0.00000000000E+00  0.00000000000E+00 -0.30955491648E+03  0.33383946268E+03  0.12499816211E+03 0.  0.
          4    1    3    3  501    0 -0.28930505207E+01  0.24414287224E+02 -0.13704116903E+01  0.24672002151E+02  0.15500000000E+01 0. -1.
         -4    1    3    3    0  501  0.28930505207E+01 -0.24414287224E+02 -0.30818450479E+03  0.30916746053E+03  0.15500000000E+01 0. -1.
<mgrwt>
<rscale>  2 0.12499816E+03</rscale>
<asrwt>0</asrwt>
<pdfrwt beam="1">  1       21 0.18680419E-02 0.12499816E+03</pdfrwt>
<pdfrwt beam="2">  1       21 0.49491878E-01 0.12499816E+03</pdfrwt>
<totfact> 0.52756970E+06</totfact>
</mgrwt>
</event>
<event>
 5    0  0.1538076E+000  0.1250030E+03  0.7546771E-02  0.1235065E+00
         21   -1    0    0  503  502  0.00000000000E+00  0.00000000000E+00  0.20497961877E+03  0.20497961877E+03  0.00000000000E+00 0.  1.
         21   -1    0    0  502  503 -0.00000000000E+00 -0.00000000000E+00 -0.19057686883E+02  0.19057686883E+02  0.00000000000E+00 0.  1.
         25    2    1    2    0    0  0.00000000000E+00  0.00000000000E+00  0.18592193189E+03  0.22403730565E+03  0.12500299823E+03 0.  0.
          4    1    3    3  501    0 -0.71081355090E+01 -0.61595457074E+02  0.79135138727E+02  0.10054500785E+03  0.15500000000E+01 0. -1.
         -4    1    3    3    0  501  0.71081355090E+01  0.61595457074E+02  0.10678679316E+03  0.12349229780E+03  0.15500000000E+01 0. -1.
<mgrwt>
<rscale>  2 0.12500300E+03</rscale>
<asrwt>0</asrwt>
<pdfrwt beam="1">  1       21 0.31535325E-01 0.12500300E+03</pdfrwt>
<pdfrwt beam="2">  1       21 0.29319520E-02 0.12500300E+03</pdfrwt>
<totfact> 0.62407510E+06</totfact>
</mgrwt>
</event>
<event>
 5    0  0.1575418E+000  0.1249958E+03  0.7546771E-02  0.1235076E+00
         21   -1    0    0  503  502  0.00000000000E+00  0.00000000000E+00  0.38518438596E+02  0.38518438596E+02  0.00000000000E+00 0. -1.
         21   -1    0    0  502  503 -0.00000000000E+00 -0.00000000000E+00 -0.10140559153E+03  0.10140559153E+03  0.00000000000E+00 0. -1.
         25    2    1    2    0    0  0.00000000000E+00  0.00000000000E+00 -0.62887152936E+02  0.13992403013E+03  0.12499576074E+03 0.  0.
          4    1    3    3  501    0  0.50579234210E+02  0.34123104405E+02 -0.16385789459E+02  0.63194475895E+02  0.15500000000E+01 0. -1.
         -4    1    3    3    0  501 -0.50579234210E+02 -0.34123104405E+02 -0.46501363477E+02  0.76729554232E+02  0.15500000000E+01 0. -1.
<mgrwt>
<rscale>  2 0.12499576E+03</rscale>
<asrwt>0</asrwt>
<pdfrwt beam="1">  1       21 0.59259137E-02 0.12499576E+03</pdfrwt>
<pdfrwt beam="2">  1       21 0.15600860E-01 0.12499576E+03</pdfrwt>
<totfact> 0.72057010E+06</totfact>
</mgrwt>
</event>
<event>
 5    0  0.1425841E+000  0.1250016E+03  0.7546771E-02  0.1235067E+00
         21   -1    0    0  503  502  0.00000000000E+00  0.00000000000E+00  0.21703792812E+03  0.21703792812E+03  0.00000000000E+00 0. -1.
         21   -1    0    0  502  503 -0.00000000000E+00 -0.00000000000E+00 -0.17998456186E+02  0.17998456186E+02  0.00000000000E+00 0. -1.
         25    2    1    2    0    0  0.00000000000E+00  0.00000000000E+00  0.19903947194E+03  0.23503638431E+03  0.12500156223E+03 0.  0.
          4    1    3    3  501    0 -0.14571488935E+02 -0.37069811978E+02  0.19003554930E+03  0.19417108885E+03  0.15500000000E+01 0. -1.
         -4    1    3    3    0  501  0.14571488935E+02  0.37069811978E+02  0.90039226414E+01  0.40865295457E+02  0.15500000000E+01 0. -1.
<mgrwt>
<rscale>  2 0.12500156E+03</rscale>
<asrwt>0</asrwt>
<pdfrwt beam="1">  1       21 0.33390449E-01 0.12500156E+03</pdfrwt>
<pdfrwt beam="2">  1       21 0.27689934E-02 0.12500156E+03</pdfrwt>
<totfact> 0.61313898E+06</totfact>
</mgrwt>
</event>
<event>
 5    0  0.1249112E+000  0.1249932E+03  0.7546771E-02  0.1235080E+00
         21   -1    0    0  503  502  0.00000000000E+00  0.00000000000E+00  0.94465334897E+01  0.94465334897E+01  0.00000000000E+00 0.  1.
         21   -1    0    0  502  503 -0.00000000000E+00 -0.00000000000E+00 -0.41346665231E+03  0.41346665231E+03  0.00000000000E+00 0.  1.
         25    2    1    2    0    0  0.00000000000E+00  0.00000000000E+00 -0.40402011882E+03  0.42291318580E+03  0.12499322506E+03 0.  0.
          4    1    3    3  501    0  0.26276213761E+02 -0.77433839101E+01 -0.12021068168E+02  0.29955099464E+02  0.15500000000E+01 0.  1.
         -4    1    3    3    0  501 -0.26276213761E+02  0.77433839101E+01 -0.39199905065E+03  0.39295808633E+03  0.15500000000E+01 0.  1.
<mgrwt>
<rscale>  2 0.12499323E+03</rscale>
<asrwt>0</asrwt>
<pdfrwt beam="1">  1       21 0.14533133E-02 0.12499323E+03</pdfrwt>
<pdfrwt beam="2">  1       21 0.63610232E-01 0.12499323E+03</pdfrwt>
<totfact> 0.46565660E+06</totfact>
</mgrwt>
</event>
<event>
 5    0  0.1350795E+000  0.1249985E+03  0.7546771E-02  0.1235072E+00
         21   -1    0    0  503  502  0.00000000000E+00  0.00000000000E+00  0.47225892276E+03  0.47225892276E+03  0.00000000000E+00 0. -1.
         21   -1    0    0  502  503 -0.00000000000E+00 -0.00000000000E+00 -0.82712184891E+01  0.82712184891E+01  0.00000000000E+00 0. -1.
         25    2    1    2    0    0  0.00000000000E+00  0.00000000000E+00  0.46398770427E+03  0.48053014125E+03  0.12499850773E+03 0.  0.
          4    1    3    3  501    0  0.31826749978E+02  0.52835393227E+02  0.19369860880E+03  0.20328815593E+03  0.15500000000E+01 0. -1.
         -4    1    3    3    0  501 -0.31826749978E+02 -0.52835393227E+02  0.27028909548E+03  0.27724198532E+03  0.15500000000E+01 0. -1.
<mgrwt>
<rscale>  2 0.12499851E+03</rscale>
<asrwt>0</asrwt>
<pdfrwt beam="1">  1       21 0.72655198E-01 0.12499851E+03</pdfrwt>
<pdfrwt beam="2">  1       21 0.12724955E-02 0.12499851E+03</pdfrwt>
<totfact> 0.43121647E+06</totfact>
</mgrwt>
</event>
<event>
 5    0  0.1581999E+000  0.1249992E+03  0.7546771E-02  0.1235070E+00
         21   -1    0    0  503  502  0.00000000000E+00  0.00000000000E+00  0.41642609137E+02  0.41642609137E+02  0.00000000000E+00 0.  1.
         21   -1    0    0  502  503 -0.00000000000E+00 -0.00000000000E+00 -0.93803013482E+02  0.93803013482E+02  0.00000000000E+00 0.  1.
         25    2    1    2    0    0  0.00000000000E+00  0.00000000000E+00 -0.52160404345E+02  0.13544562262E+03  0.12499923562E+03 0.  0.
          4    1    3    3  501    0  0.38994893639E+02 -0.46075263040E+02 -0.85991280502E+01  0.60990811582E+02  0.15500000000E+01 0.  1.
         -4    1    3    3    0  501 -0.38994893639E+02  0.46075263040E+02 -0.43561276295E+02  0.74454811037E+02  0.15500000000E+01 0.  1.
<mgrwt>
<rscale>  2 0.12499924E+03</rscale>
<asrwt>0</asrwt>
<pdfrwt beam="1">  1       21 0.64065553E-02 0.12499924E+03</pdfrwt>
<pdfrwt beam="2">  1       21 0.14431233E-01 0.12499924E+03</pdfrwt>
<totfact> 0.72638939E+06</totfact>
</mgrwt>
</event>
<event>
 5    0  0.1599600E+000  0.1249975E+03  0.7546771E-02  0.1235073E+00
         21   -1    0    0  503  502  0.00000000000E+00  0.00000000000E+00  0.30448177518E+02  0.30448177518E+02  0.00000000000E+00 0. -1.
         21   -1    0    0  502  503 -0.00000000000E+00 -0.00000000000E+00 -0.12828659210E+03  0.12828659210E+03  0.00000000000E+00 0. -1.
         25    2    1    2    0    0  0.00000000000E+00  0.00000000000E+00 -0.97838414585E+02  0.15873476962E+03  0.12499748685E+03 0.  0.
          4    1    3    3  501    0  0.13036317103E+02 -0.37719353996E+02  0.12128633284E+02  0.41739687048E+02  0.15500000000E+01 0.  1.
         -4    1    3    3    0  501 -0.13036317103E+02  0.37719353996E+02 -0.10996704787E+03  0.11699508257E+03  0.15500000000E+01 0.  1.
<mgrwt>
<rscale>  2 0.12499749E+03</rscale>
<asrwt>0</asrwt>
<pdfrwt beam="1">  1       21 0.46843350E-02 0.12499749E+03</pdfrwt>
<pdfrwt beam="2">  1       21 0.19736399E-01 0.12499749E+03</pdfrwt>
<totfact> 0.69678877E+06</totfact>
</mgrwt>
</event>
<event>
 5    0  0.1533130E+000  0.1250000E+03  0.7546771E-02  0.1235069E+00
         21   -1    0    0  503  502  0.00000000000E+00  0.00000000000E+00  0.70598366707E+02  0.70598366707E+02  0.00000000000E+00 0. -1.
         21   -1    0    0  502  503 -0.00000000000E+00 -0.00000000000E+00 -0.55330566115E+02  0.55330566115E+02  0.00000000000E+00 0. -1.
         25    2    1    2    0    0  0.00000000000E+00  0.00000000000E+00  0.15267800592E+02  0.12592893282E+03  0.12499996155E+03 0.  0.
          4    1    3    3  501    0  0.25906958926E+02 -0.54115125067E+02 -0.99378532191E+01  0.60834042348E+02  0.15500000000E+01 0. -1.
         -4    1    3    3    0  501 -0.25906958926E+02  0.54115125067E+02  0.25205653811E+02  0.65094890474E+02  0.15500000000E+01 0. -1.
<mgrwt>
<rscale>  2 0.12499996E+03</rscale>
<asrwt>0</asrwt>
<pdfrwt beam="1">  1       21 0.10861287E-01 0.12499996E+03</pdfrwt>
<pdfrwt beam="2">  1       21 0.85123947E-02 0.12499996E+03</pdfrwt>
<totfact> 0.73915917E+06</totfact>
</mgrwt>
</event>
<event>
 5    0  0.1539697E+000  0.1249989E+03  0.7546771E-02  0.1235071E+00
         21   -1    0    0  503  502  0.00000000000E+00  0.00000000000E+00  0.53616972334E+02  0.53616972334E+02  0.00000000000E+00 0. -1.
         21   -1    0    0  502  503 -0.00000000000E+00 -0.00000000000E+00 -0.72853501430E+02  0.72853501430E+02  0.00000000000E+00 0. -1.
         25    2    1    2    0    0  0.00000000000E+00  0.00000000000E+00 -0.19236529096E+02  0.12647047376E+03  0.12499894673E+03 0.  0.
          4    1    3    3  501    0  0.86152735300E+01 -0.50190918922E+02 -0.46244288077E+02  0.68806162224E+02  0.15500000000E+01 0. -1.
         -4    1    3    3    0  501 -0.86152735300E+01  0.50190918922E+02  0.27007758981E+02  0.57664311541E+02  0.15500000000E+01 0. -1.
<mgrwt>
<rscale>  2 0.12499895E+03</rscale>
<asrwt>0</asrwt>
<pdfrwt beam="1">  1       21 0.82487650E-02 0.12499895E+03</pdfrwt>
<pdfrwt beam="2">  1       21 0.11208231E-01 0.12499895E+03</pdfrwt>
<totfact> 0.73843399E+06</totfact>
</mgrwt>
</event>
<event>
 5    0  0.1493825E+000  0.1250006E+03  0.7546771E-02  0.1235068E+00
         21   -1    0    0  503  502  0.00000000000E+00  0.00000000000E+00  0.45596499246E+02  0.45596499246E+02  0.00000000000E+00 0. -1.
         21   -1    0    0  502  503 -0.00000000000E+00 -0.00000000000E+00 -0.85670724464E+02  0.85670724464E+02  0.00000000000E+00 0. -1.
         25    2    1    2    0    0  0.00000000000E+00  0.00000000000E+00 -0.40074225218E+02  0.13126722371E+03  0.12500056197E+03 0.  0.
          4    1    3    3  501    0  0.33742082116E+02  0.32794710230E+02  0.23131678823E+02  0.52454725143E+02  0.15500000000E+01 0. -1.
         -4    1    3    3    0  501 -0.33742082116E+02 -0.32794710230E+02 -0.63205904042E+02  0.78812498567E+02  0.15500000000E+01 0. -1.
<mgrwt>
<rscale>  2 0.12500056E+03</rscale>
<asrwt>0</asrwt>
<pdfrwt beam="1">  1       21 0.70148461E-02 0.12500056E+03</pdfrwt>
<pdfrwt beam="2">  1       21 0.13180111E-01 0.12500056E+03</pdfrwt>
<totfact> 0.73193634E+06</totfact>
</mgrwt>
</event>
<event>
 5    0  0.1463768E+000  0.1249830E+03  0.7546771E-02  0.1235096E+00
         21   -1    0    0  503  502  0.00000000000E+00  0.00000000000E+00  0.19021596461E+03  0.19021596461E+03  0.00000000000E+00 0. -1.
         21   -1    0    0  502  503 -0.00000000000E+00 -0.00000000000E+00 -0.20530289005E+02  0.20530289005E+02  0.00000000000E+00 0. -1.
         25    2    1    2    0    0  0.00000000000E+00  0.00000000000E+00  0.16968567561E+03  0.21074625362E+03  0.12498301848E+03 0.  0.
          4    1    3    3  501    0  0.50682234714E+02  0.68497349433E+01  0.14533905688E+03  0.15408261335E+03  0.15500000000E+01 0.  1.
         -4    1    3    3    0  501 -0.50682234714E+02 -0.68497349433E+01  0.24346618732E+02  0.56663640265E+02  0.15500000000E+01 0.  1.
<mgrwt>
<rscale>  2 0.12498302E+03</rscale>
<asrwt>0</asrwt>
<pdfrwt beam="1">  1       21 0.29263993E-01 0.12498302E+03</pdfrwt>
<pdfrwt beam="2">  1       21 0.31585061E-02 0.12498302E+03</pdfrwt>
<totfact> 0.63808510E+06</totfact>
</mgrwt>
</event>
<event>
 5    0  0.1507340E+000  0.1250041E+03  0.7546771E-02  0.1235063E+00
         21   -1    0    0  503  502  0.00000000000E+00  0.00000000000E+00  0.12551303171E+02  0.12551303171E+02  0.00000000000E+00 0.  1.
         21   -1    0    0  502  503 -0.00000000000E+00 -0.00000000000E+00 -0.31124298133E+03  0.31124298133E+03  0.00000000000E+00 0.  1.
         25    2    1    2    0    0  0.00000000000E+00  0.00000000000E+00 -0.29869167816E+03  0.32379428450E+03  0.12500408023E+03 0.  0.
          4    1    3    3  501    0  0.44371698414E+01  0.62276375161E+02 -0.14296559973E+03  0.15601153991E+03  0.15500000000E+01 0. -1.
         -4    1    3    3    0  501 -0.44371698414E+01 -0.62276375161E+02 -0.15572607843E+03  0.16778274459E+03  0.15500000000E+01 0. -1.
<mgrwt>
<rscale>  2 0.12500408E+03</rscale>
<asrwt>0</asrwt>
<pdfrwt beam="1">  1       21 0.19309698E-02 0.12500408E+03</pdfrwt>
<pdfrwt beam="2">  1       21 0.47883533E-01 0.12500408E+03</pdfrwt>
<totfact> 0.53528551E+06</totfact>
</mgrwt>
</event>
<event>
 5    0  0.1485282E+000  0.1250021E+03  0.7546771E-02  0.1235066E+00
         21   -1    0    0  503  502  0.00000000000E+00  0.00000000000E+00  0.17836302987E+02  0.17836302987E+02  0.00000000000E+00 0.  1.
         21   -1    0    0  502  503 -0.00000000000E+00 -0.00000000000E+00 -0.21901294183E+03  0.21901294183E+03  0.00000000000E+00 0.  1.
         25    2    1    2    0    0  0.00000000000E+00  0.00000000000E+00 -0.20117663884E+03  0.23684924482E+03  0.12500209900E+03 0.  0.
          4    1    3    3  501    0 -0.61142354406E+02  0.47620950453E+01 -0.12323953611E+03  0.13766426846E+03  0.15500000000E+01 0. -1.
         -4    1    3    3    0  501  0.61142354406E+02 -0.47620950453E+01 -0.77937102733E+02  0.99184976352E+02  0.15500000000E+01 0. -1.
<mgrwt>
<rscale>  2 0.12500210E+03</rscale>
<asrwt>0</asrwt>
<pdfrwt beam="1">  1       21 0.27440466E-02 0.12500210E+03</pdfrwt>
<pdfrwt beam="2">  1       21 0.33694299E-01 0.12500210E+03</pdfrwt>
<totfact> 0.61135655E+06</totfact>
</mgrwt>
</event>
<event>
 5    0  0.1467857E+000  0.1250031E+03  0.7546771E-02  0.1235064E+00
         21   -1    0    0  503  502  0.00000000000E+00  0.00000000000E+00  0.19178184119E+03  0.19178184119E+03  0.00000000000E+00 0.  1.
         21   -1    0    0  502  503 -0.00000000000E+00 -0.00000000000E+00 -0.20369218154E+02  0.20369218154E+02  0.00000000000E+00 0.  1.
         25    2    1    2    0    0  0.00000000000E+00  0.00000000000E+00  0.17141262304E+03  0.21215105934E+03  0.12500313854E+03 0.  0.
          4    1    3    3  501    0 -0.44270354250E+02 -0.89236337870E+01  0.12421986929E+02  0.46863672121E+02  0.15500000000E+01 0. -1.
         -4    1    3    3    0  501  0.44270354250E+02  0.89236337870E+01  0.15899063611E+03  0.16528738722E+03  0.15500000000E+01 0. -1.
<mgrwt>
<rscale>  2 0.12500314E+03</rscale>
<asrwt>0</asrwt>
<pdfrwt beam="1">  1       21 0.29504897E-01 0.12500314E+03</pdfrwt>
<pdfrwt beam="2">  1       21 0.31337260E-02 0.12500314E+03</pdfrwt>
<totfact> 0.63628878E+06</totfact>
</mgrwt>
</event>
<event>
 5    0  0.1555026E+000  0.1249962E+03  0.7546771E-02  0.1235075E+00
         21   -1    0    0  503  502  0.00000000000E+00  0.00000000000E+00  0.20463143126E+03  0.20463143126E+03  0.00000000000E+00 0. -1.
         21   -1    0    0  502  503 -0.00000000000E+00 -0.00000000000E+00 -0.19088041368E+02  0.19088041368E+02  0.00000000000E+00 0. -1.
         25    2    1    2    0    0  0.00000000000E+00  0.00000000000E+00  0.18554338989E+03  0.22371947262E+03  0.12499621154E+03 0.  0.
          4    1    3    3  501    0 -0.58167629765E+01 -0.62192601089E+02  0.90333106969E+02  0.10983727544E+03  0.15500000000E+01 0.  1.
         -4    1    3    3    0  501  0.58167629765E+01  0.62192601089E+02  0.95210282918E+02  0.11388219718E+03  0.15500000000E+01 0.  1.
<mgrwt>
<rscale>  2 0.12499621E+03</rscale>
<asrwt>0</asrwt>
<pdfrwt beam="1">  1       21 0.31481757E-01 0.12499621E+03</pdfrwt>
<pdfrwt beam="2">  1       21 0.29366219E-02 0.12499621E+03</pdfrwt>
<totfact> 0.62450344E+06</totfact>
</mgrwt>
</event>
<event>
 5    0  0.1501153E+000  0.1250009E+03  0.7546771E-02  0.1235068E+00
         21   -1    0    0  503  502  0.00000000000E+00  0.00000000000E+00  0.12427393282E+03  0.12427393282E+03  0.00000000000E+00 0.  1.
         21   -1    0    0  502  503 -0.00000000000E+00 -0.00000000000E+00 -0.31433010394E+02  0.31433010394E+02  0.00000000000E+00 0.  1.
         25    2    1    2    0    0  0.00000000000E+00  0.00000000000E+00  0.92840922426E+02  0.15570694322E+03  0.12500086115E+03 0.  0.
          4    1    3    3  501    0 -0.35239694396E+02 -0.49005627760E+02  0.26315174775E+02  0.65865609667E+02  0.15500000000E+01 0.  1.
         -4    1    3    3    0  501  0.35239694396E+02  0.49005627760E+02  0.66525747651E+02  0.89841333549E+02  0.15500000000E+01 0.  1.
<mgrwt>
<rscale>  2 0.12500086E+03</rscale>
<asrwt>0</asrwt>
<pdfrwt beam="1">  1       21 0.19119066E-01 0.12500086E+03</pdfrwt>
<pdfrwt beam="2">  1       21 0.48358478E-02 0.12500086E+03</pdfrwt>
<totfact> 0.70046367E+06</totfact>
</mgrwt>
</event>
<event>
 5    0  0.1222151E+000  0.1249983E+03  0.7546771E-02  0.1235072E+00
         21   -1    0    0  503  502  0.00000000000E+00  0.00000000000E+00  0.64372873357E+01  0.64372873357E+01  0.00000000000E+00 0. -1.
         21   -1    0    0  502  503 -0.00000000000E+00 -0.00000000000E+00 -0.60679993816E+03  0.60679993816E+03  0.00000000000E+00 0. -1.
         25    2    1    2    0    0  0.00000000000E+00  0.00000000000E+00 -0.60036265083E+03  0.61323722550E+03  0.12499832890E+03 0.  0.
          4    1    3    3  501    0  0.12267445724E+02 -0.20860287393E+02 -0.17583302164E+02  0.29953577911E+02  0.15500000000E+01 0.  1.
         -4    1    3    3    0  501 -0.12267445724E+02  0.20860287393E+02 -0.58277934866E+03  0.58328364759E+03  0.15500000000E+01 0.  1.
<mgrwt>
<rscale>  2 0.12499833E+03</rscale>
<asrwt>0</asrwt>
<pdfrwt beam="1">  1       21 0.99035150E-03 0.12499833E+03</pdfrwt>
<pdfrwt beam="2">  1       21 0.93353874E-01 0.12499833E+03</pdfrwt>
<totfact> 0.36502259E+06</totfact>
</mgrwt>
</event>
<event>
 5    0  0.1466529E+000  0.1249992E+03  0.7546771E-02  0.1235070E+00
         21   -1    0    0  503  502  0.00000000000E+00  0.00000000000E+00  0.59246940975E+02  0.59246940975E+02  0.00000000000E+00 0.  1.
         21   -1    0    0  502  503 -0.00000000000E+00 -0.00000000000E+00 -0.65930860604E+02  0.65930860604E+02  0.00000000000E+00 0.  1.
         25    2    1    2    0    0  0.00000000000E+00  0.00000000000E+00 -0.66839196283E+01  0.12517780158E+03  0.12499922890E+03 0.  0.
          4    1    3    3  501    0 -0.59466569841E+00 -0.25871760841E+02  0.53608410433E+02  0.59548012607E+02  0.15500000000E+01 0. -1.
         -4    1    3    3    0  501  0.59466569841E+00  0.25871760841E+02 -0.60292330061E+02  0.65629788972E+02  0.15500000000E+01 0. -1.
<mgrwt>
<rscale>  2 0.12499923E+03</rscale>
<asrwt>0</asrwt>
<pdfrwt beam="1">  1       21 0.91149140E-02 0.12499923E+03</pdfrwt>
<pdfrwt beam="2">  1       21 0.10143209E-01 0.12499923E+03</pdfrwt>
<totfact> 0.74021028E+06</totfact>
</mgrwt>
</event>
<event>
 5    0  0.1499912E+000  0.1249922E+03  0.7546771E-02  0.1235081E+00
         21   -1    0    0  503  502  0.00000000000E+00  0.00000000000E+00  0.31118735701E+02  0.31118735701E+02  0.00000000000E+00 0. -1.
         21   -1    0    0  502  503 -0.00000000000E+00 -0.00000000000E+00 -0.12551169623E+03  0.12551169623E+03  0.00000000000E+00 0. -1.
         25    2    1    2    0    0  0.00000000000E+00  0.00000000000E+00 -0.94392960533E+02  0.15663043193E+03  0.12499224460E+03 0.  0.
          4    1    3    3  501    0 -0.46621929871E+02  0.14420309921E+02  0.16883082059E+01  0.48854913445E+02  0.15500000000E+01 0.  1.
         -4    1    3    3    0  501  0.46621929871E+02 -0.14420309921E+02 -0.96081268739E+02  0.10777551849E+03  0.15500000000E+01 0.  1.
<mgrwt>
<rscale>  2 0.12499224E+03</rscale>
<asrwt>0</asrwt>
<pdfrwt beam="1">  1       21 0.47874977E-02 0.12499224E+03</pdfrwt>
<pdfrwt beam="2">  1       21 0.19309492E-01 0.12499224E+03</pdfrwt>
<totfact> 0.69947377E+06</totfact>
</mgrwt>
</event>
<event>
 5    0  0.1530547E+000  0.1249937E+03  0.7546771E-02  0.1235079E+00
         21   -1    0    0  503  502  0.00000000000E+00  0.00000000000E+00  0.17010335416E+02  0.17010335416E+02  0.00000000000E+00 0. -1.
         21   -1    0    0  502  503 -0.00000000000E+00 -0.00000000000E+00 -0.22961667395E+03  0.22961667395E+03  0.00000000000E+00 0. -1.
         25    2    1    2    0    0  0.00000000000E+00  0.00000000000E+00 -0.21260633853E+03  0.24662700936E+03  0.12499370610E+03 0.  0.
          4    1    3    3  501    0 -0.12274192108E+02  0.51504140653E+02 -0.17174762882E+03  0.17973030574E+03  0.15500000000E+01 0.  1.
         -4    1    3    3    0  501  0.12274192108E+02 -0.51504140653E+02 -0.40858709710E+02  0.66896703622E+02  0.15500000000E+01 0.  1.
<mgrwt>
<rscale>  2 0.12499371E+03</rscale>
<asrwt>0</asrwt>
<pdfrwt beam="1">  1       21 0.26169746E-02 0.12499371E+03</pdfrwt>
<pdfrwt beam="2">  1       21 0.35325643E-01 0.12499371E+03</pdfrwt>
<totfact> 0.60206765E+06</totfact>
</mgrwt>
</event>
<event>
 5    0  0.1320111E+000  0.1249827E+03  0.7546771E-02  0.1235096E+00
         21   -1    0    0  503  502  0.00000000000E+00  0.00000000000E+00  0.54947858748E+03  0.54947858748E+03  0.00000000000E+00 0.  1.
         21   -1    0    0  502  503 -0.00000000000E+00 -0.00000000000E+00 -0.71070401711E+01  0.71070401711E+01  0.00000000000E+00 0.  1.
         25    2    1    2    0    0  0.00000000000E+00  0.00000000000E+00  0.54237154731E+03  0.55658562765E+03  0.12498266111E+03 0.  0.
          4    1    3    3  501    0 -0.59338621529E+02  0.19502747503E+02  0.26604085163E+03  0.27327928279E+03  0.15500000000E+01 0.  1.
         -4    1    3    3    0  501  0.59338621529E+02 -0.19502747503E+02  0.27633069567E+03  0.28330634486E+03  0.15500000000E+01 0.  1.
<mgrwt>
<rscale>  2 0.12498266E+03</rscale>
<asrwt>0</asrwt>
<pdfrwt beam="1">  1       21 0.84535134E-01 0.12498266E+03</pdfrwt>
<pdfrwt beam="2">  1       21 0.10933912E-02 0.12498266E+03</pdfrwt>
<totfact> 0.39149490E+06</totfact>
</mgrwt>
</event>
<event>
 5    0  0.1334933E+000  0.1250017E+03  0.7546771E-02  0.1235067E+00
         21   -1    0    0  503  502  0.00000000000E+00  0.00000000000E+00  0.46044543959E+03  0.46044543959E+03  0.00000000000E+00 0. -1.
         21   -1    0    0  502  503 -0.00000000000E+00 -0.00000000000E+00 -0.84838654099E+01  0.84838654099E+01  0.00000000000E+00 0. -1.
         25    2    1    2    0    0  0.00000000000E+00  0.00000000000E+00  0.45196157418E+03  0.46892930500E+03  0.12500171420E+03 0.  0.
          4    1    3    3  501    0  0.46690310858E+02  0.36194188447E+02  0.14965602294E+03  0.16090162245E+03  0.15500000000E+01 0.  1.
         -4    1    3    3    0  501 -0.46690310858E+02 -0.36194188447E+02  0.30230555124E+03  0.30802768255E+03  0.15500000000E+01 0.  1.
<mgrwt>
<rscale>  2 0.12500171E+03</rscale>
<asrwt>0</asrwt>
<pdfrwt beam="1">  1       21 0.70837740E-01 0.12500171E+03</pdfrwt>
<pdfrwt beam="2">  1       21 0.13052104E-02 0.12500171E+03</pdfrwt>
<totfact> 0.43778965E+06</totfact>
</mgrwt>
</event>
<event>
 5    0  0.1459520E+000  0.1250012E+03  0.7546771E-02  0.1235067E+00
         21   -1    0    0  503  502  0.00000000000E+00  0.00000000000E+00  0.17406801585E+02  0.17406801585E+02  0.00000000000E+00 0.  1.
         21   -1    0    0  502  503 -0.00000000000E+00 -0.00000000000E+00 -0.22441382972E+03  0.22441382972E+03  0.00000000000E+00 0.  1.
         25    2    1    2    0    0  0.00000000000E+00  0.00000000000E+00 -0.20700702814E+03  0.24182063131E+03  0.12500123210E+03 0.  0.
          4    1    3    3  501    0  0.42208814619E+02  0.22601231917E+02 -0.18116354377E+03  0.18739005259E+03  0.15500000000E+01 0. -1.
         -4    1    3    3    0  501 -0.42208814619E+02 -0.22601231917E+02 -0.25843484364E+02  0.54430578720E+02  0.15500000000E+01 0. -1.
<mgrwt>
<rscale>  2 0.12500123E+03</rscale>
<asrwt>0</asrwt>
<pdfrwt beam="1">  1       21 0.26779695E-02 0.12500123E+03</pdfrwt>
<pdfrwt beam="2">  1       21 0.34525205E-01 0.12500123E+03</pdfrwt>
<totfact> 0.60655043E+06</totfact>
</mgrwt>
</event>
<event>
 5    0  0.1357854E+000  0.1250027E+03  0.7546771E-02  0.1235065E+00
         21   -1    0    0  503  502  0.00000000000E+00  0.00000000000E+00  0.48108291490E+03  0.48108291490E+03  0.00000000000E+00 0. -1.
         21   -1    0    0  502  503 -0.00000000000E+00 -0.00000000000E+00 -0.81200511658E+01  0.81200511658E+01  0.00000000000E+00 0. -1.
         25    2    1    2    0    0  0.00000000000E+00  0.00000000000E+00  0.47296286373E+03  0.48920296606E+03  0.12500268611E+03 0.  0.
          4    1    3    3  501    0 -0.66330681755E+01 -0.46864972739E+02  0.39610838199E+03  0.39892928703E+03  0.15500000000E+01 0.  1.
         -4    1    3    3    0  501  0.66330681755E+01  0.46864972739E+02  0.76854481736E+02  0.90273679033E+02  0.15500000000E+01 0.  1.
<mgrwt>
<rscale>  2 0.12500269E+03</rscale>
<asrwt>0</asrwt>
<pdfrwt beam="1">  1       21 0.74012734E-01 0.12500269E+03</pdfrwt>
<pdfrwt beam="2">  1       21 0.12492390E-02 0.12500269E+03</pdfrwt>
<totfact> 0.42632892E+06</totfact>
</mgrwt>
</event>
<event>
 5    0  0.1257916E+000  0.1249995E+03  0.7546771E-02  0.1235070E+00
         21   -1    0    0  503  502  0.00000000000E+00  0.00000000000E+00  0.64929767077E+03  0.64929767077E+03  0.00000000000E+00 0.  1.
         21   -1    0    0  502  503 -0.00000000000E+00 -0.00000000000E+00 -0.60160719537E+01  0.60160719537E+01  0.00000000000E+00 0.  1.
         25    2    1    2    0    0  0.00000000000E+00  0.00000000000E+00  0.64328159882E+03  0.65531374273E+03  0.12499954411E+03 0.  0.
          4    1    3    3  501    0  0.57598383520E+02 -0.13079718670E+02  0.21482098187E+03  0.22279836080E+03  0.15500000000E+01 0. -1.
         -4    1    3    3    0  501 -0.57598383520E+02  0.13079718670E+02  0.42846061695E+03  0.43251538192E+03  0.15500000000E+01 0. -1.
<mgrwt>
<rscale>  2 0.12499954E+03</rscale>
<asrwt>0</asrwt>
<pdfrwt beam="1">  1       21 0.99891894E-01 0.12499954E+03</pdfrwt>
<pdfrwt beam="2">  1       21 0.92555005E-03 0.12499954E+03</pdfrwt>
<totfact> 0.34704907E+06</totfact>
</mgrwt>
</event>
<event>
 5    0  0.1289463E+000  0.1250005E+03  0.7546771E-02  0.1235069E+00
         21   -1    0    0  503  502  0.00000000000E+00  0.00000000000E+00  0.10326480153E+02  0.10326480153E+02  0.00000000000E+00 0.  1.
         21   -1    0    0  502  503 -0.00000000000E+00 -0.00000000000E+00 -0.37827791725E+03  0.37827791725E+03  0.00000000000E+00 0.  1.
         25    2    1    2    0    0  0.00000000000E+00  0.00000000000E+00 -0.36795143710E+03  0.38860439741E+03  0.12500047048E+03 0.  0.
          4    1    3    3  501    0  0.25344847229E+02 -0.22831660580E+02 -0.21237468113E+02  0.40212915311E+02  0.15500000000E+01 0. -1.
         -4    1    3    3    0  501 -0.25344847229E+02  0.22831660580E+02 -0.34671396899E+03  0.34839148210E+03  0.15500000000E+01 0. -1.
<mgrwt>
<rscale>  2 0.12500047E+03</rscale>
<asrwt>0</asrwt>
<pdfrwt beam="1">  1       21 0.15886897E-02 0.12500047E+03</pdfrwt>
<pdfrwt beam="2">  1       21 0.58196588E-01 0.12500047E+03</pdfrwt>
<totfact> 0.48805940E+06</totfact>
</mgrwt>
</event>
<event>
 5    0  0.1593493E+000  0.1250013E+03  0.7546771E-02  0.1235067E+00
         21   -1    0    0  503  502  0.00000000000E+00  0.00000000000E+00  0.12771109334E+03  0.12771109334E+03  0.00000000000E+00 0. -1.
         21   -1    0    0  502  503 -0.00000000000E+00 -0.00000000000E+00 -0.30587228807E+02  0.30587228807E+02  0.00000000000E+00 0. -1.
         25    2    1    2    0    0  0.00000000000E+00  0.00000000000E+00  0.97123864530E+02  0.15829832214E+03  0.12500125492E+03 0.  0.
          4    1    3    3  501    0 -0.22919324195E+02 -0.58091483751E+02  0.51097852525E+02  0.80705073809E+02  0.15500000000E+01 0.  1.
         -4    1    3    3    0  501  0.22919324195E+02  0.58091483751E+02  0.46026012005E+02  0.77593248334E+02  0.15500000000E+01 0.  1.
<mgrwt>
<rscale>  2 0.12500125E+03</rscale>
<asrwt>0</asrwt>
<pdfrwt beam="1">  1       21 0.19647860E-01 0.12500125E+03</pdfrwt>
<pdfrwt beam="2">  1       21 0.47057276E-02 0.12500125E+03</pdfrwt>
<totfact> 0.69725798E+06</totfact>
</mgrwt>
</event>
<event>
 5    0  0.1226957E+000  0.1250039E+03  0.7546771E-02  0.1235063E+00
         21   -1    0    0  503  502  0.00000000000E+00  0.00000000000E+00  0.54678627729E+01  0.54678627729E+01  0.00000000000E+00 0.  1.
         21   -1    0    0  502  503 -0.00000000000E+00 -0.00000000000E+00 -0.71444589135E+03  0.71444589135E+03  0.00000000000E+00 0.  1.
         25    2    1    2    0    0  0.00000000000E+00  0.00000000000E+00 -0.70897802857E+03  0.71991375412E+03  0.12500387342E+03 0.  0.
          4    1    3    3  501    0  0.60160605189E+02 -0.34513797458E+01 -0.25935360734E+03  0.26626660809E+03  0.15500000000E+01 0.  1.
         -4    1    3    3    0  501 -0.60160605189E+02  0.34513797458E+01 -0.44962442123E+03  0.45364714603E+03  0.15500000000E+01 0.  1.
<mgrwt>
<rscale>  2 0.12500387E+03</rscale>
<asrwt>0</asrwt>
<pdfrwt beam="1">  1       21 0.84120971E-03 0.12500387E+03</pdfrwt>
<pdfrwt beam="2">  1       21 0.10991475E+00 0.12500387E+03</pdfrwt>
<totfact> 0.32153314E+06</totfact>
</mgrwt>
</event>
<event>
 5    0  0.1428082E+000  0.1249917E+03  0.7546771E-02  0.1235082E+00
         21   -1    0    0  503  502  0.00000000000E+00  0.00000000000E+00  0.20244863008E+03  0.20244863008E+03  0.00000000000E+00 0.  1.
         21   -1    0    0  502  503 -0.00000000000E+00 -0.00000000000E+00 -0.19292442617E+02  0.19292442617E+02  0.00000000000E+00 0.  1.
         25    2    1    2    0    0  0.00000000000E+00  0.00000000000E+00  0.18315618746E+03  0.22174107269E+03  0.12499165698E+03 0.  0.
          4    1    3    3  501    0 -0.12179917630E+02 -0.50113419261E+02  0.15413987765E+03  0.16254602291E+03  0.15500000000E+01 0.  1.
         -4    1    3    3    0  501  0.12179917630E+02  0.50113419261E+02  0.29016309813E+02  0.59195049782E+02  0.15500000000E+01 0.  1.
<mgrwt>
<rscale>  2 0.12499166E+03</rscale>
<asrwt>0</asrwt>
<pdfrwt beam="1">  1       21 0.31145942E-01 0.12499166E+03</pdfrwt>
<pdfrwt beam="2">  1       21 0.29680682E-02 0.12499166E+03</pdfrwt>
<totfact> 0.62658226E+06</totfact>
</mgrwt>
</event>
<event>
 5    0  0.1448039E+000  0.1249955E+03  0.7546771E-02  0.1235076E+00
         21   -1    0    0  503  502  0.00000000000E+00  0.00000000000E+00  0.15537084044E+02  0.15537084044E+02  0.00000000000E+00 0. -1.
         21   -1    0    0  502  503 -0.00000000000E+00 -0.00000000000E+00 -0.25139642244E+03  0.25139642244E+03  0.00000000000E+00 0. -1.
         25    2    1    2    0    0  0.00000000000E+00  0.00000000000E+00 -0.23585933840E+03  0.26693350649E+03  0.12499547742E+03 0.  0.
          4    1    3    3  501    0 -0.61698124341E+02  0.75420590791E+01 -0.13144003452E+03  0.14540435474E+03  0.15500000000E+01 0. -1.
         -4    1    3    3    0  501  0.61698124341E+02 -0.75420590791E+01 -0.10441930388E+03  0.12152915175E+03  0.15500000000E+01 0. -1.
<mgrwt>
<rscale>  2 0.12499548E+03</rscale>
<asrwt>0</asrwt>
<pdfrwt beam="1">  1       21 0.23903209E-02 0.12499548E+03</pdfrwt>
<pdfrwt beam="2">  1       21 0.38676369E-01 0.12499548E+03</pdfrwt>
<totfact> 0.58326193E+06</totfact>
</mgrwt>
</event>
<event>
 5    0  0.1455663E+000  0.1250034E+03  0.7546771E-02  0.1235064E+00
         21   -1    0    0  503  502  0.00000000000E+00  0.00000000000E+00  0.18378743127E+03  0.18378743127E+03  0.00000000000E+00 0.  1.
         21   -1    0    0  502  503 -0.00000000000E+00 -0.00000000000E+00 -0.21255334379E+02  0.21255334379E+02  0.00000000000E+00 0.  1.
         25    2    1    2    0    0  0.00000000000E+00  0.00000000000E+00  0.16253209689E+03  0.20504276565E+03  0.12500341285E+03 0.  0.
          4    1    3    3  501    0  0.58289340036E+02  0.12664351954E+02  0.50753526982E+02  0.78334896268E+02  0.15500000000E+01 0. -1.
         -4    1    3    3    0  501 -0.58289340036E+02 -0.12664351954E+02  0.11177856991E+03  0.12670786938E+03  0.15500000000E+01 0. -1.
<mgrwt>
<rscale>  2 0.12500341E+03</rscale>
<asrwt>0</asrwt>
<pdfrwt beam="1">  1       21 0.28274988E-01 0.12500341E+03</pdfrwt>
<pdfrwt beam="2">  1       21 0.32700516E-02 0.12500341E+03</pdfrwt>
<totfact> 0.64379337E+06</totfact>
</mgrwt>
</event>
<event>
 5    0  0.1495722E+000  0.1249994E+03  0.7546771E-02  0.1235070E+00
         21   -1    0    0  503  502  0.00000000000E+00  0.00000000000E+00  0.15537688364E+03  0.15537688364E+03  0.00000000000E+00 0. -1.
         21   -1    0    0  502  503 -0.00000000000E+00 -0.00000000000E+00 -0.25140229029E+02  0.25140229029E+02  0.00000000000E+00 0. -1.
         25    2    1    2    0    0  0.00000000000E+00  0.00000000000E+00  0.13023665461E+03  0.18051711267E+03  0.12499936705E+03 0.  0.
          4    1    3    3  501    0 -0.23216415642E+02 -0.23656398163E+02 -0.11369265700E+02  0.35075487621E+02  0.15500000000E+01 0.  1.
         -4    1    3    3    0  501  0.23216415642E+02  0.23656398163E+02  0.14160592031E+03  0.14544162505E+03  0.15500000000E+01 0.  1.
<mgrwt>
<rscale>  2 0.12499937E+03</rscale>
<asrwt>0</asrwt>
<pdfrwt beam="1">  1       21 0.23904135E-01 0.12499937E+03</pdfrwt>
<pdfrwt beam="2">  1       21 0.38677276E-02 0.12499937E+03</pdfrwt>
<totfact> 0.67093342E+06</totfact>
</mgrwt>
</event>
<event>
 5    0  0.1552494E+000  0.1249985E+03  0.7546771E-02  0.1235072E+00
         21   -1    0    0  503  502  0.00000000000E+00  0.00000000000E+00  0.22719866248E+02  0.22719866248E+02  0.00000000000E+00 0. -1.
         21   -1    0    0  502  503 -0.00000000000E+00 -0.00000000000E+00 -0.17192689131E+03  0.17192689131E+03  0.00000000000E+00 0. -1.
         25    2    1    2    0    0  0.00000000000E+00  0.00000000000E+00 -0.14920702507E+03  0.19464675756E+03  0.12499849559E+03 0.  0.
          4    1    3    3  501    0  0.22574928859E+02 -0.51076034154E+02 -0.11824284541E+03  0.13077523340E+03  0.15500000000E+01 0.  1.
         -4    1    3    3    0  501 -0.22574928859E+02  0.51076034154E+02 -0.30964179650E+02  0.63871524166E+02  0.15500000000E+01 0.  1.
<mgrwt>
<rscale>  2 0.12499850E+03</rscale>
<asrwt>0</asrwt>
<pdfrwt beam="1">  1       21 0.34953639E-02 0.12499850E+03</pdfrwt>
<pdfrwt beam="2">  1       21 0.26450292E-01 0.12499850E+03</pdfrwt>
<totfact> 0.65512200E+06</totfact>
</mgrwt>
</event>
<event>
 5    0  0.1222151E+000  0.1250021E+03  0.7546771E-02  0.1235066E+00
         21   -1    0    0  503  502  0.00000000000E+00  0.00000000000E+00  0.10120947742E+04  0.10120947742E+04  0.00000000000E+00 0. -1.
         21   -1    0    0  502  503 -0.00000000000E+00 -0.00000000000E+00 -0.38596965203E+01  0.38596965203E+01  0.00000000000E+00 0. -1.
         25    2    1    2    0    0  0.00000000000E+00  0.00000000000E+00  0.10082350777E+04  0.10159544708E+04  0.12500205884E+03 0.  0.
          4    1    3    3  501    0  0.50852239884E+01 -0.61239412316E+02  0.41221886656E+03  0.41677682466E+03  0.15500000000E+01 0. -1.
         -4    1    3    3    0  501 -0.50852239884E+01  0.61239412316E+02  0.59601621115E+03  0.59917764609E+03  0.15500000000E+01 0. -1.
<mgrwt>
<rscale>  2 0.12500206E+03</rscale>
<asrwt>0</asrwt>
<pdfrwt beam="1">  1       21 0.15570668E+00 0.12500206E+03</pdfrwt>
<pdfrwt beam="2">  1       21 0.59380027E-03 0.12500206E+03</pdfrwt>
<totfact> 0.23222119E+06</totfact>
</mgrwt>
</event>
<event>
 5    0  0.1324570E+000  0.1250030E+03  0.7546771E-02  0.1235065E+00
         21   -1    0    0  503  502  0.00000000000E+00  0.00000000000E+00  0.37769693151E+03  0.37769693151E+03  0.00000000000E+00 0. -1.
         21   -1    0    0  502  503 -0.00000000000E+00 -0.00000000000E+00 -0.10342784932E+02  0.10342784932E+02  0.00000000000E+00 0. -1.
         25    2    1    2    0    0  0.00000000000E+00  0.00000000000E+00  0.36735414658E+03  0.38803971644E+03  0.12500301008E+03 0.  0.
          4    1    3    3  501    0 -0.21411564681E+02  0.29311882927E+02  0.34154832551E+03  0.34347533062E+03  0.15500000000E+01 0. -1.
         -4    1    3    3    0  501  0.21411564681E+02 -0.29311882927E+02  0.25805821062E+02  0.44564385820E+02  0.15500000000E+01 0. -1.
<mgrwt>
<rscale>  2 0.12500301E+03</rscale>
<asrwt>0</asrwt>
<pdfrwt beam="1">  1       21 0.58107209E-01 0.12500301E+03</pdfrwt>
<pdfrwt beam="2">  1       21 0.15911980E-02 0.12500301E+03</pdfrwt>
<totfact> 0.48841242E+06</totfact>
</mgrwt>
</event>
<event>
 5    0  0.1346262E+000  0.1250042E+03  0.7546771E-02  0.1235063E+00
         21   -1    0    0  503  502  0.00000000000E+00  0.00000000000E+00  0.27827140351E+03  0.27827140351E+03  0.00000000000E+00 0. -1.
         21   -1    0    0  502  503 -0.00000000000E+00 -0.00000000000E+00 -0.14038505291E+02  0.14038505291E+02  0.00000000000E+00 0. -1.
         25    2    1    2    0    0  0.00000000000E+00  0.00000000000E+00  0.26423289821E+03  0.29230990880E+03  0.12500423306E+03 0.  0.
          4    1    3    3  501    0 -0.34522118361E+02  0.24276426313E+02  0.24372510564E+02  0.48760058469E+02  0.15500000000E+01 0. -1.
         -4    1    3    3    0  501  0.34522118361E+02 -0.24276426313E+02  0.23986038765E+03  0.24354985033E+03  0.15500000000E+01 0. -1.
<mgrwt>
<rscale>  2 0.12500423E+03</rscale>
<asrwt>0</asrwt>
<pdfrwt beam="1">  1       21 0.42810981E-01 0.12500423E+03</pdfrwt>
<pdfrwt beam="2">  1       21 0.21597702E-02 0.12500423E+03</pdfrwt>
<totfact> 0.56095399E+06</totfact>
</mgrwt>
</event>
<event>
 5    0  0.1404644E+000  0.1250244E+03  0.7546771E-02  0.1235031E+00
         21   -1    0    0  503  502  0.00000000000E+00  0.00000000000E+00  0.26131592291E+03  0.26131592291E+03  0.00000000000E+00 0.  1.
         21   -1    0    0  502  503 -0.00000000000E+00 -0.00000000000E+00 -0.14954227910E+02  0.14954227910E+02  0.00000000000E+00 0.  1.
         25    2    1    2    0    0  0.00000000000E+00  0.00000000000E+00  0.24636169500E+03  0.27627015082E+03  0.12502444349E+03 0.  0.
          4    1    3    3  501    0 -0.15910064330E+02 -0.56583788644E+02  0.76278334488E+02  0.96310134963E+02  0.15500000000E+01 0.  1.
         -4    1    3    3    0  501  0.15910064330E+02  0.56583788644E+02  0.17008336051E+03  0.17996001586E+03  0.15500000000E+01 0.  1.
<mgrwt>
<rscale>  2 0.12502444E+03</rscale>
<asrwt>0</asrwt>
<pdfrwt beam="1">  1       21 0.40202446E-01 0.12502444E+03</pdfrwt>
<pdfrwt beam="2">  1       21 0.23006506E-02 0.12502444E+03</pdfrwt>
<totfact> 0.57452388E+06</totfact>
</mgrwt>
</event>
<event>
 5    0  0.1357081E+000  0.1250211E+03  0.7546771E-02  0.1235036E+00
         21   -1    0    0  503  502  0.00000000000E+00  0.00000000000E+00  0.62785505821E+01  0.62785505821E+01  0.00000000000E+00 0. -1.
         21   -1    0    0  502  503 -0.00000000000E+00 -0.00000000000E+00 -0.62236803324E+03  0.62236803324E+03  0.00000000000E+00 0. -1.
         25    2    1    2    0    0  0.00000000000E+00  0.00000000000E+00 -0.61608948266E+03  0.62864658382E+03  0.12502110506E+03 0.  0.
          4    1    3    3  501    0 -0.27929101880E+02 -0.53717773211E+02 -0.38586733668E+03  0.39059139508E+03  0.15500000000E+01 0.  1.
         -4    1    3    3    0  501  0.27929101880E+02  0.53717773211E+02 -0.23022214598E+03  0.23805518875E+03  0.15500000000E+01 0.  1.
<mgrwt>
<rscale>  2 0.12502111E+03</rscale>
<asrwt>0</asrwt>
<pdfrwt beam="1">  1       21 0.96593091E-03 0.12502111E+03</pdfrwt>
<pdfrwt beam="2">  1       21 0.95748923E-01 0.12502111E+03</pdfrwt>
<totfact> 0.35809591E+06</totfact>
</mgrwt>
</event>
<event>
 5    0  0.1327072E+000  0.1249980E+03  0.7546771E-02  0.1235072E+00
         21   -1    0    0  503  502  0.00000000000E+00  0.00000000000E+00  0.47601083624E+03  0.47601083624E+03  0.00000000000E+00 0. -1.
         21   -1    0    0  502  503 -0.00000000000E+00 -0.00000000000E+00 -0.82059524697E+01  0.82059524697E+01  0.00000000000E+00 0. -1.
         25    2    1    2    0    0  0.00000000000E+00  0.00000000000E+00  0.46780488377E+03  0.48421678870E+03  0.12499795674E+03 0.  0.
          4    1    3    3  501    0  0.26562855849E+02 -0.35779661742E+02  0.40355312115E+03  0.40600898216E+03  0.15500000000E+01 0.  1.
         -4    1    3    3    0  501 -0.26562855849E+02  0.35779661742E+02  0.64251762616E+02  0.78207806544E+02  0.15500000000E+01 0.  1.
<mgrwt>
<rscale>  2 0.12499796E+03</rscale>
<asrwt>0</asrwt>
<pdfrwt beam="1">  1       21 0.73232414E-01 0.12499796E+03</pdfrwt>
<pdfrwt beam="2">  1       21 0.12624546E-02 0.12499796E+03</pdfrwt>
<totfact> 0.42915363E+06</totfact>
</mgrwt>
</event>
<event>
 5    0  0.1374484E+000  0.1249977E+03  0.7546771E-02  0.1235073E+00
         21   -1    0    0  503  502  0.00000000000E+00  0.00000000000E+00  0.54210301062E+03  0.54210301062E+03  0.00000000000E+00 0.  1.
         21   -1    0    0  502  503 -0.00000000000E+00 -0.00000000000E+00 -0.72054720547E+01  0.72054720547E+01  0.00000000000E+00 0.  1.
         25    2    1    2    0    0  0.00000000000E+00  0.00000000000E+00  0.53489753856E+03  0.54930848267E+03  0.12499772948E+03 0.  0.
          4    1    3    3  501    0  0.42342032903E+02  0.44967999343E+02  0.30884552008E+03  0.31496496073E+03  0.15500000000E+01 0.  1.
         -4    1    3    3    0  501 -0.42342032903E+02 -0.44967999343E+02  0.22605201848E+03  0.23434352194E+03  0.15500000000E+01 0.  1.
<mgrwt>
<rscale>  2 0.12499773E+03</rscale>
<asrwt>0</asrwt>
<pdfrwt beam="1">  1       21 0.83400431E-01 0.12499773E+03</pdfrwt>
<pdfrwt beam="2">  1       21 0.11085346E-02 0.12499773E+03</pdfrwt>
<totfact> 0.39492506E+06</totfact>
</mgrwt>
</event>
<event>
 5    0  0.1617919E+000  0.1249945E+03  0.7546771E-02  0.1235078E+00
         21   -1    0    0  503  502  0.00000000000E+00  0.00000000000E+00  0.41595552747E+02  0.41595552747E+02  0.00000000000E+00 0. -1.
         21   -1    0    0  502  503 -0.00000000000E+00 -0.00000000000E+00 -0.93901979579E+02  0.93901979579E+02  0.00000000000E+00 0. -1.
         25    2    1    2    0    0  0.00000000000E+00  0.00000000000E+00 -0.52306426833E+02  0.13549753233E+03  0.12499447579E+03 0.  0.
          4    1    3    3  501    0  0.23537552158E+02  0.57845670329E+02 -0.24164883749E+02  0.66981206648E+02  0.15500000000E+01 0.  1.
         -4    1    3    3    0  501 -0.23537552158E+02 -0.57845670329E+02 -0.28141543084E+02  0.68516325679E+02  0.15500000000E+01 0.  1.
<mgrwt>
<rscale>  2 0.12499448E+03</rscale>
<asrwt>0</asrwt>
<pdfrwt beam="1">  1       21 0.63993158E-02 0.12499448E+03</pdfrwt>
<pdfrwt beam="2">  1       21 0.14446458E-01 0.12499448E+03</pdfrwt>
<totfact> 0.72640897E+06</totfact>
</mgrwt>
</event>
<event>
 5    0  0.1353381E+000  0.1249605E+03  0.7546771E-02  0.1235131E+00
         21   -1    0    0  503  502  0.00000000000E+00  0.00000000000E+00  0.11542203937E+02  0.11542203937E+02  0.00000000000E+00 0. -1.
         21   -1    0    0  502  503 -0.00000000000E+00 -0.00000000000E+00 -0.33821828294E+03  0.33821828294E+03  0.00000000000E+00 0. -1.
         25    2    1    2    0    0  0.00000000000E+00  0.00000000000E+00 -0.32667607900E+03  0.34976048688E+03  0.12496054412E+03 0.  0.
          4    1    3    3  501    0  0.27556485772E+02 -0.33478233018E+02 -0.37501810647E+02  0.57349283307E+02  0.15500000000E+01 0.  1.
         -4    1    3    3    0  501 -0.27556485772E+02  0.33478233018E+02 -0.28917426835E+03  0.29241120357E+03  0.15500000000E+01 0.  1.
<mgrwt>
<rscale>  2 0.12496054E+03</rscale>
<asrwt>0</asrwt>
<pdfrwt beam="1">  1       21 0.17757242E-02 0.12496054E+03</pdfrwt>
<pdfrwt beam="2">  1       21 0.52033567E-01 0.12496054E+03</pdfrwt>
<totfact> 0.51607123E+06</totfact>
</mgrwt>
</event>
<event>
 5    0  0.1479311E+000  0.1250088E+03  0.7546771E-02  0.1235056E+00
         21   -1    0    0  503  502  0.00000000000E+00  0.00000000000E+00  0.18304456174E+02  0.18304456174E+02  0.00000000000E+00 0.  1.
         21   -1    0    0  502  503 -0.00000000000E+00 -0.00000000000E+00 -0.21343421500E+03  0.21343421500E+03  0.00000000000E+00 0.  1.
         25    2    1    2    0    0  0.00000000000E+00  0.00000000000E+00 -0.19512975882E+03  0.23173867117E+03  0.12500875544E+03 0.  0.
          4    1    3    3  501    0  0.59489920858E+02  0.18300853983E+02 -0.10778974555E+03  0.12447892868E+03  0.15500000000E+01 0.  1.
         -4    1    3    3    0  501 -0.59489920858E+02 -0.18300853983E+02 -0.87340013278E+02  0.10725974249E+03  0.15500000000E+01 0.  1.
<mgrwt>
<rscale>  2 0.12500876E+03</rscale>
<asrwt>0</asrwt>
<pdfrwt beam="1">  1       21 0.28160702E-02 0.12500876E+03</pdfrwt>
<pdfrwt beam="2">  1       21 0.32836033E-01 0.12500876E+03</pdfrwt>
<totfact> 0.61627755E+06</totfact>
</mgrwt>
</event>
<event>
 5    0  0.1644210E+000  0.1249879E+03  0.7546771E-02  0.1235088E+00
         21   -1    0    0  503  502  0.00000000000E+00  0.00000000000E+00  0.11553154177E+03  0.11553154177E+03  0.00000000000E+00 0. -1.
         21   -1    0    0  502  503 -0.00000000000E+00 -0.00000000000E+00 -0.33804590968E+02  0.33804590968E+02  0.00000000000E+00 0. -1.
         25    2    1    2    0    0  0.00000000000E+00  0.00000000000E+00  0.81726950803E+02  0.14933613274E+03  0.12498794363E+03 0.  0.
          4    1    3    3  501    0  0.11290387700E+02  0.61022390603E+02  0.49470131415E+02  0.79378217488E+02  0.15500000000E+01 0. -1.
         -4    1    3    3    0  501 -0.11290387700E+02 -0.61022390603E+02  0.32256819388E+02  0.69957915251E+02  0.15500000000E+01 0. -1.
<mgrwt>
<rscale>  2 0.12498794E+03</rscale>
<asrwt>0</asrwt>
<pdfrwt beam="1">  1       21 0.17774083E-01 0.12498794E+03</pdfrwt>
<pdfrwt beam="2">  1       21 0.52007064E-02 0.12498794E+03</pdfrwt>
<totfact> 0.70864442E+06</totfact>
</mgrwt>
</event>
<event>
 5    0  0.1601672E+000  0.1249996E+03  0.7546771E-02  0.1235070E+00
         21   -1    0    0  503  502  0.00000000000E+00  0.00000000000E+00  0.12390446215E+03  0.12390446215E+03  0.00000000000E+00 0.  1.
         21   -1    0    0  502  503 -0.00000000000E+00 -0.00000000000E+00 -0.31526110546E+02  0.31526110546E+02  0.00000000000E+00 0.  1.
         25    2    1    2    0    0  0.00000000000E+00  0.00000000000E+00  0.92378351607E+02  0.15543057270E+03  0.12499961234E+03 0.  0.
          4    1    3    3  501    0 -0.13971580444E+02 -0.53323045187E+02  0.96125304810E+01  0.55976382970E+02  0.15500000000E+01 0.  1.
         -4    1    3    3    0  501  0.13971580444E+02  0.53323045187E+02  0.82765821126E+02  0.99454189730E+02  0.15500000000E+01 0.  1.
<mgrwt>
<rscale>  2 0.12499961E+03</rscale>
<asrwt>0</asrwt>
<pdfrwt beam="1">  1       21 0.19062225E-01 0.12499961E+03</pdfrwt>
<pdfrwt beam="2">  1       21 0.48501709E-02 0.12499961E+03</pdfrwt>
<totfact> 0.70082875E+06</totfact>
</mgrwt>
</event>
<event>
 5    0  0.1593904E+000  0.1250030E+03  0.7546771E-02  0.1235065E+00
         21   -1    0    0  503  502  0.00000000000E+00  0.00000000000E+00  0.31515979380E+02  0.31515979380E+02  0.00000000000E+00 0. -1.
         21   -1    0    0  502  503 -0.00000000000E+00 -0.00000000000E+00 -0.12395099354E+03  0.12395099354E+03  0.00000000000E+00 0. -1.
         25    2    1    2    0    0  0.00000000000E+00  0.00000000000E+00 -0.92435014161E+02  0.15546697292E+03  0.12500299127E+03 0.  0.
          4    1    3    3  501    0  0.60201105347E+02  0.14621645491E+01 -0.25491100662E+02  0.65410318170E+02  0.15500000000E+01 0.  1.
         -4    1    3    3    0  501 -0.60201105347E+02 -0.14621645491E+01 -0.66943913499E+02  0.90056654750E+02  0.15500000000E+01 0.  1.
<mgrwt>
<rscale>  2 0.12500299E+03</rscale>
<asrwt>0</asrwt>
<pdfrwt beam="1">  1       21 0.48486122E-02 0.12500299E+03</pdfrwt>
<pdfrwt beam="2">  1       21 0.19069384E-01 0.12500299E+03</pdfrwt>
<totfact> 0.70072335E+06</totfact>
</mgrwt>
</event>
<event>
 5    0  0.1478516E+000  0.1249982E+03  0.7546771E-02  0.1235072E+00
         21   -1    0    0  503  502  0.00000000000E+00  0.00000000000E+00  0.24557376553E+03  0.24557376553E+03  0.00000000000E+00 0.  1.
         21   -1    0    0  502  503 -0.00000000000E+00 -0.00000000000E+00 -0.15906157374E+02  0.15906157374E+02  0.00000000000E+00 0.  1.
         25    2    1    2    0    0  0.00000000000E+00  0.00000000000E+00  0.22966760816E+03  0.26147992291E+03  0.12499815937E+03 0.  0.
          4    1    3    3  501    0  0.61705809048E+02 -0.28904197090E+01  0.95235864477E+02  0.11352635720E+03  0.15500000000E+01 0.  1.
         -4    1    3    3    0  501 -0.61705809048E+02  0.28904197090E+01  0.13443174368E+03  0.14795356571E+03  0.15500000000E+01 0.  1.
<mgrwt>
<rscale>  2 0.12499816E+03</rscale>
<asrwt>0</asrwt>
<pdfrwt beam="1">  1       21 0.37780577E-01 0.12499816E+03</pdfrwt>
<pdfrwt beam="2">  1       21 0.24471013E-02 0.12499816E+03</pdfrwt>
<totfact> 0.58816621E+06</totfact>
</mgrwt>
</event>
<event>
 5    0  0.1449857E+000  0.1249951E+03  0.7546771E-02  0.1235077E+00
         21   -1    0    0  503  502  0.00000000000E+00  0.00000000000E+00  0.16083613413E+02  0.16083613413E+02  0.00000000000E+00 0.  1.
         21   -1    0    0  502  503 -0.00000000000E+00 -0.00000000000E+00 -0.24285237670E+03  0.24285237670E+03  0.00000000000E+00 0.  1.
         25    2    1    2    0    0  0.00000000000E+00  0.00000000000E+00 -0.22676876329E+03  0.25893599011E+03  0.12499509980E+03 0.  0.
          4    1    3    3  501    0  0.37818526989E+02  0.88374586226E+01 -0.12000180274E+02  0.40678599842E+02  0.15500000000E+01 0. -1.
         -4    1    3    3    0  501 -0.37818526989E+02 -0.88374586226E+01 -0.21476858301E+03  0.21825739027E+03  0.15500000000E+01 0. -1.
<mgrwt>
<rscale>  2 0.12499510E+03</rscale>
<asrwt>0</asrwt>
<pdfrwt beam="1">  1       21 0.24744021E-02 0.12499510E+03</pdfrwt>
<pdfrwt beam="2">  1       21 0.37361903E-01 0.12499510E+03</pdfrwt>
<totfact> 0.59054222E+06</totfact>
</mgrwt>
</event>
<event>
 5    0  0.1483050E+000  0.1250382E+03  0.7546771E-02  0.1235010E+00
         21   -1    0    0  503  502  0.00000000000E+00  0.00000000000E+00  0.20340835760E+02  0.20340835760E+02  0.00000000000E+00 0. -1.
         21   -1    0    0  502  503 -0.00000000000E+00 -0.00000000000E+00 -0.19215704921E+03  0.19215704921E+03  0.00000000000E+00 0. -1.
         25    2    1    2    0    0  0.00000000000E+00  0.00000000000E+00 -0.17181621345E+03  0.21249788497E+03  0.12503815383E+03 0.  0.
          4    1    3    3  501    0  0.30324156648E+02  0.21313069327E+02 -0.38551051436E+00  0.37099225314E+02  0.15500000000E+01 0.  1.
         -4    1    3    3    0  501 -0.30324156648E+02 -0.21313069327E+02 -0.17143070294E+03  0.17539865966E+03  0.15500000000E+01 0.  1.
<mgrwt>
<rscale>  2 0.12503815E+03</rscale>
<asrwt>0</asrwt>
<pdfrwt beam="1">  1       21 0.31293595E-02 0.12503815E+03</pdfrwt>
<pdfrwt beam="2">  1       21 0.29562622E-01 0.12503815E+03</pdfrwt>
<totfact> 0.63536358E+06</totfact>
</mgrwt>
</event>
<event>
 5    0  0.1235783E+000  0.1249974E+03  0.7546771E-02  0.1235073E+00
         21   -1    0    0  503  502  0.00000000000E+00  0.00000000000E+00  0.50063495067E+01  0.50063495067E+01  0.00000000000E+00 0. -1.
         21   -1    0    0  502  503 -0.00000000000E+00 -0.00000000000E+00 -0.78022630842E+03  0.78022630842E+03  0.00000000000E+00 0. -1.
         25    2    1    2    0    0  0.00000000000E+00  0.00000000000E+00 -0.77521995892E+03  0.78523265793E+03  0.12499736948E+03 0.  0.
          4    1    3    3  501    0 -0.18231159620E+02  0.54004604868E+02 -0.22685837383E+03  0.23391450747E+03  0.15500000000E+01 0. -1.
         -4    1    3    3    0  501  0.18231159620E+02 -0.54004604868E+02 -0.54836158509E+03  0.55131815046E+03  0.15500000000E+01 0. -1.
<mgrwt>
<rscale>  2 0.12499737E+03</rscale>
<asrwt>0</asrwt>
<pdfrwt beam="1">  1       21 0.77020771E-03 0.12499737E+03</pdfrwt>
<pdfrwt beam="2">  1       21 0.12003480E+00 0.12499737E+03</pdfrwt>
<totfact> 0.29859917E+06</totfact>
</mgrwt>
</event>
<event>
 5    0  0.1515475E+000  0.1250010E+03  0.7546771E-02  0.1235068E+00
         21   -1    0    0  503  502  0.00000000000E+00  0.00000000000E+00  0.27216343184E+02  0.27216343184E+02  0.00000000000E+00 0.  1.
         21   -1    0    0  502  503 -0.00000000000E+00 -0.00000000000E+00 -0.14352817026E+03  0.14352817026E+03  0.00000000000E+00 0.  1.
         25    2    1    2    0    0  0.00000000000E+00  0.00000000000E+00 -0.11631182708E+03  0.17074451345E+03  0.12500099101E+03 0.  0.
          4    1    3    3  501    0  0.60282659296E+02 -0.21772990910E+01 -0.80399014234E+02  0.10052434348E+03  0.15500000000E+01 0. -1.
         -4    1    3    3    0  501 -0.60282659296E+02  0.21772990910E+01 -0.35912812843E+02  0.70220169961E+02  0.15500000000E+01 0. -1.
<mgrwt>
<rscale>  2 0.12500099E+03</rscale>
<asrwt>0</asrwt>
<pdfrwt beam="1">  1       21 0.41871298E-02 0.12500099E+03</pdfrwt>
<pdfrwt beam="2">  1       21 0.22081257E-01 0.12500099E+03</pdfrwt>
<totfact> 0.68227771E+06</totfact>
</mgrwt>
</event>
<event>
 5    0  0.1516695E+000  0.1249960E+03  0.7546771E-02  0.1235075E+00
         21   -1    0    0  503  502  0.00000000000E+00  0.00000000000E+00  0.20352283449E+02  0.20352283449E+02  0.00000000000E+00 0.  1.
         21   -1    0    0  502  503 -0.00000000000E+00 -0.00000000000E+00 -0.19191962788E+03  0.19191962788E+03  0.00000000000E+00 0.  1.
         25    2    1    2    0    0  0.00000000000E+00  0.00000000000E+00 -0.17156734443E+03  0.21227191133E+03  0.12499604259E+03 0.  0.
          4    1    3    3  501    0  0.52702923419E+02  0.25163211286E+02 -0.12348339439E+03  0.13660650252E+03  0.15500000000E+01 0.  1.
         -4    1    3    3    0  501 -0.52702923419E+02 -0.25163211286E+02 -0.48083950033E+02  0.75665408807E+02  0.15500000000E+01 0.  1.
<mgrwt>
<rscale>  2 0.12499604E+03</rscale>
<asrwt>0</asrwt>
<pdfrwt beam="1">  1       21 0.31311205E-02 0.12499604E+03</pdfrwt>
<pdfrwt beam="2">  1       21 0.29526097E-01 0.12499604E+03</pdfrwt>
<totfact> 0.63627662E+06</totfact>
</mgrwt>
</event>
<event>
 5    0  0.1556441E+000  0.1249993E+03  0.7546771E-02  0.1235070E+00
         21   -1    0    0  503  502  0.00000000000E+00  0.00000000000E+00  0.61591340044E+02  0.61591340044E+02  0.00000000000E+00 0. -1.
         21   -1    0    0  502  503 -0.00000000000E+00 -0.00000000000E+00 -0.63421392468E+02  0.63421392468E+02  0.00000000000E+00 0. -1.
         25    2    1    2    0    0  0.00000000000E+00  0.00000000000E+00 -0.18300524234E+01  0.12501273251E+03  0.12499933679E+03 0.  0.
          4    1    3    3  501    0 -0.12988074658E+02  0.46070986317E+02  0.39246221692E+02  0.61918448629E+02  0.15500000000E+01 0. -1.
         -4    1    3    3    0  501  0.12988074658E+02 -0.46070986317E+02 -0.41076274115E+02  0.63094283883E+02  0.15500000000E+01 0. -1.
<mgrwt>
<rscale>  2 0.12499934E+03</rscale>
<asrwt>0</asrwt>
<pdfrwt beam="1">  1       21 0.94755909E-02 0.12499934E+03</pdfrwt>
<pdfrwt beam="2">  1       21 0.97571372E-02 0.12499934E+03</pdfrwt>
<totfact> 0.74043117E+06</totfact>
</mgrwt>
</event>
<event>
 5    0  0.1464965E+000  0.1249991E+03  0.7546771E-02  0.1235071E+00
         21   -1    0    0  503  502  0.00000000000E+00  0.00000000000E+00  0.19541454310E+02  0.19541454310E+02  0.00000000000E+00 0. -1.
         21   -1    0    0  502  503 -0.00000000000E+00 -0.00000000000E+00 -0.19989274462E+03  0.19989274462E+03  0.00000000000E+00 0. -1.
         25    2    1    2    0    0  0.00000000000E+00  0.00000000000E+00 -0.18035129031E+03  0.21943419894E+03  0.12499911897E+03 0.  0.
          4    1    3    3  501    0  0.36738139263E+02 -0.11888290655E+02 -0.39462513320E+01  0.38845819991E+02  0.15500000000E+01 0. -1.
         -4    1    3    3    0  501 -0.36738139263E+02  0.11888290655E+02 -0.17640503898E+03  0.18058837894E+03  0.15500000000E+01 0. -1.
<mgrwt>
<rscale>  2 0.12499912E+03</rscale>
<asrwt>0</asrwt>
<pdfrwt beam="1">  1       21 0.30063777E-02 0.12499912E+03</pdfrwt>
<pdfrwt beam="2">  1       21 0.30752729E-01 0.12499912E+03</pdfrwt>
<totfact> 0.62881815E+06</totfact>
</mgrwt>
</event>
<event>
 5    0  0.1597767E+000  0.1249998E+03  0.7546771E-02  0.1235070E+00
         21   -1    0    0  503  502  0.00000000000E+00  0.00000000000E+00  0.16022394202E+03  0.16022394202E+03  0.00000000000E+00 0. -1.
         21   -1    0    0  502  503 -0.00000000000E+00 -0.00000000000E+00 -0.24379860152E+02  0.24379860152E+02  0.00000000000E+00 0. -1.
         25    2    1    2    0    0  0.00000000000E+00  0.00000000000E+00  0.13584408187E+03  0.18460380218E+03  0.12499979679E+03 0.  0.
          4    1    3    3  501    0 -0.46601086859E+02 -0.28803618577E+02  0.23554948398E+02  0.59653565138E+02  0.15500000000E+01 0.  1.
         -4    1    3    3    0  501  0.46601086859E+02  0.28803618577E+02  0.11228913347E+03  0.12495023704E+03  0.15500000000E+01 0.  1.
<mgrwt>
<rscale>  2 0.12499980E+03</rscale>
<asrwt>0</asrwt>
<pdfrwt beam="1">  1       21 0.24649837E-01 0.12499980E+03</pdfrwt>
<pdfrwt beam="2">  1       21 0.37507478E-02 0.12499980E+03</pdfrwt>
<totfact> 0.66627631E+06</totfact>
</mgrwt>
</event>
<event>
 5    0  0.1222151E+000  0.1250021E+03  0.7546771E-02  0.1235066E+00
         21   -1    0    0  503  502  0.00000000000E+00  0.00000000000E+00  0.45096081994E+01  0.45096081994E+01  0.00000000000E+00 0. -1.
         21   -1    0    0  502  503 -0.00000000000E+00 -0.00000000000E+00 -0.86623537108E+03  0.86623537108E+03  0.00000000000E+00 0. -1.
         25    2    1    2    0    0  0.00000000000E+00  0.00000000000E+00 -0.86172576288E+03  0.87074497928E+03  0.12500211410E+03 0.  0.
          4    1    3    3  501    0 -0.52126728072E+02 -0.21739627994E+02 -0.61701807639E+03  0.61959948055E+03  0.15500000000E+01 0.  1.
         -4    1    3    3    0  501  0.52126728072E+02  0.21739627994E+02 -0.24470768649E+03  0.25114549873E+03  0.15500000000E+01 0.  1.
<mgrwt>
<rscale>  2 0.12500211E+03</rscale>
<asrwt>0</asrwt>
<pdfrwt beam="1">  1       21 0.69378668E-03 0.12500211E+03</pdfrwt>
<pdfrwt beam="2">  1       21 0.13326683E+00 0.12500211E+03</pdfrwt>
<totfact> 0.27146899E+06</totfact>
</mgrwt>
</event>
<event>
 5    0  0.1473018E+000  0.1250060E+03  0.7546771E-02  0.1235060E+00
         21   -1    0    0  503  502  0.00000000000E+00  0.00000000000E+00  0.59448570024E+02  0.59448570024E+02  0.00000000000E+00 0. -1.
         21   -1    0    0  502  503 -0.00000000000E+00 -0.00000000000E+00 -0.65714359512E+02  0.65714359512E+02  0.00000000000E+00 0. -1.
         25    2    1    2    0    0  0.00000000000E+00  0.00000000000E+00 -0.62657894882E+01  0.12516292954E+03  0.12500599510E+03 0.  0.
          4    1    3    3  501    0  0.22134037616E+02 -0.47992695101E+02  0.30240734097E+02  0.60910745382E+02  0.15500000000E+01 0. -1.
         -4    1    3    3    0  501 -0.22134037616E+02  0.47992695101E+02 -0.36506523585E+02  0.64252184154E+02  0.15500000000E+01 0. -1.
<mgrwt>
<rscale>  2 0.12500600E+03</rscale>
<asrwt>0</asrwt>
<pdfrwt beam="1">  1       21 0.91459339E-02 0.12500600E+03</pdfrwt>
<pdfrwt beam="2">  1       21 0.10109901E-01 0.12500600E+03</pdfrwt>
<totfact> 0.74010233E+06</totfact>
</mgrwt>
</event>
<event>
 5    0  0.1222151E+000  0.1250249E+03  0.7546771E-02  0.1235030E+00
         21   -1    0    0  503  502  0.00000000000E+00  0.00000000000E+00  0.49064113136E+03  0.49064113136E+03  0.00000000000E+00 0. -1.
         21   -1    0    0  502  503 -0.00000000000E+00 -0.00000000000E+00 -0.79646903268E+01  0.79646903268E+01  0.00000000000E+00 0. -1.
         25    2    1    2    0    0  0.00000000000E+00  0.00000000000E+00  0.48267644104E+03  0.49860582169E+03  0.12502487229E+03 0.  0.
          4    1    3    3  501    0  0.89988229517E-01 -0.22207342186E+02  0.83789764653E+01  0.23786212213E+02  0.15500000000E+01 0.  1.
         -4    1    3    3    0  501 -0.89988229517E-01  0.22207342186E+02  0.47429746457E+03  0.47481960948E+03  0.15500000000E+01 0.  1.
<mgrwt>
<rscale>  2 0.12502487E+03</rscale>
<asrwt>0</asrwt>
<pdfrwt beam="1">  1       21 0.75483227E-01 0.12502487E+03</pdfrwt>
<pdfrwt beam="2">  1       21 0.12253374E-02 0.12502487E+03</pdfrwt>
<totfact> 0.42093713E+06</totfact>
</mgrwt>
</event>
<event>
 5    0  0.1526025E+000  0.1250005E+03  0.7546771E-02  0.1235069E+00
         21   -1    0    0  503  502  0.00000000000E+00  0.00000000000E+00  0.12218128301E+03  0.12218128301E+03  0.00000000000E+00 0.  1.
         21   -1    0    0  502  503 -0.00000000000E+00 -0.00000000000E+00 -0.31971172839E+02  0.31971172839E+02  0.00000000000E+00 0.  1.
         25    2    1    2    0    0  0.00000000000E+00  0.00000000000E+00  0.90210110173E+02  0.15415245585E+03  0.12500046267E+03 0.  0.
          4    1    3    3  501    0  0.31166629396E+02 -0.53978823052E+02  0.50452758438E+02  0.80205707153E+02  0.15500000000E+01 0. -1.
         -4    1    3    3    0  501 -0.31166629396E+02  0.53978823052E+02  0.39757351735E+02  0.73946748697E+02  0.15500000000E+01 0. -1.
<mgrwt>
<rscale>  2 0.12500046E+03</rscale>
<asrwt>0</asrwt>
<pdfrwt beam="1">  1       21 0.18797120E-01 0.12500046E+03</pdfrwt>
<pdfrwt beam="2">  1       21 0.49186420E-02 0.12500046E+03</pdfrwt>
<totfact> 0.70240324E+06</totfact>
</mgrwt>
</event>
<event>
 5    0  0.1592215E+000  0.1250024E+03  0.7546771E-02  0.1235066E+00
         21   -1    0    0  503  502  0.00000000000E+00  0.00000000000E+00  0.11122246066E+03  0.11122246066E+03  0.00000000000E+00 0. -1.
         21   -1    0    0  502  503 -0.00000000000E+00 -0.00000000000E+00 -0.35122396700E+02  0.35122396700E+02  0.00000000000E+00 0. -1.
         25    2    1    2    0    0  0.00000000000E+00  0.00000000000E+00  0.76100063962E+02  0.14634485736E+03  0.12500239014E+03 0.  0.
          4    1    3    3  501    0  0.56972718869E+02 -0.15786754259E+02  0.14376693110E+02  0.60862173065E+02  0.15500000000E+01 0.  1.
         -4    1    3    3    0  501 -0.56972718869E+02  0.15786754259E+02  0.61723370851E+02  0.85482684297E+02  0.15500000000E+01 0.  1.
<mgrwt>
<rscale>  2 0.12500239E+03</rscale>
<asrwt>0</asrwt>
<pdfrwt beam="1">  1       21 0.17111148E-01 0.12500239E+03</pdfrwt>
<pdfrwt beam="2">  1       21 0.54034457E-02 0.12500239E+03</pdfrwt>
<totfact> 0.71217098E+06</totfact>
</mgrwt>
</event>
<event>
 5    0  0.1222151E+000  0.1250076E+03  0.7546771E-02  0.1235057E+00
         21   -1    0    0  503  502  0.00000000000E+00  0.00000000000E+00  0.44778659248E+01  0.44778659248E+01  0.00000000000E+00 0.  1.
         21   -1    0    0  502  503 -0.00000000000E+00 -0.00000000000E+00 -0.87245210185E+03  0.87245210185E+03  0.00000000000E+00 0.  1.
         25    2    1    2    0    0  0.00000000000E+00  0.00000000000E+00 -0.86797423593E+03  0.87692996778E+03  0.12500757638E+03 0.  0.
          4    1    3    3  501    0 -0.37647798882E+02 -0.30776540550E+02 -0.15871873082E+03  0.16600780169E+03  0.15500000000E+01 0.  1.
         -4    1    3    3    0  501  0.37647798882E+02  0.30776540550E+02 -0.70925550510E+03  0.71092216608E+03  0.15500000000E+01 0.  1.
<mgrwt>
<rscale>  2 0.12500758E+03</rscale>
<asrwt>0</asrwt>
<pdfrwt beam="1">  1       21 0.68890260E-03 0.12500758E+03</pdfrwt>
<pdfrwt beam="2">  1       21 0.13422337E+00 0.12500758E+03</pdfrwt>
<totfact> 0.26961243E+06</totfact>
</mgrwt>
</event>
<event>
 5    0  0.1552460E+000  0.1249985E+03  0.7546771E-02  0.1235072E+00
         21   -1    0    0  503  502  0.00000000000E+00  0.00000000000E+00  0.25382293206E+02  0.25382293206E+02  0.00000000000E+00 0. -1.
         21   -1    0    0  502  503 -0.00000000000E+00 -0.00000000000E+00 -0.15389290942E+03  0.15389290942E+03  0.00000000000E+00 0. -1.
         25    2    1    2    0    0  0.00000000000E+00  0.00000000000E+00 -0.12851061621E+03  0.17927520262E+03  0.12499847918E+03 0.  0.
          4    1    3    3  501    0  0.22377838222E+02  0.51352436629E+02 -0.24563128641E+02  0.61184885224E+02  0.15500000000E+01 0. -1.
         -4    1    3    3    0  501 -0.22377838222E+02 -0.51352436629E+02 -0.10394748757E+03  0.11809031740E+03  0.15500000000E+01 0. -1.
<mgrwt>
<rscale>  2 0.12499848E+03</rscale>
<asrwt>0</asrwt>
<pdfrwt beam="1">  1       21 0.39049683E-02 0.12499848E+03</pdfrwt>
<pdfrwt beam="2">  1       21 0.23675832E-01 0.12499848E+03</pdfrwt>
<totfact> 0.67237374E+06</totfact>
</mgrwt>
</event>
<event>
 5    0  0.1489993E+000  0.1250073E+03  0.7546771E-02  0.1235058E+00
         21   -1    0    0  503  502  0.00000000000E+00  0.00000000000E+00  0.13133393566E+03  0.13133393566E+03  0.00000000000E+00 0. -1.
         21   -1    0    0  502  503 -0.00000000000E+00 -0.00000000000E+00 -0.29746381178E+02  0.29746381178E+02  0.00000000000E+00 0. -1.
         25    2    1    2    0    0  0.00000000000E+00  0.00000000000E+00  0.10158755448E+03  0.16108031684E+03  0.12500734877E+03 0.  0.
          4    1    3    3  501    0 -0.50814654219E+02 -0.16557485980E+02  0.92508873145E+02  0.10684836703E+03  0.15500000000E+01 0.  1.
         -4    1    3    3    0  501  0.50814654219E+02  0.16557485980E+02  0.90786813342E+01  0.54231949810E+02  0.15500000000E+01 0.  1.
<mgrwt>
<rscale>  2 0.12500735E+03</rscale>
<asrwt>0</asrwt>
<pdfrwt beam="1">  1       21 0.20205221E-01 0.12500735E+03</pdfrwt>
<pdfrwt beam="2">  1       21 0.45763664E-02 0.12500735E+03</pdfrwt>
<totfact> 0.69374772E+06</totfact>
</mgrwt>
</event>
<event>
 5    0  0.1550605E+000  0.1250044E+03  0.7546771E-02  0.1235062E+00
         21   -1    0    0  503  502  0.00000000000E+00  0.00000000000E+00  0.29609404102E+02  0.29609404102E+02  0.00000000000E+00 0.  1.
         21   -1    0    0  502  503 -0.00000000000E+00 -0.00000000000E+00 -0.13193532302E+03  0.13193532302E+03  0.00000000000E+00 0.  1.
         25    2    1    2    0    0  0.00000000000E+00  0.00000000000E+00 -0.10232591891E+03  0.16154472712E+03  0.12500442063E+03 0.  0.
          4    1    3    3  501    0  0.92957540269E+00  0.62471376604E+02 -0.52152898578E+02  0.81399412377E+02  0.15500000000E+01 0.  1.
         -4    1    3    3    0  501 -0.92957540269E+00 -0.62471376604E+02 -0.50173020335E+02  0.80145314740E+02  0.15500000000E+01 0.  1.
<mgrwt>
<rscale>  2 0.12500442E+03</rscale>
<asrwt>0</asrwt>
<pdfrwt beam="1">  1       21 0.45552930E-02 0.12500442E+03</pdfrwt>
<pdfrwt beam="2">  1       21 0.20297742E-01 0.12500442E+03</pdfrwt>
<totfact> 0.69323447E+06</totfact>
</mgrwt>
</event>
<event>
 5    0  0.1492963E+000  0.1249970E+03  0.7546771E-02  0.1235074E+00
         21   -1    0    0  503  502  0.00000000000E+00  0.00000000000E+00  0.20490338990E+02  0.20490338990E+02  0.00000000000E+00 0. -1.
         21   -1    0    0  502  503 -0.00000000000E+00 -0.00000000000E+00 -0.19062934575E+03  0.19062934575E+03  0.00000000000E+00 0. -1.
         25    2    1    2    0    0  0.00000000000E+00  0.00000000000E+00 -0.17013900676E+03  0.21111968474E+03  0.12499695862E+03 0.  0.
          4    1    3    3  501    0 -0.31248054720E+02  0.51391234136E+02 -0.11364092724E+03  0.12858523521E+03  0.15500000000E+01 0. -1.
         -4    1    3    3    0  501  0.31248054720E+02 -0.51391234136E+02 -0.56498079513E+02  0.82534449525E+02  0.15500000000E+01 0. -1.
<mgrwt>
<rscale>  2 0.12499696E+03</rscale>
<asrwt>0</asrwt>
<pdfrwt beam="1">  1       21 0.31523598E-02 0.12499696E+03</pdfrwt>
<pdfrwt beam="2">  1       21 0.29327592E-01 0.12499696E+03</pdfrwt>
<totfact> 0.63746828E+06</totfact>
</mgrwt>
</event>
<event>
 5    0  0.1514956E+000  0.1249932E+03  0.7546771E-02  0.1235080E+00
         21   -1    0    0  503  502  0.00000000000E+00  0.00000000000E+00  0.25541894381E+02  0.25541894381E+02  0.00000000000E+00 0.  1.
         21   -1    0    0  502  503 -0.00000000000E+00 -0.00000000000E+00 -0.15291829826E+03  0.15291829826E+03  0.00000000000E+00 0.  1.
         25    2    1    2    0    0  0.00000000000E+00  0.00000000000E+00 -0.12737640387E+03  0.17846019264E+03  0.12499316818E+03 0.  0.
          4    1    3    3  501    0  0.50776783050E+02 -0.34887567797E+02 -0.78525670087E+02  0.99820375908E+02  0.15500000000E+01 0. -1.
         -4    1    3    3    0  501 -0.50776783050E+02  0.34887567797E+02 -0.48850733787E+02  0.78639816729E+02  0.15500000000E+01 0. -1.
<mgrwt>
<rscale>  2 0.12499317E+03</rscale>
<asrwt>0</asrwt>
<pdfrwt beam="1">  1       21 0.39295222E-02 0.12499317E+03</pdfrwt>
<pdfrwt beam="2">  1       21 0.23525892E-01 0.12499317E+03</pdfrwt>
<totfact> 0.67340288E+06</totfact>
</mgrwt>
</event>
<event>
 5    0  0.1242035E+000  0.1249545E+03  0.7546771E-02  0.1235140E+00
         21   -1    0    0  503  502  0.00000000000E+00  0.00000000000E+00  0.54744339622E+03  0.54744339622E+03  0.00000000000E+00 0. -1.
         21   -1    0    0  502  503 -0.00000000000E+00 -0.00000000000E+00 -0.71302432455E+01  0.71302432455E+01  0.00000000000E+00 0. -1.
         25    2    1    2    0    0  0.00000000000E+00  0.00000000000E+00  0.54031315298E+03  0.55457363947E+03  0.12495446496E+03 0.  0.
          4    1    3    3  501    0 -0.19617200320E+02 -0.39291907991E+02  0.46726056677E+03  0.46932241406E+03  0.15500000000E+01 0. -1.
         -4    1    3    3    0  501  0.19617200320E+02  0.39291907991E+02  0.73052586211E+02  0.85251225411E+02  0.15500000000E+01 0. -1.
<mgrwt>
<rscale>  2 0.12495446E+03</rscale>
<asrwt>0</asrwt>
<pdfrwt beam="1">  1       21 0.84222028E-01 0.12495446E+03</pdfrwt>
<pdfrwt beam="2">  1       21 0.10969609E-02 0.12495446E+03</pdfrwt>
<totfact> 0.39275479E+06</totfact>
</mgrwt>
</event>
<event>
 5    0  0.1486495E+000  0.1250017E+03  0.7546771E-02  0.1235067E+00
         21   -1    0    0  503  502  0.00000000000E+00  0.00000000000E+00  0.27376638576E+02  0.27376638576E+02  0.00000000000E+00 0. -1.
         21   -1    0    0  502  503 -0.00000000000E+00 -0.00000000000E+00 -0.14268938018E+03  0.14268938018E+03  0.00000000000E+00 0. -1.
         25    2    1    2    0    0  0.00000000000E+00  0.00000000000E+00 -0.11531274160E+03  0.17006601875E+03  0.12500168942E+03 0.  0.
          4    1    3    3  501    0 -0.35617054670E+02 -0.11311119484E+02 -0.12578296600E+03  0.13122603798E+03  0.15500000000E+01 0.  1.
         -4    1    3    3    0  501  0.35617054670E+02  0.11311119484E+02  0.10470224403E+02  0.38839980772E+02  0.15500000000E+01 0.  1.
<mgrwt>
<rscale>  2 0.12500169E+03</rscale>
<asrwt>0</asrwt>
<pdfrwt beam="1">  1       21 0.42117905E-02 0.12500169E+03</pdfrwt>
<pdfrwt beam="2">  1       21 0.21952212E-01 0.12500169E+03</pdfrwt>
<totfact> 0.68306880E+06</totfact>
</mgrwt>
</event>
<event>
 5    0  0.1346886E+000  0.1250505E+03  0.7546771E-02  0.1234990E+00
         21   -1    0    0  503  502  0.00000000000E+00  0.00000000000E+00  0.35001408220E+03  0.35001408220E+03  0.00000000000E+00 0.  1.
         21   -1    0    0  502  503 -0.00000000000E+00 -0.00000000000E+00 -0.11169287576E+02  0.11169287576E+02  0.00000000000E+00 0.  1.
         25    2    1    2    0    0  0.00000000000E+00  0.00000000000E+00  0.33884479462E+03  0.36118336977E+03  0.12505051683E+03 0.  0.
          4    1    3    3  501    0 -0.32616997687E+02 -0.52914963913E+02  0.18839382089E+03  0.19838975829E+03  0.15500000000E+01 0.  1.
         -4    1    3    3    0  501  0.32616997687E+02  0.52914963913E+02  0.15045097373E+03  0.16279361148E+03  0.15500000000E+01 0.  1.
<mgrwt>
<rscale>  2 0.12505052E+03</rscale>
<asrwt>0</asrwt>
<pdfrwt beam="1">  1       21 0.53848312E-01 0.12505052E+03</pdfrwt>
<pdfrwt beam="2">  1       21 0.17183522E-02 0.12505052E+03</pdfrwt>
<totfact> 0.50658867E+06</totfact>
</mgrwt>
</event>
<event>
 5    0  0.1586113E+000  0.1249996E+03  0.7546771E-02  0.1235070E+00
         21   -1    0    0  503  502  0.00000000000E+00  0.00000000000E+00  0.44053683692E+02  0.44053683692E+02  0.00000000000E+00 0. -1.
         21   -1    0    0  502  503 -0.00000000000E+00 -0.00000000000E+00 -0.88669612482E+02  0.88669612482E+02  0.00000000000E+00 0. -1.
         25    2    1    2    0    0  0.00000000000E+00  0.00000000000E+00 -0.44615928790E+02  0.13272329617E+03  0.12499956898E+03 0.  0.
          4    1    3    3  501    0  0.57998499158E+02 -0.54667055073E+01 -0.46289140132E+02  0.74423099692E+02  0.15500000000E+01 0.  1.
         -4    1    3    3    0  501 -0.57998499158E+02  0.54667055073E+01  0.16732113415E+01  0.58300196482E+02  0.15500000000E+01 0.  1.
<mgrwt>
<rscale>  2 0.12499957E+03</rscale>
<asrwt>0</asrwt>
<pdfrwt beam="1">  1       21 0.67774899E-02 0.12499957E+03</pdfrwt>
<pdfrwt beam="2">  1       21 0.13641479E-01 0.12499957E+03</pdfrwt>
<totfact> 0.73000173E+06</totfact>
</mgrwt>
</event>
<event>
 5    0  0.1412932E+000  0.1249854E+03  0.7546771E-02  0.1235092E+00
         21   -1    0    0  503  502  0.00000000000E+00  0.00000000000E+00  0.34498174913E+03  0.34498174913E+03  0.00000000000E+00 0. -1.
         21   -1    0    0  502  503 -0.00000000000E+00 -0.00000000000E+00 -0.11320418893E+02  0.11320418893E+02  0.00000000000E+00 0. -1.
         25    2    1    2    0    0  0.00000000000E+00  0.00000000000E+00  0.33366133023E+03  0.35630216802E+03  0.12498540572E+03 0.  0.
          4    1    3    3  501    0 -0.46170461277E+02 -0.41793070580E+02  0.18095933720E+03  0.19138196483E+03  0.15500000000E+01 0. -1.
         -4    1    3    3    0  501  0.46170461277E+02  0.41793070580E+02  0.15270199303E+03  0.16492020319E+03  0.15500000000E+01 0. -1.
<mgrwt>
<rscale>  2 0.12498541E+03</rscale>
<asrwt>0</asrwt>
<pdfrwt beam="1">  1       21 0.53074107E-01 0.12498541E+03</pdfrwt>
<pdfrwt beam="2">  1       21 0.17416032E-02 0.12498541E+03</pdfrwt>
<totfact> 0.51095017E+06</totfact>
</mgrwt>
</event>
<event>
 5    0  0.1456761E+000  0.1249998E+03  0.7546771E-02  0.1235070E+00
         21   -1    0    0  503  502  0.00000000000E+00  0.00000000000E+00  0.19080643180E+03  0.19080643180E+03  0.00000000000E+00 0.  1.
         21   -1    0    0  502  503 -0.00000000000E+00 -0.00000000000E+00 -0.20472254092E+02  0.20472254092E+02  0.00000000000E+00 0.  1.
         25    2    1    2    0    0  0.00000000000E+00  0.00000000000E+00  0.17033417771E+03  0.21127868589E+03  0.12499980407E+03 0.  0.
          4    1    3    3  501    0 -0.17771933054E+02  0.47083283872E+02  0.14775495000E+03  0.15609806204E+03  0.15500000000E+01 0.  1.
         -4    1    3    3    0  501  0.17771933054E+02 -0.47083283872E+02  0.22579227713E+02  0.55180623853E+02  0.15500000000E+01 0.  1.
<mgrwt>
<rscale>  2 0.12499980E+03</rscale>
<asrwt>0</asrwt>
<pdfrwt beam="1">  1       21 0.29354834E-01 0.12499980E+03</pdfrwt>
<pdfrwt beam="2">  1       21 0.31495777E-02 0.12499980E+03</pdfrwt>
<totfact> 0.63725570E+06</totfact>
</mgrwt>
</event>
<event>
 5    0  0.1579637E+000  0.1249874E+03  0.7546771E-02  0.1235089E+00
         21   -1    0    0  503  502  0.00000000000E+00  0.00000000000E+00  0.80129862806E+02  0.80129862806E+02  0.00000000000E+00 0. -1.
         21   -1    0    0  502  503 -0.00000000000E+00 -0.00000000000E+00 -0.48739168575E+02  0.48739168575E+02  0.00000000000E+00 0. -1.
         25    2    1    2    0    0  0.00000000000E+00  0.00000000000E+00  0.31390694230E+02  0.12886903138E+03  0.12498740562E+03 0.  0.
          4    1    3    3  501    0 -0.53052979133E+01 -0.32520603601E+02 -0.39031540549E+02  0.51103811033E+02  0.15500000000E+01 0.  1.
         -4    1    3    3    0  501  0.53052979133E+01  0.32520603601E+02  0.70422234779E+02  0.77765220348E+02  0.15500000000E+01 0.  1.
<mgrwt>
<rscale>  2 0.12498741E+03</rscale>
<asrwt>0</asrwt>
<pdfrwt beam="1">  1       21 0.12327671E-01 0.12498741E+03</pdfrwt>
<pdfrwt beam="2">  1       21 0.74983336E-02 0.12498741E+03</pdfrwt>
<totfact> 0.73540120E+06</totfact>
</mgrwt>
</event>
<event>
 5    0  0.1440896E+000  0.1250004E+03  0.7546771E-02  0.1235069E+00
         21   -1    0    0  503  502  0.00000000000E+00  0.00000000000E+00  0.23111760048E+02  0.23111760048E+02  0.00000000000E+00 0. -1.
         21   -1    0    0  502  503 -0.00000000000E+00 -0.00000000000E+00 -0.16901685043E+03  0.16901685043E+03  0.00000000000E+00 0. -1.
         25    2    1    2    0    0  0.00000000000E+00  0.00000000000E+00 -0.14590509039E+03  0.19212861048E+03  0.12500043026E+03 0.  0.
          4    1    3    3  501    0 -0.94977226973E+01 -0.29887272524E+02 -0.15601467956E+03  0.15914282432E+03  0.15500000000E+01 0.  1.
         -4    1    3    3    0  501  0.94977226973E+01  0.29887272524E+02  0.10109589173E+02  0.32985786160E+02  0.15500000000E+01 0.  1.
<mgrwt>
<rscale>  2 0.12500043E+03</rscale>
<asrwt>0</asrwt>
<pdfrwt beam="1">  1       21 0.35556555E-02 0.12500043E+03</pdfrwt>
<pdfrwt beam="2">  1       21 0.26002592E-01 0.12500043E+03</pdfrwt>
<totfact> 0.65785950E+06</totfact>
</mgrwt>
</event>
<event>
 5    0  0.1460303E+000  0.1250289E+03  0.7546771E-02  0.1235024E+00
         21   -1    0    0  503  502  0.00000000000E+00  0.00000000000E+00  0.18096478641E+03  0.18096478641E+03  0.00000000000E+00 0. -1.
         21   -1    0    0  502  503 -0.00000000000E+00 -0.00000000000E+00 -0.21595658997E+02  0.21595658997E+02  0.00000000000E+00 0. -1.
         25    2    1    2    0    0  0.00000000000E+00  0.00000000000E+00  0.15936912741E+03  0.20256044541E+03  0.12502885775E+03 0.  0.
          4    1    3    3  501    0  0.51890848813E+02 -0.12845435009E+02  0.13213173926E+03  0.14254425422E+03  0.15500000000E+01 0.  1.
         -4    1    3    3    0  501 -0.51890848813E+02  0.12845435009E+02  0.27237388147E+02  0.60016191183E+02  0.15500000000E+01 0.  1.
<mgrwt>
<rscale>  2 0.12502886E+03</rscale>
<asrwt>0</asrwt>
<pdfrwt beam="1">  1       21 0.27840735E-01 0.12502886E+03</pdfrwt>
<pdfrwt beam="2">  1       21 0.33224092E-02 0.12502886E+03</pdfrwt>
<totfact> 0.64603664E+06</totfact>
</mgrwt>
</event>
<event>
 5    0  0.1481899E+000  0.1250014E+03  0.7546771E-02  0.1235067E+00
         21   -1    0    0  503  502  0.00000000000E+00  0.00000000000E+00  0.30268965355E+02  0.30268965355E+02  0.00000000000E+00 0.  1.
         21   -1    0    0  502  503 -0.00000000000E+00 -0.00000000000E+00 -0.12905424544E+03  0.12905424544E+03  0.00000000000E+00 0.  1.
         25    2    1    2    0    0  0.00000000000E+00  0.00000000000E+00 -0.98785280085E+02  0.15932321080E+03  0.12500141574E+03 0.  0.
          4    1    3    3  501    0 -0.46257467981E+02 -0.15817713778E+02  0.20083676499E+00  0.48912127827E+02  0.15500000000E+01 0.  1.
         -4    1    3    3    0  501  0.46257467981E+02  0.15817713778E+02 -0.98986116850E+02  0.11041108297E+03  0.15500000000E+01 0.  1.
<mgrwt>
<rscale>  2 0.12500142E+03</rscale>
<asrwt>0</asrwt>
<pdfrwt beam="1">  1       21 0.46567639E-02 0.12500142E+03</pdfrwt>
<pdfrwt beam="2">  1       21 0.19854499E-01 0.12500142E+03</pdfrwt>
<totfact> 0.69599781E+06</totfact>
</mgrwt>
</event>
<event>
 5    0  0.1360659E+000  0.1249990E+03  0.7546771E-02  0.1235071E+00
         21   -1    0    0  503  502  0.00000000000E+00  0.00000000000E+00  0.38799757274E+03  0.38799757274E+03  0.00000000000E+00 0. -1.
         21   -1    0    0  502  503 -0.00000000000E+00 -0.00000000000E+00 -0.10067548997E+02  0.10067548997E+02  0.00000000000E+00 0. -1.
         25    2    1    2    0    0  0.00000000000E+00  0.00000000000E+00  0.37793002374E+03  0.39806512173E+03  0.12499895318E+03 0.  0.
          4    1    3    3  501    0  0.34523980094E+02  0.78215463184E+01  0.25008729225E+02  0.43369584109E+02  0.15500000000E+01 0.  1.
         -4    1    3    3    0  501 -0.34523980094E+02 -0.78215463184E+01  0.35292129451E+03  0.35469553762E+03  0.15500000000E+01 0.  1.
<mgrwt>
<rscale>  2 0.12499895E+03</rscale>
<asrwt>0</asrwt>
<pdfrwt beam="1">  1       21 0.59691923E-01 0.12499895E+03</pdfrwt>
<pdfrwt beam="2">  1       21 0.15488540E-02 0.12499895E+03</pdfrwt>
<totfact> 0.48171220E+06</totfact>
</mgrwt>
</event>
<event>
 5    0  0.1330948E+000  0.1250008E+03  0.7546771E-02  0.1235068E+00
         21   -1    0    0  503  502  0.00000000000E+00  0.00000000000E+00  0.52718269694E+03  0.52718269694E+03  0.00000000000E+00 0. -1.
         21   -1    0    0  502  503 -0.00000000000E+00 -0.00000000000E+00 -0.74097600720E+01  0.74097600720E+01  0.00000000000E+00 0. -1.
         25    2    1    2    0    0  0.00000000000E+00  0.00000000000E+00  0.51977293687E+03  0.53459245701E+03  0.12500075677E+03 0.  0.
          4    1    3    3  501    0  0.61325124935E+02  0.65325329852E+01  0.30274969489E+03  0.30897123684E+03  0.15500000000E+01 0. -1.
         -4    1    3    3    0  501 -0.61325124935E+02 -0.65325329852E+01  0.21702324198E+03  0.22562122018E+03  0.15500000000E+01 0. -1.
<mgrwt>
<rscale>  2 0.12500076E+03</rscale>
<asrwt>0</asrwt>
<pdfrwt beam="1">  1       21 0.81105001E-01 0.12500076E+03</pdfrwt>
<pdfrwt beam="2">  1       21 0.11399635E-02 0.12500076E+03</pdfrwt>
<totfact> 0.40227358E+06</totfact>
</mgrwt>
</event>
<event>
 5    0  0.1463145E+000  0.1250022E+03  0.7546771E-02  0.1235066E+00
         21   -1    0    0  503  502  0.00000000000E+00  0.00000000000E+00  0.12962350862E+02  0.12962350862E+02  0.00000000000E+00 0. -1.
         21   -1    0    0  502  503 -0.00000000000E+00 -0.00000000000E+00 -0.30136414531E+03  0.30136414531E+03  0.00000000000E+00 0. -1.
         25    2    1    2    0    0  0.00000000000E+00  0.00000000000E+00 -0.28840179445E+03  0.31432649617E+03  0.12500220460E+03 0.  0.
          4    1    3    3  501    0  0.53182519211E+02  0.26131208591E+02 -0.19403534393E+03  0.20288749988E+03  0.15500000000E+01 0. -1.
         -4    1    3    3    0  501 -0.53182519211E+02 -0.26131208591E+02 -0.94366450516E+02  0.11143899629E+03  0.15500000000E+01 0. -1.
<mgrwt>
<rscale>  2 0.12500220E+03</rscale>
<asrwt>0</asrwt>
<pdfrwt beam="1">  1       21 0.19942080E-02 0.12500220E+03</pdfrwt>
<pdfrwt beam="2">  1       21 0.46363711E-01 0.12500220E+03</pdfrwt>
<totfact> 0.54283021E+06</totfact>
</mgrwt>
</event>
<event>
 5    0  0.1260163E+000  0.1250014E+03  0.7546771E-02  0.1235067E+00
         21   -1    0    0  503  502  0.00000000000E+00  0.00000000000E+00  0.52553617318E+01  0.52553617318E+01  0.00000000000E+00 0.  1.
         21   -1    0    0  502  503 -0.00000000000E+00 -0.00000000000E+00 -0.74330459327E+03  0.74330459327E+03  0.00000000000E+00 0.  1.
         25    2    1    2    0    0  0.00000000000E+00  0.00000000000E+00 -0.73804923154E+03  0.74855995500E+03  0.12500135223E+03 0.  0.
          4    1    3    3  501    0 -0.54741244741E+02  0.30007594295E+02 -0.35332580221E+03  0.35880159504E+03  0.15500000000E+01 0.  1.
         -4    1    3    3    0  501  0.54741244741E+02 -0.30007594295E+02 -0.38472342932E+03  0.38975835996E+03  0.15500000000E+01 0.  1.
<mgrwt>
<rscale>  2 0.12500135E+03</rscale>
<asrwt>0</asrwt>
<pdfrwt beam="1">  1       21 0.80851712E-03 0.12500135E+03</pdfrwt>
<pdfrwt beam="2">  1       21 0.11435456E+00 0.12500135E+03</pdfrwt>
<totfact> 0.31118527E+06</totfact>
</mgrwt>
</event>
<event>
 5    0  0.1222151E+000  0.1249991E+03  0.7546771E-02  0.1235071E+00
         21   -1    0    0  503  502  0.00000000000E+00  0.00000000000E+00  0.16719178689E+02  0.16719178689E+02  0.00000000000E+00 0. -1.
         21   -1    0    0  502  503 -0.00000000000E+00 -0.00000000000E+00 -0.23363568669E+03  0.23363568669E+03  0.00000000000E+00 0. -1.
         25    2    1    2    0    0  0.00000000000E+00  0.00000000000E+00 -0.21691650800E+03  0.25035486538E+03  0.12499914870E+03 0.  0.
          4    1    3    3  501    0 -0.13622082344E+02 -0.15471226171E+02 -0.22659046999E+03  0.22753145619E+03  0.15500000000E+01 0. -1.
         -4    1    3    3    0  501  0.13622082344E+02  0.15471226171E+02  0.96739619843E+01  0.22823409191E+02  0.15500000000E+01 0. -1.
<mgrwt>
<rscale>  2 0.12499915E+03</rscale>
<asrwt>0</asrwt>
<pdfrwt beam="1">  1       21 0.25721815E-02 0.12499915E+03</pdfrwt>
<pdfrwt beam="2">  1       21 0.35943950E-01 0.12499915E+03</pdfrwt>
<totfact> 0.59846080E+06</totfact>
</mgrwt>
</event>
<event>
 5    0  0.1595534E+000  0.1249983E+03  0.7546771E-02  0.1235072E+00
         21   -1    0    0  503  502  0.00000000000E+00  0.00000000000E+00  0.21414140110E+03  0.21414140110E+03  0.00000000000E+00 0. -1.
         21   -1    0    0  502  503 -0.00000000000E+00 -0.00000000000E+00 -0.18240964582E+02  0.18240964582E+02  0.00000000000E+00 0. -1.
         25    2    1    2    0    0  0.00000000000E+00  0.00000000000E+00  0.19590043652E+03  0.23238236568E+03  0.12499833140E+03 0.  0.
          4    1    3    3  501    0  0.25776538392E+02  0.56445202304E+02  0.84383693230E+02  0.10475447951E+03  0.15500000000E+01 0.  1.
         -4    1    3    3    0  501 -0.25776538392E+02 -0.56445202304E+02  0.11151674329E+03  0.12762788617E+03  0.15500000000E+01 0.  1.
<mgrwt>
<rscale>  2 0.12499833E+03</rscale>
<asrwt>0</asrwt>
<pdfrwt beam="1">  1       21 0.32944829E-01 0.12499833E+03</pdfrwt>
<pdfrwt beam="2">  1       21 0.28063024E-02 0.12499833E+03</pdfrwt>
<totfact> 0.61580283E+06</totfact>
</mgrwt>
</event>
<event>
 5    0  0.1413537E+000  0.1250001E+03  0.7546771E-02  0.1235069E+00
         21   -1    0    0  503  502  0.00000000000E+00  0.00000000000E+00  0.57037480361E+02  0.57037480361E+02  0.00000000000E+00 0. -1.
         21   -1    0    0  502  503 -0.00000000000E+00 -0.00000000000E+00 -0.68485788544E+02  0.68485788544E+02  0.00000000000E+00 0. -1.
         25    2    1    2    0    0  0.00000000000E+00  0.00000000000E+00 -0.11448308183E+02  0.12552326890E+03  0.12500010911E+03 0.  0.
          4    1    3    3  501    0  0.15660452369E+02  0.15895265273E+02  0.52880575964E+02  0.57416609450E+02  0.15500000000E+01 0. -1.
         -4    1    3    3    0  501 -0.15660452369E+02 -0.15895265273E+02 -0.64328884147E+02  0.68106659454E+02  0.15500000000E+01 0. -1.
<mgrwt>
<rscale>  2 0.12500011E+03</rscale>
<asrwt>0</asrwt>
<pdfrwt beam="1">  1       21 0.87749970E-02 0.12500011E+03</pdfrwt>
<pdfrwt beam="2">  1       21 0.10536275E-01 0.12500011E+03</pdfrwt>
<totfact> 0.73971939E+06</totfact>
</mgrwt>
</event>
<event>
 5    0  0.1402488E+000  0.1249882E+03  0.7546771E-02  0.1235088E+00
         21   -1    0    0  503  502  0.00000000000E+00  0.00000000000E+00  0.48113645144E+03  0.48113645144E+03  0.00000000000E+00 0. -1.
         21   -1    0    0  502  503 -0.00000000000E+00 -0.00000000000E+00 -0.81172709665E+01  0.81172709665E+01  0.00000000000E+00 0. -1.
         25    2    1    2    0    0  0.00000000000E+00  0.00000000000E+00  0.47301918048E+03  0.48925372241E+03  0.12498823862E+03 0.  0.
          4    1    3    3  501    0  0.35794757712E+02  0.51203416014E+02  0.23745195281E+03  0.24553795406E+03  0.15500000000E+01 0. -1.
         -4    1    3    3    0  501 -0.35794757712E+02 -0.51203416014E+02  0.23556722767E+03  0.24371576835E+03  0.15500000000E+01 0. -1.
<mgrwt>
<rscale>  2 0.12498824E+03</rscale>
<asrwt>0</asrwt>
<pdfrwt beam="1">  1       21 0.74020970E-01 0.12498824E+03</pdfrwt>
<pdfrwt beam="2">  1       21 0.12488113E-02 0.12498824E+03</pdfrwt>
<totfact> 0.42645426E+06</totfact>
</mgrwt>
</event>
<event>
 5    0  0.1552304E+000  0.1250056E+03  0.7546771E-02  0.1235061E+00
         21   -1    0    0  503  502  0.00000000000E+00  0.00000000000E+00  0.56496418711E+02  0.56496418711E+02  0.00000000000E+00 0.  1.
         21   -1    0    0  502  503 -0.00000000000E+00 -0.00000000000E+00 -0.69147764983E+02  0.69147764983E+02  0.00000000000E+00 0.  1.
         25    2    1    2    0    0  0.00000000000E+00  0.00000000000E+00 -0.12651346272E+02  0.12564418369E+03  0.12500561721E+03 0.  0.
          4    1    3    3  501    0 -0.10028108620E+02 -0.56019432898E+02 -0.32253936726E+02  0.65432856876E+02  0.15500000000E+01 0. -1.
         -4    1    3    3    0  501  0.10028108620E+02  0.56019432898E+02  0.19602590453E+02  0.60211326818E+02  0.15500000000E+01 0. -1.
<mgrwt>
<rscale>  2 0.12500562E+03</rscale>
<asrwt>0</asrwt>
<pdfrwt beam="1">  1       21 0.86917567E-02 0.12500562E+03</pdfrwt>
<pdfrwt beam="2">  1       21 0.10638118E-01 0.12500562E+03</pdfrwt>
<totfact> 0.73944701E+06</totfact>
</mgrwt>
</event>
<event>
 5    0  0.1427287E+000  0.1249990E+03  0.7546771E-02  0.1235071E+00
         21   -1    0    0  503  502  0.00000000000E+00  0.00000000000E+00  0.12004410810E+02  0.12004410810E+02  0.00000000000E+00 0. -1.
         21   -1    0    0  502  503 -0.00000000000E+00 -0.00000000000E+00 -0.32539617285E+03  0.32539617285E+03  0.00000000000E+00 0. -1.
         25    2    1    2    0    0  0.00000000000E+00  0.00000000000E+00 -0.31339176204E+03  0.33740058366E+03  0.12499902936E+03 0.  0.
          4    1    3    3  501    0 -0.37643033743E+02  0.40209133756E+02 -0.77079503915E+02  0.94749273615E+02  0.15500000000E+01 0.  1.
         -4    1    3    3    0  501  0.37643033743E+02 -0.40209133756E+02 -0.23631225813E+03  0.24265131005E+03  0.15500000000E+01 0.  1.
<mgrwt>
<rscale>  2 0.12499903E+03</rscale>
<asrwt>0</asrwt>
<pdfrwt beam="1">  1       21 0.18468326E-02 0.12499903E+03</pdfrwt>
<pdfrwt beam="2">  1       21 0.50060946E-01 0.12499903E+03</pdfrwt>
<totfact> 0.52483891E+06</totfact>
</mgrwt>
</event>
<event>
 5    0  0.1537460E+000  0.1250083E+03  0.7546771E-02  0.1235056E+00
         21   -1    0    0  503  502  0.00000000000E+00  0.00000000000E+00  0.93596683467E+02  0.93596683467E+02  0.00000000000E+00 0.  1.
         21   -1    0    0  502  503 -0.00000000000E+00 -0.00000000000E+00 -0.41740432749E+02  0.41740432749E+02  0.00000000000E+00 0.  1.
         25    2    1    2    0    0  0.00000000000E+00  0.00000000000E+00  0.51856250718E+02  0.13533711622E+03  0.12500825688E+03 0.  0.
          4    1    3    3  501    0  0.77608085592E+00  0.61887474619E+02  0.16633815754E+02  0.64107317388E+02  0.15500000000E+01 0.  1.
         -4    1    3    3    0  501 -0.77608085592E+00 -0.61887474619E+02  0.35222434965E+02  0.71229798828E+02  0.15500000000E+01 0.  1.
<mgrwt>
<rscale>  2 0.12500826E+03</rscale>
<asrwt>0</asrwt>
<pdfrwt beam="1">  1       21 0.14399490E-01 0.12500826E+03</pdfrwt>
<pdfrwt beam="2">  1       21 0.64216051E-02 0.12500826E+03</pdfrwt>
<totfact> 0.72636569E+06</totfact>
</mgrwt>
</event>
<event>
 5    0  0.1284612E+000  0.1249987E+03  0.7546771E-02  0.1235071E+00
         21   -1    0    0  503  502  0.00000000000E+00  0.00000000000E+00  0.41874776495E+03  0.41874776495E+03  0.00000000000E+00 0. -1.
         21   -1    0    0  502  503 -0.00000000000E+00 -0.00000000000E+00 -0.93282169307E+01  0.93282169307E+01  0.00000000000E+00 0. -1.
         25    2    1    2    0    0  0.00000000000E+00  0.00000000000E+00  0.40941954802E+03  0.42807598188E+03  0.12499871984E+03 0.  0.
          4    1    3    3  501    0  0.34745353186E+02 -0.19687308715E+01  0.38241713284E+03  0.38400049669E+03  0.15500000000E+01 0. -1.
         -4    1    3    3    0  501 -0.34745353186E+02  0.19687308715E+01  0.27002415182E+02  0.44075485192E+02  0.15500000000E+01 0. -1.
<mgrwt>
<rscale>  2 0.12499872E+03</rscale>
<asrwt>0</asrwt>
<pdfrwt beam="1">  1       21 0.64422718E-01 0.12499872E+03</pdfrwt>
<pdfrwt beam="2">  1       21 0.14351106E-02 0.12499872E+03</pdfrwt>
<totfact> 0.46234682E+06</totfact>
</mgrwt>
</event>
<event>
 5    0  0.1550879E+000  0.1249999E+03  0.7546771E-02  0.1235069E+00
         21   -1    0    0  503  502  0.00000000000E+00  0.00000000000E+00  0.21930099428E+02  0.21930099428E+02  0.00000000000E+00 0.  1.
         21   -1    0    0  502  503 -0.00000000000E+00 -0.00000000000E+00 -0.17812240711E+03  0.17812240711E+03  0.00000000000E+00 0.  1.
         25    2    1    2    0    0  0.00000000000E+00  0.00000000000E+00 -0.15619230768E+03  0.20005250653E+03  0.12499987357E+03 0.  0.
          4    1    3    3  501    0 -0.49170249724E+02 -0.35430315963E+02 -0.10241091796E+03  0.11901016497E+03  0.15500000000E+01 0. -1.
         -4    1    3    3    0  501  0.49170249724E+02  0.35430315963E+02 -0.53781389716E+02  0.81042341569E+02  0.15500000000E+01 0. -1.
<mgrwt>
<rscale>  2 0.12499987E+03</rscale>
<asrwt>0</asrwt>
<pdfrwt beam="1">  1       21 0.33738614E-02 0.12499987E+03</pdfrwt>
<pdfrwt beam="2">  1       21 0.27403447E-01 0.12499987E+03</pdfrwt>
<totfact> 0.64921771E+06</totfact>
</mgrwt>
</event>
<event>
 5    0  0.1279359E+000  0.1249923E+03  0.7546771E-02  0.1235081E+00
         21   -1    0    0  503  502  0.00000000000E+00  0.00000000000E+00  0.55566703020E+03  0.55566703020E+03  0.00000000000E+00 0.  1.
         21   -1    0    0  502  503 -0.00000000000E+00 -0.00000000000E+00 -0.70289745685E+01  0.70289745685E+01  0.00000000000E+00 0.  1.
         25    2    1    2    0    0  0.00000000000E+00  0.00000000000E+00  0.54863805563E+03  0.56269600477E+03  0.12499231055E+03 0.  0.
          4    1    3    3  501    0 -0.46445794528E+02 -0.30114971606E+02  0.14390192474E+03  0.15418913642E+03  0.15500000000E+01 0.  1.
         -4    1    3    3    0  501  0.46445794528E+02  0.30114971606E+02  0.40473613089E+03  0.40850686835E+03  0.15500000000E+01 0.  1.
<mgrwt>
<rscale>  2 0.12499231E+03</rscale>
<asrwt>0</asrwt>
<pdfrwt beam="1">  1       21 0.85487201E-01 0.12499231E+03</pdfrwt>
<pdfrwt beam="2">  1       21 0.10813811E-02 0.12499231E+03</pdfrwt>
<totfact> 0.38843332E+06</totfact>
</mgrwt>
</event>
<event>
 5    0  0.1341250E+000  0.1249963E+03  0.7546771E-02  0.1235075E+00
         21   -1    0    0  503  502  0.00000000000E+00  0.00000000000E+00  0.85445378901E+01  0.85445378901E+01  0.00000000000E+00 0.  1.
         21   -1    0    0  502  503 -0.00000000000E+00 -0.00000000000E+00 -0.45713645215E+03  0.45713645215E+03  0.00000000000E+00 0.  1.
         25    2    1    2    0    0  0.00000000000E+00  0.00000000000E+00 -0.44859191426E+03  0.46568099004E+03  0.12499631573E+03 0.  0.
          4    1    3    3  501    0  0.37947536754E+02 -0.31858613755E+02 -0.36609395462E+03  0.36943493734E+03  0.15500000000E+01 0. -1.
         -4    1    3    3    0  501 -0.37947536754E+02  0.31858613755E+02 -0.82497959639E+02  0.96246052702E+02  0.15500000000E+01 0. -1.
<mgrwt>
<rscale>  2 0.12499632E+03</rscale>
<asrwt>0</asrwt>
<pdfrwt beam="1">  1       21 0.13145441E-02 0.12499632E+03</pdfrwt>
<pdfrwt beam="2">  1       21 0.70328693E-01 0.12499632E+03</pdfrwt>
<totfact> 0.43972617E+06</totfact>
</mgrwt>
</event>
<event>
 5    0  0.1222151E+000  0.1249941E+03  0.7546771E-02  0.1235079E+00
         21   -1    0    0  503  502  0.00000000000E+00  0.00000000000E+00  0.15655746719E+04  0.15655746719E+04  0.00000000000E+00 0.  1.
         21   -1    0    0  502  503 -0.00000000000E+00 -0.00000000000E+00 -0.24948542788E+01  0.24948542788E+01  0.00000000000E+00 0.  1.
         25    2    1    2    0    0  0.00000000000E+00  0.00000000000E+00  0.15630798176E+04  0.15680695262E+04  0.12499409056E+03 0.  0.
          4    1    3    3  501    0 -0.56567330053E+02  0.24830231877E+02  0.89860364670E+03  0.90072599585E+03  0.15500000000E+01 0. -1.
         -4    1    3    3    0  501  0.56567330053E+02 -0.24830231877E+02  0.66447617094E+03  0.66734353034E+03  0.15500000000E+01 0. -1.
<mgrwt>
<rscale>  2 0.12499409E+03</rscale>
<asrwt>0</asrwt>
<pdfrwt beam="1">  1       21 0.24085686E+00 0.12499409E+03</pdfrwt>
<pdfrwt beam="2">  1       21 0.38382499E-03 0.12499409E+03</pdfrwt>
<totfact> 0.13015167E+06</totfact>
</mgrwt>
</event>
<event>
 5    0  0.1586877E+000  0.1249953E+03  0.7546771E-02  0.1235077E+00
         21   -1    0    0  503  502  0.00000000000E+00  0.00000000000E+00  0.14138309589E+03  0.14138309589E+03  0.00000000000E+00 0. -1.
         21   -1    0    0  502  503 -0.00000000000E+00 -0.00000000000E+00 -0.27626737557E+02  0.27626737557E+02  0.00000000000E+00 0. -1.
         25    2    1    2    0    0  0.00000000000E+00  0.00000000000E+00  0.11375635834E+03  0.16900983345E+03  0.12499525887E+03 0.  0.
          4    1    3    3  501    0 -0.22093747108E+02  0.58119974081E+02  0.65156719638E+02  0.90076998521E+02  0.15500000000E+01 0.  1.
         -4    1    3    3    0  501  0.22093747108E+02 -0.58119974081E+02  0.48599638699E+02  0.78932834930E+02  0.15500000000E+01 0.  1.
<mgrwt>
<rscale>  2 0.12499526E+03</rscale>
<asrwt>0</asrwt>
<pdfrwt beam="1">  1       21 0.21751245E-01 0.12499526E+03</pdfrwt>
<pdfrwt beam="2">  1       21 0.42502674E-02 0.12499526E+03</pdfrwt>
<totfact> 0.68443248E+06</totfact>
</mgrwt>
</event>
<event>
 5    0  0.1222151E+000  0.1250027E+03  0.7546771E-02  0.1235065E+00
         21   -1    0    0  503  502  0.00000000000E+00  0.00000000000E+00  0.38024061463E+01  0.38024061463E+01  0.00000000000E+00 0.  1.
         21   -1    0    0  502  503 -0.00000000000E+00 -0.00000000000E+00 -0.10273538370E+04  0.10273538370E+04  0.00000000000E+00 0.  1.
         25    2    1    2    0    0  0.00000000000E+00  0.00000000000E+00 -0.10235514309E+04  0.10311562431E+04  0.12500266468E+03 0.  0.
          4    1    3    3  501    0 -0.42794195817E+02  0.45398628498E+02 -0.53991386106E+03  0.54350874743E+03  0.15500000000E+01 0. -1.
         -4    1    3    3    0  501  0.42794195817E+02 -0.45398628498E+02 -0.48363756980E+03  0.48764749572E+03  0.15500000000E+01 0. -1.
<mgrwt>
<rscale>  2 0.12500266E+03</rscale>
<asrwt>0</asrwt>
<pdfrwt beam="1">  1       21 0.58498568E-03 0.12500266E+03</pdfrwt>
<pdfrwt beam="2">  1       21 0.15805440E+00 0.12500266E+03</pdfrwt>
<totfact> 0.22849307E+06</totfact>
</mgrwt>
</event>
<event>
 5    0  0.1417100E+000  0.1250270E+03  0.7546771E-02  0.1235027E+00
         21   -1    0    0  503  502  0.00000000000E+00  0.00000000000E+00  0.31008651201E+03  0.31008651201E+03  0.00000000000E+00 0. -1.
         21   -1    0    0  502  503 -0.00000000000E+00 -0.00000000000E+00 -0.12602724911E+02  0.12602724911E+02  0.00000000000E+00 0. -1.
         25    2    1    2    0    0  0.00000000000E+00  0.00000000000E+00  0.29748378710E+03  0.32268923692E+03  0.12502695724E+03 0.  0.
          4    1    3    3  501    0 -0.57485541865E+02  0.12241011251E+02  0.93924485431E+02  0.11080903097E+03  0.15500000000E+01 0. -1.
         -4    1    3    3    0  501  0.57485541865E+02 -0.12241011251E+02  0.20355930167E+03  0.21188020596E+03  0.15500000000E+01 0. -1.
<mgrwt>
<rscale>  2 0.12502696E+03</rscale>
<asrwt>0</asrwt>
<pdfrwt beam="1">  1       21 0.47705611E-01 0.12502696E+03</pdfrwt>
<pdfrwt beam="2">  1       21 0.19388810E-02 0.12502696E+03</pdfrwt>
<totfact> 0.53584678E+06</totfact>
</mgrwt>
</event>
<event>
 5    0  0.1437628E+000  0.1250006E+03  0.7546771E-02  0.1235068E+00
         21   -1    0    0  503  502  0.00000000000E+00  0.00000000000E+00  0.15230004217E+02  0.15230004217E+02  0.00000000000E+00 0.  1.
         21   -1    0    0  502  503 -0.00000000000E+00 -0.00000000000E+00 -0.25648637509E+03  0.25648637509E+03  0.00000000000E+00 0.  1.
         25    2    1    2    0    0  0.00000000000E+00  0.00000000000E+00 -0.24125637087E+03  0.27171637930E+03  0.12500061719E+03 0.  0.
          4    1    3    3  501    0  0.59382191350E+02 -0.13243540575E+02 -0.15154167193E+03  0.16330620579E+03  0.15500000000E+01 0.  1.
         -4    1    3    3    0  501 -0.59382191350E+02  0.13243540575E+02 -0.89714698934E+02  0.10841017351E+03  0.15500000000E+01 0.  1.
<mgrwt>
<rscale>  2 0.12500062E+03</rscale>
<asrwt>0</asrwt>
<pdfrwt beam="1">  1       21 0.23430778E-02 0.12500062E+03</pdfrwt>
<pdfrwt beam="2">  1       21 0.39459439E-01 0.12500062E+03</pdfrwt>
<totfact> 0.57890822E+06</totfact>
</mgrwt>
</event>
<event>
 5    0  0.1535951E+000  0.1250084E+03  0.7546771E-02  0.1235056E+00
         21   -1    0    0  503  502  0.00000000000E+00  0.00000000000E+00  0.28679339922E+02  0.28679339922E+02  0.00000000000E+00 0.  1.
         21   -1    0    0  502  503 -0.00000000000E+00 -0.00000000000E+00 -0.13622271208E+03  0.13622271208E+03  0.00000000000E+00 0.  1.
         25    2    1    2    0    0  0.00000000000E+00  0.00000000000E+00 -0.10754337216E+03  0.16490205201E+03  0.12500843915E+03 0.  0.
          4    1    3    3  501    0  0.75131551794E+01  0.55653918702E+02 -0.89911172815E+02  0.10601993994E+03  0.15500000000E+01 0. -1.
         -4    1    3    3    0  501 -0.75131551794E+01 -0.55653918702E+02 -0.17632199347E+02  0.58882112067E+02  0.15500000000E+01 0. -1.
<mgrwt>
<rscale>  2 0.12500844E+03</rscale>
<asrwt>0</asrwt>
<pdfrwt beam="1">  1       21 0.44122062E-02 0.12500844E+03</pdfrwt>
<pdfrwt beam="2">  1       21 0.20957340E-01 0.12500844E+03</pdfrwt>
<totfact> 0.68910645E+06</totfact>
</mgrwt>
</event>
<event>
 5    0  0.1331431E+000  0.1249993E+03  0.7546771E-02  0.1235070E+00
         21   -1    0    0  503  502  0.00000000000E+00  0.00000000000E+00  0.82490766861E+01  0.82490766861E+01  0.00000000000E+00 0.  1.
         21   -1    0    0  502  503 -0.00000000000E+00 -0.00000000000E+00 -0.47353228126E+03  0.47353228126E+03  0.00000000000E+00 0.  1.
         25    2    1    2    0    0  0.00000000000E+00  0.00000000000E+00 -0.46528320457E+03  0.48178135794E+03  0.12499926562E+03 0.  0.
          4    1    3    3  501    0 -0.51658623669E+02 -0.21787207515E+02 -0.12635126321E+03  0.13824015344E+03  0.15500000000E+01 0. -1.
         -4    1    3    3    0  501  0.51658623669E+02  0.21787207515E+02 -0.33893194136E+03  0.34354120450E+03  0.15500000000E+01 0. -1.
<mgrwt>
<rscale>  2 0.12499927E+03</rscale>
<asrwt>0</asrwt>
<pdfrwt beam="1">  1       21 0.12690889E-02 0.12499927E+03</pdfrwt>
<pdfrwt beam="2">  1       21 0.72851108E-01 0.12499927E+03</pdfrwt>
<totfact> 0.43050453E+06</totfact>
</mgrwt>
</event>
<event>
 5    0  0.1595888E+000  0.1249945E+03  0.7546771E-02  0.1235078E+00
         21   -1    0    0  503  502  0.00000000000E+00  0.00000000000E+00  0.58975590636E+02  0.58975590636E+02  0.00000000000E+00 0. -1.
         21   -1    0    0  502  503 -0.00000000000E+00 -0.00000000000E+00 -0.66229253823E+02  0.66229253823E+02  0.00000000000E+00 0. -1.
         25    2    1    2    0    0  0.00000000000E+00  0.00000000000E+00 -0.72536631873E+01  0.12520484446E+03  0.12499454967E+03 0.  0.
          4    1    3    3  501    0 -0.58346669728E+02  0.15365882697E+02 -0.19873325267E+02  0.63543652528E+02  0.15500000000E+01 0. -1.
         -4    1    3    3    0  501  0.58346669728E+02 -0.15365882697E+02  0.12619662080E+02  0.61661191931E+02  0.15500000000E+01 0. -1.
<mgrwt>
<rscale>  2 0.12499455E+03</rscale>
<asrwt>0</asrwt>
<pdfrwt beam="1">  1       21 0.90731678E-02 0.12499455E+03</pdfrwt>
<pdfrwt beam="2">  1       21 0.10189116E-01 0.12499455E+03</pdfrwt>
<totfact> 0.74026232E+06</totfact>
</mgrwt>
</event>
<event>
 5    0  0.1341478E+000  0.1250168E+03  0.7546771E-02  0.1235043E+00
         21   -1    0    0  503  502  0.00000000000E+00  0.00000000000E+00  0.79426074837E+01  0.79426074837E+01  0.00000000000E+00 0.  1.
         21   -1    0    0  502  503 -0.00000000000E+00 -0.00000000000E+00 -0.49194159127E+03  0.49194159127E+03  0.00000000000E+00 0.  1.
         25    2    1    2    0    0  0.00000000000E+00  0.00000000000E+00 -0.48399898378E+03  0.49988419875E+03  0.12501678230E+03 0.  0.
          4    1    3    3  501    0  0.15656717446E+02 -0.42173173522E+02 -0.68572341581E+02  0.82026080584E+02  0.15500000000E+01 0.  1.
         -4    1    3    3    0  501 -0.15656717446E+02  0.42173173522E+02 -0.41542664220E+03  0.41785811817E+03  0.15500000000E+01 0.  1.
<mgrwt>
<rscale>  2 0.12501678E+03</rscale>
<asrwt>0</asrwt>
<pdfrwt beam="1">  1       21 0.12219394E-02 0.12501678E+03</pdfrwt>
<pdfrwt beam="2">  1       21 0.75683332E-01 0.12501678E+03</pdfrwt>
<totfact> 0.42032781E+06</totfact>
</mgrwt>
</event>
<event>
 5    0  0.1307151E+000  0.1250007E+03  0.7546771E-02  0.1235068E+00
         21   -1    0    0  503  502  0.00000000000E+00  0.00000000000E+00  0.78877961536E+01  0.78877961536E+01  0.00000000000E+00 0.  1.
         21   -1    0    0  502  503 -0.00000000000E+00 -0.00000000000E+00 -0.49523273302E+03  0.49523273302E+03  0.00000000000E+00 0.  1.
         25    2    1    2    0    0  0.00000000000E+00  0.00000000000E+00 -0.48734493687E+03  0.50312052918E+03  0.12500071754E+03 0.  0.
          4    1    3    3  501    0  0.22991547321E+02 -0.52963841242E+02 -0.14756882349E+03  0.15846999682E+03  0.15500000000E+01 0.  1.
         -4    1    3    3    0  501 -0.22991547321E+02  0.52963841242E+02 -0.33977611338E+03  0.34465053236E+03  0.15500000000E+01 0.  1.
<mgrwt>
<rscale>  2 0.12500072E+03</rscale>
<asrwt>0</asrwt>
<pdfrwt beam="1">  1       21 0.12135067E-02 0.12500072E+03</pdfrwt>
<pdfrwt beam="2">  1       21 0.76189673E-01 0.12500072E+03</pdfrwt>
<totfact> 0.41874585E+06</totfact>
</mgrwt>
</event>
<event>
 5    0  0.1596830E+000  0.1250111E+03  0.7546771E-02  0.1235052E+00
         21   -1    0    0  503  502  0.00000000000E+00  0.00000000000E+00  0.94696797015E+02  0.94696797015E+02  0.00000000000E+00 0. -1.
         21   -1    0    0  502  503 -0.00000000000E+00 -0.00000000000E+00 -0.41257427197E+02  0.41257427197E+02  0.00000000000E+00 0. -1.
         25    2    1    2    0    0  0.00000000000E+00  0.00000000000E+00  0.53439369819E+02  0.13595422421E+03  0.12501113884E+03 0.  0.
          4    1    3    3  501    0 -0.77622651839E+00 -0.60809370454E+02  0.11104471252E+02  0.61839258117E+02  0.15500000000E+01 0.  1.
         -4    1    3    3    0  501  0.77622651839E+00  0.60809370454E+02  0.42334898567E+02  0.74114966095E+02  0.15500000000E+01 0.  1.
<mgrwt>
<rscale>  2 0.12501114E+03</rscale>
<asrwt>0</asrwt>
<pdfrwt beam="1">  1       21 0.14568738E-01 0.12501114E+03</pdfrwt>
<pdfrwt beam="2">  1       21 0.63472966E-02 0.12501114E+03</pdfrwt>
<totfact> 0.72549760E+06</totfact>
</mgrwt>
</event>
<event>
 5    0  0.1557358E+000  0.1249993E+03  0.7546771E-02  0.1235070E+00
         21   -1    0    0  503  502  0.00000000000E+00  0.00000000000E+00  0.36296670772E+02  0.36296670772E+02  0.00000000000E+00 0. -1.
         21   -1    0    0  502  503 -0.00000000000E+00 -0.00000000000E+00 -0.10761880787E+03  0.10761880787E+03  0.00000000000E+00 0. -1.
         25    2    1    2    0    0  0.00000000000E+00  0.00000000000E+00 -0.71322137097E+02  0.14391547864E+03  0.12499927101E+03 0.  0.
          4    1    3    3  501    0  0.30124571180E+02 -0.28426468028E+02  0.18196693439E+02  0.45266720949E+02  0.15500000000E+01 0.  1.
         -4    1    3    3    0  501 -0.30124571180E+02  0.28426468028E+02 -0.89518830536E+02  0.98648757691E+02  0.15500000000E+01 0.  1.
<mgrwt>
<rscale>  2 0.12499927E+03</rscale>
<asrwt>0</asrwt>
<pdfrwt beam="1">  1       21 0.55841033E-02 0.12499927E+03</pdfrwt>
<pdfrwt beam="2">  1       21 0.16556740E-01 0.12499927E+03</pdfrwt>
<totfact> 0.71533509E+06</totfact>
</mgrwt>
</event>
