<event>
 5    0  0.1469175E+000  0.1249926E+03  0.7546771E-02  0.1235081E+00
         21   -1    0    0  503  502  0.00000000000E+00  0.00000000000E+00  0.73019427245E+02  0.73019427245E+02  0.00000000000E+00 0. -1.
         21   -1    0    0  502  503 -0.00000000000E+00 -0.00000000000E+00 -0.53489679674E+02  0.53489679674E+02  0.00000000000E+00 0. -1.
         25    2    1    2    0    0  0.00000000000E+00  0.00000000000E+00  0.19529747570E+02  0.12650910692E+03  0.12499257215E+03 0.  0.
          4    1    3    3  501    0 -0.38895063260E+02  0.12975681653E+02 -0.37947176845E+02  0.55889041778E+02  0.15500000000E+01 0.  1.
         -4    1    3    3    0  501  0.38895063260E+02 -0.12975681653E+02  0.57476924415E+02  0.70620065141E+02  0.15500000000E+01 0.  1.
<mgrwt>
<rscale>  2 0.12499257E+03</rscale>
<asrwt>0</asrwt>
<pdfrwt beam="1">  1       21 0.11233758E-01 0.12499257E+03</pdfrwt>
<pdfrwt beam="2">  1       21 0.82291815E-02 0.12499257E+03</pdfrwt>
<totfact> 0.73850125E+06</totfact>
</mgrwt>
</event>
<event>
 5    0  0.1576246E+000  0.1250041E+03  0.7546771E-02  0.1235063E+00
         21   -1    0    0  503  502  0.00000000000E+00  0.00000000000E+00  0.10008759117E+03  0.10008759117E+03  0.00000000000E+00 0.  1.
         21   -1    0    0  502  503 -0.00000000000E+00 -0.00000000000E+00 -0.39030877337E+02  0.39030877337E+02  0.00000000000E+00 0.  1.
         25    2    1    2    0    0  0.00000000000E+00  0.00000000000E+00  0.61056713836E+02  0.13911846851E+03  0.12500410384E+03 0.  0.
          4    1    3    3  501    0 -0.26724027950E+02 -0.50341947715E+02  0.59024504950E+02  0.82065705714E+02  0.15500000000E+01 0. -1.
         -4    1    3    3    0  501  0.26724027950E+02  0.50341947715E+02  0.20322088862E+01  0.57052762796E+02  0.15500000000E+01 0. -1.
<mgrwt>
<rscale>  2 0.12500410E+03</rscale>
<asrwt>0</asrwt>
<pdfrwt beam="1">  1       21 0.15398091E-01 0.12500410E+03</pdfrwt>
<pdfrwt beam="2">  1       21 0.60047504E-02 0.12500410E+03</pdfrwt>
<totfact> 0.72147056E+06</totfact>
</mgrwt>
</event>
<event>
 5    0  0.1404567E+000  0.1250230E+03  0.7546771E-02  0.1235033E+00
         21   -1    0    0  503  502  0.00000000000E+00  0.00000000000E+00  0.10405266448E+02  0.10405266448E+02  0.00000000000E+00 0. -1.
         21   -1    0    0  502  503 -0.00000000000E+00 -0.00000000000E+00 -0.37554890015E+03  0.37554890015E+03  0.00000000000E+00 0. -1.
         25    2    1    2    0    0  0.00000000000E+00  0.00000000000E+00 -0.36514363370E+03  0.38595416660E+03  0.12502297981E+03 0.  0.
          4    1    3    3  501    0 -0.12538719631E+02 -0.49194248120E+02 -0.29506943947E+03  0.29940886785E+03  0.15500000000E+01 0. -1.
         -4    1    3    3    0  501  0.12538719631E+02  0.49194248120E+02 -0.70074194230E+02  0.86545298746E+02  0.15500000000E+01 0. -1.
<mgrwt>
<rscale>  2 0.12502298E+03</rscale>
<asrwt>0</asrwt>
<pdfrwt beam="1">  1       21 0.16008102E-02 0.12502298E+03</pdfrwt>
<pdfrwt beam="2">  1       21 0.57776755E-01 0.12502298E+03</pdfrwt>
<totfact> 0.48959022E+06</totfact>
</mgrwt>
</event>
<event>
 5    0  0.1279323E+000  0.1249990E+03  0.7546771E-02  0.1235071E+00
         21   -1    0    0  503  502  0.00000000000E+00  0.00000000000E+00  0.75081959468E+01  0.75081959468E+01  0.00000000000E+00 0.  1.
         21   -1    0    0  502  503 -0.00000000000E+00 -0.00000000000E+00 -0.52025672582E+03  0.52025672582E+03  0.00000000000E+00 0.  1.
         25    2    1    2    0    0  0.00000000000E+00  0.00000000000E+00 -0.51274852988E+03  0.52776492177E+03  0.12499903104E+03 0.  0.
          4    1    3    3  501    0 -0.19576092455E+02 -0.33462323967E+02 -0.49495859601E+02  0.62890326273E+02  0.15500000000E+01 0.  1.
         -4    1    3    3    0  501  0.19576092455E+02  0.33462323967E+02 -0.46325267027E+03  0.46487459550E+03  0.15500000000E+01 0.  1.
<mgrwt>
<rscale>  2 0.12499903E+03</rscale>
<asrwt>0</asrwt>
<pdfrwt beam="1">  1       21 0.11551067E-02 0.12499903E+03</pdfrwt>
<pdfrwt beam="2">  1       21 0.80039522E-01 0.12499903E+03</pdfrwt>
<totfact> 0.40578236E+06</totfact>
</mgrwt>
</event>
<event>
 5    0  0.1420186E+000  0.1250249E+03  0.7546771E-02  0.1235030E+00
         21   -1    0    0  503  502  0.00000000000E+00  0.00000000000E+00  0.13421437974E+03  0.13421437974E+03  0.00000000000E+00 0. -1.
         21   -1    0    0  502  503 -0.00000000000E+00 -0.00000000000E+00 -0.29116167078E+02  0.29116167078E+02  0.00000000000E+00 0. -1.
         25    2    1    2    0    0  0.00000000000E+00  0.00000000000E+00  0.10509821266E+03  0.16333054682E+03  0.12502493039E+03 0.  0.
          4    1    3    3  501    0 -0.24724504388E+02  0.15438760672E+02 -0.19666266728E+02  0.35196889001E+02  0.15500000000E+01 0. -1.
         -4    1    3    3    0  501  0.24724504388E+02 -0.15438760672E+02  0.12476447939E+03  0.12813365782E+03  0.15500000000E+01 0. -1.
<mgrwt>
<rscale>  2 0.12502493E+03</rscale>
<asrwt>0</asrwt>
<pdfrwt beam="1">  1       21 0.20648366E-01 0.12502493E+03</pdfrwt>
<pdfrwt beam="2">  1       21 0.44794104E-02 0.12502493E+03</pdfrwt>
<totfact> 0.69071037E+06</totfact>
</mgrwt>
</event>
<event>
 5    0  0.1527386E+000  0.1249948E+03  0.7546771E-02  0.1235077E+00
         21   -1    0    0  503  502  0.00000000000E+00  0.00000000000E+00  0.20910025701E+02  0.20910025701E+02  0.00000000000E+00 0.  1.
         21   -1    0    0  502  503 -0.00000000000E+00 -0.00000000000E+00 -0.18679676250E+03  0.18679676250E+03  0.00000000000E+00 0.  1.
         25    2    1    2    0    0  0.00000000000E+00  0.00000000000E+00 -0.16588673680E+03  0.20770678820E+03  0.12499480157E+03 0.  0.
          4    1    3    3  501    0  0.42033788413E+02  0.33100966139E+02 -0.13655833486E+03  0.14667342857E+03  0.15500000000E+01 0.  1.
         -4    1    3    3    0  501 -0.42033788413E+02 -0.33100966139E+02 -0.29328401933E+02  0.61033359629E+02  0.15500000000E+01 0.  1.
<mgrwt>
<rscale>  2 0.12499480E+03</rscale>
<asrwt>0</asrwt>
<pdfrwt beam="1">  1       21 0.32169270E-02 0.12499480E+03</pdfrwt>
<pdfrwt beam="2">  1       21 0.28737963E-01 0.12499480E+03</pdfrwt>
<totfact> 0.64110049E+06</totfact>
</mgrwt>
</event>
<event>
 5    0  0.1611323E+000  0.1250186E+03  0.7546771E-02  0.1235040E+00
         21   -1    0    0  503  502  0.00000000000E+00  0.00000000000E+00  0.40078171491E+02  0.40078171491E+02  0.00000000000E+00 0.  1.
         21   -1    0    0  502  503 -0.00000000000E+00 -0.00000000000E+00 -0.97494708617E+02  0.97494708617E+02  0.00000000000E+00 0.  1.
         25    2    1    2    0    0  0.00000000000E+00  0.00000000000E+00 -0.57416537126E+02  0.13757288011E+03  0.12501855305E+03 0.  0.
          4    1    3    3  501    0 -0.27437765655E+02  0.54964674067E+02 -0.16110468190E+02  0.63528702684E+02  0.15500000000E+01 0.  1.
         -4    1    3    3    0  501  0.27437765655E+02 -0.54964674067E+02 -0.41306068936E+02  0.74044177424E+02  0.15500000000E+01 0.  1.
<mgrwt>
<rscale>  2 0.12501855E+03</rscale>
<asrwt>0</asrwt>
<pdfrwt beam="1">  1       21 0.61658725E-02 0.12501855E+03</pdfrwt>
<pdfrwt beam="2">  1       21 0.14999186E-01 0.12501855E+03</pdfrwt>
<totfact> 0.72323342E+06</totfact>
</mgrwt>
</event>
<event>
 5    0  0.1492109E+000  0.1250029E+03  0.7546771E-02  0.1235065E+00
         21   -1    0    0  503  502  0.00000000000E+00  0.00000000000E+00  0.27799905108E+02  0.27799905108E+02  0.00000000000E+00 0.  1.
         21   -1    0    0  502  503 -0.00000000000E+00 -0.00000000000E+00 -0.14051954312E+03  0.14051954312E+03  0.00000000000E+00 0.  1.
         25    2    1    2    0    0  0.00000000000E+00  0.00000000000E+00 -0.11271963801E+03  0.16831944823E+03  0.12500287940E+03 0.  0.
          4    1    3    3  501    0 -0.47878132803E+02 -0.81855027269E+01 -0.34376448301E+01  0.48718969176E+02  0.15500000000E+01 0.  1.
         -4    1    3    3    0  501  0.47878132803E+02  0.81855027269E+01 -0.10928199318E+03  0.11960047905E+03  0.15500000000E+01 0.  1.
<mgrwt>
<rscale>  2 0.12500288E+03</rscale>
<asrwt>0</asrwt>
<pdfrwt beam="1">  1       21 0.42769085E-02 0.12500288E+03</pdfrwt>
<pdfrwt beam="2">  1       21 0.21618391E-01 0.12500288E+03</pdfrwt>
<totfact> 0.68511956E+06</totfact>
</mgrwt>
</event>
<event>
 5    0  0.1528111E+000  0.1249943E+03  0.7546771E-02  0.1235078E+00
         21   -1    0    0  503  502  0.00000000000E+00  0.00000000000E+00  0.48288964757E+02  0.48288964757E+02  0.00000000000E+00 0.  1.
         21   -1    0    0  502  503 -0.00000000000E+00 -0.00000000000E+00 -0.80885880645E+02  0.80885880645E+02  0.00000000000E+00 0.  1.
         25    2    1    2    0    0  0.00000000000E+00  0.00000000000E+00 -0.32596915888E+02  0.12917484540E+03  0.12499432691E+03 0.  0.
          4    1    3    3  501    0 -0.35018473744E+02 -0.47589761510E+02  0.46887355661E+01  0.59291362315E+02  0.15500000000E+01 0.  1.
         -4    1    3    3    0  501  0.35018473744E+02  0.47589761510E+02 -0.37285651454E+02  0.69883483087E+02  0.15500000000E+01 0.  1.
<mgrwt>
<rscale>  2 0.12499433E+03</rscale>
<asrwt>0</asrwt>
<pdfrwt beam="1">  1       21 0.74290715E-02 0.12499433E+03</pdfrwt>
<pdfrwt beam="2">  1       21 0.12443982E-01 0.12499433E+03</pdfrwt>
<totfact> 0.73486053E+06</totfact>
</mgrwt>
</event>
<event>
 5    0  0.1222151E+000  0.1250057E+03  0.7546771E-02  0.1235060E+00
         21   -1    0    0  503  502  0.00000000000E+00  0.00000000000E+00  0.40450353817E+01  0.40450353817E+01  0.00000000000E+00 0. -1.
         21   -1    0    0  502  503 -0.00000000000E+00 -0.00000000000E+00 -0.96577760910E+03  0.96577760910E+03  0.00000000000E+00 0. -1.
         25    2    1    2    0    0  0.00000000000E+00  0.00000000000E+00 -0.96173257372E+03  0.96982264449E+03  0.12500567347E+03 0.  0.
          4    1    3    3  501    0  0.56191911084E+02  0.23338038785E+02 -0.59113339696E+03  0.59425860569E+03  0.15500000000E+01 0.  1.
         -4    1    3    3    0  501 -0.56191911084E+02 -0.23338038785E+02 -0.37059917676E+03  0.37556403880E+03  0.15500000000E+01 0.  1.
<mgrwt>
<rscale>  2 0.12500567E+03</rscale>
<asrwt>0</asrwt>
<pdfrwt beam="1">  1       21 0.62231344E-03 0.12500567E+03</pdfrwt>
<pdfrwt beam="2">  1       21 0.14858110E+00 0.12500567E+03</pdfrwt>
<totfact> 0.24384675E+06</totfact>
</mgrwt>
</event>
<event>
 5    0  0.1508718E+000  0.1250048E+03  0.7546771E-02  0.1235062E+00
         21   -1    0    0  503  502  0.00000000000E+00  0.00000000000E+00  0.21638518928E+03  0.21638518928E+03  0.00000000000E+00 0. -1.
         21   -1    0    0  502  503 -0.00000000000E+00 -0.00000000000E+00 -0.18053698231E+02  0.18053698231E+02  0.00000000000E+00 0. -1.
         25    2    1    2    0    0  0.00000000000E+00  0.00000000000E+00  0.19833149105E+03  0.23443888751E+03  0.12500484645E+03 0.  0.
          4    1    3    3  501    0 -0.67582246613E+01  0.52049403406E+02  0.16274660349E+03  0.17100781691E+03  0.15500000000E+01 0.  1.
         -4    1    3    3    0  501  0.67582246613E+01 -0.52049403406E+02  0.35584887560E+02  0.63431070605E+02  0.15500000000E+01 0.  1.
<mgrwt>
<rscale>  2 0.12500485E+03</rscale>
<asrwt>0</asrwt>
<pdfrwt beam="1">  1       21 0.33290027E-01 0.12500485E+03</pdfrwt>
<pdfrwt beam="2">  1       21 0.27774922E-02 0.12500485E+03</pdfrwt>
<totfact> 0.61367482E+06</totfact>
</mgrwt>
</event>
<event>
 5    0  0.1222151E+000  0.1249892E+03  0.7546771E-02  0.1235086E+00
         21   -1    0    0  503  502  0.00000000000E+00  0.00000000000E+00  0.10562075284E+04  0.10562075284E+04  0.00000000000E+00 0.  1.
         21   -1    0    0  502  503 -0.00000000000E+00 -0.00000000000E+00 -0.36977359846E+01  0.36977359846E+01  0.00000000000E+00 0.  1.
         25    2    1    2    0    0  0.00000000000E+00  0.00000000000E+00  0.10525097924E+04  0.10599052644E+04  0.12498922490E+03 0.  0.
          4    1    3    3  501    0  0.43524978397E+02  0.44777827604E+02  0.54255872397E+03  0.54614270026E+03  0.15500000000E+01 0.  1.
         -4    1    3    3    0  501 -0.43524978397E+02 -0.44777827604E+02  0.50995106847E+03  0.51376256416E+03  0.15500000000E+01 0.  1.
<mgrwt>
<rscale>  2 0.12498922E+03</rscale>
<asrwt>0</asrwt>
<pdfrwt beam="1">  1       21 0.16249323E+00 0.12498922E+03</pdfrwt>
<pdfrwt beam="2">  1       21 0.56888330E-03 0.12498922E+03</pdfrwt>
<totfact> 0.22171804E+06</totfact>
</mgrwt>
</event>
<event>
 5    0  0.1513529E+000  0.1250004E+03  0.7546771E-02  0.1235069E+00
         21   -1    0    0  503  502  0.00000000000E+00  0.00000000000E+00  0.20106838135E+03  0.20106838135E+03  0.00000000000E+00 0.  1.
         21   -1    0    0  502  503 -0.00000000000E+00 -0.00000000000E+00 -0.19427580077E+02  0.19427580077E+02  0.00000000000E+00 0.  1.
         25    2    1    2    0    0  0.00000000000E+00  0.00000000000E+00  0.18164080128E+03  0.22049596143E+03  0.12500035327E+03 0.  0.
          4    1    3    3  501    0 -0.45705232695E+02  0.36702123744E+02  0.12897485267E+03  0.14167896564E+03  0.15500000000E+01 0.  1.
         -4    1    3    3    0  501  0.45705232695E+02 -0.36702123744E+02  0.52665948605E+02  0.78816995791E+02  0.15500000000E+01 0.  1.
<mgrwt>
<rscale>  2 0.12500035E+03</rscale>
<asrwt>0</asrwt>
<pdfrwt beam="1">  1       21 0.30933596E-01 0.12500035E+03</pdfrwt>
<pdfrwt beam="2">  1       21 0.29888586E-02 0.12500035E+03</pdfrwt>
<totfact> 0.62771318E+06</totfact>
</mgrwt>
</event>
<event>
 5    0  0.1470544E+000  0.1250008E+03  0.7546771E-02  0.1235068E+00
         21   -1    0    0  503  502  0.00000000000E+00  0.00000000000E+00  0.14874140722E+03  0.14874140722E+03  0.00000000000E+00 0.  1.
         21   -1    0    0  502  503 -0.00000000000E+00 -0.00000000000E+00 -0.26262352015E+02  0.26262352015E+02  0.00000000000E+00 0.  1.
         25    2    1    2    0    0  0.00000000000E+00  0.00000000000E+00  0.12247905520E+03  0.17500375923E+03  0.12500078713E+03 0.  0.
          4    1    3    3  501    0 -0.22633565871E+02  0.56924272379E+02  0.44021792862E+02  0.75451784848E+02  0.15500000000E+01 0. -1.
         -4    1    3    3    0  501  0.22633565871E+02 -0.56924272379E+02  0.78457262339E+02  0.99551974384E+02  0.15500000000E+01 0. -1.
<mgrwt>
<rscale>  2 0.12500079E+03</rscale>
<asrwt>0</asrwt>
<pdfrwt beam="1">  1       21 0.22883293E-01 0.12500079E+03</pdfrwt>
<pdfrwt beam="2">  1       21 0.40403619E-02 0.12500079E+03</pdfrwt>
<totfact> 0.67728011E+06</totfact>
</mgrwt>
</event>
<event>
 5    0  0.1258262E+000  0.1249965E+03  0.7546771E-02  0.1235075E+00
         21   -1    0    0  503  502  0.00000000000E+00  0.00000000000E+00  0.56964680286E+01  0.56964680286E+01  0.00000000000E+00 0.  1.
         21   -1    0    0  502  503 -0.00000000000E+00 -0.00000000000E+00 -0.68569364830E+03  0.68569364830E+03  0.00000000000E+00 0.  1.
         25    2    1    2    0    0  0.00000000000E+00  0.00000000000E+00 -0.67999718028E+03  0.69139011633E+03  0.12499651107E+03 0.  0.
          4    1    3    3  501    0  0.15754916473E+02 -0.49885278816E+02 -0.52894415442E+03  0.53152712013E+03  0.15500000000E+01 0.  1.
         -4    1    3    3    0  501 -0.15754916473E+02  0.49885278816E+02 -0.15105302585E+03  0.15986299620E+03  0.15500000000E+01 0.  1.
<mgrwt>
<rscale>  2 0.12499651E+03</rscale>
<asrwt>0</asrwt>
<pdfrwt beam="1">  1       21 0.87638030E-03 0.12499651E+03</pdfrwt>
<pdfrwt beam="2">  1       21 0.10549126E+00 0.12499651E+03</pdfrwt>
<totfact> 0.33247626E+06</totfact>
</mgrwt>
</event>
<event>
 5    0  0.1222151E+000  0.1249906E+03  0.7546771E-02  0.1235084E+00
         21   -1    0    0  503  502  0.00000000000E+00  0.00000000000E+00  0.19124957070E+01  0.19124957070E+01  0.00000000000E+00 0.  1.
         21   -1    0    0  502  503 -0.00000000000E+00 -0.00000000000E+00 -0.20421819915E+04  0.20421819915E+04  0.00000000000E+00 0.  1.
         25    2    1    2    0    0  0.00000000000E+00  0.00000000000E+00 -0.20402694958E+04  0.20440944872E+04  0.12499062832E+03 0.  0.
          4    1    3    3  501    0  0.15904633209E+02  0.59002380337E+02 -0.80751817005E+03  0.80982852241E+03  0.15500000000E+01 0. -1.
         -4    1    3    3    0  501 -0.15904633209E+02 -0.59002380337E+02 -0.12327513257E+04  0.12342659648E+04  0.15500000000E+01 0. -1.
<mgrwt>
<rscale>  2 0.12499063E+03</rscale>
<asrwt>0</asrwt>
<pdfrwt beam="1">  1       21 0.29423118E-03 0.12499063E+03</pdfrwt>
<pdfrwt beam="2">  1       21 0.31418070E+00 0.12499063E+03</pdfrwt>
<totfact> 0.75277991E+05</totfact>
</mgrwt>
</event>
<event>
 5    0  0.1445426E+000  0.1249993E+03  0.7546771E-02  0.1235070E+00
         21   -1    0    0  503  502  0.00000000000E+00  0.00000000000E+00  0.12134304447E+02  0.12134304447E+02  0.00000000000E+00 0. -1.
         21   -1    0    0  502  503 -0.00000000000E+00 -0.00000000000E+00 -0.32191417963E+03  0.32191417963E+03  0.00000000000E+00 0. -1.
         25    2    1    2    0    0  0.00000000000E+00  0.00000000000E+00 -0.30977987518E+03  0.33404848408E+03  0.12499927458E+03 0.  0.
          4    1    3    3  501    0 -0.34799734459E+00  0.47209912249E+02 -0.26425966605E+03  0.26844826414E+03  0.15500000000E+01 0.  1.
         -4    1    3    3    0  501  0.34799734459E+00 -0.47209912249E+02 -0.45520209131E+02  0.65600219939E+02  0.15500000000E+01 0.  1.
<mgrwt>
<rscale>  2 0.12499927E+03</rscale>
<asrwt>0</asrwt>
<pdfrwt beam="1">  1       21 0.18668162E-02 0.12499927E+03</pdfrwt>
<pdfrwt beam="2">  1       21 0.49525254E-01 0.12499927E+03</pdfrwt>
<totfact> 0.52739478E+06</totfact>
</mgrwt>
</event>
<event>
 5    0  0.1425283E+000  0.1250812E+03  0.7546771E-02  0.1234942E+00
         21   -1    0    0  503  502  0.00000000000E+00  0.00000000000E+00  0.26155464752E+02  0.26155464752E+02  0.00000000000E+00 0. -1.
         21   -1    0    0  502  503 -0.00000000000E+00 -0.00000000000E+00 -0.14954143144E+03  0.14954143144E+03  0.00000000000E+00 0. -1.
         25    2    1    2    0    0  0.00000000000E+00  0.00000000000E+00 -0.12338596669E+03  0.17569689619E+03  0.12508118386E+03 0.  0.
          4    1    3    3  501    0 -0.30260286325E+02 -0.34929757122E+02 -0.12084163904E+03  0.12938654136E+03  0.15500000000E+01 0. -1.
         -4    1    3    3    0  501  0.30260286325E+02  0.34929757122E+02 -0.25443276501E+01  0.46310354827E+02  0.15500000000E+01 0. -1.
<mgrwt>
<rscale>  2 0.12508118E+03</rscale>
<asrwt>0</asrwt>
<pdfrwt beam="1">  1       21 0.40239176E-02 0.12508118E+03</pdfrwt>
<pdfrwt beam="2">  1       21 0.23006374E-01 0.12508118E+03</pdfrwt>
<totfact> 0.67509469E+06</totfact>
</mgrwt>
</event>
<event>
 5    0  0.1546311E+000  0.1249990E+03  0.7546771E-02  0.1235071E+00
         21   -1    0    0  503  502  0.00000000000E+00  0.00000000000E+00  0.33452134145E+02  0.33452134145E+02  0.00000000000E+00 0. -1.
         21   -1    0    0  502  503 -0.00000000000E+00 -0.00000000000E+00 -0.11676944982E+03  0.11676944982E+03  0.00000000000E+00 0. -1.
         25    2    1    2    0    0  0.00000000000E+00  0.00000000000E+00 -0.83317315675E+02  0.15022158397E+03  0.12499899679E+03 0.  0.
          4    1    3    3  501    0 -0.28287558156E+02 -0.55619987570E+02 -0.37855280560E+02  0.73001326905E+02  0.15500000000E+01 0. -1.
         -4    1    3    3    0  501  0.28287558156E+02  0.55619987570E+02 -0.45462035115E+02  0.77220257061E+02  0.15500000000E+01 0. -1.
<mgrwt>
<rscale>  2 0.12499900E+03</rscale>
<asrwt>0</asrwt>
<pdfrwt beam="1">  1       21 0.51464821E-02 0.12499900E+03</pdfrwt>
<pdfrwt beam="2">  1       21 0.17964531E-01 0.12499900E+03</pdfrwt>
<totfact> 0.70733183E+06</totfact>
</mgrwt>
</event>
<event>
 5    0  0.1488975E+000  0.1250014E+03  0.7546771E-02  0.1235067E+00
         21   -1    0    0  503  502  0.00000000000E+00  0.00000000000E+00  0.16436562896E+02  0.16436562896E+02  0.00000000000E+00 0. -1.
         21   -1    0    0  502  503 -0.00000000000E+00 -0.00000000000E+00 -0.23766145955E+03  0.23766145955E+03  0.00000000000E+00 0. -1.
         25    2    1    2    0    0  0.00000000000E+00  0.00000000000E+00 -0.22122489665E+03  0.25409802244E+03  0.12500140044E+03 0.  0.
          4    1    3    3  501    0 -0.23101523939E+02  0.23660849313E+02 -0.28488883881E+01  0.33227020083E+02  0.15500000000E+01 0.  1.
         -4    1    3    3    0  501  0.23101523939E+02 -0.23660849313E+02 -0.21837600826E+03  0.22087100236E+03  0.15500000000E+01 0.  1.
<mgrwt>
<rscale>  2 0.12500140E+03</rscale>
<asrwt>0</asrwt>
<pdfrwt beam="1">  1       21 0.25287022E-02 0.12500140E+03</pdfrwt>
<pdfrwt beam="2">  1       21 0.36563299E-01 0.12500140E+03</pdfrwt>
<totfact> 0.59492399E+06</totfact>
</mgrwt>
</event>
<event>
 5    0  0.1222151E+000  0.1249928E+03  0.7546771E-02  0.1235081E+00
         21   -1    0    0  503  502  0.00000000000E+00  0.00000000000E+00  0.52698409613E+01  0.52698409613E+01  0.00000000000E+00 0. -1.
         21   -1    0    0  502  503 -0.00000000000E+00 -0.00000000000E+00 -0.74116056680E+03  0.74116056680E+03  0.00000000000E+00 0. -1.
         25    2    1    2    0    0  0.00000000000E+00  0.00000000000E+00 -0.73589072584E+03  0.74643040776E+03  0.12499277281E+03 0.  0.
          4    1    3    3  501    0 -0.57868966294E+02  0.22796239931E+02 -0.40322948682E+03  0.40800111196E+03  0.15500000000E+01 0.  1.
         -4    1    3    3    0  501  0.57868966294E+02 -0.22796239931E+02 -0.33266123902E+03  0.33842929580E+03  0.15500000000E+01 0.  1.
<mgrwt>
<rscale>  2 0.12499277E+03</rscale>
<asrwt>0</asrwt>
<pdfrwt beam="1">  1       21 0.81074476E-03 0.12499277E+03</pdfrwt>
<pdfrwt beam="2">  1       21 0.11402470E+00 0.12499277E+03</pdfrwt>
<totfact> 0.31200393E+06</totfact>
</mgrwt>
</event>
<event>
 4    0  0.1479766E+000  0.1252680E+03  0.7546771E-02  0.1234651E+00
         21   -1    0    0  503  502  0.00000000000E+00  0.00000000000E+00  0.37599041730E+02  0.37599041730E+02  0.00000000000E+00 0. -1.
         21   -1    0    0  502  503 -0.00000000000E+00 -0.00000000000E+00 -0.10433823013E+03  0.10433823013E+03  0.00000000000E+00 0. -1.
          4    1    1    2  501    0  0.31730368983E+02 -0.34730055208E+02  0.13452646922E+02  0.48952724742E+02  0.15500000000E+01 0.  1.
         -4    1    1    2    0  501 -0.31730368983E+02  0.34730055208E+02 -0.80191835323E+02  0.92984547119E+02  0.15500000000E+01 0.  1.
<mgrwt>
<rscale>  2 0.12526799E+03</rscale>
<asrwt>0</asrwt>
<pdfrwt beam="1">  1       21 0.57844680E-02 0.12526799E+03</pdfrwt>
<pdfrwt beam="2">  1       21 0.16052035E-01 0.12526799E+03</pdfrwt>
<totfact> 0.71299470E+06</totfact>
</mgrwt>
</event>
<event>
 5    0  0.1469309E+000  0.1249596E+03  0.7546771E-02  0.1235132E+00
         21   -1    0    0  503  502  0.00000000000E+00  0.00000000000E+00  0.16667335614E+02  0.16667335614E+02  0.00000000000E+00 0. -1.
         21   -1    0    0  502  503 -0.00000000000E+00 -0.00000000000E+00 -0.23421402466E+03  0.23421402466E+03  0.00000000000E+00 0. -1.
         25    2    1    2    0    0  0.00000000000E+00  0.00000000000E+00 -0.21754668905E+03  0.25088136028E+03  0.12495957353E+03 0.  0.
          4    1    3    3  501    0  0.21524436884E+02  0.51381455482E+02 -0.52059246588E+02  0.76262199063E+02  0.15500000000E+01 0.  1.
         -4    1    3    3    0  501 -0.21524436884E+02 -0.51381455482E+02 -0.16548744246E+03  0.17461916121E+03  0.15500000000E+01 0.  1.
<mgrwt>
<rscale>  2 0.12495957E+03</rscale>
<asrwt>0</asrwt>
<pdfrwt beam="1">  1       21 0.25642058E-02 0.12495957E+03</pdfrwt>
<pdfrwt beam="2">  1       21 0.36032922E-01 0.12495957E+03</pdfrwt>
<totfact> 0.59856283E+06</totfact>
</mgrwt>
</event>
<event>
 5    0  0.1429264E+000  0.1250010E+03  0.7546771E-02  0.1235068E+00
         21   -1    0    0  503  502  0.00000000000E+00  0.00000000000E+00  0.27825602397E+03  0.27825602397E+03  0.00000000000E+00 0. -1.
         21   -1    0    0  502  503 -0.00000000000E+00 -0.00000000000E+00 -0.14038562120E+02  0.14038562120E+02  0.00000000000E+00 0. -1.
         25    2    1    2    0    0  0.00000000000E+00  0.00000000000E+00  0.26421746185E+03  0.29229458609E+03  0.12500103164E+03 0.  0.
          4    1    3    3  501    0  0.46290069545E+02  0.15311520345E+02  0.22347457146E+03  0.22873674777E+03  0.15500000000E+01 0. -1.
         -4    1    3    3    0  501 -0.46290069545E+02 -0.15311520345E+02  0.40742890391E+02  0.63557838315E+02  0.15500000000E+01 0. -1.
<mgrwt>
<rscale>  2 0.12500103E+03</rscale>
<asrwt>0</asrwt>
<pdfrwt beam="1">  1       21 0.42808615E-01 0.12500103E+03</pdfrwt>
<pdfrwt beam="2">  1       21 0.21597790E-02 0.12500103E+03</pdfrwt>
<totfact> 0.56101212E+06</totfact>
</mgrwt>
</event>
<event>
 5    0  0.1396007E+000  0.1250098E+03  0.7546771E-02  0.1235054E+00
         21   -1    0    0  503  502  0.00000000000E+00  0.00000000000E+00  0.22776047246E+03  0.22776047246E+03  0.00000000000E+00 0. -1.
         21   -1    0    0  502  503 -0.00000000000E+00 -0.00000000000E+00 -0.17153381906E+02  0.17153381906E+02  0.00000000000E+00 0. -1.
         25    2    1    2    0    0  0.00000000000E+00  0.00000000000E+00  0.21060709056E+03  0.24491385437E+03  0.12500979749E+03 0.  0.
          4    1    3    3  501    0  0.26955728505E+02 -0.34886227221E+02  0.18550262146E+02  0.47855771592E+02  0.15500000000E+01 0. -1.
         -4    1    3    3    0  501 -0.26955728505E+02  0.34886227221E+02  0.19205682841E+03  0.19705808278E+03  0.15500000000E+01 0. -1.
<mgrwt>
<rscale>  2 0.12500980E+03</rscale>
<asrwt>0</asrwt>
<pdfrwt beam="1">  1       21 0.35040071E-01 0.12500980E+03</pdfrwt>
<pdfrwt beam="2">  1       21 0.26389820E-02 0.12500980E+03</pdfrwt>
<totfact> 0.60345465E+06</totfact>
</mgrwt>
</event>
<event>
 5    0  0.1548811E+000  0.1249958E+03  0.7546771E-02  0.1235076E+00
         21   -1    0    0  503  502  0.00000000000E+00  0.00000000000E+00  0.31984716667E+02  0.31984716667E+02  0.00000000000E+00 0.  1.
         21   -1    0    0  502  503 -0.00000000000E+00 -0.00000000000E+00 -0.12212048913E+03  0.12212048913E+03  0.00000000000E+00 0.  1.
         25    2    1    2    0    0  0.00000000000E+00  0.00000000000E+00 -0.90135772468E+02  0.15410520580E+03  0.12499582784E+03 0.  0.
          4    1    3    3  501    0 -0.50361302716E+02  0.36882203287E+02 -0.41799231979E+02  0.75140774714E+02  0.15500000000E+01 0.  1.
         -4    1    3    3    0  501  0.50361302716E+02 -0.36882203287E+02 -0.48336540488E+02  0.78964431087E+02  0.15500000000E+01 0.  1.
<mgrwt>
<rscale>  2 0.12499583E+03</rscale>
<asrwt>0</asrwt>
<pdfrwt beam="1">  1       21 0.49207256E-02 0.12499583E+03</pdfrwt>
<pdfrwt beam="2">  1       21 0.18787768E-01 0.12499583E+03</pdfrwt>
<totfact> 0.70254497E+06</totfact>
</mgrwt>
</event>
<event>
 5    0  0.1481708E+000  0.1250007E+03  0.7546771E-02  0.1235068E+00
         21   -1    0    0  503  502  0.00000000000E+00  0.00000000000E+00  0.17023944015E+02  0.17023944015E+02  0.00000000000E+00 0. -1.
         21   -1    0    0  502  503 -0.00000000000E+00 -0.00000000000E+00 -0.22945864949E+03  0.22945864949E+03  0.00000000000E+00 0. -1.
         25    2    1    2    0    0  0.00000000000E+00  0.00000000000E+00 -0.21243470547E+03  0.24648259350E+03  0.12500065924E+03 0.  0.
          4    1    3    3  501    0  0.35762249619E+02 -0.49445893690E+02 -0.13267645470E+03  0.14604546905E+03  0.15500000000E+01 0.  1.
         -4    1    3    3    0  501 -0.35762249619E+02  0.49445893690E+02 -0.79758250776E+02  0.10043712445E+03  0.15500000000E+01 0.  1.
<mgrwt>
<rscale>  2 0.12500066E+03</rscale>
<asrwt>0</asrwt>
<pdfrwt beam="1">  1       21 0.26190686E-02 0.12500066E+03</pdfrwt>
<pdfrwt beam="2">  1       21 0.35301326E-01 0.12500066E+03</pdfrwt>
<totfact> 0.60209939E+06</totfact>
</mgrwt>
</event>
<event>
 5    0  0.1222151E+000  0.1250029E+03  0.7546771E-02  0.1235065E+00
         21   -1    0    0  503  502  0.00000000000E+00  0.00000000000E+00  0.46792459357E+01  0.46792459357E+01  0.00000000000E+00 0.  1.
         21   -1    0    0  502  503 -0.00000000000E+00 -0.00000000000E+00 -0.83484262305E+03  0.83484262305E+03  0.00000000000E+00 0.  1.
         25    2    1    2    0    0  0.00000000000E+00  0.00000000000E+00 -0.83016337712E+03  0.83952186899E+03  0.12500294318E+03 0.  0.
          4    1    3    3  501    0 -0.35718527731E+01 -0.51125839763E+02 -0.17504427337E+03  0.18239931404E+03  0.15500000000E+01 0. -1.
         -4    1    3    3    0  501  0.35718527731E+01  0.51125839763E+02 -0.65511910375E+03  0.65712255495E+03  0.15500000000E+01 0. -1.
<mgrwt>
<rscale>  2 0.12500294E+03</rscale>
<asrwt>0</asrwt>
<pdfrwt beam="1">  1       21 0.71988431E-03 0.12500294E+03</pdfrwt>
<pdfrwt beam="2">  1       21 0.12843727E+00 0.12500294E+03</pdfrwt>
<totfact> 0.28092500E+06</totfact>
</mgrwt>
</event>
<event>
 5    0  0.1309455E+000  0.1249932E+03  0.7546771E-02  0.1235080E+00
         21   -1    0    0  503  502  0.00000000000E+00  0.00000000000E+00  0.41839659184E+03  0.41839659184E+03  0.00000000000E+00 0. -1.
         21   -1    0    0  502  503 -0.00000000000E+00 -0.00000000000E+00 -0.93352160584E+01  0.93352160584E+01  0.00000000000E+00 0. -1.
         25    2    1    2    0    0  0.00000000000E+00  0.00000000000E+00  0.40906137578E+03  0.42773180790E+03  0.12499316114E+03 0.  0.
          4    1    3    3  501    0  0.53829516105E+02 -0.13115675527E+02  0.10571824408E+03  0.11936660915E+03  0.15500000000E+01 0. -1.
         -4    1    3    3    0  501 -0.53829516105E+02  0.13115675527E+02  0.30334313170E+03  0.30836519875E+03  0.15500000000E+01 0. -1.
<mgrwt>
<rscale>  2 0.12499316E+03</rscale>
<asrwt>0</asrwt>
<pdfrwt beam="1">  1       21 0.64368692E-01 0.12499316E+03</pdfrwt>
<pdfrwt beam="2">  1       21 0.14361874E-02 0.12499316E+03</pdfrwt>
<totfact> 0.46262633E+06</totfact>
</mgrwt>
</event>
<event>
 5    0  0.1489194E+000  0.1250041E+03  0.7546771E-02  0.1235063E+00
         21   -1    0    0  503  502  0.00000000000E+00  0.00000000000E+00  0.15008603869E+02  0.15008603869E+02  0.00000000000E+00 0. -1.
         21   -1    0    0  502  503 -0.00000000000E+00 -0.00000000000E+00 -0.26028453418E+03  0.26028453418E+03  0.00000000000E+00 0. -1.
         25    2    1    2    0    0  0.00000000000E+00  0.00000000000E+00 -0.24527593031E+03  0.27529313804E+03  0.12500411940E+03 0.  0.
          4    1    3    3  501    0 -0.48061584443E+02  0.22511301494E+02 -0.50015365573E+02  0.72942538258E+02  0.15500000000E+01 0. -1.
         -4    1    3    3    0  501  0.48061584443E+02 -0.22511301494E+02 -0.19526056473E+03  0.20235059979E+03  0.15500000000E+01 0. -1.
<mgrwt>
<rscale>  2 0.12500412E+03</rscale>
<asrwt>0</asrwt>
<pdfrwt beam="1">  1       21 0.23090161E-02 0.12500412E+03</pdfrwt>
<pdfrwt beam="2">  1       21 0.40043772E-01 0.12500412E+03</pdfrwt>
<totfact> 0.57568044E+06</totfact>
</mgrwt>
</event>
<event>
 5    0  0.1542072E+000  0.1249991E+03  0.7546771E-02  0.1235071E+00
         21   -1    0    0  503  502  0.00000000000E+00  0.00000000000E+00  0.68712284993E+02  0.68712284993E+02  0.00000000000E+00 0.  1.
         21   -1    0    0  502  503 -0.00000000000E+00 -0.00000000000E+00 -0.56848535036E+02  0.56848535036E+02  0.00000000000E+00 0.  1.
         25    2    1    2    0    0  0.00000000000E+00  0.00000000000E+00  0.11863749957E+02  0.12556082003E+03  0.12499908385E+03 0.  0.
          4    1    3    3  501    0 -0.61248496225E+02  0.19933105765E+01 -0.63064176029E+01  0.61624061696E+02  0.15500000000E+01 0.  1.
         -4    1    3    3    0  501  0.61248496225E+02 -0.19933105765E+01  0.18170167560E+02  0.63936758333E+02  0.15500000000E+01 0.  1.
<mgrwt>
<rscale>  2 0.12499908E+03</rscale>
<asrwt>0</asrwt>
<pdfrwt beam="1">  1       21 0.10571121E-01 0.12499908E+03</pdfrwt>
<pdfrwt beam="2">  1       21 0.87459284E-02 0.12499908E+03</pdfrwt>
<totfact> 0.73968631E+06</totfact>
</mgrwt>
</event>
<event>
 5    0  0.1343028E+000  0.1249983E+03  0.7546771E-02  0.1235072E+00
         21   -1    0    0  503  502  0.00000000000E+00  0.00000000000E+00  0.48917925630E+03  0.48917925630E+03  0.00000000000E+00 0. -1.
         21   -1    0    0  502  503 -0.00000000000E+00 -0.00000000000E+00 -0.79851024703E+01  0.79851024703E+01  0.00000000000E+00 0. -1.
         25    2    1    2    0    0  0.00000000000E+00  0.00000000000E+00  0.48119415383E+03  0.49716435877E+03  0.12499834380E+03 0.  0.
          4    1    3    3  501    0  0.40690486586E+02 -0.48303328895E+01  0.42819632015E+03  0.43015524977E+03  0.15500000000E+01 0.  1.
         -4    1    3    3    0  501 -0.40690486586E+02  0.48303328895E+01  0.52997833682E+02  0.67009109003E+02  0.15500000000E+01 0.  1.
<mgrwt>
<rscale>  2 0.12499834E+03</rscale>
<asrwt>0</asrwt>
<pdfrwt beam="1">  1       21 0.75258324E-01 0.12499834E+03</pdfrwt>
<pdfrwt beam="2">  1       21 0.12284777E-02 0.12499834E+03</pdfrwt>
<totfact> 0.42200021E+06</totfact>
</mgrwt>
</event>
<event>
 5    0  0.1537207E+000  0.1250038E+03  0.7546771E-02  0.1235063E+00
         21   -1    0    0  503  502  0.00000000000E+00  0.00000000000E+00  0.12847718595E+03  0.12847718595E+03  0.00000000000E+00 0.  1.
         21   -1    0    0  502  503 -0.00000000000E+00 -0.00000000000E+00 -0.30406094915E+02  0.30406094915E+02  0.00000000000E+00 0.  1.
         25    2    1    2    0    0  0.00000000000E+00  0.00000000000E+00  0.98071091033E+02  0.15888328086E+03  0.12500383211E+03 0.  0.
          4    1    3    3  501    0  0.35770384353E+02  0.18762083138E+02  0.10962704177E+03  0.11684188867E+03  0.15500000000E+01 0. -1.
         -4    1    3    3    0  501 -0.35770384353E+02 -0.18762083138E+02 -0.11555950736E+02  0.42041392196E+02  0.15500000000E+01 0. -1.
<mgrwt>
<rscale>  2 0.12500383E+03</rscale>
<asrwt>0</asrwt>
<pdfrwt beam="1">  1       21 0.19765721E-01 0.12500383E+03</pdfrwt>
<pdfrwt beam="2">  1       21 0.46778608E-02 0.12500383E+03</pdfrwt>
<totfact> 0.69649418E+06</totfact>
</mgrwt>
</event>
<event>
 5    0  0.1467769E+000  0.1250034E+03  0.7546771E-02  0.1235064E+00
         21   -1    0    0  503  502  0.00000000000E+00  0.00000000000E+00  0.14375113474E+02  0.14375113474E+02  0.00000000000E+00 0. -1.
         21   -1    0    0  502  503 -0.00000000000E+00 -0.00000000000E+00 -0.27175166308E+03  0.27175166308E+03  0.00000000000E+00 0. -1.
         25    2    1    2    0    0  0.00000000000E+00  0.00000000000E+00 -0.25737654961E+03  0.28612677655E+03  0.12500337585E+03 0.  0.
          4    1    3    3  501    0 -0.53596650664E+02  0.13474951170E+02 -0.61959002577E+02  0.83039121935E+02  0.15500000000E+01 0. -1.
         -4    1    3    3    0  501  0.53596650664E+02 -0.13474951170E+02 -0.19541754703E+03  0.20308765462E+03  0.15500000000E+01 0. -1.
<mgrwt>
<rscale>  2 0.12500338E+03</rscale>
<asrwt>0</asrwt>
<pdfrwt beam="1">  1       21 0.22115557E-02 0.12500338E+03</pdfrwt>
<pdfrwt beam="2">  1       21 0.41807952E-01 0.12500338E+03</pdfrwt>
<totfact> 0.56624357E+06</totfact>
</mgrwt>
</event>
<event>
 5    0  0.1434671E+000  0.1250004E+03  0.7546771E-02  0.1235069E+00
         21   -1    0    0  503  502  0.00000000000E+00  0.00000000000E+00  0.30099015306E+03  0.30099015306E+03  0.00000000000E+00 0.  1.
         21   -1    0    0  502  503 -0.00000000000E+00 -0.00000000000E+00 -0.12978073725E+02  0.12978073725E+02  0.00000000000E+00 0.  1.
         25    2    1    2    0    0  0.00000000000E+00  0.00000000000E+00  0.28801207933E+03  0.31396822678E+03  0.12500035835E+03 0.  0.
          4    1    3    3  501    0  0.13788662096E+02 -0.59181566030E+02  0.18051577713E+03  0.19047554502E+03  0.15500000000E+01 0. -1.
         -4    1    3    3    0  501 -0.13788662096E+02  0.59181566030E+02  0.10749630220E+03  0.12349268176E+03  0.15500000000E+01 0. -1.
<mgrwt>
<rscale>  2 0.12500036E+03</rscale>
<asrwt>0</asrwt>
<pdfrwt beam="1">  1       21 0.46306172E-01 0.12500036E+03</pdfrwt>
<pdfrwt beam="2">  1       21 0.19966270E-02 0.12500036E+03</pdfrwt>
<totfact> 0.54314332E+06</totfact>
</mgrwt>
</event>
<event>
 5    0  0.1360343E+000  0.1249928E+03  0.7546771E-02  0.1235081E+00
         21   -1    0    0  503  502  0.00000000000E+00  0.00000000000E+00  0.11285263801E+02  0.11285263801E+02  0.00000000000E+00 0. -1.
         21   -1    0    0  502  503 -0.00000000000E+00 -0.00000000000E+00 -0.34609736062E+03  0.34609736062E+03  0.00000000000E+00 0. -1.
         25    2    1    2    0    0  0.00000000000E+00  0.00000000000E+00 -0.33481209682E+03  0.35738262442E+03  0.12499280004E+03 0.  0.
          4    1    3    3  501    0  0.54180421585E+02  0.12948217783E+02 -0.86523658459E+02  0.10291705592E+03  0.15500000000E+01 0.  1.
         -4    1    3    3    0  501 -0.54180421585E+02 -0.12948217783E+02 -0.24828843836E+03  0.25446556849E+03  0.15500000000E+01 0.  1.
<mgrwt>
<rscale>  2 0.12499280E+03</rscale>
<asrwt>0</asrwt>
<pdfrwt beam="1">  1       21 0.17361945E-02 0.12499280E+03</pdfrwt>
<pdfrwt beam="2">  1       21 0.53245746E-01 0.12499280E+03</pdfrwt>
<totfact> 0.51006981E+06</totfact>
</mgrwt>
</event>
<event>
 5    0  0.1307627E+000  0.1250006E+03  0.7546771E-02  0.1235068E+00
         21   -1    0    0  503  502  0.00000000000E+00  0.00000000000E+00  0.41653592297E+03  0.41653592297E+03  0.00000000000E+00 0.  1.
         21   -1    0    0  502  503 -0.00000000000E+00 -0.00000000000E+00 -0.93780344781E+01  0.93780344781E+01  0.00000000000E+00 0.  1.
         25    2    1    2    0    0  0.00000000000E+00  0.00000000000E+00  0.40715788849E+03  0.42591395744E+03  0.12500061195E+03 0.  0.
          4    1    3    3  501    0  0.15230501286E+02  0.42046785078E+02  0.54902712578E+02  0.70828035785E+02  0.15500000000E+01 0. -1.
         -4    1    3    3    0  501 -0.15230501286E+02 -0.42046785078E+02  0.35225517591E+03  0.35508592166E+03  0.15500000000E+01 0. -1.
<mgrwt>
<rscale>  2 0.12500061E+03</rscale>
<asrwt>0</asrwt>
<pdfrwt beam="1">  1       21 0.64082435E-01 0.12500061E+03</pdfrwt>
<pdfrwt beam="2">  1       21 0.14427749E-02 0.12500061E+03</pdfrwt>
<totfact> 0.46367996E+06</totfact>
</mgrwt>
</event>
<event>
 5    0  0.1222151E+000  0.1250003E+03  0.7546771E-02  0.1235069E+00
         21   -1    0    0  503  502  0.00000000000E+00  0.00000000000E+00  0.74158386892E+03  0.74158386892E+03  0.00000000000E+00 0. -1.
         21   -1    0    0  502  503 -0.00000000000E+00 -0.00000000000E+00 -0.52674656528E+01  0.52674656528E+01  0.00000000000E+00 0. -1.
         25    2    1    2    0    0  0.00000000000E+00  0.00000000000E+00  0.73631640327E+03  0.74685133457E+03  0.12500028093E+03 0.  0.
          4    1    3    3  501    0  0.33198473120E+02 -0.33721235430E+02  0.12438905699E+03  0.13309508006E+03  0.15500000000E+01 0. -1.
         -4    1    3    3    0  501 -0.33198473120E+02  0.33721235430E+02  0.61192734628E+03  0.61375625451E+03  0.15500000000E+01 0. -1.
<mgrwt>
<rscale>  2 0.12500028E+03</rscale>
<asrwt>0</asrwt>
<pdfrwt beam="1">  1       21 0.11408974E+00 0.12500028E+03</pdfrwt>
<pdfrwt beam="2">  1       21 0.81037992E-03 0.12500028E+03</pdfrwt>
<totfact> 0.31179714E+06</totfact>
</mgrwt>
</event>
<event>
 5    0  0.1459797E+000  0.1250004E+03  0.7546771E-02  0.1235069E+00
         21   -1    0    0  503  502  0.00000000000E+00  0.00000000000E+00  0.35873396841E+02  0.35873396841E+02  0.00000000000E+00 0. -1.
         21   -1    0    0  502  503 -0.00000000000E+00 -0.00000000000E+00 -0.10889049776E+03  0.10889049776E+03  0.00000000000E+00 0. -1.
         25    2    1    2    0    0  0.00000000000E+00  0.00000000000E+00 -0.73017100919E+02  0.14476389460E+03  0.12500035261E+03 0.  0.
          4    1    3    3  501    0  0.32506879092E+02 -0.38029087549E+02  0.68387463919E+01  0.50518112002E+02  0.15500000000E+01 0.  1.
         -4    1    3    3    0  501 -0.32506879092E+02  0.38029087549E+02 -0.79855847311E+02  0.94245782600E+02  0.15500000000E+01 0.  1.
<mgrwt>
<rscale>  2 0.12500035E+03</rscale>
<asrwt>0</asrwt>
<pdfrwt beam="1">  1       21 0.55189842E-02 0.12500035E+03</pdfrwt>
<pdfrwt beam="2">  1       21 0.16752384E-01 0.12500035E+03</pdfrwt>
<totfact> 0.71422687E+06</totfact>
</mgrwt>
</event>
<event>
 5    0  0.1343144E+000  0.1249965E+03  0.7546771E-02  0.1235075E+00
         21   -1    0    0  503  502  0.00000000000E+00  0.00000000000E+00  0.58171952267E+03  0.58171952267E+03  0.00000000000E+00 0.  1.
         21   -1    0    0  502  503 -0.00000000000E+00 -0.00000000000E+00 -0.67146331794E+01  0.67146331794E+01  0.00000000000E+00 0.  1.
         25    2    1    2    0    0  0.00000000000E+00  0.00000000000E+00  0.57500488949E+03  0.58843415585E+03  0.12499653128E+03 0.  0.
          4    1    3    3  501    0  0.79234326737E+01  0.60445205283E+02  0.35191703454E+03  0.35716159553E+03  0.15500000000E+01 0. -1.
         -4    1    3    3    0  501 -0.79234326737E+01 -0.60445205283E+02  0.22308785496E+03  0.23127256032E+03  0.15500000000E+01 0. -1.
<mgrwt>
<rscale>  2 0.12499653E+03</rscale>
<asrwt>0</asrwt>
<pdfrwt beam="1">  1       21 0.89495271E-01 0.12499653E+03</pdfrwt>
<pdfrwt beam="2">  1       21 0.10330210E-02 0.12499653E+03</pdfrwt>
<totfact> 0.37624213E+06</totfact>
</mgrwt>
</event>
<event>
 5    0  0.1222151E+000  0.1249993E+03  0.7546771E-02  0.1235070E+00
         21   -1    0    0  503  502  0.00000000000E+00  0.00000000000E+00  0.11872195466E+04  0.11872195466E+04  0.00000000000E+00 0.  1.
         21   -1    0    0  502  503 -0.00000000000E+00 -0.00000000000E+00 -0.32902133325E+01  0.32902133325E+01  0.00000000000E+00 0.  1.
         25    2    1    2    0    0  0.00000000000E+00  0.00000000000E+00  0.11839293332E+04  0.11905097599E+04  0.12499928929E+03 0.  0.
          4    1    3    3  501    0  0.57768551104E+02 -0.22876201473E+02  0.65461940789E+03  0.65756330324E+03  0.15500000000E+01 0.  1.
         -4    1    3    3    0  501 -0.57768551104E+02  0.22876201473E+02  0.52930992534E+03  0.53294645665E+03  0.15500000000E+01 0.  1.
<mgrwt>
<rscale>  2 0.12499929E+03</rscale>
<asrwt>0</asrwt>
<pdfrwt beam="1">  1       21 0.18264882E+00 0.12499929E+03</pdfrwt>
<pdfrwt beam="2">  1       21 0.50618761E-03 0.12499929E+03</pdfrwt>
<totfact> 0.19333908E+06</totfact>
</mgrwt>
</event>
<event>
 5    0  0.1700423E+000  0.1250072E+03  0.7546771E-02  0.1235058E+00
         21   -1    0    0  503  502  0.00000000000E+00  0.00000000000E+00  0.99716909117E+02  0.99716909117E+02  0.00000000000E+00 0. -1.
         21   -1    0    0  502  503 -0.00000000000E+00 -0.00000000000E+00 -0.39177881412E+02  0.39177881412E+02  0.00000000000E+00 0. -1.
         25    2    1    2    0    0  0.00000000000E+00  0.00000000000E+00  0.60539027706E+02  0.13889479053E+03  0.12500715564E+03 0.  0.
          4    1    3    3  501    0 -0.46395863114E+02 -0.46347453919E-01  0.76772730178E+02  0.89716402409E+02  0.15500000000E+01 0.  1.
         -4    1    3    3    0  501  0.46395863114E+02  0.46347453919E-01 -0.16233702473E+02  0.49178388120E+02  0.15500000000E+01 0.  1.
<mgrwt>
<rscale>  2 0.12500716E+03</rscale>
<asrwt>0</asrwt>
<pdfrwt beam="1">  1       21 0.15341063E-01 0.12500716E+03</pdfrwt>
<pdfrwt beam="2">  1       21 0.60273664E-02 0.12500716E+03</pdfrwt>
<totfact> 0.72170762E+06</totfact>
</mgrwt>
</event>
<event>
 5    0  0.1222151E+000  0.1250057E+03  0.7546771E-02  0.1235060E+00
         21   -1    0    0  503  502  0.00000000000E+00  0.00000000000E+00  0.11984026395E+03  0.11984026395E+03  0.00000000000E+00 0. -1.
         21   -1    0    0  502  503 -0.00000000000E+00 -0.00000000000E+00 -0.32598460088E+02  0.32598460088E+02  0.00000000000E+00 0. -1.
         25    2    1    2    0    0  0.00000000000E+00  0.00000000000E+00  0.87241803865E+02  0.15243872404E+03  0.12500572885E+03 0.  0.
          4    1    3    3  501    0 -0.18860342360E+02  0.13009635646E+02  0.11450928379E+03  0.11678930476E+03  0.15500000000E+01 0. -1.
         -4    1    3    3    0  501  0.18860342360E+02 -0.13009635646E+02 -0.27267479922E+02  0.35649419279E+02  0.15500000000E+01 0. -1.
<mgrwt>
<rscale>  2 0.12500573E+03</rscale>
<asrwt>0</asrwt>
<pdfrwt beam="1">  1       21 0.18436963E-01 0.12500573E+03</pdfrwt>
<pdfrwt beam="2">  1       21 0.50151478E-02 0.12500573E+03</pdfrwt>
<totfact> 0.70443910E+06</totfact>
</mgrwt>
</event>
<event>
 5    0  0.1566944E+000  0.1249844E+03  0.7546771E-02  0.1235094E+00
         21   -1    0    0  503  502  0.00000000000E+00  0.00000000000E+00  0.26260479181E+02  0.26260479181E+02  0.00000000000E+00 0.  1.
         21   -1    0    0  502  503 -0.00000000000E+00 -0.00000000000E+00 -0.14871298862E+03  0.14871298862E+03  0.00000000000E+00 0.  1.
         25    2    1    2    0    0  0.00000000000E+00  0.00000000000E+00 -0.12245250944E+03  0.17497346780E+03  0.12498438849E+03 0.  0.
          4    1    3    3  501    0  0.57289795863E+02 -0.22681146294E+02 -0.75661269862E+02  0.97588858813E+02  0.15500000000E+01 0.  1.
         -4    1    3    3    0  501 -0.57289795863E+02  0.22681146294E+02 -0.46791239577E+02  0.77384608989E+02  0.15500000000E+01 0.  1.
<mgrwt>
<rscale>  2 0.12498439E+03</rscale>
<asrwt>0</asrwt>
<pdfrwt beam="1">  1       21 0.40400737E-02 0.12498439E+03</pdfrwt>
<pdfrwt beam="2">  1       21 0.22878921E-01 0.12498439E+03</pdfrwt>
<totfact> 0.67759734E+06</totfact>
</mgrwt>
</event>
<event>
 5    0  0.1674668E+000  0.1249983E+03  0.7546771E-02  0.1235072E+00
         21   -1    0    0  503  502  0.00000000000E+00  0.00000000000E+00  0.70049540617E+02  0.70049540617E+02  0.00000000000E+00 0. -1.
         21   -1    0    0  502  503 -0.00000000000E+00 -0.00000000000E+00 -0.55762632351E+02  0.55762632351E+02  0.00000000000E+00 0. -1.
         25    2    1    2    0    0  0.00000000000E+00  0.00000000000E+00  0.14286908266E+02  0.12581217297E+03  0.12499834847E+03 0.  0.
          4    1    3    3  501    0  0.34482207435E+01  0.62266583261E+02  0.32809357842E+01  0.62467468789E+02  0.15500000000E+01 0.  1.
         -4    1    3    3    0  501 -0.34482207435E+01 -0.62266583261E+02  0.11005972482E+02  0.63344704179E+02  0.15500000000E+01 0.  1.
<mgrwt>
<rscale>  2 0.12499835E+03</rscale>
<asrwt>0</asrwt>
<pdfrwt beam="1">  1       21 0.10776852E-01 0.12499835E+03</pdfrwt>
<pdfrwt beam="2">  1       21 0.85788665E-02 0.12499835E+03</pdfrwt>
<totfact> 0.73935101E+06</totfact>
</mgrwt>
</event>
<event>
 5    0  0.1419075E+000  0.1250052E+03  0.7546771E-02  0.1235061E+00
         21   -1    0    0  503  502  0.00000000000E+00  0.00000000000E+00  0.71378489585E+02  0.71378489585E+02  0.00000000000E+00 0.  1.
         21   -1    0    0  502  503 -0.00000000000E+00 -0.00000000000E+00 -0.54730401553E+02  0.54730401553E+02  0.00000000000E+00 0.  1.
         25    2    1    2    0    0  0.00000000000E+00  0.00000000000E+00  0.16648088032E+02  0.12610889114E+03  0.12500517425E+03 0.  0.
          4    1    3    3  501    0  0.42989244661E+02 -0.11180491940E+02 -0.36008151288E+02  0.57201993109E+02  0.15500000000E+01 0.  1.
         -4    1    3    3    0  501 -0.42989244661E+02  0.11180491940E+02  0.52656239320E+02  0.68906898028E+02  0.15500000000E+01 0.  1.
<mgrwt>
<rscale>  2 0.12500517E+03</rscale>
<asrwt>0</asrwt>
<pdfrwt beam="1">  1       21 0.10981306E-01 0.12500517E+03</pdfrwt>
<pdfrwt beam="2">  1       21 0.84200617E-02 0.12500517E+03</pdfrwt>
<totfact> 0.73881285E+06</totfact>
</mgrwt>
</event>
<event>
 5    0  0.1356268E+000  0.1249883E+03  0.7546771E-02  0.1235088E+00
         21   -1    0    0  503  502  0.00000000000E+00  0.00000000000E+00  0.87631492784E+01  0.87631492784E+01  0.00000000000E+00 0.  1.
         21   -1    0    0  502  503 -0.00000000000E+00 -0.00000000000E+00 -0.44567503439E+03  0.44567503439E+03  0.00000000000E+00 0.  1.
         25    2    1    2    0    0  0.00000000000E+00  0.00000000000E+00 -0.43691188511E+03  0.45443818366E+03  0.12498826915E+03 0.  0.
          4    1    3    3  501    0 -0.63558727897E+01  0.46744456503E+02 -0.36737806666E+03  0.37039774256E+03  0.15500000000E+01 0. -1.
         -4    1    3    3    0  501  0.63558727897E+01 -0.46744456503E+02 -0.69533818446E+02  0.84040441101E+02  0.15500000000E+01 0. -1.
<mgrwt>
<rscale>  2 0.12498827E+03</rscale>
<asrwt>0</asrwt>
<pdfrwt beam="1">  1       21 0.13481771E-02 0.12498827E+03</pdfrwt>
<pdfrwt beam="2">  1       21 0.68565373E-01 0.12498827E+03</pdfrwt>
<totfact> 0.44640947E+06</totfact>
</mgrwt>
</event>
<event>
 4    0  0.1934110E+000  0.1248887E+03  0.7546771E-02  0.1235243E+00
         21   -1    0    0  503  502  0.00000000000E+00  0.00000000000E+00  0.10363172493E+03  0.10363172493E+03  0.00000000000E+00 0.  1.
         21   -1    0    0  502  503 -0.00000000000E+00 -0.00000000000E+00 -0.37626460442E+02  0.37626460442E+02  0.00000000000E+00 0.  1.
          4    1    1    2  501    0  0.45969336779E+02  0.42213804818E+02  0.31524749067E+02  0.69938526899E+02  0.15500000000E+01 0.  1.
         -4    1    1    2    0  501 -0.45969336779E+02 -0.42213804818E+02  0.34480515420E+02  0.71319658473E+02  0.15500000000E+01 0.  1.
<mgrwt>
<rscale>  2 0.12488867E+03</rscale>
<asrwt>0</asrwt>
<pdfrwt beam="1">  1       21 0.15943342E-01 0.12488867E+03</pdfrwt>
<pdfrwt beam="2">  1       21 0.57886863E-02 0.12488867E+03</pdfrwt>
<totfact> 0.72079694E+06</totfact>
</mgrwt>
</event>
<event>
 5    0  0.1662640E+000  0.1249955E+03  0.7546771E-02  0.1235076E+00
         21   -1    0    0  503  502  0.00000000000E+00  0.00000000000E+00  0.32563500868E+02  0.32563500868E+02  0.00000000000E+00 0. -1.
         21   -1    0    0  502  503 -0.00000000000E+00 -0.00000000000E+00 -0.11994937323E+03  0.11994937323E+03  0.00000000000E+00 0. -1.
         25    2    1    2    0    0  0.00000000000E+00  0.00000000000E+00 -0.87385872363E+02  0.15251287410E+03  0.12499554423E+03 0.  0.
          4    1    3    3  501    0 -0.47880178706E+02  0.38849932642E+02 -0.31385761838E+02  0.69204749298E+02  0.15500000000E+01 0.  1.
         -4    1    3    3    0  501  0.47880178706E+02 -0.38849932642E+02 -0.56000110524E+02  0.83308124802E+02  0.15500000000E+01 0.  1.
<mgrwt>
<rscale>  2 0.12499554E+03</rscale>
<asrwt>0</asrwt>
<pdfrwt beam="1">  1       21 0.50097693E-02 0.12499554E+03</pdfrwt>
<pdfrwt beam="2">  1       21 0.18453750E-01 0.12499554E+03</pdfrwt>
<totfact> 0.70452936E+06</totfact>
</mgrwt>
</event>
<event>
 5    0  0.1365155E+000  0.1250063E+03  0.7546771E-02  0.1235059E+00
         21   -1    0    0  503  502  0.00000000000E+00  0.00000000000E+00  0.87186623892E+01  0.87186623892E+01  0.00000000000E+00 0. -1.
         21   -1    0    0  502  503 -0.00000000000E+00 -0.00000000000E+00 -0.44807805688E+03  0.44807805688E+03  0.00000000000E+00 0. -1.
         25    2    1    2    0    0  0.00000000000E+00  0.00000000000E+00 -0.43935939449E+03  0.45679671927E+03  0.12500626067E+03 0.  0.
          4    1    3    3  501    0 -0.38007608307E+02 -0.44239408863E+02 -0.13776261737E+03  0.14960830468E+03  0.15500000000E+01 0.  1.
         -4    1    3    3    0  501  0.38007608307E+02  0.44239408863E+02 -0.30159677712E+03  0.30718841459E+03  0.15500000000E+01 0.  1.
<mgrwt>
<rscale>  2 0.12500626E+03</rscale>
<asrwt>0</asrwt>
<pdfrwt beam="1">  1       21 0.13413321E-02 0.12500626E+03</pdfrwt>
<pdfrwt beam="2">  1       21 0.68935115E-01 0.12500626E+03</pdfrwt>
<totfact> 0.44481387E+06</totfact>
</mgrwt>
</event>
<event>
 5    0  0.1384124E+000  0.1249985E+03  0.7546771E-02  0.1235072E+00
         21   -1    0    0  503  502  0.00000000000E+00  0.00000000000E+00  0.12802782006E+02  0.12802782006E+02  0.00000000000E+00 0.  1.
         21   -1    0    0  502  503 -0.00000000000E+00 -0.00000000000E+00 -0.30510219431E+03  0.30510219431E+03  0.00000000000E+00 0.  1.
         25    2    1    2    0    0  0.00000000000E+00  0.00000000000E+00 -0.29229941230E+03  0.31790497631E+03  0.12499851012E+03 0.  0.
          4    1    3    3  501    0 -0.42337546484E+02 -0.19925977051E+02 -0.40849662149E+02  0.62133805625E+02  0.15500000000E+01 0. -1.
         -4    1    3    3    0  501  0.42337546484E+02  0.19925977051E+02 -0.25144975015E+03  0.25577117069E+03  0.15500000000E+01 0. -1.
<mgrwt>
<rscale>  2 0.12499851E+03</rscale>
<asrwt>0</asrwt>
<pdfrwt beam="1">  1       21 0.19696588E-02 0.12499851E+03</pdfrwt>
<pdfrwt beam="2">  1       21 0.46938798E-01 0.12499851E+03</pdfrwt>
<totfact> 0.54001800E+06</totfact>
</mgrwt>
</event>
<event>
 5    0  0.1222151E+000  0.1250016E+03  0.7546771E-02  0.1235067E+00
         21   -1    0    0  503  502  0.00000000000E+00  0.00000000000E+00  0.40821042622E+01  0.40821042622E+01  0.00000000000E+00 0. -1.
         21   -1    0    0  502  503 -0.00000000000E+00 -0.00000000000E+00 -0.95694578348E+03  0.95694578348E+03  0.00000000000E+00 0. -1.
         25    2    1    2    0    0  0.00000000000E+00  0.00000000000E+00 -0.95286367922E+03  0.96102788774E+03  0.12500163937E+03 0.  0.
          4    1    3    3  501    0  0.11803463525E+02 -0.42269228846E+02 -0.13450995888E+03  0.14149678794E+03  0.15500000000E+01 0.  1.
         -4    1    3    3    0  501 -0.11803463525E+02  0.42269228846E+02 -0.81835372033E+03  0.81953109980E+03  0.15500000000E+01 0.  1.
<mgrwt>
<rscale>  2 0.12500164E+03</rscale>
<asrwt>0</asrwt>
<pdfrwt beam="1">  1       21 0.62801615E-03 0.12500164E+03</pdfrwt>
<pdfrwt beam="2">  1       21 0.14722240E+00 0.12500164E+03</pdfrwt>
<totfact> 0.24617459E+06</totfact>
</mgrwt>
</event>
<event>
 5    0  0.1341897E+000  0.1250017E+03  0.7546771E-02  0.1235067E+00
         21   -1    0    0  503  502  0.00000000000E+00  0.00000000000E+00  0.29337737993E+03  0.29337737993E+03  0.00000000000E+00 0.  1.
         21   -1    0    0  502  503 -0.00000000000E+00 -0.00000000000E+00 -0.13315116216E+02  0.13315116216E+02  0.00000000000E+00 0.  1.
         25    2    1    2    0    0  0.00000000000E+00  0.00000000000E+00  0.28006226371E+03  0.30669249614E+03  0.12500166253E+03 0.  0.
          4    1    3    3  501    0 -0.49822765090E+02 -0.83990289670E+01  0.23021546034E+03  0.23569983515E+03  0.15500000000E+01 0.  1.
         -4    1    3    3    0  501  0.49822765090E+02  0.83990289670E+01  0.49846803369E+02  0.70992660993E+02  0.15500000000E+01 0.  1.
<mgrwt>
<rscale>  2 0.12500166E+03</rscale>
<asrwt>0</asrwt>
<pdfrwt beam="1">  1       21 0.45134977E-01 0.12500166E+03</pdfrwt>
<pdfrwt beam="2">  1       21 0.20484796E-02 0.12500166E+03</pdfrwt>
<totfact> 0.54902257E+06</totfact>
</mgrwt>
</event>
<event>
 5    0  0.1222151E+000  0.1249992E+03  0.7546771E-02  0.1235071E+00
         21   -1    0    0  503  502  0.00000000000E+00  0.00000000000E+00  0.68477630060E+03  0.68477630060E+03  0.00000000000E+00 0. -1.
         21   -1    0    0  502  503 -0.00000000000E+00 -0.00000000000E+00 -0.57043454119E+01  0.57043454119E+01  0.00000000000E+00 0. -1.
         25    2    1    2    0    0  0.00000000000E+00  0.00000000000E+00  0.67907195519E+03  0.69048064601E+03  0.12499920877E+03 0.  0.
          4    1    3    3  501    0  0.49995220761E+02 -0.60328018251E+01  0.54383601422E+03  0.54616474589E+03  0.15500000000E+01 0. -1.
         -4    1    3    3    0  501 -0.49995220761E+02  0.60328018251E+01  0.13523594097E+03  0.14431590012E+03  0.15500000000E+01 0. -1.
<mgrwt>
<rscale>  2 0.12499921E+03</rscale>
<asrwt>0</asrwt>
<pdfrwt beam="1">  1       21 0.10535014E+00 0.12499921E+03</pdfrwt>
<pdfrwt beam="2">  1       21 0.87759214E-03 0.12499921E+03</pdfrwt>
<totfact> 0.33281055E+06</totfact>
</mgrwt>
</event>
<event>
 5    0  0.1251629E+000  0.1250040E+03  0.7546771E-02  0.1235063E+00
         21   -1    0    0  503  502  0.00000000000E+00  0.00000000000E+00  0.71173045233E+03  0.71173045233E+03  0.00000000000E+00 0.  1.
         21   -1    0    0  502  503 -0.00000000000E+00 -0.00000000000E+00 -0.54887334285E+01  0.54887334285E+01  0.00000000000E+00 0.  1.
         25    2    1    2    0    0  0.00000000000E+00  0.00000000000E+00  0.70624171890E+03  0.71721918576E+03  0.12500397955E+03 0.  0.
          4    1    3    3  501    0  0.24023907028E+02  0.33057987814E+02  0.62431547981E+03  0.62565341804E+03  0.15500000000E+01 0. -1.
         -4    1    3    3    0  501 -0.24023907028E+02 -0.33057987814E+02  0.81926239087E+02  0.91565767720E+02  0.15500000000E+01 0. -1.
<mgrwt>
<rscale>  2 0.12500398E+03</rscale>
<asrwt>0</asrwt>
<pdfrwt beam="1">  1       21 0.10949692E+00 0.12500398E+03</pdfrwt>
<pdfrwt beam="2">  1       21 0.84442109E-03 0.12500398E+03</pdfrwt>
<totfact> 0.32253604E+06</totfact>
</mgrwt>
</event>
<event>
 5    0  0.1342075E+000  0.1250038E+03  0.7546771E-02  0.1235063E+00
         21   -1    0    0  503  502  0.00000000000E+00  0.00000000000E+00  0.57463099141E+03  0.57463099141E+03  0.00000000000E+00 0. -1.
         21   -1    0    0  502  503 -0.00000000000E+00 -0.00000000000E+00 -0.67982515368E+01  0.67982515368E+01  0.00000000000E+00 0. -1.
         25    2    1    2    0    0  0.00000000000E+00  0.00000000000E+00  0.56783273987E+03  0.58142924295E+03  0.12500377627E+03 0.  0.
          4    1    3    3  501    0 -0.50890936355E+02 -0.16561455141E+02  0.13392284293E+03  0.14422863640E+03  0.15500000000E+01 0.  1.
         -4    1    3    3    0  501  0.50890936355E+02  0.16561455141E+02  0.43390989694E+03  0.43720060654E+03  0.15500000000E+01 0.  1.
<mgrwt>
<rscale>  2 0.12500378E+03</rscale>
<asrwt>0</asrwt>
<pdfrwt beam="1">  1       21 0.88404729E-01 0.12500378E+03</pdfrwt>
<pdfrwt beam="2">  1       21 0.10458853E-02 0.12500378E+03</pdfrwt>
<totfact> 0.37942617E+06</totfact>
</mgrwt>
</event>
<event>
 5    0  0.1409595E+000  0.1249654E+03  0.7546771E-02  0.1235123E+00
         21   -1    0    0  503  502  0.00000000000E+00  0.00000000000E+00  0.18663438684E+03  0.18663438684E+03  0.00000000000E+00 0.  1.
         21   -1    0    0  502  503 -0.00000000000E+00 -0.00000000000E+00 -0.20918369083E+02  0.20918369083E+02  0.00000000000E+00 0.  1.
         25    2    1    2    0    0  0.00000000000E+00  0.00000000000E+00  0.16571601776E+03  0.20755275592E+03  0.12496538701E+03 0.  0.
          4    1    3    3  501    0 -0.27604714944E+02  0.61541522048E+01  0.17535870571E+03  0.17763156264E+03  0.15500000000E+01 0.  1.
         -4    1    3    3    0  501  0.27604714944E+02 -0.61541522048E+01 -0.96426879565E+01  0.29921193283E+02  0.15500000000E+01 0.  1.
<mgrwt>
<rscale>  2 0.12496539E+03</rscale>
<asrwt>0</asrwt>
<pdfrwt beam="1">  1       21 0.28712982E-01 0.12496539E+03</pdfrwt>
<pdfrwt beam="2">  1       21 0.32182107E-02 0.12496539E+03</pdfrwt>
<totfact> 0.64174117E+06</totfact>
</mgrwt>
</event>
<event>
 5    0  0.1475792E+000  0.1250072E+03  0.7546771E-02  0.1235058E+00
         21   -1    0    0  503  502  0.00000000000E+00  0.00000000000E+00  0.21086225700E+03  0.21086225700E+03  0.00000000000E+00 0. -1.
         21   -1    0    0  502  503 -0.00000000000E+00 -0.00000000000E+00 -0.18527249640E+02  0.18527249640E+02  0.00000000000E+00 0. -1.
         25    2    1    2    0    0  0.00000000000E+00  0.00000000000E+00  0.19233500736E+03  0.22938950664E+03  0.12500716260E+03 0.  0.
          4    1    3    3  501    0 -0.23936525881E+02  0.50316925921E+02  0.14805468393E+03  0.15820032313E+03  0.15500000000E+01 0.  1.
         -4    1    3    3    0  501  0.23936525881E+02 -0.50316925921E+02  0.44280323427E+02  0.71189183506E+02  0.15500000000E+01 0.  1.
<mgrwt>
<rscale>  2 0.12500716E+03</rscale>
<asrwt>0</asrwt>
<pdfrwt beam="1">  1       21 0.32440345E-01 0.12500716E+03</pdfrwt>
<pdfrwt beam="2">  1       21 0.28503463E-02 0.12500716E+03</pdfrwt>
<totfact> 0.61863600E+06</totfact>
</mgrwt>
</event>
<event>
 5    0  0.1641684E+000  0.1249968E+03  0.7546771E-02  0.1235074E+00
         21   -1    0    0  503  502  0.00000000000E+00  0.00000000000E+00  0.40295241472E+02  0.40295241472E+02  0.00000000000E+00 0. -1.
         21   -1    0    0  502  503 -0.00000000000E+00 -0.00000000000E+00 -0.96935764732E+02  0.96935764732E+02  0.00000000000E+00 0. -1.
         25    2    1    2    0    0  0.00000000000E+00  0.00000000000E+00 -0.56640523260E+02  0.13723100620E+03  0.12499680071E+03 0.  0.
          4    1    3    3  501    0 -0.43597447255E+02  0.44753228216E+02 -0.28586265449E+02  0.68725293126E+02  0.15500000000E+01 0.  1.
         -4    1    3    3    0  501  0.43597447255E+02 -0.44753228216E+02 -0.28054257812E+02  0.68505713078E+02  0.15500000000E+01 0.  1.
<mgrwt>
<rscale>  2 0.12499680E+03</rscale>
<asrwt>0</asrwt>
<pdfrwt beam="1">  1       21 0.61992680E-02 0.12499680E+03</pdfrwt>
<pdfrwt beam="2">  1       21 0.14913194E-01 0.12499680E+03</pdfrwt>
<totfact> 0.72408305E+06</totfact>
</mgrwt>
</event>
<event>
 5    0  0.1373955E+000  0.1250004E+03  0.7546771E-02  0.1235069E+00
         21   -1    0    0  503  502  0.00000000000E+00  0.00000000000E+00  0.26212171591E+03  0.26212171591E+03  0.00000000000E+00 0.  1.
         21   -1    0    0  502  503 -0.00000000000E+00 -0.00000000000E+00 -0.14902514191E+02  0.14902514191E+02  0.00000000000E+00 0.  1.
         25    2    1    2    0    0  0.00000000000E+00  0.00000000000E+00  0.24721920172E+03  0.27702423010E+03  0.12500036146E+03 0.  0.
          4    1    3    3  501    0 -0.27305515608E+02 -0.46478920789E+02  0.53598109630E+02  0.76033158006E+02  0.15500000000E+01 0. -1.
         -4    1    3    3    0  501  0.27305515608E+02  0.46478920789E+02  0.19362109209E+03  0.20099107209E+03  0.15500000000E+01 0. -1.
<mgrwt>
<rscale>  2 0.12500036E+03</rscale>
<asrwt>0</asrwt>
<pdfrwt beam="1">  1       21 0.40326414E-01 0.12500036E+03</pdfrwt>
<pdfrwt beam="2">  1       21 0.22926947E-02 0.12500036E+03</pdfrwt>
<totfact> 0.57420764E+06</totfact>
</mgrwt>
</event>
<event>
 5    0  0.1508305E+000  0.1250026E+03  0.7546771E-02  0.1235065E+00
         21   -1    0    0  503  502  0.00000000000E+00  0.00000000000E+00  0.74824573562E+02  0.74824573562E+02  0.00000000000E+00 0. -1.
         21   -1    0    0  502  503 -0.00000000000E+00 -0.00000000000E+00 -0.52207573751E+02  0.52207573751E+02  0.00000000000E+00 0. -1.
         25    2    1    2    0    0  0.00000000000E+00  0.00000000000E+00  0.22616999811E+02  0.12703214731E+03  0.12500255106E+03 0.  0.
          4    1    3    3  501    0 -0.27994361227E+02  0.53681805094E+02 -0.43885370853E+01  0.60721348934E+02  0.15500000000E+01 0. -1.
         -4    1    3    3    0  501  0.27994361227E+02 -0.53681805094E+02  0.27005536896E+02  0.66310798379E+02  0.15500000000E+01 0. -1.
<mgrwt>
<rscale>  2 0.12500255E+03</rscale>
<asrwt>0</asrwt>
<pdfrwt beam="1">  1       21 0.11511473E-01 0.12500255E+03</pdfrwt>
<pdfrwt beam="2">  1       21 0.80319345E-02 0.12500255E+03</pdfrwt>
<totfact> 0.73759957E+06</totfact>
</mgrwt>
</event>
<event>
 5    0  0.1542395E+000  0.1249845E+03  0.7546771E-02  0.1235094E+00
         21   -1    0    0  503  502  0.00000000000E+00  0.00000000000E+00  0.59938806263E+02  0.59938806263E+02  0.00000000000E+00 0. -1.
         21   -1    0    0  502  503 -0.00000000000E+00 -0.00000000000E+00 -0.65154450513E+02  0.65154450513E+02  0.00000000000E+00 0. -1.
         25    2    1    2    0    0  0.00000000000E+00  0.00000000000E+00 -0.52156442500E+01  0.12509325678E+03  0.12498447882E+03 0.  0.
          4    1    3    3  501    0  0.46292523246E+02  0.28893411786E+02  0.27833292107E+02  0.61277415110E+02  0.15500000000E+01 0. -1.
         -4    1    3    3    0  501 -0.46292523246E+02 -0.28893411786E+02 -0.33048936357E+02  0.63815841665E+02  0.15500000000E+01 0. -1.
<mgrwt>
<rscale>  2 0.12498448E+03</rscale>
<asrwt>0</asrwt>
<pdfrwt beam="1">  1       21 0.92213548E-02 0.12498448E+03</pdfrwt>
<pdfrwt beam="2">  1       21 0.10023762E-01 0.12498448E+03</pdfrwt>
<totfact> 0.74060370E+06</totfact>
</mgrwt>
</event>
<event>
 5    0  0.1418105E+000  0.1250046E+03  0.7546771E-02  0.1235062E+00
         21   -1    0    0  503  502  0.00000000000E+00  0.00000000000E+00  0.22425531842E+03  0.22425531842E+03  0.00000000000E+00 0. -1.
         21   -1    0    0  502  503 -0.00000000000E+00 -0.00000000000E+00 -0.17420038665E+02  0.17420038665E+02  0.00000000000E+00 0. -1.
         25    2    1    2    0    0  0.00000000000E+00  0.00000000000E+00  0.20683527975E+03  0.24167535708E+03  0.12500458100E+03 0.  0.
          4    1    3    3  501    0  0.40595868208E+02  0.26993212542E+02  0.17897792819E+03  0.18550514634E+03  0.15500000000E+01 0. -1.
         -4    1    3    3    0  501 -0.40595868208E+02 -0.26993212542E+02  0.27857351560E+02  0.56170210742E+02  0.15500000000E+01 0. -1.
<mgrwt>
<rscale>  2 0.12500458E+03</rscale>
<asrwt>0</asrwt>
<pdfrwt beam="1">  1       21 0.34500816E-01 0.12500458E+03</pdfrwt>
<pdfrwt beam="2">  1       21 0.26800061E-02 0.12500458E+03</pdfrwt>
<totfact> 0.60663909E+06</totfact>
</mgrwt>
</event>
<event>
 5    0  0.1482849E+000  0.1250006E+03  0.7546771E-02  0.1235068E+00
         21   -1    0    0  503  502  0.00000000000E+00  0.00000000000E+00  0.29124865615E+03  0.29124865615E+03  0.00000000000E+00 0.  1.
         21   -1    0    0  502  503 -0.00000000000E+00 -0.00000000000E+00 -0.13412197384E+02  0.13412197384E+02  0.00000000000E+00 0.  1.
         25    2    1    2    0    0  0.00000000000E+00  0.00000000000E+00  0.27783645877E+03  0.30466085354E+03  0.12500055142E+03 0.  0.
          4    1    3    3  501    0 -0.47003070347E+02  0.41163991781E+02  0.13975943437E+03  0.15309756640E+03  0.15500000000E+01 0.  1.
         -4    1    3    3    0  501  0.47003070347E+02 -0.41163991781E+02  0.13807702440E+03  0.15156328714E+03  0.15500000000E+01 0.  1.
<mgrwt>
<rscale>  2 0.12500055E+03</rscale>
<asrwt>0</asrwt>
<pdfrwt beam="1">  1       21 0.44807481E-01 0.12500055E+03</pdfrwt>
<pdfrwt beam="2">  1       21 0.20634152E-02 0.12500055E+03</pdfrwt>
<totfact> 0.55070289E+06</totfact>
</mgrwt>
</event>
<event>
 5    0  0.1757189E+000  0.1250005E+03  0.7546771E-02  0.1235068E+00
         21   -1    0    0  503  502  0.00000000000E+00  0.00000000000E+00  0.71833753452E+02  0.71833753452E+02  0.00000000000E+00 0.  1.
         21   -1    0    0  502  503 -0.00000000000E+00 -0.00000000000E+00 -0.54379477996E+02  0.54379477996E+02  0.00000000000E+00 0.  1.
         25    2    1    2    0    0  0.00000000000E+00  0.00000000000E+00  0.17454275457E+02  0.12621323145E+03  0.12500051224E+03 0.  0.
          4    1    3    3  501    0 -0.60466041464E+02 -0.24199778943E+01  0.24430549462E+02  0.65278271349E+02  0.15500000000E+01 0.  1.
         -4    1    3    3    0  501  0.60466041464E+02  0.24199778943E+01 -0.69762740059E+01  0.60934960099E+02  0.15500000000E+01 0.  1.
<mgrwt>
<rscale>  2 0.12500051E+03</rscale>
<asrwt>0</asrwt>
<pdfrwt beam="1">  1       21 0.11051347E-01 0.12500051E+03</pdfrwt>
<pdfrwt beam="2">  1       21 0.83660735E-02 0.12500051E+03</pdfrwt>
<totfact> 0.73875726E+06</totfact>
</mgrwt>
</event>
<event>
 5    0  0.1222151E+000  0.1250029E+03  0.7546771E-02  0.1235065E+00
         21   -1    0    0  503  502  0.00000000000E+00  0.00000000000E+00  0.25884757749E+01  0.25884757749E+01  0.00000000000E+00 0.  1.
         21   -1    0    0  502  503 -0.00000000000E+00 -0.00000000000E+00 -0.15091617406E+04  0.15091617406E+04  0.00000000000E+00 0.  1.
         25    2    1    2    0    0  0.00000000000E+00  0.00000000000E+00 -0.15065732648E+04  0.15117502163E+04  0.12500285766E+03 0.  0.
          4    1    3    3  501    0 -0.55431604380E+02  0.24565255652E+02 -0.57071080750E+03  0.57392450971E+03  0.15500000000E+01 0.  1.
         -4    1    3    3    0  501  0.55431604380E+02 -0.24565255652E+02 -0.93586245728E+03  0.93782570662E+03  0.15500000000E+01 0.  1.
<mgrwt>
<rscale>  2 0.12500286E+03</rscale>
<asrwt>0</asrwt>
<pdfrwt beam="1">  1       21 0.39822683E-03 0.12500286E+03</pdfrwt>
<pdfrwt beam="2">  1       21 0.23217885E+00 0.12500286E+03</pdfrwt>
<totfact> 0.13818578E+06</totfact>
</mgrwt>
</event>
<event>
 4    0  0.1759630E+000  0.1248439E+03  0.7546771E-02  0.1235313E+00
         21   -1    0    0  503  502  0.00000000000E+00  0.00000000000E+00  0.72293145159E+02  0.72293145159E+02  0.00000000000E+00 0.  1.
         21   -1    0    0  502  503 -0.00000000000E+00 -0.00000000000E+00 -0.53898620700E+02  0.53898620700E+02  0.00000000000E+00 0.  1.
          4    1    1    2  501    0 -0.54383320732E+02 -0.40552965131E+01  0.39858019448E+02  0.67565192355E+02  0.15500000000E+01 0. -1.
         -4    1    1    2    0  501  0.54383320732E+02  0.40552965131E+01 -0.21463494990E+02  0.58626573504E+02  0.15500000000E+01 0. -1.
<mgrwt>
<rscale>  2 0.12484392E+03</rscale>
<asrwt>0</asrwt>
<pdfrwt beam="1">  1       21 0.11122022E-01 0.12484392E+03</pdfrwt>
<pdfrwt beam="2">  1       21 0.82920955E-02 0.12484392E+03</pdfrwt>
<totfact> 0.74174650E+06</totfact>
</mgrwt>
</event>
<event>
 5    0  0.1592326E+000  0.1249972E+03  0.7546771E-02  0.1235074E+00
         21   -1    0    0  503  502  0.00000000000E+00  0.00000000000E+00  0.73943722954E+02  0.73943722954E+02  0.00000000000E+00 0.  1.
         21   -1    0    0  502  503 -0.00000000000E+00 -0.00000000000E+00 -0.52824974786E+02  0.52824974786E+02  0.00000000000E+00 0.  1.
         25    2    1    2    0    0  0.00000000000E+00  0.00000000000E+00  0.21118748168E+02  0.12676869774E+03  0.12499720478E+03 0.  0.
          4    1    3    3  501    0  0.46087639559E+02 -0.42141166563E+02  0.12516584979E+02  0.63710406049E+02  0.15500000000E+01 0. -1.
         -4    1    3    3    0  501 -0.46087639559E+02  0.42141166563E+02  0.86021631884E+01  0.63058291691E+02  0.15500000000E+01 0. -1.
<mgrwt>
<rscale>  2 0.12499720E+03</rscale>
<asrwt>0</asrwt>
<pdfrwt beam="1">  1       21 0.11375957E-01 0.12499720E+03</pdfrwt>
<pdfrwt beam="2">  1       21 0.81269192E-02 0.12499720E+03</pdfrwt>
<totfact> 0.73805924E+06</totfact>
</mgrwt>
</event>
<event>
 5    0  0.1489690E+000  0.1250006E+03  0.7546771E-02  0.1235068E+00
         21   -1    0    0  503  502  0.00000000000E+00  0.00000000000E+00  0.16361510725E+02  0.16361510725E+02  0.00000000000E+00 0.  1.
         21   -1    0    0  502  503 -0.00000000000E+00 -0.00000000000E+00 -0.23874873749E+03  0.23874873749E+03  0.00000000000E+00 0.  1.
         25    2    1    2    0    0  0.00000000000E+00  0.00000000000E+00 -0.22238722676E+03  0.25511024821E+03  0.12500064046E+03 0.  0.
          4    1    3    3  501    0  0.26845444868E+02  0.47039176806E+02 -0.47613816743E+02  0.72130715438E+02  0.15500000000E+01 0. -1.
         -4    1    3    3    0  501 -0.26845444868E+02 -0.47039176806E+02 -0.17477341002E+03  0.18297953278E+03  0.15500000000E+01 0. -1.
<mgrwt>
<rscale>  2 0.12500064E+03</rscale>
<asrwt>0</asrwt>
<pdfrwt beam="1">  1       21 0.25171555E-02 0.12500064E+03</pdfrwt>
<pdfrwt beam="2">  1       21 0.36730575E-01 0.12500064E+03</pdfrwt>
<totfact> 0.59399417E+06</totfact>
</mgrwt>
</event>
<event>
 5    0  0.1423540E+000  0.1250009E+03  0.7546771E-02  0.1235068E+00
         21   -1    0    0  503  502  0.00000000000E+00  0.00000000000E+00  0.33104068271E+03  0.33104068271E+03  0.00000000000E+00 0. -1.
         21   -1    0    0  502  503 -0.00000000000E+00 -0.00000000000E+00 -0.11800070909E+02  0.11800070909E+02  0.00000000000E+00 0. -1.
         25    2    1    2    0    0  0.00000000000E+00  0.00000000000E+00  0.31924061180E+03  0.34284075362E+03  0.12500085647E+03 0.  0.
          4    1    3    3  501    0  0.26995738232E+02  0.48921493883E+02  0.23630919505E+03  0.24283023002E+03  0.15500000000E+01 0. -1.
         -4    1    3    3    0  501 -0.26995738232E+02 -0.48921493883E+02  0.82931416753E+02  0.10001052360E+03  0.15500000000E+01 0. -1.
<mgrwt>
<rscale>  2 0.12500086E+03</rscale>
<asrwt>0</asrwt>
<pdfrwt beam="1">  1       21 0.50929329E-01 0.12500086E+03</pdfrwt>
<pdfrwt beam="2">  1       21 0.18153958E-02 0.12500086E+03</pdfrwt>
<totfact> 0.52070433E+06</totfact>
</mgrwt>
</event>
<event>
 5    0  0.1354170E+000  0.1250122E+03  0.7546771E-02  0.1235050E+00
         21   -1    0    0  503  502  0.00000000000E+00  0.00000000000E+00  0.81724982495E+01  0.81724982495E+01  0.00000000000E+00 0. -1.
         21   -1    0    0  502  503 -0.00000000000E+00 -0.00000000000E+00 -0.47806863302E+03  0.47806863302E+03  0.00000000000E+00 0. -1.
         25    2    1    2    0    0  0.00000000000E+00  0.00000000000E+00 -0.46989613477E+03  0.48624113127E+03  0.12501224046E+03 0.  0.
          4    1    3    3  501    0 -0.28271004374E+02  0.55398531853E+02 -0.25840354147E+03  0.26578758392E+03  0.15500000000E+01 0. -1.
         -4    1    3    3    0  501  0.28271004374E+02 -0.55398531853E+02 -0.21149259330E+03  0.22045354735E+03  0.15500000000E+01 0. -1.
<mgrwt>
<rscale>  2 0.12501224E+03</rscale>
<asrwt>0</asrwt>
<pdfrwt beam="1">  1       21 0.12573077E-02 0.12501224E+03</pdfrwt>
<pdfrwt beam="2">  1       21 0.73549002E-01 0.12501224E+03</pdfrwt>
<totfact> 0.42787170E+06</totfact>
</mgrwt>
</event>
<event>
 5    0  0.1492613E+000  0.1249656E+03  0.7546771E-02  0.1235123E+00
         21   -1    0    0  503  502  0.00000000000E+00  0.00000000000E+00  0.69616878493E+02  0.69616878493E+02  0.00000000000E+00 0.  1.
         21   -1    0    0  502  503 -0.00000000000E+00 -0.00000000000E+00 -0.56079779831E+02  0.56079779831E+02  0.00000000000E+00 0.  1.
         25    2    1    2    0    0  0.00000000000E+00  0.00000000000E+00  0.13537098662E+02  0.12569665832E+03  0.12496558276E+03 0.  0.
          4    1    3    3  501    0 -0.27983118391E+02 -0.19364597555E+02  0.59454885339E+02  0.68522466710E+02  0.15500000000E+01 0.  1.
         -4    1    3    3    0  501  0.27983118391E+02  0.19364597555E+02 -0.45917786677E+02  0.57174191613E+02  0.15500000000E+01 0.  1.
<mgrwt>
<rscale>  2 0.12496558E+03</rscale>
<asrwt>0</asrwt>
<pdfrwt beam="1">  1       21 0.10710289E-01 0.12496558E+03</pdfrwt>
<pdfrwt beam="2">  1       21 0.86276584E-02 0.12496558E+03</pdfrwt>
<totfact> 0.74012944E+06</totfact>
</mgrwt>
</event>
<event>
 5    0  0.1524362E+000  0.1249916E+03  0.7546771E-02  0.1235082E+00
         21   -1    0    0  503  502  0.00000000000E+00  0.00000000000E+00  0.13061436151E+03  0.13061436151E+03  0.00000000000E+00 0.  1.
         21   -1    0    0  502  503 -0.00000000000E+00 -0.00000000000E+00 -0.29902729484E+02  0.29902729484E+02  0.00000000000E+00 0.  1.
         25    2    1    2    0    0  0.00000000000E+00  0.00000000000E+00  0.10071163203E+03  0.16051709100E+03  0.12499161442E+03 0.  0.
          4    1    3    3  501    0 -0.48590366057E+01  0.57661452775E+02  0.80606558834E+02  0.99238466332E+02  0.15500000000E+01 0.  1.
         -4    1    3    3    0  501  0.48590366057E+01 -0.57661452775E+02  0.20105073196E+02  0.61278624667E+02  0.15500000000E+01 0.  1.
<mgrwt>
<rscale>  2 0.12499161E+03</rscale>
<asrwt>0</asrwt>
<pdfrwt beam="1">  1       21 0.20094517E-01 0.12499161E+03</pdfrwt>
<pdfrwt beam="2">  1       21 0.46004200E-02 0.12499161E+03</pdfrwt>
<totfact> 0.69471177E+06</totfact>
</mgrwt>
</event>
<event>
 5    0  0.1536389E+000  0.1249979E+03  0.7546771E-02  0.1235073E+00
         21   -1    0    0  503  502  0.00000000000E+00  0.00000000000E+00  0.41302355312E+02  0.41302355312E+02  0.00000000000E+00 0. -1.
         21   -1    0    0  502  503 -0.00000000000E+00 -0.00000000000E+00 -0.94573734880E+02  0.94573734880E+02  0.00000000000E+00 0. -1.
         25    2    1    2    0    0  0.00000000000E+00  0.00000000000E+00 -0.53271379568E+02  0.13587609019E+03  0.12499788800E+03 0.  0.
          4    1    3    3  501    0 -0.51415267664E+02 -0.17995452229E+02  0.66271517410E+01  0.54897064494E+02  0.15500000000E+01 0. -1.
         -4    1    3    3    0  501  0.51415267664E+02  0.17995452229E+02 -0.59898531309E+02  0.80979025697E+02  0.15500000000E+01 0. -1.
<mgrwt>
<rscale>  2 0.12499789E+03</rscale>
<asrwt>0</asrwt>
<pdfrwt beam="1">  1       21 0.63542086E-02 0.12499789E+03</pdfrwt>
<pdfrwt beam="2">  1       21 0.14549805E-01 0.12499789E+03</pdfrwt>
<totfact> 0.72584589E+06</totfact>
</mgrwt>
</event>
<event>
 5    0  0.1535771E+000  0.1249994E+03  0.7546771E-02  0.1235070E+00
         21   -1    0    0  503  502  0.00000000000E+00  0.00000000000E+00  0.15627383196E+02  0.15627383196E+02  0.00000000000E+00 0. -1.
         21   -1    0    0  502  503 -0.00000000000E+00 -0.00000000000E+00 -0.24995939753E+03  0.24995939753E+03  0.00000000000E+00 0. -1.
         25    2    1    2    0    0  0.00000000000E+00  0.00000000000E+00 -0.23433201433E+03  0.26558678072E+03  0.12499938061E+03 0.  0.
          4    1    3    3  501    0  0.27466816069E+02  0.49718726696E+02 -0.17246677140E+03  0.18158625363E+03  0.15500000000E+01 0.  1.
         -4    1    3    3    0  501 -0.27466816069E+02 -0.49718726696E+02 -0.61865242927E+02  0.84000527091E+02  0.15500000000E+01 0.  1.
<mgrwt>
<rscale>  2 0.12499938E+03</rscale>
<asrwt>0</asrwt>
<pdfrwt beam="1">  1       21 0.24042127E-02 0.12499938E+03</pdfrwt>
<pdfrwt beam="2">  1       21 0.38455293E-01 0.12499938E+03</pdfrwt>
<totfact> 0.58441878E+06</totfact>
</mgrwt>
</event>
<event>
 5    0  0.1439992E+000  0.1250011E+03  0.7546771E-02  0.1235068E+00
         21   -1    0    0  503  502  0.00000000000E+00  0.00000000000E+00  0.12751608647E+02  0.12751608647E+02  0.00000000000E+00 0.  1.
         21   -1    0    0  502  503 -0.00000000000E+00 -0.00000000000E+00 -0.30633947661E+03  0.30633947661E+03  0.00000000000E+00 0.  1.
         25    2    1    2    0    0  0.00000000000E+00  0.00000000000E+00 -0.29358786796E+03  0.31909108526E+03  0.12500113790E+03 0.  0.
          4    1    3    3  501    0  0.53358042401E+02  0.23674085731E+02 -0.20366690483E+03  0.21187296583E+03  0.15500000000E+01 0. -1.
         -4    1    3    3    0  501 -0.53358042401E+02 -0.23674085731E+02 -0.89920963130E+02  0.10721811943E+03  0.15500000000E+01 0. -1.
<mgrwt>
<rscale>  2 0.12500114E+03</rscale>
<asrwt>0</asrwt>
<pdfrwt beam="1">  1       21 0.19617862E-02 0.12500114E+03</pdfrwt>
<pdfrwt beam="2">  1       21 0.47129143E-01 0.12500114E+03</pdfrwt>
<totfact> 0.53903912E+06</totfact>
</mgrwt>
</event>
<event>
 5    0  0.1564068E+000  0.1249979E+03  0.7546771E-02  0.1235072E+00
         21   -1    0    0  503  502  0.00000000000E+00  0.00000000000E+00  0.47340388156E+02  0.47340388156E+02  0.00000000000E+00 0.  1.
         21   -1    0    0  502  503 -0.00000000000E+00 -0.00000000000E+00 -0.82511392630E+02  0.82511392630E+02  0.00000000000E+00 0.  1.
         25    2    1    2    0    0  0.00000000000E+00  0.00000000000E+00 -0.35171004474E+02  0.12985178079E+03  0.12499794165E+03 0.  0.
          4    1    3    3  501    0  0.21335252159E+02  0.57604073777E+02 -0.29443504073E+02  0.68137689516E+02  0.15500000000E+01 0. -1.
         -4    1    3    3    0  501 -0.21335252159E+02 -0.57604073777E+02 -0.57275004014E+01  0.61714091270E+02  0.15500000000E+01 0. -1.
<mgrwt>
<rscale>  2 0.12499794E+03</rscale>
<asrwt>0</asrwt>
<pdfrwt beam="1">  1       21 0.72831367E-02 0.12499794E+03</pdfrwt>
<pdfrwt beam="2">  1       21 0.12694060E-01 0.12499794E+03</pdfrwt>
<totfact> 0.73388587E+06</totfact>
</mgrwt>
</event>
<event>
 5    0  0.1222151E+000  0.1249448E+03  0.7546771E-02  0.1235156E+00
         21   -1    0    0  503  502  0.00000000000E+00  0.00000000000E+00  0.46872042671E+03  0.46872042671E+03  0.00000000000E+00 0.  1.
         21   -1    0    0  502  503 -0.00000000000E+00 -0.00000000000E+00 -0.83264999395E+01  0.83264999395E+01  0.00000000000E+00 0.  1.
         25    2    1    2    0    0  0.00000000000E+00  0.00000000000E+00  0.46039392678E+03  0.47704692665E+03  0.12494479749E+03 0.  0.
          4    1    3    3  501    0  0.12340075968E+02 -0.22474824204E+02  0.12768401290E+02  0.28685009489E+02  0.15500000000E+01 0. -1.
         -4    1    3    3    0  501 -0.12340075968E+02  0.22474824204E+02  0.44762552549E+03  0.44836191716E+03  0.15500000000E+01 0. -1.
<mgrwt>
<rscale>  2 0.12494480E+03</rscale>
<asrwt>0</asrwt>
<pdfrwt beam="1">  1       21 0.72110814E-01 0.12494480E+03</pdfrwt>
<pdfrwt beam="2">  1       21 0.12810004E-02 0.12494480E+03</pdfrwt>
<totfact> 0.43376503E+06</totfact>
</mgrwt>
</event>
<event>
 5    0  0.1452228E+000  0.1250038E+03  0.7546771E-02  0.1235063E+00
         21   -1    0    0  503  502  0.00000000000E+00  0.00000000000E+00  0.25278857587E+03  0.25278857587E+03  0.00000000000E+00 0.  1.
         21   -1    0    0  502  503 -0.00000000000E+00 -0.00000000000E+00 -0.15453576936E+02  0.15453576936E+02  0.00000000000E+00 0.  1.
         25    2    1    2    0    0  0.00000000000E+00  0.00000000000E+00  0.23733499893E+03  0.26824215281E+03  0.12500380323E+03 0.  0.
          4    1    3    3  501    0 -0.32487602363E+02 -0.42781665694E+02  0.50188628190E+02  0.73532415480E+02  0.15500000000E+01 0. -1.
         -4    1    3    3    0  501  0.32487602363E+02  0.42781665694E+02  0.18714637074E+03  0.19470973733E+03  0.15500000000E+01 0. -1.
<mgrwt>
<rscale>  2 0.12500380E+03</rscale>
<asrwt>0</asrwt>
<pdfrwt beam="1">  1       21 0.38890547E-01 0.12500380E+03</pdfrwt>
<pdfrwt beam="2">  1       21 0.23774736E-02 0.12500380E+03</pdfrwt>
<totfact> 0.58196401E+06</totfact>
</mgrwt>
</event>
<event>
 5    0  0.1222151E+000  0.1249046E+03  0.7546771E-02  0.1235218E+00
         21   -1    0    0  503  502  0.00000000000E+00  0.00000000000E+00  0.12839346671E+02  0.12839346671E+02  0.00000000000E+00 0.  1.
         21   -1    0    0  502  503 -0.00000000000E+00 -0.00000000000E+00 -0.30377657240E+03  0.30377657240E+03  0.00000000000E+00 0.  1.
         25    2    1    2    0    0  0.00000000000E+00  0.00000000000E+00 -0.29093722573E+03  0.31661591907E+03  0.12490464721E+03 0.  0.
          4    1    3    3  501    0 -0.43486986520E+02  0.31958457012E+02 -0.22504182231E+03  0.23142749460E+03  0.15500000000E+01 0. -1.
         -4    1    3    3    0  501  0.43486986520E+02 -0.31958457012E+02 -0.65895403421E+02  0.85188424467E+02  0.15500000000E+01 0. -1.
<mgrwt>
<rscale>  2 0.12490465E+03</rscale>
<asrwt>0</asrwt>
<pdfrwt beam="1">  1       21 0.19752840E-02 0.12490465E+03</pdfrwt>
<pdfrwt beam="2">  1       21 0.46734859E-01 0.12490465E+03</pdfrwt>
<totfact> 0.54232261E+06</totfact>
</mgrwt>
</event>
<event>
 5    0  0.1580460E+000  0.1249992E+03  0.7546771E-02  0.1235071E+00
         21   -1    0    0  503  502  0.00000000000E+00  0.00000000000E+00  0.19114236586E+02  0.19114236586E+02  0.00000000000E+00 0. -1.
         21   -1    0    0  502  503 -0.00000000000E+00 -0.00000000000E+00 -0.20436076744E+03  0.20436076744E+03  0.00000000000E+00 0. -1.
         25    2    1    2    0    0  0.00000000000E+00  0.00000000000E+00 -0.18524653086E+03  0.22347500403E+03  0.12499920092E+03 0.  0.
          4    1    3    3  501    0  0.47515897234E+02  0.22079920732E+02 -0.15347492007E+03  0.16217964416E+03  0.15500000000E+01 0.  1.
         -4    1    3    3    0  501 -0.47515897234E+02 -0.22079920732E+02 -0.31771610788E+02  0.61295359870E+02  0.15500000000E+01 0.  1.
<mgrwt>
<rscale>  2 0.12499920E+03</rscale>
<asrwt>0</asrwt>
<pdfrwt beam="1">  1       21 0.29406519E-02 0.12499920E+03</pdfrwt>
<pdfrwt beam="2">  1       21 0.31440117E-01 0.12499920E+03</pdfrwt>
<totfact> 0.62470361E+06</totfact>
</mgrwt>
</event>
<event>
 5    0  0.1428158E+000  0.1250002E+03  0.7546771E-02  0.1235069E+00
         21   -1    0    0  503  502  0.00000000000E+00  0.00000000000E+00  0.33273938721E+03  0.33273938721E+03  0.00000000000E+00 0. -1.
         21   -1    0    0  502  503 -0.00000000000E+00 -0.00000000000E+00 -0.11739709759E+02  0.11739709759E+02  0.00000000000E+00 0. -1.
         25    2    1    2    0    0  0.00000000000E+00  0.00000000000E+00  0.32099967745E+03  0.34447909696E+03  0.12500022130E+03 0.  0.
          4    1    3    3  501    0  0.50434891177E+02  0.16352294852E+02  0.25160008713E+03  0.25713047688E+03  0.15500000000E+01 0.  1.
         -4    1    3    3    0  501 -0.50434891177E+02 -0.16352294852E+02  0.69399590313E+02  0.87348620084E+02  0.15500000000E+01 0.  1.
<mgrwt>
<rscale>  2 0.12500022E+03</rscale>
<asrwt>0</asrwt>
<pdfrwt beam="1">  1       21 0.51190668E-01 0.12500022E+03</pdfrwt>
<pdfrwt beam="2">  1       21 0.18061094E-02 0.12500022E+03</pdfrwt>
<totfact> 0.51948483E+06</totfact>
</mgrwt>
</event>
<event>
 5    0  0.1290871E+000  0.1249818E+03  0.7546771E-02  0.1235098E+00
         21   -1    0    0  503  502  0.00000000000E+00  0.00000000000E+00  0.70361990482E+01  0.70361990482E+01  0.00000000000E+00 0. -1.
         21   -1    0    0  502  503 -0.00000000000E+00 -0.00000000000E+00 -0.55500317733E+03  0.55500317733E+03  0.00000000000E+00 0. -1.
         25    2    1    2    0    0  0.00000000000E+00  0.00000000000E+00 -0.54796697828E+03  0.56203937638E+03  0.12498180392E+03 0.  0.
          4    1    3    3  501    0 -0.57140494370E+02  0.19235205093E+02 -0.34755824367E+03  0.35275227066E+03  0.15500000000E+01 0. -1.
         -4    1    3    3    0  501  0.57140494370E+02 -0.19235205093E+02 -0.20040873461E+03  0.20928710572E+03  0.15500000000E+01 0. -1.
<mgrwt>
<rscale>  2 0.12498180E+03</rscale>
<asrwt>0</asrwt>
<pdfrwt beam="1">  1       21 0.10824920E-02 0.12498180E+03</pdfrwt>
<pdfrwt beam="2">  1       21 0.85385116E-01 0.12498180E+03</pdfrwt>
<totfact> 0.38885208E+06</totfact>
</mgrwt>
</event>
<event>
 4    0  0.1355366E+000  0.1248994E+03  0.7546771E-02  0.1235227E+00
         21   -1    0    0  503  502  0.00000000000E+00  0.00000000000E+00  0.72894096923E+02  0.72894096923E+02  0.00000000000E+00 0. -1.
         21   -1    0    0  502  503 -0.00000000000E+00 -0.00000000000E+00 -0.53501757824E+02  0.53501757824E+02  0.00000000000E+00 0. -1.
          4    1    1    2  501    0  0.12310858283E+02 -0.20624028531E+02  0.68011711294E+02  0.72145014780E+02  0.15500000000E+01 0.  1.
         -4    1    1    2    0  501 -0.12310858283E+02  0.20624028531E+02 -0.48619372195E+02  0.54250839967E+02  0.15500000000E+01 0.  1.
<mgrwt>
<rscale>  2 0.12489936E+03</rscale>
<asrwt>0</asrwt>
<pdfrwt beam="1">  1       21 0.11214477E-01 0.12489936E+03</pdfrwt>
<pdfrwt beam="2">  1       21 0.82310396E-02 0.12489936E+03</pdfrwt>
<totfact> 0.74041631E+06</totfact>
</mgrwt>
</event>
<event>
 5    0  0.1275884E+000  0.1250005E+03  0.7546771E-02  0.1235068E+00
         21   -1    0    0  503  502  0.00000000000E+00  0.00000000000E+00  0.15557666241E+02  0.15557666241E+02  0.00000000000E+00 0. -1.
         21   -1    0    0  502  503 -0.00000000000E+00 -0.00000000000E+00 -0.25108417815E+03  0.25108417815E+03  0.00000000000E+00 0. -1.
         25    2    1    2    0    0  0.00000000000E+00  0.00000000000E+00 -0.23552651191E+03  0.26664184439E+03  0.12500054147E+03 0.  0.
          4    1    3    3  501    0 -0.49345455855E+02 -0.55912718775E+01 -0.36883051452E+02  0.61878900436E+02  0.15500000000E+01 0. -1.
         -4    1    3    3    0  501  0.49345455855E+02  0.55912718775E+01 -0.19864346045E+03  0.20476294395E+03  0.15500000000E+01 0. -1.
<mgrwt>
<rscale>  2 0.12500054E+03</rscale>
<asrwt>0</asrwt>
<pdfrwt beam="1">  1       21 0.23934873E-02 0.12500054E+03</pdfrwt>
<pdfrwt beam="2">  1       21 0.38628332E-01 0.12500054E+03</pdfrwt>
<totfact> 0.58345015E+06</totfact>
</mgrwt>
</event>
<event>
 5    0  0.1457371E+000  0.1250215E+03  0.7546771E-02  0.1235036E+00
         21   -1    0    0  503  502  0.00000000000E+00  0.00000000000E+00  0.22767940887E+03  0.22767940887E+03  0.00000000000E+00 0.  1.
         21   -1    0    0  502  503 -0.00000000000E+00 -0.00000000000E+00 -0.17162714313E+02  0.17162714313E+02  0.00000000000E+00 0.  1.
         25    2    1    2    0    0  0.00000000000E+00  0.00000000000E+00  0.21051669455E+03  0.24484212318E+03  0.12502154453E+03 0.  0.
          4    1    3    3  501    0 -0.30547077044E+02  0.27014545832E+01 -0.13759606705E+01  0.30736257752E+02  0.15500000000E+01 0.  1.
         -4    1    3    3    0  501  0.30547077044E+02 -0.27014545832E+01  0.21189265522E+03  0.21410586543E+03  0.15500000000E+01 0.  1.
<mgrwt>
<rscale>  2 0.12502154E+03</rscale>
<asrwt>0</asrwt>
<pdfrwt beam="1">  1       21 0.35027599E-01 0.12502154E+03</pdfrwt>
<pdfrwt beam="2">  1       21 0.26404177E-02 0.12502154E+03</pdfrwt>
<totfact> 0.60334439E+06</totfact>
</mgrwt>
</event>
<event>
 5    0  0.1562290E+000  0.1250003E+03  0.7546771E-02  0.1235069E+00
         21   -1    0    0  503  502  0.00000000000E+00  0.00000000000E+00  0.56919415571E+02  0.56919415571E+02  0.00000000000E+00 0. -1.
         21   -1    0    0  502  503 -0.00000000000E+00 -0.00000000000E+00 -0.68628055774E+02  0.68628055774E+02  0.00000000000E+00 0. -1.
         25    2    1    2    0    0  0.00000000000E+00  0.00000000000E+00 -0.11708640203E+02  0.12554747135E+03  0.12500030122E+03 0.  0.
          4    1    3    3  501    0 -0.41400499474E+02 -0.46747175973E+02 -0.80006132287E+01  0.62973900389E+02  0.15500000000E+01 0.  1.
         -4    1    3    3    0  501  0.41400499474E+02  0.46747175973E+02 -0.37080269748E+01  0.62573570956E+02  0.15500000000E+01 0.  1.
<mgrwt>
<rscale>  2 0.12500030E+03</rscale>
<asrwt>0</asrwt>
<pdfrwt beam="1">  1       21 0.87568332E-02 0.12500030E+03</pdfrwt>
<pdfrwt beam="2">  1       21 0.10558162E-01 0.12500030E+03</pdfrwt>
<totfact> 0.73968198E+06</totfact>
</mgrwt>
</event>
<event>
 5    0  0.1419867E+000  0.1249936E+03  0.7546771E-02  0.1235079E+00
         21   -1    0    0  503  502  0.00000000000E+00  0.00000000000E+00  0.22937459641E+03  0.22937459641E+03  0.00000000000E+00 0.  1.
         21   -1    0    0  502  503 -0.00000000000E+00 -0.00000000000E+00 -0.17028268901E+02  0.17028268901E+02  0.00000000000E+00 0.  1.
         25    2    1    2    0    0  0.00000000000E+00  0.00000000000E+00  0.21234632751E+03  0.24640286531E+03  0.12499363674E+03 0.  0.
          4    1    3    3  501    0 -0.35690558052E+02 -0.28044161426E+02  0.19080606644E+03  0.19613681045E+03  0.15500000000E+01 0. -1.
         -4    1    3    3    0  501  0.35690558052E+02  0.28044161426E+02  0.21540261071E+02  0.50266054860E+02  0.15500000000E+01 0. -1.
<mgrwt>
<rscale>  2 0.12499364E+03</rscale>
<asrwt>0</asrwt>
<pdfrwt beam="1">  1       21 0.35288397E-01 0.12499364E+03</pdfrwt>
<pdfrwt beam="2">  1       21 0.26197338E-02 0.12499364E+03</pdfrwt>
<totfact> 0.60228180E+06</totfact>
</mgrwt>
</event>
<event>
 5    0  0.1383404E+000  0.1249933E+03  0.7546771E-02  0.1235080E+00
         21   -1    0    0  503  502  0.00000000000E+00  0.00000000000E+00  0.13887687501E+02  0.13887687501E+02  0.00000000000E+00 0.  1.
         21   -1    0    0  502  503 -0.00000000000E+00 -0.00000000000E+00 -0.28124432023E+03  0.28124432023E+03  0.00000000000E+00 0.  1.
         25    2    1    2    0    0  0.00000000000E+00  0.00000000000E+00 -0.26735663273E+03  0.29513200773E+03  0.12499333151E+03 0.  0.
          4    1    3    3  501    0  0.35055584414E+02 -0.51663154083E+02 -0.12816343103E+03  0.14257013376E+03  0.15500000000E+01 0.  1.
         -4    1    3    3    0  501 -0.35055584414E+02  0.51663154083E+02 -0.13919320170E+03  0.15256187396E+03  0.15500000000E+01 0.  1.
<mgrwt>
<rscale>  2 0.12499333E+03</rscale>
<asrwt>0</asrwt>
<pdfrwt beam="1">  1       21 0.21365673E-02 0.12499333E+03</pdfrwt>
<pdfrwt beam="2">  1       21 0.43268358E-01 0.12499333E+03</pdfrwt>
<totfact> 0.55872527E+06</totfact>
</mgrwt>
</event>
<event>
 5    0  0.1546011E+000  0.1250040E+03  0.7546771E-02  0.1235063E+00
         21   -1    0    0  503  502  0.00000000000E+00  0.00000000000E+00  0.84884565657E+02  0.84884565657E+02  0.00000000000E+00 0.  1.
         21   -1    0    0  502  503 -0.00000000000E+00 -0.00000000000E+00 -0.46021329494E+02  0.46021329494E+02  0.00000000000E+00 0.  1.
         25    2    1    2    0    0  0.00000000000E+00  0.00000000000E+00  0.38863236163E+02  0.13090589515E+03  0.12500400898E+03 0.  0.
          4    1    3    3  501    0 -0.34545861865E+02  0.51996685825E+02  0.22207456404E+02  0.66277036209E+02  0.15500000000E+01 0. -1.
         -4    1    3    3    0  501  0.34545861865E+02 -0.51996685825E+02  0.16655779759E+02  0.64628858942E+02  0.15500000000E+01 0. -1.
<mgrwt>
<rscale>  2 0.12500401E+03</rscale>
<asrwt>0</asrwt>
<pdfrwt beam="1">  1       21 0.13059164E-01 0.12500401E+03</pdfrwt>
<pdfrwt beam="2">  1       21 0.70802045E-02 0.12500401E+03</pdfrwt>
<totfact> 0.73235865E+06</totfact>
</mgrwt>
</event>
<event>
 5    0  0.1506961E+000  0.1250201E+03  0.7546771E-02  0.1235038E+00
         21   -1    0    0  503  502  0.00000000000E+00  0.00000000000E+00  0.26434430203E+03  0.26434430203E+03  0.00000000000E+00 0. -1.
         21   -1    0    0  502  503 -0.00000000000E+00 -0.00000000000E+00 -0.14781887437E+02  0.14781887437E+02  0.00000000000E+00 0. -1.
         25    2    1    2    0    0  0.00000000000E+00  0.00000000000E+00  0.24956241459E+03  0.27912618947E+03  0.12502012186E+03 0.  0.
          4    1    3    3  501    0  0.57371104380E+02  0.24511401803E+02  0.13278543111E+03  0.14671954761E+03  0.15500000000E+01 0. -1.
         -4    1    3    3    0  501 -0.57371104380E+02 -0.24511401803E+02  0.11677698348E+03  0.13240664185E+03  0.15500000000E+01 0. -1.
<mgrwt>
<rscale>  2 0.12502012E+03</rscale>
<asrwt>0</asrwt>
<pdfrwt beam="1">  1       21 0.40668351E-01 0.12502012E+03</pdfrwt>
<pdfrwt beam="2">  1       21 0.22741367E-02 0.12502012E+03</pdfrwt>
<totfact> 0.57207779E+06</totfact>
</mgrwt>
</event>
<event>
 5    0  0.1222151E+000  0.1250255E+03  0.7546771E-02  0.1235029E+00
         21   -1    0    0  503  502  0.00000000000E+00  0.00000000000E+00  0.22992841366E+04  0.22992841366E+04  0.00000000000E+00 0. -1.
         21   -1    0    0  502  503 -0.00000000000E+00 -0.00000000000E+00 -0.16995917099E+01  0.16995917099E+01  0.00000000000E+00 0. -1.
         25    2    1    2    0    0  0.00000000000E+00  0.00000000000E+00  0.22975845449E+04  0.23009837283E+04  0.12502550552E+03 0.  0.
          4    1    3    3  501    0  0.11068823961E+02  0.33828007152E+02  0.20941600331E+04  0.20944630576E+04  0.15500000000E+01 0.  1.
         -4    1    3    3    0  501 -0.11068823961E+02 -0.33828007152E+02  0.20342451175E+03  0.20652067066E+03  0.15500000000E+01 0.  1.
<mgrwt>
<rscale>  2 0.12502551E+03</rscale>
<asrwt>0</asrwt>
<pdfrwt beam="1">  1       21 0.35373353E+00 0.12502551E+03</pdfrwt>
<pdfrwt beam="2">  1       21 0.26147749E-03 0.12502551E+03</pdfrwt>
<totfact> 0.53644265E+05</totfact>
</mgrwt>
</event>
<event>
 5    0  0.1222151E+000  0.1250090E+03  0.7546771E-02  0.1235055E+00
         21   -1    0    0  503  502  0.00000000000E+00  0.00000000000E+00  0.13916719484E+04  0.13916719484E+04  0.00000000000E+00 0.  1.
         21   -1    0    0  502  503 -0.00000000000E+00 -0.00000000000E+00 -0.28072775496E+01  0.28072775496E+01  0.00000000000E+00 0.  1.
         25    2    1    2    0    0  0.00000000000E+00  0.00000000000E+00  0.13888646709E+04  0.13944792260E+04  0.12500895035E+03 0.  0.
          4    1    3    3  501    0  0.34083337384E+02 -0.42166602561E+02  0.34795926994E+03  0.35216154290E+03  0.15500000000E+01 0.  1.
         -4    1    3    3    0  501 -0.34083337384E+02  0.42166602561E+02  0.10409054009E+04  0.10423176831E+04  0.15500000000E+01 0.  1.
<mgrwt>
<rscale>  2 0.12500895E+03</rscale>
<asrwt>0</asrwt>
<pdfrwt beam="1">  1       21 0.21410283E+00 0.12500895E+03</pdfrwt>
<pdfrwt beam="2">  1       21 0.43188997E-03 0.12500895E+03</pdfrwt>
<totfact> 0.15631458E+06</totfact>
</mgrwt>
</event>
<event>
 5    0  0.1222151E+000  0.1250012E+03  0.7546771E-02  0.1235067E+00
         21   -1    0    0  503  502  0.00000000000E+00  0.00000000000E+00  0.63546641838E+01  0.63546641838E+01  0.00000000000E+00 0. -1.
         21   -1    0    0  502  503 -0.00000000000E+00 -0.00000000000E+00 -0.61471780613E+03  0.61471780613E+03  0.00000000000E+00 0. -1.
         25    2    1    2    0    0  0.00000000000E+00  0.00000000000E+00 -0.60836314194E+03  0.62107247031E+03  0.12500120361E+03 0.  0.
          4    1    3    3  501    0 -0.22923524867E+02 -0.63246276708E+01 -0.17103863157E+02  0.29333147502E+02  0.15500000000E+01 0.  1.
         -4    1    3    3    0  501  0.22923524867E+02  0.63246276708E+01 -0.59125927878E+03  0.59173932281E+03  0.15500000000E+01 0.  1.
<mgrwt>
<rscale>  2 0.12500120E+03</rscale>
<asrwt>0</asrwt>
<pdfrwt beam="1">  1       21 0.97764036E-03 0.12500120E+03</pdfrwt>
<pdfrwt beam="2">  1       21 0.94571998E-01 0.12500120E+03</pdfrwt>
<totfact> 0.36155580E+06</totfact>
</mgrwt>
</event>
<event>
 5    0  0.1472137E+000  0.1250045E+03  0.7546771E-02  0.1235062E+00
         21   -1    0    0  503  502  0.00000000000E+00  0.00000000000E+00  0.22780801030E+03  0.22780801030E+03  0.00000000000E+00 0.  1.
         21   -1    0    0  502  503 -0.00000000000E+00 -0.00000000000E+00 -0.17148349016E+02  0.17148349016E+02  0.00000000000E+00 0.  1.
         25    2    1    2    0    0  0.00000000000E+00  0.00000000000E+00  0.21065966129E+03  0.24495635932E+03  0.12500450023E+03 0.  0.
          4    1    3    3  501    0 -0.46922817534E+02  0.22421241145E+02  0.37457427030E+02  0.64108690515E+02  0.15500000000E+01 0.  1.
         -4    1    3    3    0  501  0.46922817534E+02 -0.22421241145E+02  0.17320223426E+03  0.18084766880E+03  0.15500000000E+01 0.  1.
<mgrwt>
<rscale>  2 0.12500450E+03</rscale>
<asrwt>0</asrwt>
<pdfrwt beam="1">  1       21 0.35047384E-01 0.12500450E+03</pdfrwt>
<pdfrwt beam="2">  1       21 0.26382077E-02 0.12500450E+03</pdfrwt>
<totfact> 0.60349469E+06</totfact>
</mgrwt>
</event>
<event>
 5    0  0.1600627E+000  0.1250029E+03  0.7546771E-02  0.1235065E+00
         21   -1    0    0  503  502  0.00000000000E+00  0.00000000000E+00  0.90535903271E+02  0.90535903271E+02  0.00000000000E+00 0. -1.
         21   -1    0    0  502  503 -0.00000000000E+00 -0.00000000000E+00 -0.43147893782E+02  0.43147893782E+02  0.00000000000E+00 0. -1.
         25    2    1    2    0    0  0.00000000000E+00  0.00000000000E+00  0.47388009489E+02  0.13368379705E+03  0.12500293657E+03 0.  0.
          4    1    3    3  501    0 -0.45839313531E+02 -0.25706466400E+02 -0.12445744572E+02  0.54031140444E+02  0.15500000000E+01 0.  1.
         -4    1    3    3    0  501  0.45839313531E+02  0.25706466400E+02  0.59833754061E+02  0.79652656609E+02  0.15500000000E+01 0.  1.
<mgrwt>
<rscale>  2 0.12500294E+03</rscale>
<asrwt>0</asrwt>
<pdfrwt beam="1">  1       21 0.13928600E-01 0.12500294E+03</pdfrwt>
<pdfrwt beam="2">  1       21 0.66381375E-02 0.12500294E+03</pdfrwt>
<totfact> 0.72865765E+06</totfact>
</mgrwt>
</event>
<event>
 5    0  0.1428653E+000  0.1249650E+03  0.7546771E-02  0.1235124E+00
         21   -1    0    0  503  502  0.00000000000E+00  0.00000000000E+00  0.32451907189E+03  0.32451907189E+03  0.00000000000E+00 0.  1.
         21   -1    0    0  502  503 -0.00000000000E+00 -0.00000000000E+00 -0.12030307074E+02  0.12030307074E+02  0.00000000000E+00 0.  1.
         25    2    1    2    0    0  0.00000000000E+00  0.00000000000E+00  0.31248876481E+03  0.33654937896E+03  0.12496502049E+03 0.  0.
          4    1    3    3  501    0 -0.66473510321E+01 -0.59740182033E+02  0.20199502269E+03  0.21075452146E+03  0.15500000000E+01 0. -1.
         -4    1    3    3    0  501  0.66473510321E+01  0.59740182033E+02  0.11049374212E+03  0.12579485750E+03  0.15500000000E+01 0. -1.
<mgrwt>
<rscale>  2 0.12496502E+03</rscale>
<asrwt>0</asrwt>
<pdfrwt beam="1">  1       21 0.49926004E-01 0.12496502E+03</pdfrwt>
<pdfrwt beam="2">  1       21 0.18508167E-02 0.12496502E+03</pdfrwt>
<totfact> 0.52593509E+06</totfact>
</mgrwt>
</event>
<event>
 5    0  0.1567669E+000  0.1250360E+03  0.7546771E-02  0.1235013E+00
         21   -1    0    0  503  502  0.00000000000E+00  0.00000000000E+00  0.10179411679E+03  0.10179411679E+03  0.00000000000E+00 0.  1.
         21   -1    0    0  502  503 -0.00000000000E+00 -0.00000000000E+00 -0.38396116000E+02  0.38396116000E+02  0.00000000000E+00 0.  1.
         25    2    1    2    0    0  0.00000000000E+00  0.00000000000E+00  0.63398000786E+02  0.14019023278E+03  0.12503597428E+03 0.  0.
          4    1    3    3  501    0  0.47952144726E+02 -0.31098196943E+02  0.33437381815E+01  0.57272062316E+02  0.15500000000E+01 0. -1.
         -4    1    3    3    0  501 -0.47952144726E+02  0.31098196943E+02  0.60054262604E+02  0.82918170469E+02  0.15500000000E+01 0. -1.
<mgrwt>
<rscale>  2 0.12503597E+03</rscale>
<asrwt>0</asrwt>
<pdfrwt beam="1">  1       21 0.15660633E-01 0.12503597E+03</pdfrwt>
<pdfrwt beam="2">  1       21 0.59070948E-02 0.12503597E+03</pdfrwt>
<totfact> 0.71948520E+06</totfact>
</mgrwt>
</event>
<event>
 5    0  0.1550540E+000  0.1249938E+03  0.7546771E-02  0.1235079E+00
         21   -1    0    0  503  502  0.00000000000E+00  0.00000000000E+00  0.54523329769E+02  0.54523329769E+02  0.00000000000E+00 0.  1.
         21   -1    0    0  502  503 -0.00000000000E+00 -0.00000000000E+00 -0.71636532368E+02  0.71636532368E+02  0.00000000000E+00 0.  1.
         25    2    1    2    0    0  0.00000000000E+00  0.00000000000E+00 -0.17113202599E+02  0.12615986214E+03  0.12499379629E+03 0.  0.
          4    1    3    3  501    0 -0.57505996571E+02  0.70813722306E+01 -0.32149314053E+02  0.66280210986E+02  0.15500000000E+01 0.  1.
         -4    1    3    3    0  501  0.57505996571E+02 -0.70813722306E+01  0.15036111454E+02  0.59879651151E+02  0.15500000000E+01 0.  1.
<mgrwt>
<rscale>  2 0.12499380E+03</rscale>
<asrwt>0</asrwt>
<pdfrwt beam="1">  1       21 0.83882046E-02 0.12499380E+03</pdfrwt>
<pdfrwt beam="2">  1       21 0.11021005E-01 0.12499380E+03</pdfrwt>
<totfact> 0.73895724E+06</totfact>
</mgrwt>
</event>
<event>
 5    0  0.1346918E+000  0.1250012E+03  0.7546771E-02  0.1235067E+00
         21   -1    0    0  503  502  0.00000000000E+00  0.00000000000E+00  0.84550526181E+01  0.84550526181E+01  0.00000000000E+00 0.  1.
         21   -1    0    0  502  503 -0.00000000000E+00 -0.00000000000E+00 -0.46201085203E+03  0.46201085203E+03  0.00000000000E+00 0.  1.
         25    2    1    2    0    0  0.00000000000E+00  0.00000000000E+00 -0.45355579941E+03  0.47046590465E+03  0.12500121702E+03 0.  0.
          4    1    3    3  501    0 -0.14993331879E+01 -0.58583040529E+02 -0.14520882297E+03  0.15659573879E+03  0.15500000000E+01 0.  1.
         -4    1    3    3    0  501  0.14993331879E+01  0.58583040529E+02 -0.30834697644E+03  0.31387016586E+03  0.15500000000E+01 0.  1.
<mgrwt>
<rscale>  2 0.12500122E+03</rscale>
<asrwt>0</asrwt>
<pdfrwt beam="1">  1       21 0.13007774E-02 0.12500122E+03</pdfrwt>
<pdfrwt beam="2">  1       21 0.71078588E-01 0.12500122E+03</pdfrwt>
<totfact> 0.43691108E+06</totfact>
</mgrwt>
</event>
<event>
 5    0  0.1618818E+000  0.1250023E+03  0.7546771E-02  0.1235066E+00
         21   -1    0    0  503  502  0.00000000000E+00  0.00000000000E+00  0.69566018283E+02  0.69566018283E+02  0.00000000000E+00 0. -1.
         21   -1    0    0  502  503 -0.00000000000E+00 -0.00000000000E+00 -0.56153756301E+02  0.56153756301E+02  0.00000000000E+00 0. -1.
         25    2    1    2    0    0  0.00000000000E+00  0.00000000000E+00  0.13412261982E+02  0.12571977458E+03  0.12500229178E+03 0.  0.
          4    1    3    3  501    0 -0.40682328800E+02 -0.47367694268E+02  0.44037994428E+01  0.62614265838E+02  0.15500000000E+01 0.  1.
         -4    1    3    3    0  501  0.40682328800E+02  0.47367694268E+02  0.90084625396E+01  0.63105508747E+02  0.15500000000E+01 0.  1.
<mgrwt>
<rscale>  2 0.12500229E+03</rscale>
<asrwt>0</asrwt>
<pdfrwt beam="1">  1       21 0.10702464E-01 0.12500229E+03</pdfrwt>
<pdfrwt beam="2">  1       21 0.86390394E-02 0.12500229E+03</pdfrwt>
<totfact> 0.73940471E+06</totfact>
</mgrwt>
</event>
<event>
 5    0  0.1692334E+000  0.1250010E+03  0.7546771E-02  0.1235068E+00
         21   -1    0    0  503  502  0.00000000000E+00  0.00000000000E+00  0.10044562900E+03  0.10044562900E+03  0.00000000000E+00 0. -1.
         21   -1    0    0  502  503 -0.00000000000E+00 -0.00000000000E+00 -0.38889837921E+02  0.38889837921E+02  0.00000000000E+00 0. -1.
         25    2    1    2    0    0  0.00000000000E+00  0.00000000000E+00  0.61555791077E+02  0.13933546692E+03  0.12500102770E+03 0.  0.
          4    1    3    3  501    0 -0.51732518433E+02 -0.73650137013E+00  0.69825183361E+02  0.86918091495E+02  0.15500000000E+01 0. -1.
         -4    1    3    3    0  501  0.51732518433E+02  0.73650137013E+00 -0.82693922838E+01  0.52417375425E+02  0.15500000000E+01 0. -1.
<mgrwt>
<rscale>  2 0.12500103E+03</rscale>
<asrwt>0</asrwt>
<pdfrwt beam="1">  1       21 0.15453174E-01 0.12500103E+03</pdfrwt>
<pdfrwt beam="2">  1       21 0.59830520E-02 0.12500103E+03</pdfrwt>
<totfact> 0.72124292E+06</totfact>
</mgrwt>
</event>
<event>
 5    0  0.1222151E+000  0.1249995E+03  0.7546771E-02  0.1235070E+00
         21   -1    0    0  503  502  0.00000000000E+00  0.00000000000E+00  0.35990475424E+01  0.35990475424E+01  0.00000000000E+00 0. -1.
         21   -1    0    0  502  503 -0.00000000000E+00 -0.00000000000E+00 -0.10853484654E+04  0.10853484654E+04  0.00000000000E+00 0. -1.
         25    2    1    2    0    0  0.00000000000E+00  0.00000000000E+00 -0.10817494178E+04  0.10889475129E+04  0.12499953163E+03 0.  0.
          4    1    3    3  501    0 -0.50965869673E+02  0.12448690562E+02 -0.24527896171E+03  0.25083193840E+03  0.15500000000E+01 0.  1.
         -4    1    3    3    0  501  0.50965869673E+02 -0.12448690562E+02 -0.83647045613E+03  0.83811557452E+03  0.15500000000E+01 0.  1.
<mgrwt>
<rscale>  2 0.12499953E+03</rscale>
<asrwt>0</asrwt>
<pdfrwt beam="1">  1       21 0.55369898E-03 0.12499953E+03</pdfrwt>
<pdfrwt beam="2">  1       21 0.16697688E+00 0.12499953E+03</pdfrwt>
<totfact> 0.21499118E+06</totfact>
</mgrwt>
</event>
<event>
 5    0  0.1458693E+000  0.1250000E+03  0.7546771E-02  0.1235069E+00
         21   -1    0    0  503  502  0.00000000000E+00  0.00000000000E+00  0.27755104003E+02  0.27755104003E+02  0.00000000000E+00 0.  1.
         21   -1    0    0  502  503 -0.00000000000E+00 -0.00000000000E+00 -0.14073986661E+03  0.14073986661E+03  0.00000000000E+00 0.  1.
         25    2    1    2    0    0  0.00000000000E+00  0.00000000000E+00 -0.11298476261E+03  0.16849497061E+03  0.12499999416E+03 0.  0.
          4    1    3    3  501    0  0.29392251787E+02  0.13013185794E+02  0.15728579931E+02  0.35819522557E+02  0.15500000000E+01 0.  1.
         -4    1    3    3    0  501 -0.29392251787E+02 -0.13013185794E+02 -0.12871334254E+03  0.13267544806E+03  0.15500000000E+01 0.  1.
<mgrwt>
<rscale>  2 0.12499999E+03</rscale>
<asrwt>0</asrwt>
<pdfrwt beam="1">  1       21 0.42700161E-02 0.12499999E+03</pdfrwt>
<pdfrwt beam="2">  1       21 0.21652287E-01 0.12499999E+03</pdfrwt>
<totfact> 0.68496122E+06</totfact>
</mgrwt>
</event>
<event>
 5    0  0.1261095E+000  0.1249972E+03  0.7546771E-02  0.1235074E+00
         21   -1    0    0  503  502  0.00000000000E+00  0.00000000000E+00  0.61007873817E+03  0.61007873817E+03  0.00000000000E+00 0.  1.
         21   -1    0    0  502  503 -0.00000000000E+00 -0.00000000000E+00 -0.64025719679E+01  0.64025719679E+01  0.00000000000E+00 0.  1.
         25    2    1    2    0    0  0.00000000000E+00  0.00000000000E+00  0.60367616620E+03  0.61648131013E+03  0.12499716840E+03 0.  0.
          4    1    3    3  501    0  0.62352600643E+02 -0.27383293717E+01  0.31606854408E+03  0.32217553028E+03  0.15500000000E+01 0.  1.
         -4    1    3    3    0  501 -0.62352600643E+02  0.27383293717E+01  0.28760762212E+03  0.29430577985E+03  0.15500000000E+01 0.  1.
<mgrwt>
<rscale>  2 0.12499717E+03</rscale>
<asrwt>0</asrwt>
<pdfrwt beam="1">  1       21 0.93858221E-01 0.12499717E+03</pdfrwt>
<pdfrwt beam="2">  1       21 0.98501156E-03 0.12499717E+03</pdfrwt>
<totfact> 0.36360304E+06</totfact>
</mgrwt>
</event>
<event>
 5    0  0.1334381E+000  0.1249968E+03  0.7546771E-02  0.1235074E+00
         21   -1    0    0  503  502  0.00000000000E+00  0.00000000000E+00  0.48251300884E+03  0.48251300884E+03  0.00000000000E+00 0.  1.
         21   -1    0    0  502  503 -0.00000000000E+00 -0.00000000000E+00 -0.80952157142E+01  0.80952157142E+01  0.00000000000E+00 0.  1.
         25    2    1    2    0    0  0.00000000000E+00  0.00000000000E+00  0.47441779312E+03  0.49060822455E+03  0.12499675022E+03 0.  0.
          4    1    3    3  501    0  0.55760106311E+02  0.16073965838E+02  0.14633232360E+03  0.15742653291E+03  0.15500000000E+01 0.  1.
         -4    1    3    3    0  501 -0.55760106311E+02 -0.16073965838E+02  0.32808546952E+03  0.33318169164E+03  0.15500000000E+01 0.  1.
<mgrwt>
<rscale>  2 0.12499675E+03</rscale>
<asrwt>0</asrwt>
<pdfrwt beam="1">  1       21 0.74232749E-01 0.12499675E+03</pdfrwt>
<pdfrwt beam="2">  1       21 0.12454182E-02 0.12499675E+03</pdfrwt>
<totfact> 0.42561483E+06</totfact>
</mgrwt>
</event>
<event>
 5    0  0.1494551E+000  0.1250093E+03  0.7546771E-02  0.1235055E+00
         21   -1    0    0  503  502  0.00000000000E+00  0.00000000000E+00  0.50801263249E+02  0.50801263249E+02  0.00000000000E+00 0. -1.
         21   -1    0    0  502  503 -0.00000000000E+00 -0.00000000000E+00 -0.76904233356E+02  0.76904233356E+02  0.00000000000E+00 0. -1.
         25    2    1    2    0    0  0.00000000000E+00  0.00000000000E+00 -0.26102970108E+02  0.12770549660E+03  0.12500931491E+03 0.  0.
          4    1    3    3  501    0 -0.25258464982E+02 -0.36669390958E+02 -0.57835269609E+02  0.73006542153E+02  0.15500000000E+01 0.  1.
         -4    1    3    3    0  501  0.25258464982E+02  0.36669390958E+02  0.31732299501E+02  0.54698954452E+02  0.15500000000E+01 0.  1.
<mgrwt>
<rscale>  2 0.12500931E+03</rscale>
<asrwt>0</asrwt>
<pdfrwt beam="1">  1       21 0.78155790E-02 0.12500931E+03</pdfrwt>
<pdfrwt beam="2">  1       21 0.11831420E-01 0.12500931E+03</pdfrwt>
<totfact> 0.73655865E+06</totfact>
</mgrwt>
</event>
<event>
 5    0  0.1516898E+000  0.1250024E+03  0.7546771E-02  0.1235065E+00
         21   -1    0    0  503  502  0.00000000000E+00  0.00000000000E+00  0.47486926827E+02  0.47486926827E+02  0.00000000000E+00 0.  1.
         21   -1    0    0  502  503 -0.00000000000E+00 -0.00000000000E+00 -0.82262703963E+02  0.82262703963E+02  0.00000000000E+00 0.  1.
         25    2    1    2    0    0  0.00000000000E+00  0.00000000000E+00 -0.34775777136E+02  0.12974963079E+03  0.12500244803E+03 0.  0.
          4    1    3    3  501    0  0.58534482122E+02 -0.74473344916E+01 -0.38717037630E+02  0.70591500134E+02  0.15500000000E+01 0. -1.
         -4    1    3    3    0  501 -0.58534482122E+02  0.74473344916E+01  0.39412604947E+01  0.59158130655E+02  0.15500000000E+01 0. -1.
<mgrwt>
<rscale>  2 0.12500245E+03</rscale>
<asrwt>0</asrwt>
<pdfrwt beam="1">  1       21 0.73056811E-02 0.12500245E+03</pdfrwt>
<pdfrwt beam="2">  1       21 0.12655800E-01 0.12500245E+03</pdfrwt>
<totfact> 0.73393808E+06</totfact>
</mgrwt>
</event>
<event>
 5    0  0.1222151E+000  0.1250093E+03  0.7546771E-02  0.1235055E+00
         21   -1    0    0  503  502  0.00000000000E+00  0.00000000000E+00  0.22545147416E+01  0.22545147416E+01  0.00000000000E+00 0.  1.
         21   -1    0    0  502  503 -0.00000000000E+00 -0.00000000000E+00 -0.17328912960E+04  0.17328912960E+04  0.00000000000E+00 0.  1.
         25    2    1    2    0    0  0.00000000000E+00  0.00000000000E+00 -0.17306367813E+04  0.17351458108E+04  0.12500926322E+03 0.  0.
          4    1    3    3  501    0  0.19962559682E+02 -0.58245400167E+02 -0.10131246173E+04  0.10149950360E+04  0.15500000000E+01 0. -1.
         -4    1    3    3    0  501 -0.19962559682E+02  0.58245400167E+02 -0.71751216394E+03  0.72015077472E+03  0.15500000000E+01 0. -1.
<mgrwt>
<rscale>  2 0.12500926E+03</rscale>
<asrwt>0</asrwt>
<pdfrwt beam="1">  1       21 0.34684766E-03 0.12500926E+03</pdfrwt>
<pdfrwt beam="2">  1       21 0.26659925E+00 0.12500926E+03</pdfrwt>
<totfact> 0.10834371E+06</totfact>
</mgrwt>
</event>
<event>
 5    0  0.1222151E+000  0.1250100E+03  0.7546771E-02  0.1235054E+00
         21   -1    0    0  503  502  0.00000000000E+00  0.00000000000E+00  0.62310573954E+03  0.62310573954E+03  0.00000000000E+00 0.  1.
         21   -1    0    0  502  503 -0.00000000000E+00 -0.00000000000E+00 -0.62700049126E+01  0.62700049126E+01  0.00000000000E+00 0.  1.
         25    2    1    2    0    0  0.00000000000E+00  0.00000000000E+00  0.61683573462E+03  0.62937574445E+03  0.12501001637E+03 0.  0.
          4    1    3    3  501    0  0.39836458212E+02  0.87233924336E+00  0.66088207785E+02  0.77186514929E+02  0.15500000000E+01 0. -1.
         -4    1    3    3    0  501 -0.39836458212E+02 -0.87233924336E+00  0.55074752684E+03  0.55218922952E+03  0.15500000000E+01 0. -1.
<mgrwt>
<rscale>  2 0.12501002E+03</rscale>
<asrwt>0</asrwt>
<pdfrwt beam="1">  1       21 0.95862373E-01 0.12501002E+03</pdfrwt>
<pdfrwt beam="2">  1       21 0.96461663E-03 0.12501002E+03</pdfrwt>
<totfact> 0.35788082E+06</totfact>
</mgrwt>
</event>
<event>
 5    0  0.1498431E+000  0.1249958E+03  0.7546771E-02  0.1235076E+00
         21   -1    0    0  503  502  0.00000000000E+00  0.00000000000E+00  0.14088721801E+03  0.14088721801E+03  0.00000000000E+00 0. -1.
         21   -1    0    0  502  503 -0.00000000000E+00 -0.00000000000E+00 -0.27724228454E+02  0.27724228454E+02  0.00000000000E+00 0. -1.
         25    2    1    2    0    0  0.00000000000E+00  0.00000000000E+00  0.11316298956E+03  0.16861144647E+03  0.12499583063E+03 0.  0.
          4    1    3    3  501    0  0.39343569585E+02 -0.15643425259E+02  0.11855854195E+03  0.12590140424E+03  0.15500000000E+01 0. -1.
         -4    1    3    3    0  501 -0.39343569585E+02  0.15643425259E+02 -0.53955523852E+01  0.42710042228E+02  0.15500000000E+01 0. -1.
<mgrwt>
<rscale>  2 0.12499583E+03</rscale>
<asrwt>0</asrwt>
<pdfrwt beam="1">  1       21 0.21674956E-01 0.12499583E+03</pdfrwt>
<pdfrwt beam="2">  1       21 0.42652660E-02 0.12499583E+03</pdfrwt>
<totfact> 0.68489533E+06</totfact>
</mgrwt>
</event>
<event>
 5    0  0.1222151E+000  0.1250024E+03  0.7546771E-02  0.1235065E+00
         21   -1    0    0  503  502  0.00000000000E+00  0.00000000000E+00  0.12537297542E+04  0.12537297542E+04  0.00000000000E+00 0. -1.
         21   -1    0    0  502  503 -0.00000000000E+00 -0.00000000000E+00 -0.31158252647E+01  0.31158252647E+01  0.00000000000E+00 0. -1.
         25    2    1    2    0    0  0.00000000000E+00  0.00000000000E+00  0.12506139289E+04  0.12568455795E+04  0.12500244547E+03 0.  0.
          4    1    3    3  501    0 -0.32999504578E+02 -0.19076139432E+02  0.12751608538E+03  0.13310004105E+03  0.15500000000E+01 0.  1.
         -4    1    3    3    0  501  0.32999504578E+02  0.19076139432E+02  0.11230978436E+04  0.11237455384E+04  0.15500000000E+01 0.  1.
<mgrwt>
<rscale>  2 0.12500245E+03</rscale>
<asrwt>0</asrwt>
<pdfrwt beam="1">  1       21 0.19288110E+00 0.12500245E+03</pdfrwt>
<pdfrwt beam="2">  1       21 0.47935873E-03 0.12500245E+03</pdfrwt>
<totfact> 0.18044342E+06</totfact>
</mgrwt>
</event>
<event>
 5    0  0.1424966E+000  0.1250327E+03  0.7546771E-02  0.1235018E+00
         21   -1    0    0  503  502  0.00000000000E+00  0.00000000000E+00  0.33740130336E+03  0.33740130336E+03  0.00000000000E+00 0. -1.
         21   -1    0    0  502  503 -0.00000000000E+00 -0.00000000000E+00 -0.11583510596E+02  0.11583510596E+02  0.00000000000E+00 0. -1.
         25    2    1    2    0    0  0.00000000000E+00  0.00000000000E+00  0.32581779276E+03  0.34898481395E+03  0.12503266090E+03 0.  0.
          4    1    3    3  501    0 -0.54411858953E+02  0.24391223416E+02  0.21514940541E+03  0.22326498006E+03  0.15500000000E+01 0. -1.
         -4    1    3    3    0  501  0.54411858953E+02 -0.24391223416E+02  0.11066838735E+03  0.12571983389E+03  0.15500000000E+01 0. -1.
<mgrwt>
<rscale>  2 0.12503266E+03</rscale>
<asrwt>0</asrwt>
<pdfrwt beam="1">  1       21 0.51907885E-01 0.12503266E+03</pdfrwt>
<pdfrwt beam="2">  1       21 0.17820788E-02 0.12503266E+03</pdfrwt>
<totfact> 0.51571288E+06</totfact>
</mgrwt>
</event>
<event>
 5    0  0.1335722E+000  0.1250124E+03  0.7546771E-02  0.1235050E+00
         21   -1    0    0  503  502  0.00000000000E+00  0.00000000000E+00  0.36219882422E+03  0.36219882422E+03  0.00000000000E+00 0.  1.
         21   -1    0    0  502  503 -0.00000000000E+00 -0.00000000000E+00 -0.10786970314E+02  0.10786970314E+02  0.00000000000E+00 0.  1.
         25    2    1    2    0    0  0.00000000000E+00  0.00000000000E+00  0.35141185391E+03  0.37298579454E+03  0.12501244681E+03 0.  0.
          4    1    3    3  501    0 -0.32682734418E+02 -0.25382366646E+02  0.36011492772E+02  0.54878554803E+02  0.15500000000E+01 0.  1.
         -4    1    3    3    0  501  0.32682734418E+02  0.25382366646E+02  0.31540036114E+03  0.31810723973E+03  0.15500000000E+01 0.  1.
<mgrwt>
<rscale>  2 0.12501245E+03</rscale>
<asrwt>0</asrwt>
<pdfrwt beam="1">  1       21 0.55722887E-01 0.12501245E+03</pdfrwt>
<pdfrwt beam="2">  1       21 0.16595342E-02 0.12501245E+03</pdfrwt>
<totfact> 0.49868858E+06</totfact>
</mgrwt>
</event>
<event>
 5    0  0.1385776E+000  0.1250058E+03  0.7546771E-02  0.1235060E+00
         21   -1    0    0  503  502  0.00000000000E+00  0.00000000000E+00  0.13243500318E+02  0.13243500318E+02  0.00000000000E+00 0. -1.
         21   -1    0    0  502  503 -0.00000000000E+00 -0.00000000000E+00 -0.29498333177E+03  0.29498333177E+03  0.00000000000E+00 0. -1.
         25    2    1    2    0    0  0.00000000000E+00  0.00000000000E+00 -0.28173983145E+03  0.30822683209E+03  0.12500578944E+03 0.  0.
          4    1    3    3  501    0 -0.49562954151E+02  0.14302902079E+02 -0.53933432492E+02  0.74647686317E+02  0.15500000000E+01 0.  1.
         -4    1    3    3    0  501  0.49562954151E+02 -0.14302902079E+02 -0.22780639896E+03  0.23357914577E+03  0.15500000000E+01 0.  1.
<mgrwt>
<rscale>  2 0.12500579E+03</rscale>
<asrwt>0</asrwt>
<pdfrwt beam="1">  1       21 0.20374617E-02 0.12500579E+03</pdfrwt>
<pdfrwt beam="2">  1       21 0.45382049E-01 0.12500579E+03</pdfrwt>
<totfact> 0.54771384E+06</totfact>
</mgrwt>
</event>
<event>
 5    0  0.1222151E+000  0.1250088E+03  0.7546771E-02  0.1235056E+00
         21   -1    0    0  503  502  0.00000000000E+00  0.00000000000E+00  0.15895360932E+04  0.15895360932E+04  0.00000000000E+00 0. -1.
         21   -1    0    0  502  503 -0.00000000000E+00 -0.00000000000E+00 -0.24578242779E+01  0.24578242779E+01  0.00000000000E+00 0. -1.
         25    2    1    2    0    0  0.00000000000E+00  0.00000000000E+00  0.15870782690E+04  0.15919939175E+04  0.12500880610E+03 0.  0.
          4    1    3    3  501    0  0.38235616703E+02  0.31661667977E+01  0.14216253577E+04  0.14221438208E+04  0.15500000000E+01 0.  1.
         -4    1    3    3    0  501 -0.38235616703E+02 -0.31661667977E+01  0.16545291130E+03  0.16985009671E+03  0.15500000000E+01 0.  1.
<mgrwt>
<rscale>  2 0.12500881E+03</rscale>
<asrwt>0</asrwt>
<pdfrwt beam="1">  1       21 0.24454319E+00 0.12500881E+03</pdfrwt>
<pdfrwt beam="2">  1       21 0.37812808E-03 0.12500881E+03</pdfrwt>
<totfact> 0.12680043E+06</totfact>
</mgrwt>
</event>
<event>
 5    0  0.1450941E+000  0.1250019E+03  0.7546771E-02  0.1235066E+00
         21   -1    0    0  503  502  0.00000000000E+00  0.00000000000E+00  0.29454207302E+02  0.29454207302E+02  0.00000000000E+00 0.  1.
         21   -1    0    0  502  503 -0.00000000000E+00 -0.00000000000E+00 -0.13262508147E+03  0.13262508147E+03  0.00000000000E+00 0.  1.
         25    2    1    2    0    0  0.00000000000E+00  0.00000000000E+00 -0.10317087416E+03  0.16207928877E+03  0.12500186627E+03 0.  0.
          4    1    3    3  501    0  0.14884860164E+02  0.40262092665E+02  0.72838657809E+01  0.43566642842E+02  0.15500000000E+01 0. -1.
         -4    1    3    3    0  501 -0.14884860164E+02 -0.40262092665E+02 -0.11045473994E+03  0.11851264592E+03  0.15500000000E+01 0. -1.
<mgrwt>
<rscale>  2 0.12500187E+03</rscale>
<asrwt>0</asrwt>
<pdfrwt beam="1">  1       21 0.45314165E-02 0.12500187E+03</pdfrwt>
<pdfrwt beam="2">  1       21 0.20403859E-01 0.12500187E+03</pdfrwt>
<totfact> 0.69263032E+06</totfact>
</mgrwt>
</event>
<event>
 5    0  0.1536521E+000  0.1249994E+03  0.7546771E-02  0.1235070E+00
         21   -1    0    0  503  502  0.00000000000E+00  0.00000000000E+00  0.23180356009E+02  0.23180356009E+02  0.00000000000E+00 0.  1.
         21   -1    0    0  502  503 -0.00000000000E+00 -0.00000000000E+00 -0.16851379651E+03  0.16851379651E+03  0.00000000000E+00 0.  1.
         25    2    1    2    0    0  0.00000000000E+00  0.00000000000E+00 -0.14533344050E+03  0.19169415252E+03  0.12499935673E+03 0.  0.
          4    1    3    3  501    0 -0.40577671635E+02 -0.42793482219E+02 -0.41015202529E+02  0.71850392443E+02  0.15500000000E+01 0.  1.
         -4    1    3    3    0  501  0.40577671635E+02  0.42793482219E+02 -0.10431823797E+03  0.11984376008E+03  0.15500000000E+01 0.  1.
<mgrwt>
<rscale>  2 0.12499936E+03</rscale>
<asrwt>0</asrwt>
<pdfrwt beam="1">  1       21 0.35662086E-02 0.12499936E+03</pdfrwt>
<pdfrwt beam="2">  1       21 0.25925200E-01 0.12499936E+03</pdfrwt>
<totfact> 0.65835741E+06</totfact>
</mgrwt>
</event>
<event>
 5    0  0.1526657E+000  0.1249924E+03  0.7546771E-02  0.1235081E+00
         21   -1    0    0  503  502  0.00000000000E+00  0.00000000000E+00  0.21930653015E+02  0.21930653015E+02  0.00000000000E+00 0. -1.
         21   -1    0    0  502  503 -0.00000000000E+00 -0.00000000000E+00 -0.17809672977E+03  0.17809672977E+03  0.00000000000E+00 0. -1.
         25    2    1    2    0    0  0.00000000000E+00  0.00000000000E+00 -0.15616607676E+03  0.20002738279E+03  0.12499244111E+03 0.  0.
          4    1    3    3  501    0  0.26204004654E+02  0.53694686492E+02 -0.48853460595E+02  0.77193473360E+02  0.15500000000E+01 0.  1.
         -4    1    3    3    0  501 -0.26204004654E+02 -0.53694686492E+02 -0.10731261617E+03  0.12283390943E+03  0.15500000000E+01 0.  1.
<mgrwt>
<rscale>  2 0.12499244E+03</rscale>
<asrwt>0</asrwt>
<pdfrwt beam="1">  1       21 0.33739466E-02 0.12499244E+03</pdfrwt>
<pdfrwt beam="2">  1       21 0.27399497E-01 0.12499244E+03</pdfrwt>
<totfact> 0.64936711E+06</totfact>
</mgrwt>
</event>
<event>
 5    0  0.1370008E+000  0.1249928E+03  0.7546771E-02  0.1235080E+00
         21   -1    0    0  503  502  0.00000000000E+00  0.00000000000E+00  0.10654748785E+02  0.10654748785E+02  0.00000000000E+00 0.  1.
         21   -1    0    0  502  503 -0.00000000000E+00 -0.00000000000E+00 -0.36657861003E+03  0.36657861003E+03  0.00000000000E+00 0.  1.
         25    2    1    2    0    0  0.00000000000E+00  0.00000000000E+00 -0.35592386124E+03  0.37723335881E+03  0.12499284779E+03 0.  0.
          4    1    3    3  501    0  0.51793455981E+02  0.27564071614E+02 -0.24276623099E+03  0.24976025612E+03  0.15500000000E+01 0. -1.
         -4    1    3    3    0  501 -0.51793455981E+02 -0.27564071614E+02 -0.11315763025E+03  0.12747310270E+03  0.15500000000E+01 0. -1.
<mgrwt>
<rscale>  2 0.12499285E+03</rscale>
<asrwt>0</asrwt>
<pdfrwt beam="1">  1       21 0.16391919E-02 0.12499285E+03</pdfrwt>
<pdfrwt beam="2">  1       21 0.56396716E-01 0.12499285E+03</pdfrwt>
<totfact> 0.49596812E+06</totfact>
</mgrwt>
</event>
<event>
 5    0  0.1469109E+000  0.1249985E+03  0.7546771E-02  0.1235072E+00
         21   -1    0    0  503  502  0.00000000000E+00  0.00000000000E+00  0.12151965488E+03  0.12151965488E+03  0.00000000000E+00 0. -1.
         21   -1    0    0  502  503 -0.00000000000E+00 -0.00000000000E+00 -0.32144257116E+02  0.32144257116E+02  0.00000000000E+00 0. -1.
         25    2    1    2    0    0  0.00000000000E+00  0.00000000000E+00  0.89375397765E+02  0.15366391200E+03  0.12499854449E+03 0.  0.
          4    1    3    3  501    0  0.18089835018E+02  0.21813550475E+02  0.11314119639E+03  0.11664649989E+03  0.15500000000E+01 0. -1.
         -4    1    3    3    0  501 -0.18089835018E+02 -0.21813550475E+02 -0.23765798623E+02  0.37017412112E+02  0.15500000000E+01 0. -1.
<mgrwt>
<rscale>  2 0.12499854E+03</rscale>
<asrwt>0</asrwt>
<pdfrwt beam="1">  1       21 0.18695331E-01 0.12499854E+03</pdfrwt>
<pdfrwt beam="2">  1       21 0.49452704E-02 0.12499854E+03</pdfrwt>
<totfact> 0.70304528E+06</totfact>
</mgrwt>
</event>
<event>
 5    0  0.1349762E+000  0.1249986E+03  0.7546771E-02  0.1235072E+00
         21   -1    0    0  503  502  0.00000000000E+00  0.00000000000E+00  0.40410359270E+03  0.40410359270E+03  0.00000000000E+00 0. -1.
         21   -1    0    0  502  503 -0.00000000000E+00 -0.00000000000E+00 -0.96662361613E+01  0.96662361613E+01  0.00000000000E+00 0. -1.
         25    2    1    2    0    0  0.00000000000E+00  0.00000000000E+00  0.39443735654E+03  0.41376982886E+03  0.12499857216E+03 0.  0.
          4    1    3    3  501    0 -0.43850344123E+02 -0.44104700865E+02  0.17744570736E+03  0.18803579148E+03  0.15500000000E+01 0. -1.
         -4    1    3    3    0  501  0.43850344123E+02  0.44104700865E+02  0.21699164918E+03  0.22573403738E+03  0.15500000000E+01 0. -1.
<mgrwt>
<rscale>  2 0.12499857E+03</rscale>
<asrwt>0</asrwt>
<pdfrwt beam="1">  1       21 0.62169770E-01 0.12499857E+03</pdfrwt>
<pdfrwt beam="2">  1       21 0.14871136E-02 0.12499857E+03</pdfrwt>
<totfact> 0.47142913E+06</totfact>
</mgrwt>
</event>
<event>
 5    0  0.1575991E+000  0.1249977E+03  0.7546771E-02  0.1235073E+00
         21   -1    0    0  503  502  0.00000000000E+00  0.00000000000E+00  0.10309667625E+03  0.10309667625E+03  0.00000000000E+00 0. -1.
         21   -1    0    0  502  503 -0.00000000000E+00 -0.00000000000E+00 -0.37887811297E+02  0.37887811297E+02  0.00000000000E+00 0. -1.
         25    2    1    2    0    0  0.00000000000E+00  0.00000000000E+00  0.65208864953E+02  0.14098448755E+03  0.12499771862E+03 0.  0.
          4    1    3    3  501    0  0.54190536844E+02  0.14224815655E+02  0.63795313197E+02  0.84918809164E+02  0.15500000000E+01 0.  1.
         -4    1    3    3    0  501 -0.54190536844E+02 -0.14224815655E+02  0.14135517559E+01  0.56065678382E+02  0.15500000000E+01 0.  1.
<mgrwt>
<rscale>  2 0.12499772E+03</rscale>
<asrwt>0</asrwt>
<pdfrwt beam="1">  1       21 0.15861027E-01 0.12499772E+03</pdfrwt>
<pdfrwt beam="2">  1       21 0.58288941E-02 0.12499772E+03</pdfrwt>
<totfact> 0.71915225E+06</totfact>
</mgrwt>
</event>
<event>
 5    0  0.1599670E+000  0.1249972E+03  0.7546771E-02  0.1235074E+00
         21   -1    0    0  503  502  0.00000000000E+00  0.00000000000E+00  0.79643765300E+02  0.79643765300E+02  0.00000000000E+00 0. -1.
         21   -1    0    0  502  503 -0.00000000000E+00 -0.00000000000E+00 -0.49044358684E+02  0.49044358684E+02  0.00000000000E+00 0. -1.
         25    2    1    2    0    0  0.00000000000E+00  0.00000000000E+00  0.30599406616E+02  0.12868812398E+03  0.12499723825E+03 0.  0.
          4    1    3    3  501    0 -0.34809633783E+02 -0.25316991659E+02 -0.31325677089E+02  0.53257499151E+02  0.15500000000E+01 0.  1.
         -4    1    3    3    0  501  0.34809633783E+02  0.25316991659E+02  0.61925083705E+02  0.75430624832E+02  0.15500000000E+01 0.  1.
<mgrwt>
<rscale>  2 0.12499724E+03</rscale>
<asrwt>0</asrwt>
<pdfrwt beam="1">  1       21 0.12252887E-01 0.12499724E+03</pdfrwt>
<pdfrwt beam="2">  1       21 0.75452860E-02 0.12499724E+03</pdfrwt>
<totfact> 0.73545986E+06</totfact>
</mgrwt>
</event>
<event>
 5    0  0.1363691E+000  0.1249909E+03  0.7546771E-02  0.1235084E+00
         21   -1    0    0  503  502  0.00000000000E+00  0.00000000000E+00  0.26889260990E+02  0.26889260990E+02  0.00000000000E+00 0. -1.
         21   -1    0    0  502  503 -0.00000000000E+00 -0.00000000000E+00 -0.14525057357E+03  0.14525057357E+03  0.00000000000E+00 0. -1.
         25    2    1    2    0    0  0.00000000000E+00  0.00000000000E+00 -0.11836131258E+03  0.17213983456E+03  0.12499088898E+03 0.  0.
          4    1    3    3  501    0  0.30216238701E+02 -0.92906858860E+01  0.15035226117E+02  0.35039955049E+02  0.15500000000E+01 0. -1.
         -4    1    3    3    0  501 -0.30216238701E+02  0.92906858860E+01 -0.13339653870E+03  0.13709987951E+03  0.15500000000E+01 0. -1.
<mgrwt>
<rscale>  2 0.12499089E+03</rscale>
<asrwt>0</asrwt>
<pdfrwt beam="1">  1       21 0.41368094E-02 0.12499089E+03</pdfrwt>
<pdfrwt beam="2">  1       21 0.22346242E-01 0.12499089E+03</pdfrwt>
<totfact> 0.68080614E+06</totfact>
</mgrwt>
</event>
<event>
 5    0  0.1496168E+000  0.1249979E+03  0.7546771E-02  0.1235073E+00
         21   -1    0    0  503  502  0.00000000000E+00  0.00000000000E+00  0.21561320858E+03  0.21561320858E+03  0.00000000000E+00 0.  1.
         21   -1    0    0  502  503 -0.00000000000E+00 -0.00000000000E+00 -0.18116326001E+02  0.18116326001E+02  0.00000000000E+00 0.  1.
         25    2    1    2    0    0  0.00000000000E+00  0.00000000000E+00  0.19749688258E+03  0.23372953459E+03  0.12499790681E+03 0.  0.
          4    1    3    3  501    0  0.38323330082E+02 -0.47087708353E+02  0.71153682564E+02  0.93547736204E+02  0.15500000000E+01 0.  1.
         -4    1    3    3    0  501 -0.38323330082E+02  0.47087708353E+02  0.12634320002E+03  0.14018179838E+03  0.15500000000E+01 0.  1.
<mgrwt>
<rscale>  2 0.12499791E+03</rscale>
<asrwt>0</asrwt>
<pdfrwt beam="1">  1       21 0.33171261E-01 0.12499791E+03</pdfrwt>
<pdfrwt beam="2">  1       21 0.27871272E-02 0.12499791E+03</pdfrwt>
<totfact> 0.61448019E+06</totfact>
</mgrwt>
</event>
<event>
 5    0  0.1543148E+000  0.1249878E+03  0.7546771E-02  0.1235088E+00
         21   -1    0    0  503  502  0.00000000000E+00  0.00000000000E+00  0.36216044616E+02  0.36216044616E+02  0.00000000000E+00 0. -1.
         21   -1    0    0  502  503 -0.00000000000E+00 -0.00000000000E+00 -0.10783868410E+03  0.10783868410E+03  0.00000000000E+00 0. -1.
         25    2    1    2    0    0  0.00000000000E+00  0.00000000000E+00 -0.71622639486E+02  0.14405472872E+03  0.12498784892E+03 0.  0.
          4    1    3    3  501    0  0.68678547217E+01  0.47587184838E+02 -0.81788966780E+02  0.94887012684E+02  0.15500000000E+01 0. -1.
         -4    1    3    3    0  501 -0.68678547217E+01 -0.47587184838E+02  0.10166327294E+02  0.49167716033E+02  0.15500000000E+01 0. -1.
<mgrwt>
<rscale>  2 0.12498785E+03</rscale>
<asrwt>0</asrwt>
<pdfrwt beam="1">  1       21 0.55716992E-02 0.12498785E+03</pdfrwt>
<pdfrwt beam="2">  1       21 0.16590567E-01 0.12498785E+03</pdfrwt>
<totfact> 0.71536427E+06</totfact>
</mgrwt>
</event>
<event>
 5    0  0.1454484E+000  0.1250255E+03  0.7546771E-02  0.1235029E+00
         21   -1    0    0  503  502  0.00000000000E+00  0.00000000000E+00  0.42793071906E+02  0.42793071906E+02  0.00000000000E+00 0.  1.
         21   -1    0    0  502  503 -0.00000000000E+00 -0.00000000000E+00 -0.91319584882E+02  0.91319584882E+02  0.00000000000E+00 0.  1.
         25    2    1    2    0    0  0.00000000000E+00  0.00000000000E+00 -0.48526512976E+02  0.13411265679E+03  0.12502552639E+03 0.  0.
          4    1    3    3  501    0  0.34569630493E+02  0.34706882592E+02 -0.65888523229E+02  0.82117763273E+02  0.15500000000E+01 0.  1.
         -4    1    3    3    0  501 -0.34569630493E+02 -0.34706882592E+02  0.17362010252E+02  0.51994893516E+02  0.15500000000E+01 0.  1.
<mgrwt>
<rscale>  2 0.12502553E+03</rscale>
<asrwt>0</asrwt>
<pdfrwt beam="1">  1       21 0.65835496E-02 0.12502553E+03</pdfrwt>
<pdfrwt beam="2">  1       21 0.14049167E-01 0.12502553E+03</pdfrwt>
<totfact> 0.72766788E+06</totfact>
</mgrwt>
</event>
<event>
 5    0  0.1222151E+000  0.1250087E+03  0.7546771E-02  0.1235056E+00
         21   -1    0    0  503  502  0.00000000000E+00  0.00000000000E+00  0.52142129850E+01  0.52142129850E+01  0.00000000000E+00 0.  1.
         21   -1    0    0  502  503 -0.00000000000E+00 -0.00000000000E+00 -0.74925852518E+03  0.74925852518E+03  0.00000000000E+00 0.  1.
         25    2    1    2    0    0  0.00000000000E+00  0.00000000000E+00 -0.74404431219E+03  0.75447273816E+03  0.12500869620E+03 0.  0.
          4    1    3    3  501    0  0.27374607263E+02  0.58198210740E+01 -0.70920134167E+03  0.70975501757E+03  0.15500000000E+01 0.  1.
         -4    1    3    3    0  501 -0.27374607263E+02 -0.58198210740E+01 -0.34842970524E+02  0.44717720594E+02  0.15500000000E+01 0.  1.
<mgrwt>
<rscale>  2 0.12500870E+03</rscale>
<asrwt>0</asrwt>
<pdfrwt beam="1">  1       21 0.80218666E-03 0.12500870E+03</pdfrwt>
<pdfrwt beam="2">  1       21 0.11527053E+00 0.12500870E+03</pdfrwt>
<totfact> 0.30905511E+06</totfact>
</mgrwt>
</event>
<event>
 5    0  0.1328764E+000  0.1250015E+03  0.7546771E-02  0.1235067E+00
         21   -1    0    0  503  502  0.00000000000E+00  0.00000000000E+00  0.36612854334E+03  0.36612854334E+03  0.00000000000E+00 0.  1.
         21   -1    0    0  502  503 -0.00000000000E+00 -0.00000000000E+00 -0.10669330543E+02  0.10669330543E+02  0.00000000000E+00 0.  1.
         25    2    1    2    0    0  0.00000000000E+00  0.00000000000E+00  0.35545921279E+03  0.37679787388E+03  0.12500154319E+03 0.  0.
          4    1    3    3  501    0 -0.32669388123E+01 -0.19997287939E+02  0.35589196560E+03  0.35647167923E+03  0.15500000000E+01 0. -1.
         -4    1    3    3    0  501  0.32669388123E+01  0.19997287939E+02 -0.43275280272E+00  0.20326194654E+02  0.15500000000E+01 0. -1.
<mgrwt>
<rscale>  2 0.12500154E+03</rscale>
<asrwt>0</asrwt>
<pdfrwt beam="1">  1       21 0.56327458E-01 0.12500154E+03</pdfrwt>
<pdfrwt beam="2">  1       21 0.16414358E-02 0.12500154E+03</pdfrwt>
<totfact> 0.49616295E+06</totfact>
</mgrwt>
</event>
<event>
 5    0  0.1340314E+000  0.1250018E+03  0.7546771E-02  0.1235066E+00
         21   -1    0    0  503  502  0.00000000000E+00  0.00000000000E+00  0.75520778289E+01  0.75520778289E+01  0.00000000000E+00 0.  1.
         21   -1    0    0  502  503 -0.00000000000E+00 -0.00000000000E+00 -0.51725694036E+03  0.51725694036E+03  0.00000000000E+00 0.  1.
         25    2    1    2    0    0  0.00000000000E+00  0.00000000000E+00 -0.50970486253E+03  0.52480901819E+03  0.12500183472E+03 0.  0.
          4    1    3    3  501    0 -0.59966525758E+02  0.10726040169E+02 -0.31316803936E+03  0.31904177708E+03  0.15500000000E+01 0. -1.
         -4    1    3    3    0  501  0.59966525758E+02 -0.10726040169E+02 -0.19653682318E+03  0.20576724111E+03  0.15500000000E+01 0. -1.
<mgrwt>
<rscale>  2 0.12500183E+03</rscale>
<asrwt>0</asrwt>
<pdfrwt beam="1">  1       21 0.11618579E-02 0.12500183E+03</pdfrwt>
<pdfrwt beam="2">  1       21 0.79578009E-01 0.12500183E+03</pdfrwt>
<totfact> 0.40727944E+06</totfact>
</mgrwt>
</event>
<event>
 5    0  0.1362373E+000  0.1250012E+03  0.7546771E-02  0.1235067E+00
         21   -1    0    0  503  502  0.00000000000E+00  0.00000000000E+00  0.93077778785E+01  0.93077778785E+01  0.00000000000E+00 0. -1.
         21   -1    0    0  502  503 -0.00000000000E+00 -0.00000000000E+00 -0.41968375301E+03  0.41968375301E+03  0.00000000000E+00 0. -1.
         25    2    1    2    0    0  0.00000000000E+00  0.00000000000E+00 -0.41037597513E+03  0.42899153089E+03  0.12500117043E+03 0.  0.
          4    1    3    3  501    0  0.26596507807E+02 -0.11858880334E+02 -0.15471463462E+02  0.33011754754E+02  0.15500000000E+01 0.  1.
         -4    1    3    3    0  501 -0.26596507807E+02  0.11858880334E+02 -0.39490451167E+03  0.39597977613E+03  0.15500000000E+01 0.  1.
<mgrwt>
<rscale>  2 0.12500117E+03</rscale>
<asrwt>0</asrwt>
<pdfrwt beam="1">  1       21 0.14319657E-02 0.12500117E+03</pdfrwt>
<pdfrwt beam="2">  1       21 0.64566739E-01 0.12500117E+03</pdfrwt>
<totfact> 0.46174648E+06</totfact>
</mgrwt>
</event>
<event>
 5    0  0.1476045E+000  0.1250045E+03  0.7546771E-02  0.1235062E+00
         21   -1    0    0  503  502  0.00000000000E+00  0.00000000000E+00  0.55926148987E+02  0.55926148987E+02  0.00000000000E+00 0.  1.
         21   -1    0    0  502  503 -0.00000000000E+00 -0.00000000000E+00 -0.69851622542E+02  0.69851622542E+02  0.00000000000E+00 0.  1.
         25    2    1    2    0    0  0.00000000000E+00  0.00000000000E+00 -0.13925473555E+02  0.12577777153E+03  0.12500451591E+03 0.  0.
          4    1    3    3  501    0 -0.28192043338E+02  0.18693171366E+02 -0.59822494026E+02  0.68741248569E+02  0.15500000000E+01 0. -1.
         -4    1    3    3    0  501  0.28192043338E+02 -0.18693171366E+02  0.45897020471E+02  0.57036522960E+02  0.15500000000E+01 0. -1.
<mgrwt>
<rscale>  2 0.12500452E+03</rscale>
<asrwt>0</asrwt>
<pdfrwt beam="1">  1       21 0.86040229E-02 0.12500452E+03</pdfrwt>
<pdfrwt beam="2">  1       21 0.10746403E-01 0.12500452E+03</pdfrwt>
<totfact> 0.73928235E+06</totfact>
</mgrwt>
</event>
<event>
 5    0  0.1222151E+000  0.1250029E+03  0.7546771E-02  0.1235065E+00
         21   -1    0    0  503  502  0.00000000000E+00  0.00000000000E+00  0.46530431834E+01  0.46530431834E+01  0.00000000000E+00 0. -1.
         21   -1    0    0  502  503 -0.00000000000E+00 -0.00000000000E+00 -0.83954355786E+03  0.83954355786E+03  0.00000000000E+00 0. -1.
         25    2    1    2    0    0  0.00000000000E+00  0.00000000000E+00 -0.83489051468E+03  0.84419660104E+03  0.12500291883E+03 0.  0.
          4    1    3    3  501    0  0.40281436750E+02  0.81170053118E+01 -0.99564511181E+02  0.10772174483E+03  0.15500000000E+01 0. -1.
         -4    1    3    3    0  501 -0.40281436750E+02 -0.81170053118E+01 -0.73532600350E+03  0.73647485622E+03  0.15500000000E+01 0. -1.
<mgrwt>
<rscale>  2 0.12500292E+03</rscale>
<asrwt>0</asrwt>
<pdfrwt beam="1">  1       21 0.71585295E-03 0.12500292E+03</pdfrwt>
<pdfrwt beam="2">  1       21 0.12916052E+00 0.12500292E+03</pdfrwt>
<totfact> 0.27947826E+06</totfact>
</mgrwt>
</event>
<event>
 5    0  0.1222151E+000  0.1249979E+03  0.7546771E-02  0.1235072E+00
         21   -1    0    0  503  502  0.00000000000E+00  0.00000000000E+00  0.13663410047E+04  0.13663410047E+04  0.00000000000E+00 0. -1.
         21   -1    0    0  502  503 -0.00000000000E+00 -0.00000000000E+00 -0.28588190098E+01  0.28588190098E+01  0.00000000000E+00 0. -1.
         25    2    1    2    0    0  0.00000000000E+00  0.00000000000E+00  0.13634821857E+04  0.13691998238E+04  0.12499794619E+03 0.  0.
          4    1    3    3  501    0 -0.20387136632E+02 -0.59039954139E+02  0.66488645779E+03  0.66781566003E+03  0.15500000000E+01 0.  1.
         -4    1    3    3    0  501  0.20387136632E+02  0.59039954139E+02  0.69859572795E+03  0.70138416373E+03  0.15500000000E+01 0.  1.
<mgrwt>
<rscale>  2 0.12499795E+03</rscale>
<asrwt>0</asrwt>
<pdfrwt beam="1">  1       21 0.21020579E+00 0.12499795E+03</pdfrwt>
<pdfrwt beam="2">  1       21 0.43981940E-03 0.12499795E+03</pdfrwt>
<totfact> 0.16054662E+06</totfact>
</mgrwt>
</event>
<event>
 5    0  0.1222151E+000  0.1249916E+03  0.7546771E-02  0.1235082E+00
         21   -1    0    0  503  502  0.00000000000E+00  0.00000000000E+00  0.74983015162E+03  0.74983015162E+03  0.00000000000E+00 0.  1.
         21   -1    0    0  502  503 -0.00000000000E+00 -0.00000000000E+00 -0.52088100508E+01  0.52088100508E+01  0.00000000000E+00 0.  1.
         25    2    1    2    0    0  0.00000000000E+00  0.00000000000E+00  0.74462134157E+03  0.75503896168E+03  0.12499156500E+03 0.  0.
          4    1    3    3  501    0 -0.56274065797E+02  0.19100862850E+02  0.48877393572E+03  0.49237584850E+03  0.15500000000E+01 0. -1.
         -4    1    3    3    0  501  0.56274065797E+02 -0.19100862850E+02  0.25584740585E+03  0.26266311318E+03  0.15500000000E+01 0. -1.
<mgrwt>
<rscale>  2 0.12499156E+03</rscale>
<asrwt>0</asrwt>
<pdfrwt beam="1">  1       21 0.11535840E+00 0.12499156E+03</pdfrwt>
<pdfrwt beam="2">  1       21 0.80135599E-03 0.12499156E+03</pdfrwt>
<totfact> 0.30898897E+06</totfact>
</mgrwt>
</event>
<event>
 5    0  0.1551366E+000  0.1250015E+03  0.7546771E-02  0.1235067E+00
         21   -1    0    0  503  502  0.00000000000E+00  0.00000000000E+00  0.31960048828E+02  0.31960048828E+02  0.00000000000E+00 0. -1.
         21   -1    0    0  502  503 -0.00000000000E+00 -0.00000000000E+00 -0.12222583891E+03  0.12222583891E+03  0.00000000000E+00 0. -1.
         25    2    1    2    0    0  0.00000000000E+00  0.00000000000E+00 -0.90265790077E+02  0.15418588773E+03  0.12500150046E+03 0.  0.
          4    1    3    3  501    0 -0.16896854071E+02 -0.51842203789E+02 -0.75003949780E+01  0.55061567322E+02  0.15500000000E+01 0.  1.
         -4    1    3    3    0  501  0.16896854071E+02  0.51842203789E+02 -0.82765395099E+02  0.99124320411E+02  0.15500000000E+01 0.  1.
<mgrwt>
<rscale>  2 0.12500150E+03</rscale>
<asrwt>0</asrwt>
<pdfrwt beam="1">  1       21 0.49169305E-02 0.12500150E+03</pdfrwt>
<pdfrwt beam="2">  1       21 0.18803976E-01 0.12500150E+03</pdfrwt>
<totfact> 0.70234303E+06</totfact>
</mgrwt>
</event>
<event>
 5    0  0.1399820E+000  0.1250099E+03  0.7546771E-02  0.1235054E+00
         21   -1    0    0  503  502  0.00000000000E+00  0.00000000000E+00  0.15997980059E+03  0.15997980059E+03  0.00000000000E+00 0.  1.
         21   -1    0    0  502  503 -0.00000000000E+00 -0.00000000000E+00 -0.24421011367E+02  0.24421011367E+02  0.00000000000E+00 0.  1.
         25    2    1    2    0    0  0.00000000000E+00  0.00000000000E+00  0.13555878922E+03  0.18440081196E+03  0.12500989607E+03 0.  0.
          4    1    3    3  501    0 -0.61156792546E+02 -0.73939625785E+01  0.52333713968E+02  0.80845804312E+02  0.15500000000E+01 0.  1.
         -4    1    3    3    0  501  0.61156792546E+02  0.73939625785E+01  0.83225075255E+02  0.10355500764E+03  0.15500000000E+01 0.  1.
<mgrwt>
<rscale>  2 0.12500990E+03</rscale>
<asrwt>0</asrwt>
<pdfrwt beam="1">  1       21 0.24612276E-01 0.12500990E+03</pdfrwt>
<pdfrwt beam="2">  1       21 0.37570788E-02 0.12500990E+03</pdfrwt>
<totfact> 0.66633521E+06</totfact>
</mgrwt>
</event>
<event>
 5    0  0.1580272E+000  0.1250023E+03  0.7546771E-02  0.1235066E+00
         21   -1    0    0  503  502  0.00000000000E+00  0.00000000000E+00  0.45952854283E+02  0.45952854283E+02  0.00000000000E+00 0.  1.
         21   -1    0    0  502  503 -0.00000000000E+00 -0.00000000000E+00 -0.85008717554E+02  0.85008717554E+02  0.00000000000E+00 0.  1.
         25    2    1    2    0    0  0.00000000000E+00  0.00000000000E+00 -0.39055863271E+02  0.13096157184E+03  0.12500229135E+03 0.  0.
          4    1    3    3  501    0  0.24736135953E+02 -0.46289291220E+02 -0.55047238951E+02  0.76073490255E+02  0.15500000000E+01 0. -1.
         -4    1    3    3    0  501 -0.24736135953E+02  0.46289291220E+02  0.15991375680E+02  0.54888081581E+02  0.15500000000E+01 0. -1.
<mgrwt>
<rscale>  2 0.12500229E+03</rscale>
<asrwt>0</asrwt>
<pdfrwt beam="1">  1       21 0.70696699E-02 0.12500229E+03</pdfrwt>
<pdfrwt beam="2">  1       21 0.13078264E-01 0.12500229E+03</pdfrwt>
<totfact> 0.73231569E+06</totfact>
</mgrwt>
</event>
<event>
 5    0  0.1533969E+000  0.1250089E+03  0.7546771E-02  0.1235055E+00
         21   -1    0    0  503  502  0.00000000000E+00  0.00000000000E+00  0.71583196089E+02  0.71583196089E+02  0.00000000000E+00 0.  1.
         21   -1    0    0  502  503 -0.00000000000E+00 -0.00000000000E+00 -0.54577132703E+02  0.54577132703E+02  0.00000000000E+00 0.  1.
         25    2    1    2    0    0  0.00000000000E+00  0.00000000000E+00  0.17006063386E+02  0.12616032879E+03  0.12500888916E+03 0.  0.
          4    1    3    3  501    0 -0.39563323687E+02  0.48278837358E+02  0.55954578158E+01  0.62688231479E+02  0.15500000000E+01 0. -1.
         -4    1    3    3    0  501  0.39563323687E+02 -0.48278837358E+02  0.11410605571E+02  0.63472097313E+02  0.15500000000E+01 0. -1.
<mgrwt>
<rscale>  2 0.12500889E+03</rscale>
<asrwt>0</asrwt>
<pdfrwt beam="1">  1       21 0.11012799E-01 0.12500889E+03</pdfrwt>
<pdfrwt beam="2">  1       21 0.83964820E-02 0.12500889E+03</pdfrwt>
<totfact> 0.73867208E+06</totfact>
</mgrwt>
</event>
<event>
 5    0  0.1322294E+000  0.1250111E+03  0.7546771E-02  0.1235052E+00
         21   -1    0    0  503  502  0.00000000000E+00  0.00000000000E+00  0.10012304924E+02  0.10012304924E+02  0.00000000000E+00 0.  1.
         21   -1    0    0  502  503 -0.00000000000E+00 -0.00000000000E+00 -0.39021414895E+03  0.39021414895E+03  0.00000000000E+00 0.  1.
         25    2    1    2    0    0  0.00000000000E+00  0.00000000000E+00 -0.38020184402E+03  0.40022645387E+03  0.12501108823E+03 0.  0.
          4    1    3    3  501    0 -0.19740627448E+02  0.42273463040E+02 -0.32317832091E+03  0.32653233784E+03  0.15500000000E+01 0.  1.
         -4    1    3    3    0  501  0.19740627448E+02 -0.42273463040E+02 -0.57023523114E+02  0.73694116032E+02  0.15500000000E+01 0.  1.
<mgrwt>
<rscale>  2 0.12501109E+03</rscale>
<asrwt>0</asrwt>
<pdfrwt beam="1">  1       21 0.15403544E-02 0.12501109E+03</pdfrwt>
<pdfrwt beam="2">  1       21 0.60032953E-01 0.12501109E+03</pdfrwt>
<totfact> 0.48013023E+06</totfact>
</mgrwt>
</event>
<event>
 5    0  0.1228859E+000  0.1249963E+03  0.7546771E-02  0.1235075E+00
         21   -1    0    0  503  502  0.00000000000E+00  0.00000000000E+00  0.58960931333E+01  0.58960931333E+01  0.00000000000E+00 0. -1.
         21   -1    0    0  502  503 -0.00000000000E+00 -0.00000000000E+00 -0.66247590597E+03  0.66247590597E+03  0.00000000000E+00 0. -1.
         25    2    1    2    0    0  0.00000000000E+00  0.00000000000E+00 -0.65657981284E+03  0.66837199910E+03  0.12499631419E+03 0.  0.
          4    1    3    3  501    0  0.16320831773E+02  0.41970448278E+02 -0.96707216659E+02  0.10668915752E+03  0.15500000000E+01 0.  1.
         -4    1    3    3    0  501 -0.16320831773E+02 -0.41970448278E+02 -0.55987259618E+03  0.56168284158E+03  0.15500000000E+01 0.  1.
<mgrwt>
<rscale>  2 0.12499631E+03</rscale>
<asrwt>0</asrwt>
<pdfrwt beam="1">  1       21 0.90709136E-03 0.12499631E+03</pdfrwt>
<pdfrwt beam="2">  1       21 0.10191936E+00 0.12499631E+03</pdfrwt>
<totfact> 0.34168627E+06</totfact>
</mgrwt>
</event>
<event>
 5    0  0.1510836E+000  0.1250034E+03  0.7546771E-02  0.1235064E+00
         21   -1    0    0  503  502  0.00000000000E+00  0.00000000000E+00  0.11948842000E+03  0.11948842000E+03  0.00000000000E+00 0.  1.
         21   -1    0    0  502  503 -0.00000000000E+00 -0.00000000000E+00 -0.32693254372E+02  0.32693254372E+02  0.00000000000E+00 0.  1.
         25    2    1    2    0    0  0.00000000000E+00  0.00000000000E+00  0.86795165624E+02  0.15218167437E+03  0.12500344490E+03 0.  0.
          4    1    3    3  501    0 -0.83886619551E+01  0.47067455688E+02 -0.55776268599E+01  0.48158358109E+02  0.15500000000E+01 0.  1.
         -4    1    3    3    0  501  0.83886619551E+01 -0.47067455688E+02  0.92372792484E+02  0.10402331626E+03  0.15500000000E+01 0.  1.
<mgrwt>
<rscale>  2 0.12500344E+03</rscale>
<asrwt>0</asrwt>
<pdfrwt beam="1">  1       21 0.18382834E-01 0.12500344E+03</pdfrwt>
<pdfrwt beam="2">  1       21 0.50297315E-02 0.12500344E+03</pdfrwt>
<totfact> 0.70480028E+06</totfact>
</mgrwt>
</event>
<event>
 5    0  0.1510611E+000  0.1249999E+03  0.7546771E-02  0.1235069E+00
         21   -1    0    0  503  502  0.00000000000E+00  0.00000000000E+00  0.87509238483E+02  0.87509238483E+02  0.00000000000E+00 0.  1.
         21   -1    0    0  502  503 -0.00000000000E+00 -0.00000000000E+00 -0.44638078041E+02  0.44638078041E+02  0.00000000000E+00 0.  1.
         25    2    1    2    0    0  0.00000000000E+00  0.00000000000E+00  0.42871160441E+02  0.13214731652E+03  0.12499990747E+03 0.  0.
          4    1    3    3  501    0 -0.36720750816E+02  0.11654315230E+02 -0.30566522368E+02  0.49203164468E+02  0.15500000000E+01 0. -1.
         -4    1    3    3    0  501  0.36720750816E+02 -0.11654315230E+02  0.73437682810E+02  0.82944152057E+02  0.15500000000E+01 0. -1.
<mgrwt>
<rscale>  2 0.12499991E+03</rscale>
<asrwt>0</asrwt>
<pdfrwt beam="1">  1       21 0.13462960E-01 0.12499991E+03</pdfrwt>
<pdfrwt beam="2">  1       21 0.68673966E-02 0.12499991E+03</pdfrwt>
<totfact> 0.73076648E+06</totfact>
</mgrwt>
</event>
<event>
 5    0  0.1386017E+000  0.1249968E+03  0.7546771E-02  0.1235074E+00
         21   -1    0    0  503  502  0.00000000000E+00  0.00000000000E+00  0.38876975984E+03  0.38876975984E+03  0.00000000000E+00 0. -1.
         21   -1    0    0  502  503 -0.00000000000E+00 -0.00000000000E+00 -0.10047211892E+02  0.10047211892E+02  0.00000000000E+00 0. -1.
         25    2    1    2    0    0  0.00000000000E+00  0.00000000000E+00  0.37872254795E+03  0.39881697173E+03  0.12499683443E+03 0.  0.
          4    1    3    3  501    0  0.38567902693E+02  0.31360185692E+02  0.68592947236E+02  0.84725080556E+02  0.15500000000E+01 0. -1.
         -4    1    3    3    0  501 -0.38567902693E+02 -0.31360185692E+02  0.31012960071E+03  0.31409189117E+03  0.15500000000E+01 0. -1.
<mgrwt>
<rscale>  2 0.12499683E+03</rscale>
<asrwt>0</asrwt>
<pdfrwt beam="1">  1       21 0.59810721E-01 0.12499683E+03</pdfrwt>
<pdfrwt beam="2">  1       21 0.15457252E-02 0.12499683E+03</pdfrwt>
<totfact> 0.48123731E+06</totfact>
</mgrwt>
</event>
<event>
 5    0  0.1592726E+000  0.1249941E+03  0.7546771E-02  0.1235078E+00
         21   -1    0    0  503  502  0.00000000000E+00  0.00000000000E+00  0.61649471082E+02  0.61649471082E+02  0.00000000000E+00 0. -1.
         21   -1    0    0  502  503 -0.00000000000E+00 -0.00000000000E+00 -0.63356311437E+02  0.63356311437E+02  0.00000000000E+00 0. -1.
         25    2    1    2    0    0  0.00000000000E+00  0.00000000000E+00 -0.17068403547E+01  0.12500578252E+03  0.12499412930E+03 0.  0.
          4    1    3    3  501    0  0.35791400106E+01 -0.58008778953E+02  0.22075817243E+02  0.62189813361E+02  0.15500000000E+01 0. -1.
         -4    1    3    3    0  501 -0.35791400106E+01  0.58008778953E+02 -0.23782657598E+02  0.62815969158E+02  0.15500000000E+01 0. -1.
<mgrwt>
<rscale>  2 0.12499413E+03</rscale>
<asrwt>0</asrwt>
<pdfrwt beam="1">  1       21 0.94845340E-02 0.12499413E+03</pdfrwt>
<pdfrwt beam="2">  1       21 0.97471248E-02 0.12499413E+03</pdfrwt>
<totfact> 0.74053915E+06</totfact>
</mgrwt>
</event>
<event>
 5    0  0.1569375E+000  0.1249984E+03  0.7546771E-02  0.1235072E+00
         21   -1    0    0  503  502  0.00000000000E+00  0.00000000000E+00  0.17726346004E+03  0.17726346004E+03  0.00000000000E+00 0.  1.
         21   -1    0    0  502  503 -0.00000000000E+00 -0.00000000000E+00 -0.22035859387E+02  0.22035859387E+02  0.00000000000E+00 0.  1.
         25    2    1    2    0    0  0.00000000000E+00  0.00000000000E+00  0.15522760065E+03  0.19929931943E+03  0.12499844287E+03 0.  0.
          4    1    3    3  501    0  0.20302387218E+02 -0.58789386614E+02  0.68131219181E+02  0.92263993152E+02  0.15500000000E+01 0.  1.
         -4    1    3    3    0  501 -0.20302387218E+02  0.58789386614E+02  0.87096381471E+02  0.10703532627E+03  0.15500000000E+01 0.  1.
<mgrwt>
<rscale>  2 0.12499844E+03</rscale>
<asrwt>0</asrwt>
<pdfrwt beam="1">  1       21 0.27271301E-01 0.12499844E+03</pdfrwt>
<pdfrwt beam="2">  1       21 0.33901323E-02 0.12499844E+03</pdfrwt>
<totfact> 0.65005817E+06</totfact>
</mgrwt>
</event>
<event>
 5    0  0.1582613E+000  0.1249997E+03  0.7546771E-02  0.1235070E+00
         21   -1    0    0  503  502  0.00000000000E+00  0.00000000000E+00  0.39195167126E+02  0.39195167126E+02  0.00000000000E+00 0. -1.
         21   -1    0    0  502  503 -0.00000000000E+00 -0.00000000000E+00 -0.99661093696E+02  0.99661093696E+02  0.00000000000E+00 0. -1.
         25    2    1    2    0    0  0.00000000000E+00  0.00000000000E+00 -0.60465926570E+02  0.13885626082E+03  0.12499973157E+03 0.  0.
          4    1    3    3  501    0 -0.37527545270E+02  0.71251419772E+01 -0.85158371752E+02  0.93345782345E+02  0.15500000000E+01 0. -1.
         -4    1    3    3    0  501  0.37527545270E+02 -0.71251419772E+01  0.24692445182E+02  0.45510478477E+02  0.15500000000E+01 0. -1.
<mgrwt>
<rscale>  2 0.12499973E+03</rscale>
<asrwt>0</asrwt>
<pdfrwt beam="1">  1       21 0.60300257E-02 0.12499973E+03</pdfrwt>
<pdfrwt beam="2">  1       21 0.15332476E-01 0.12499973E+03</pdfrwt>
<totfact> 0.72189468E+06</totfact>
</mgrwt>
</event>
<event>
 5    0  0.1372142E+000  0.1250025E+03  0.7546771E-02  0.1235065E+00
         21   -1    0    0  503  502  0.00000000000E+00  0.00000000000E+00  0.28531150418E+03  0.28531150418E+03  0.00000000000E+00 0. -1.
         21   -1    0    0  502  503 -0.00000000000E+00 -0.00000000000E+00 -0.13691715419E+02  0.13691715419E+02  0.00000000000E+00 0. -1.
         25    2    1    2    0    0  0.00000000000E+00  0.00000000000E+00  0.27161978876E+03  0.29900321960E+03  0.12500246271E+03 0.  0.
          4    1    3    3  501    0 -0.48318011378E+02  0.19563005493E+02  0.21820861140E+03  0.22435405500E+03  0.15500000000E+01 0. -1.
         -4    1    3    3    0  501  0.48318011378E+02 -0.19563005493E+02  0.53411177356E+02  0.74649164590E+02  0.15500000000E+01 0. -1.
<mgrwt>
<rscale>  2 0.12500246E+03</rscale>
<asrwt>0</asrwt>
<pdfrwt beam="1">  1       21 0.43894073E-01 0.12500246E+03</pdfrwt>
<pdfrwt beam="2">  1       21 0.21064180E-02 0.12500246E+03</pdfrwt>
<totfact> 0.55535677E+06</totfact>
</mgrwt>
</event>
<event>
 5    0  0.1416149E+000  0.1250064E+03  0.7546771E-02  0.1235059E+00
         21   -1    0    0  503  502  0.00000000000E+00  0.00000000000E+00  0.14531285559E+02  0.14531285559E+02  0.00000000000E+00 0. -1.
         21   -1    0    0  502  503 -0.00000000000E+00 -0.00000000000E+00 -0.26884427492E+03  0.26884427492E+03  0.00000000000E+00 0. -1.
         25    2    1    2    0    0  0.00000000000E+00  0.00000000000E+00 -0.25431298936E+03  0.28337556048E+03  0.12500644671E+03 0.  0.
          4    1    3    3  501    0 -0.22785754492E+02 -0.48536393510E+02 -0.19988361565E+03  0.20695611711E+03  0.15500000000E+01 0. -1.
         -4    1    3    3    0  501  0.22785754492E+02  0.48536393510E+02 -0.54429373711E+02  0.76419443372E+02  0.15500000000E+01 0. -1.
<mgrwt>
<rscale>  2 0.12500645E+03</rscale>
<asrwt>0</asrwt>
<pdfrwt beam="1">  1       21 0.22355823E-02 0.12500645E+03</pdfrwt>
<pdfrwt beam="2">  1       21 0.41360660E-01 0.12500645E+03</pdfrwt>
<totfact> 0.56857440E+06</totfact>
</mgrwt>
</event>
<event>
 5    0  0.1469456E+000  0.1250091E+03  0.7546771E-02  0.1235055E+00
         21   -1    0    0  503  502  0.00000000000E+00  0.00000000000E+00  0.36532677916E+02  0.36532677916E+02  0.00000000000E+00 0.  1.
         21   -1    0    0  502  503 -0.00000000000E+00 -0.00000000000E+00 -0.10694044696E+03  0.10694044696E+03  0.00000000000E+00 0.  1.
         25    2    1    2    0    0  0.00000000000E+00  0.00000000000E+00 -0.70407769048E+02  0.14347312488E+03  0.12500913415E+03 0.  0.
          4    1    3    3  501    0  0.33205046096E+02 -0.12709913597E+02 -0.94177202728E+02  0.10067703315E+03  0.15500000000E+01 0.  1.
         -4    1    3    3    0  501 -0.33205046096E+02  0.12709913597E+02  0.23769433681E+02  0.42796091730E+02  0.15500000000E+01 0.  1.
<mgrwt>
<rscale>  2 0.12500913E+03</rscale>
<asrwt>0</asrwt>
<pdfrwt beam="1">  1       21 0.56204121E-02 0.12500913E+03</pdfrwt>
<pdfrwt beam="2">  1       21 0.16452376E-01 0.12500913E+03</pdfrwt>
<totfact> 0.71572426E+06</totfact>
</mgrwt>
</event>
<event>
 4    0  0.1820254E+000  0.1247730E+03  0.7546771E-02  0.1235425E+00
         21   -1    0    0  503  502  0.00000000000E+00  0.00000000000E+00  0.31676631185E+02  0.31676631185E+02  0.00000000000E+00 0.  1.
         21   -1    0    0  502  503 -0.00000000000E+00 -0.00000000000E+00 -0.12286888472E+03  0.12286888472E+03  0.00000000000E+00 0.  1.
          4    1    1    2  501    0  0.29491078165E+02 -0.33072503411E+02  0.87641491990E+01  0.45196537306E+02  0.15500000000E+01 0. -1.
         -4    1    1    2    0  501 -0.29491078165E+02  0.33072503411E+02 -0.99956402737E+02  0.10934897860E+03  0.15500000000E+01 0. -1.
<mgrwt>
<rscale>  2 0.12477295E+03</rscale>
<asrwt>0</asrwt>
<pdfrwt beam="1">  1       21 0.48733279E-02 0.12477295E+03</pdfrwt>
<pdfrwt beam="2">  1       21 0.18902905E-01 0.12477295E+03</pdfrwt>
<totfact> 0.70599099E+06</totfact>
</mgrwt>
</event>
<event>
 5    0  0.1222151E+000  0.1250003E+03  0.7546771E-02  0.1235069E+00
         21   -1    0    0  503  502  0.00000000000E+00  0.00000000000E+00  0.76028130314E+03  0.76028130314E+03  0.00000000000E+00 0. -1.
         21   -1    0    0  502  503 -0.00000000000E+00 -0.00000000000E+00 -0.51379242953E+01  0.51379242953E+01  0.00000000000E+00 0. -1.
         25    2    1    2    0    0  0.00000000000E+00  0.00000000000E+00  0.75514337885E+03  0.76541922744E+03  0.12500028446E+03 0.  0.
          4    1    3    3  501    0  0.18811878446E+02 -0.43495852086E+02  0.62691190600E+03  0.62870240679E+03  0.15500000000E+01 0. -1.
         -4    1    3    3    0  501 -0.18811878446E+02  0.43495852086E+02  0.12823147285E+03  0.13671682065E+03  0.15500000000E+01 0. -1.
<mgrwt>
<rscale>  2 0.12500028E+03</rscale>
<asrwt>0</asrwt>
<pdfrwt beam="1">  1       21 0.11696627E+00 0.12500028E+03</pdfrwt>
<pdfrwt beam="2">  1       21 0.79045049E-03 0.12500028E+03</pdfrwt>
<totfact> 0.30533622E+06</totfact>
</mgrwt>
</event>
<event>
 5    0  0.1373847E+000  0.1249916E+03  0.7546771E-02  0.1235082E+00
         21   -1    0    0  503  502  0.00000000000E+00  0.00000000000E+00  0.99147892077E+01  0.99147892077E+01  0.00000000000E+00 0.  1.
         21   -1    0    0  502  503 -0.00000000000E+00 -0.00000000000E+00 -0.39392934318E+03  0.39392934318E+03  0.00000000000E+00 0.  1.
         25    2    1    2    0    0  0.00000000000E+00  0.00000000000E+00 -0.38401455397E+03  0.40384413239E+03  0.12499162212E+03 0.  0.
          4    1    3    3  501    0 -0.47676493004E+02 -0.32873427615E+02 -0.11626093982E+03  0.12989503015E+03  0.15500000000E+01 0. -1.
         -4    1    3    3    0  501  0.47676493004E+02  0.32873427615E+02 -0.26775361415E+03  0.27394910224E+03  0.15500000000E+01 0. -1.
<mgrwt>
<rscale>  2 0.12499162E+03</rscale>
<asrwt>0</asrwt>
<pdfrwt beam="1">  1       21 0.15253522E-02 0.12499162E+03</pdfrwt>
<pdfrwt beam="2">  1       21 0.60604514E-01 0.12499162E+03</pdfrwt>
<totfact> 0.47797421E+06</totfact>
</mgrwt>
</event>
<event>
 5    0  0.1222151E+000  0.1250045E+03  0.7546771E-02  0.1235062E+00
         21   -1    0    0  503  502  0.00000000000E+00  0.00000000000E+00  0.32728155552E+01  0.32728155552E+01  0.00000000000E+00 0.  1.
         21   -1    0    0  502  503 -0.00000000000E+00 -0.00000000000E+00 -0.11936300639E+04  0.11936300639E+04  0.00000000000E+00 0.  1.
         25    2    1    2    0    0  0.00000000000E+00  0.00000000000E+00 -0.11903572484E+04  0.11969028795E+04  0.12500449657E+03 0.  0.
          4    1    3    3  501    0  0.35582415956E+02  0.20765055368E+02 -0.14538014702E+03  0.15111282374E+03  0.15500000000E+01 0.  1.
         -4    1    3    3    0  501 -0.35582415956E+02 -0.20765055368E+02 -0.10449771014E+04  0.10457900558E+04  0.15500000000E+01 0.  1.
<mgrwt>
<rscale>  2 0.12500450E+03</rscale>
<asrwt>0</asrwt>
<pdfrwt beam="1">  1       21 0.50351147E-03 0.12500450E+03</pdfrwt>
<pdfrwt beam="2">  1       21 0.18363489E+00 0.12500450E+03</pdfrwt>
<totfact> 0.19203119E+06</totfact>
</mgrwt>
</event>
<event>
 5    0  0.1434953E+000  0.1249665E+03  0.7546771E-02  0.1235122E+00
         21   -1    0    0  503  502  0.00000000000E+00  0.00000000000E+00  0.13896188228E+02  0.13896188228E+02  0.00000000000E+00 0.  1.
         21   -1    0    0  502  503 -0.00000000000E+00 -0.00000000000E+00 -0.28095173258E+03  0.28095173258E+03  0.00000000000E+00 0.  1.
         25    2    1    2    0    0  0.00000000000E+00  0.00000000000E+00 -0.26705554435E+03  0.29484792081E+03  0.12496652606E+03 0.  0.
          4    1    3    3  501    0  0.39443152915E+02 -0.17296218716E+02 -0.26783224496E+02  0.50741157931E+02  0.15500000000E+01 0. -1.
         -4    1    3    3    0  501 -0.39443152915E+02  0.17296218716E+02 -0.24027231986E+03  0.24410676288E+03  0.15500000000E+01 0. -1.
<mgrwt>
<rscale>  2 0.12496653E+03</rscale>
<asrwt>0</asrwt>
<pdfrwt beam="1">  1       21 0.21378753E-02 0.12496653E+03</pdfrwt>
<pdfrwt beam="2">  1       21 0.43223339E-01 0.12496653E+03</pdfrwt>
<totfact> 0.55934113E+06</totfact>
</mgrwt>
</event>
<event>
 5    0  0.1222151E+000  0.1250073E+03  0.7546771E-02  0.1235058E+00
         21   -1    0    0  503  502  0.00000000000E+00  0.00000000000E+00  0.20495118873E+04  0.20495118873E+04  0.00000000000E+00 0. -1.
         21   -1    0    0  502  503 -0.00000000000E+00 -0.00000000000E+00 -0.19061643704E+01  0.19061643704E+01  0.00000000000E+00 0. -1.
         25    2    1    2    0    0  0.00000000000E+00  0.00000000000E+00  0.20476057229E+04  0.20514180516E+04  0.12500730437E+03 0.  0.
          4    1    3    3  501    0 -0.45294647958E+02  0.41817120948E+02  0.85642714759E+03  0.85864436082E+03  0.15500000000E+01 0.  1.
         -4    1    3    3    0  501  0.45294647958E+02 -0.41817120948E+02  0.11911785753E+04  0.11927736908E+04  0.15500000000E+01 0.  1.
<mgrwt>
<rscale>  2 0.12500730E+03</rscale>
<asrwt>0</asrwt>
<pdfrwt beam="1">  1       21 0.31530776E+00 0.12500730E+03</pdfrwt>
<pdfrwt beam="2">  1       21 0.29325770E-03 0.12500730E+03</pdfrwt>
<totfact> 0.74561458E+05</totfact>
</mgrwt>
</event>
<event>
 5    0  0.1497750E+000  0.1249921E+03  0.7546771E-02  0.1235082E+00
         21   -1    0    0  503  502  0.00000000000E+00  0.00000000000E+00  0.11824366688E+03  0.11824366688E+03  0.00000000000E+00 0.  1.
         21   -1    0    0  502  503 -0.00000000000E+00 -0.00000000000E+00 -0.33031394020E+02  0.33031394020E+02  0.00000000000E+00 0.  1.
         25    2    1    2    0    0  0.00000000000E+00  0.00000000000E+00  0.85212272864E+02  0.15127506090E+03  0.12499205017E+03 0.  0.
          4    1    3    3  501    0 -0.44681081634E+02 -0.36370260464E+02  0.71857712617E+02  0.92114755955E+02  0.15500000000E+01 0. -1.
         -4    1    3    3    0  501  0.44681081634E+02  0.36370260464E+02  0.13354560247E+02  0.59160304948E+02  0.15500000000E+01 0. -1.
<mgrwt>
<rscale>  2 0.12499205E+03</rscale>
<asrwt>0</asrwt>
<pdfrwt beam="1">  1       21 0.18191333E-01 0.12499205E+03</pdfrwt>
<pdfrwt beam="2">  1       21 0.50817530E-02 0.12499205E+03</pdfrwt>
<totfact> 0.70613683E+06</totfact>
</mgrwt>
</event>
<event>
 5    0  0.1501091E+000  0.1250147E+03  0.7546771E-02  0.1235046E+00
         21   -1    0    0  503  502  0.00000000000E+00  0.00000000000E+00  0.15405398261E+03  0.15405398261E+03  0.00000000000E+00 0.  1.
         21   -1    0    0  502  503 -0.00000000000E+00 -0.00000000000E+00 -0.25362332874E+02  0.25362332874E+02  0.00000000000E+00 0.  1.
         25    2    1    2    0    0  0.00000000000E+00  0.00000000000E+00  0.12869164974E+03  0.17941631548E+03  0.12501469334E+03 0.  0.
          4    1    3    3  501    0  0.79108878442E+01 -0.44996320013E+02  0.31615430126E+01  0.45821925051E+02  0.15500000000E+01 0. -1.
         -4    1    3    3    0  501 -0.79108878442E+01  0.44996320013E+02  0.12553010672E+03  0.13359439043E+03  0.15500000000E+01 0. -1.
<mgrwt>
<rscale>  2 0.12501469E+03</rscale>
<asrwt>0</asrwt>
<pdfrwt beam="1">  1       21 0.23700612E-01 0.12501469E+03</pdfrwt>
<pdfrwt beam="2">  1       21 0.39018975E-02 0.12501469E+03</pdfrwt>
<totfact> 0.67193512E+06</totfact>
</mgrwt>
</event>
<event>
 5    0  0.1317379E+000  0.1249991E+03  0.7546771E-02  0.1235071E+00
         21   -1    0    0  503  502  0.00000000000E+00  0.00000000000E+00  0.57590497842E+03  0.57590497842E+03  0.00000000000E+00 0. -1.
         21   -1    0    0  502  503 -0.00000000000E+00 -0.00000000000E+00 -0.67827086136E+01  0.67827086136E+01  0.00000000000E+00 0. -1.
         25    2    1    2    0    0  0.00000000000E+00  0.00000000000E+00  0.56912226981E+03  0.58268768704E+03  0.12499913052E+03 0.  0.
          4    1    3    3  501    0 -0.27480788188E+01  0.51127196260E+02  0.45148382534E+03  0.45438044542E+03  0.15500000000E+01 0.  1.
         -4    1    3    3    0  501  0.27480788188E+01 -0.51127196260E+02  0.11763844447E+03  0.12830724162E+03  0.15500000000E+01 0.  1.
<mgrwt>
<rscale>  2 0.12499913E+03</rscale>
<asrwt>0</asrwt>
<pdfrwt beam="1">  1       21 0.88600727E-01 0.12499913E+03</pdfrwt>
<pdfrwt beam="2">  1       21 0.10434941E-02 0.12499913E+03</pdfrwt>
<totfact> 0.37888277E+06</totfact>
</mgrwt>
</event>
<event>
 5    0  0.1554764E+000  0.1250271E+03  0.7546771E-02  0.1235027E+00
         21   -1    0    0  503  502  0.00000000000E+00  0.00000000000E+00  0.77463608639E+02  0.77463608639E+02  0.00000000000E+00 0. -1.
         21   -1    0    0  502  503 -0.00000000000E+00 -0.00000000000E+00 -0.50448736689E+02  0.50448736689E+02  0.00000000000E+00 0. -1.
         25    2    1    2    0    0  0.00000000000E+00  0.00000000000E+00  0.27014871950E+02  0.12791234533E+03  0.12502705619E+03 0.  0.
          4    1    3    3  501    0 -0.53639748787E+02  0.31382934426E+02  0.67654051958E+01  0.62532267116E+02  0.15500000000E+01 0.  1.
         -4    1    3    3    0  501  0.53639748787E+02 -0.31382934426E+02  0.20249466755E+02  0.65380078212E+02  0.15500000000E+01 0.  1.
<mgrwt>
<rscale>  2 0.12502706E+03</rscale>
<asrwt>0</asrwt>
<pdfrwt beam="1">  1       21 0.11917478E-01 0.12502706E+03</pdfrwt>
<pdfrwt beam="2">  1       21 0.77613441E-02 0.12502706E+03</pdfrwt>
<totfact> 0.73594556E+06</totfact>
</mgrwt>
</event>
<event>
 5    0  0.1370126E+000  0.1249942E+03  0.7546771E-02  0.1235078E+00
         21   -1    0    0  503  502  0.00000000000E+00  0.00000000000E+00  0.38483067726E+03  0.38483067726E+03  0.00000000000E+00 0. -1.
         21   -1    0    0  502  503 -0.00000000000E+00 -0.00000000000E+00 -0.10149626562E+02  0.10149626562E+02  0.00000000000E+00 0. -1.
         25    2    1    2    0    0  0.00000000000E+00  0.00000000000E+00  0.37468105070E+03  0.39498030383E+03  0.12499420248E+03 0.  0.
          4    1    3    3  501    0 -0.40862420542E+02  0.62148110850E+01  0.33539280069E+03  0.33793356528E+03  0.15500000000E+01 0. -1.
         -4    1    3    3    0  501  0.40862420542E+02 -0.62148110850E+01  0.39288250012E+02  0.57046738543E+02  0.15500000000E+01 0. -1.
<mgrwt>
<rscale>  2 0.12499420E+03</rscale>
<asrwt>0</asrwt>
<pdfrwt beam="1">  1       21 0.59204708E-01 0.12499420E+03</pdfrwt>
<pdfrwt beam="2">  1       21 0.15614813E-02 0.12499420E+03</pdfrwt>
<totfact> 0.48383110E+06</totfact>
</mgrwt>
</event>
<event>
 5    0  0.1222151E+000  0.1249909E+03  0.7546771E-02  0.1235083E+00
         21   -1    0    0  503  502  0.00000000000E+00  0.00000000000E+00  0.26954354697E+01  0.26954354697E+01  0.00000000000E+00 0. -1.
         21   -1    0    0  502  503 -0.00000000000E+00 -0.00000000000E+00 -0.14489991022E+04  0.14489991022E+04  0.00000000000E+00 0. -1.
         25    2    1    2    0    0  0.00000000000E+00  0.00000000000E+00 -0.14463036667E+04  0.14516945377E+04  0.12499093688E+03 0.  0.
          4    1    3    3  501    0  0.56294228880E+02 -0.24094618294E+02 -0.86713769955E+03  0.86929844319E+03  0.15500000000E+01 0. -1.
         -4    1    3    3    0  501 -0.56294228880E+02  0.24094618294E+02 -0.57916596717E+03  0.58239609448E+03  0.15500000000E+01 0. -1.
<mgrwt>
<rscale>  2 0.12499094E+03</rscale>
<asrwt>0</asrwt>
<pdfrwt beam="1">  1       21 0.41468218E-03 0.12499094E+03</pdfrwt>
<pdfrwt beam="2">  1       21 0.22292305E+00 0.12499094E+03</pdfrwt>
<totfact> 0.14727728E+06</totfact>
</mgrwt>
</event>
<event>
 5    0  0.1222151E+000  0.1249995E+03  0.7546771E-02  0.1235070E+00
         21   -1    0    0  503  502  0.00000000000E+00  0.00000000000E+00  0.18208966635E+04  0.18208966635E+04  0.00000000000E+00 0. -1.
         21   -1    0    0  502  503 -0.00000000000E+00 -0.00000000000E+00 -0.21452170586E+01  0.21452170586E+01  0.00000000000E+00 0. -1.
         25    2    1    2    0    0  0.00000000000E+00  0.00000000000E+00  0.18187514464E+04  0.18230418805E+04  0.12499949735E+03 0.  0.
          4    1    3    3  501    0 -0.58117166770E+02 -0.22927664672E+02  0.89872608230E+03  0.90089636274E+03  0.15500000000E+01 0. -1.
         -4    1    3    3    0  501  0.58117166770E+02  0.22927664672E+02  0.92002536411E+03  0.92214551779E+03  0.15500000000E+01 0. -1.
<mgrwt>
<rscale>  2 0.12499950E+03</rscale>
<asrwt>0</asrwt>
<pdfrwt beam="1">  1       21 0.28013671E+00 0.12499950E+03</pdfrwt>
<pdfrwt beam="2">  1       21 0.33003485E-03 0.12499950E+03</pdfrwt>
<totfact> 0.98075215E+05</totfact>
</mgrwt>
</event>
<event>
 5    0  0.1222151E+000  0.1249968E+03  0.7546771E-02  0.1235074E+00
         21   -1    0    0  503  502  0.00000000000E+00  0.00000000000E+00  0.79259800283E+03  0.79259800283E+03  0.00000000000E+00 0. -1.
         21   -1    0    0  502  503 -0.00000000000E+00 -0.00000000000E+00 -0.49281579194E+01  0.49281579194E+01  0.00000000000E+00 0. -1.
         25    2    1    2    0    0  0.00000000000E+00  0.00000000000E+00  0.78766984491E+03  0.79752616075E+03  0.12499676995E+03 0.  0.
          4    1    3    3  501    0  0.31139095395E+02 -0.24759047269E+02  0.70122012977E+03  0.70234943338E+03  0.15500000000E+01 0. -1.
         -4    1    3    3    0  501 -0.31139095395E+02  0.24759047269E+02  0.86449715143E+02  0.95176727366E+02  0.15500000000E+01 0. -1.
<mgrwt>
<rscale>  2 0.12499677E+03</rscale>
<asrwt>0</asrwt>
<pdfrwt beam="1">  1       21 0.12193805E+00 0.12499677E+03</pdfrwt>
<pdfrwt beam="2">  1       21 0.75817877E-03 0.12499677E+03</pdfrwt>
<totfact> 0.29447322E+06</totfact>
</mgrwt>
</event>
<event>
 5    0  0.1222151E+000  0.1250015E+03  0.7546771E-02  0.1235067E+00
         21   -1    0    0  503  502  0.00000000000E+00  0.00000000000E+00  0.18496480932E+04  0.18496480932E+04  0.00000000000E+00 0. -1.
         21   -1    0    0  502  503 -0.00000000000E+00 -0.00000000000E+00 -0.21119405522E+01  0.21119405522E+01  0.00000000000E+00 0. -1.
         25    2    1    2    0    0  0.00000000000E+00  0.00000000000E+00  0.18475361527E+04  0.18517600338E+04  0.12500154904E+03 0.  0.
          4    1    3    3  501    0  0.45692429077E+02  0.26036621807E+02  0.14235566711E+04  0.14245285894E+04  0.15500000000E+01 0.  1.
         -4    1    3    3    0  501 -0.45692429077E+02 -0.26036621807E+02  0.42397948156E+03  0.42723144434E+03  0.15500000000E+01 0.  1.
<mgrwt>
<rscale>  2 0.12500155E+03</rscale>
<asrwt>0</asrwt>
<pdfrwt beam="1">  1       21 0.28455995E+00 0.12500155E+03</pdfrwt>
<pdfrwt beam="2">  1       21 0.32491541E-03 0.12500155E+03</pdfrwt>
<totfact> 0.94866416E+05</totfact>
</mgrwt>
</event>
<event>
 5    0  0.1510466E+000  0.1250004E+03  0.7546771E-02  0.1235069E+00
         21   -1    0    0  503  502  0.00000000000E+00  0.00000000000E+00  0.16480826148E+02  0.16480826148E+02  0.00000000000E+00 0. -1.
         21   -1    0    0  502  503 -0.00000000000E+00 -0.00000000000E+00 -0.23701917853E+03  0.23701917853E+03  0.00000000000E+00 0. -1.
         25    2    1    2    0    0  0.00000000000E+00  0.00000000000E+00 -0.22053835239E+03  0.25350000468E+03  0.12500035000E+03 0.  0.
          4    1    3    3  501    0 -0.47233134343E+02 -0.30708378564E+02 -0.55479693603E+02  0.79084590131E+02  0.15500000000E+01 0.  1.
         -4    1    3    3    0  501  0.47233134343E+02  0.30708378564E+02 -0.16505865878E+03  0.17441541455E+03  0.15500000000E+01 0.  1.
<mgrwt>
<rscale>  2 0.12500035E+03</rscale>
<asrwt>0</asrwt>
<pdfrwt beam="1">  1       21 0.25355117E-02 0.12500035E+03</pdfrwt>
<pdfrwt beam="2">  1       21 0.36464489E-01 0.12500035E+03</pdfrwt>
<totfact> 0.59549700E+06</totfact>
</mgrwt>
</event>
<event>
 5    0  0.1501343E+000  0.1249991E+03  0.7546771E-02  0.1235071E+00
         21   -1    0    0  503  502  0.00000000000E+00  0.00000000000E+00  0.30480007083E+02  0.30480007083E+02  0.00000000000E+00 0.  1.
         21   -1    0    0  502  503 -0.00000000000E+00 -0.00000000000E+00 -0.12815595090E+03  0.12815595090E+03  0.00000000000E+00 0.  1.
         25    2    1    2    0    0  0.00000000000E+00  0.00000000000E+00 -0.97675943819E+02  0.15863595798E+03  0.12499910866E+03 0.  0.
          4    1    3    3  501    0 -0.32311983054E+02  0.36098099605E+02  0.12335589700E+01  0.48487742902E+02  0.15500000000E+01 0. -1.
         -4    1    3    3    0  501  0.32311983054E+02 -0.36098099605E+02 -0.98909502789E+02  0.11014821508E+03  0.15500000000E+01 0. -1.
<mgrwt>
<rscale>  2 0.12499911E+03</rscale>
<asrwt>0</asrwt>
<pdfrwt beam="1">  1       21 0.46892317E-02 0.12499911E+03</pdfrwt>
<pdfrwt beam="2">  1       21 0.19716301E-01 0.12499911E+03</pdfrwt>
<totfact> 0.69688131E+06</totfact>
</mgrwt>
</event>
<event>
 5    0  0.1502033E+000  0.1249948E+03  0.7546771E-02  0.1235077E+00
         21   -1    0    0  503  502  0.00000000000E+00  0.00000000000E+00  0.14859794037E+02  0.14859794037E+02  0.00000000000E+00 0.  1.
         21   -1    0    0  502  503 -0.00000000000E+00 -0.00000000000E+00 -0.26285180400E+03  0.26285180400E+03  0.00000000000E+00 0.  1.
         25    2    1    2    0    0  0.00000000000E+00  0.00000000000E+00 -0.24799200996E+03  0.27771159804E+03  0.12499477860E+03 0.  0.
          4    1    3    3  501    0  0.45282320024E+02 -0.36546723532E+02 -0.73459800039E+02  0.93727777256E+02  0.15500000000E+01 0.  1.
         -4    1    3    3    0  501 -0.45282320024E+02  0.36546723532E+02 -0.17453220992E+03  0.18398382078E+03  0.15500000000E+01 0.  1.
<mgrwt>
<rscale>  2 0.12499478E+03</rscale>
<asrwt>0</asrwt>
<pdfrwt beam="1">  1       21 0.22861221E-02 0.12499478E+03</pdfrwt>
<pdfrwt beam="2">  1       21 0.40438739E-01 0.12499478E+03</pdfrwt>
<totfact> 0.57368364E+06</totfact>
</mgrwt>
</event>
<event>
 4    0  0.1886093E+000  0.1248279E+03  0.7546771E-02  0.1235338E+00
         21   -1    0    0  503  502  0.00000000000E+00  0.00000000000E+00  0.16594456425E+03  0.16594456425E+03  0.00000000000E+00 0.  1.
         21   -1    0    0  502  503 -0.00000000000E+00 -0.00000000000E+00 -0.23474731842E+02  0.23474731842E+02  0.00000000000E+00 0.  1.
          4    1    1    2  501    0  0.46921414084E+02 -0.33556246397E+02  0.35150999841E+02  0.67569490613E+02  0.15500000000E+01 0. -1.
         -4    1    1    2    0  501 -0.46921414084E+02  0.33556246397E+02  0.10731883257E+03  0.12184980548E+03  0.15500000000E+01 0. -1.
<mgrwt>
<rscale>  2 0.12482795E+03</rscale>
<asrwt>0</asrwt>
<pdfrwt beam="1">  1       21 0.25529932E-01 0.12482795E+03</pdfrwt>
<pdfrwt beam="2">  1       21 0.36114973E-02 0.12482795E+03</pdfrwt>
<totfact> 0.66376023E+06</totfact>
</mgrwt>
</event>
<event>
 5    0  0.1635914E+000  0.1249984E+03  0.7546771E-02  0.1235072E+00
         21   -1    0    0  503  502  0.00000000000E+00  0.00000000000E+00  0.46401568171E+02  0.46401568171E+02  0.00000000000E+00 0. -1.
         21   -1    0    0  502  503 -0.00000000000E+00 -0.00000000000E+00 -0.84181409276E+02  0.84181409276E+02  0.00000000000E+00 0. -1.
         25    2    1    2    0    0  0.00000000000E+00  0.00000000000E+00 -0.37779841105E+02  0.13058297745E+03  0.12499839041E+03 0.  0.
          4    1    3    3  501    0  0.37042181812E+02 -0.45849506852E+02  0.27590188055E+01  0.59028088202E+02  0.15500000000E+01 0.  1.
         -4    1    3    3    0  501 -0.37042181812E+02  0.45849506852E+02 -0.40538859911E+02  0.71554889245E+02  0.15500000000E+01 0.  1.
<mgrwt>
<rscale>  2 0.12499839E+03</rscale>
<asrwt>0</asrwt>
<pdfrwt beam="1">  1       21 0.71387029E-02 0.12499839E+03</pdfrwt>
<pdfrwt beam="2">  1       21 0.12950986E-01 0.12499839E+03</pdfrwt>
<totfact> 0.73289934E+06</totfact>
</mgrwt>
</event>
<event>
 5    0  0.1538557E+000  0.1250008E+03  0.7546771E-02  0.1235068E+00
         21   -1    0    0  503  502  0.00000000000E+00  0.00000000000E+00  0.41701312002E+02  0.41701312002E+02  0.00000000000E+00 0.  1.
         21   -1    0    0  502  503 -0.00000000000E+00 -0.00000000000E+00 -0.93673340177E+02  0.93673340177E+02  0.00000000000E+00 0.  1.
         25    2    1    2    0    0  0.00000000000E+00  0.00000000000E+00 -0.51972028175E+02  0.13537465218E+03  0.12500081896E+03 0.  0.
          4    1    3    3  501    0  0.47263954747E+02  0.40547860323E+02 -0.31496325925E+02  0.69802803968E+02  0.15500000000E+01 0.  1.
         -4    1    3    3    0  501 -0.47263954747E+02 -0.40547860323E+02 -0.20475702251E+02  0.65571848211E+02  0.15500000000E+01 0.  1.
<mgrwt>
<rscale>  2 0.12500082E+03</rscale>
<asrwt>0</asrwt>
<pdfrwt beam="1">  1       21 0.64155864E-02 0.12500082E+03</pdfrwt>
<pdfrwt beam="2">  1       21 0.14411283E-01 0.12500082E+03</pdfrwt>
<totfact> 0.72645386E+06</totfact>
</mgrwt>
</event>
<event>
 5    0  0.1492826E+000  0.1249971E+03  0.7546771E-02  0.1235074E+00
         21   -1    0    0  503  502  0.00000000000E+00  0.00000000000E+00  0.20515209887E+02  0.20515209887E+02  0.00000000000E+00 0.  1.
         21   -1    0    0  502  503 -0.00000000000E+00 -0.00000000000E+00 -0.19039864534E+03  0.19039864534E+03  0.00000000000E+00 0.  1.
         25    2    1    2    0    0  0.00000000000E+00  0.00000000000E+00 -0.16988343546E+03  0.21091385523E+03  0.12499709071E+03 0.  0.
          4    1    3    3  501    0  0.39856317878E+02  0.37786393664E+02 -0.34678844551E+02  0.64972012285E+02  0.15500000000E+01 0.  1.
         -4    1    3    3    0  501 -0.39856317878E+02 -0.37786393664E+02 -0.13520459091E+03  0.14594184295E+03  0.15500000000E+01 0.  1.
<mgrwt>
<rscale>  2 0.12499709E+03</rscale>
<asrwt>0</asrwt>
<pdfrwt beam="1">  1       21 0.31561860E-02 0.12499709E+03</pdfrwt>
<pdfrwt beam="2">  1       21 0.29292101E-01 0.12499709E+03</pdfrwt>
<totfact> 0.63768207E+06</totfact>
</mgrwt>
</event>
<event>
 5    0  0.1482800E+000  0.1249959E+03  0.7546771E-02  0.1235076E+00
         21   -1    0    0  503  502  0.00000000000E+00  0.00000000000E+00  0.14427113081E+02  0.14427113081E+02  0.00000000000E+00 0. -1.
         21   -1    0    0  502  503 -0.00000000000E+00 -0.00000000000E+00 -0.27073985222E+03  0.27073985222E+03  0.00000000000E+00 0. -1.
         25    2    1    2    0    0  0.00000000000E+00  0.00000000000E+00 -0.25631273914E+03  0.28516696531E+03  0.12499591135E+03 0.  0.
          4    1    3    3  501    0  0.42119809429E+02 -0.42850540528E+02 -0.89081944286E+02  0.10746274921E+03  0.15500000000E+01 0.  1.
         -4    1    3    3    0  501 -0.42119809429E+02  0.42850540528E+02 -0.16723079486E+03  0.17770421610E+03  0.15500000000E+01 0.  1.
<mgrwt>
<rscale>  2 0.12499591E+03</rscale>
<asrwt>0</asrwt>
<pdfrwt beam="1">  1       21 0.22195560E-02 0.12499591E+03</pdfrwt>
<pdfrwt beam="2">  1       21 0.41652283E-01 0.12499591E+03</pdfrwt>
<totfact> 0.56717666E+06</totfact>
</mgrwt>
</event>
<event>
 5    0  0.1222151E+000  0.1249995E+03  0.7546771E-02  0.1235070E+00
         21   -1    0    0  503  502  0.00000000000E+00  0.00000000000E+00  0.13557986926E+04  0.13557986926E+04  0.00000000000E+00 0.  1.
         21   -1    0    0  502  503 -0.00000000000E+00 -0.00000000000E+00 -0.28811197337E+01  0.28811197337E+01  0.00000000000E+00 0.  1.
         25    2    1    2    0    0  0.00000000000E+00  0.00000000000E+00  0.13529175729E+04  0.13586798124E+04  0.12499949389E+03 0.  0.
          4    1    3    3  501    0 -0.16267838119E+02 -0.60049752569E+02  0.73908863488E+03  0.74170413782E+03  0.15500000000E+01 0.  1.
         -4    1    3    3    0  501  0.16267838119E+02  0.60049752569E+02  0.61382893803E+03  0.61697567456E+03  0.15500000000E+01 0.  1.
<mgrwt>
<rscale>  2 0.12499949E+03</rscale>
<asrwt>0</asrwt>
<pdfrwt beam="1">  1       21 0.20858390E+00 0.12499949E+03</pdfrwt>
<pdfrwt beam="2">  1       21 0.44325027E-03 0.12499949E+03</pdfrwt>
<totfact> 0.16230795E+06</totfact>
</mgrwt>
</event>
<event>
 5    0  0.1222151E+000  0.1249351E+03  0.7546771E-02  0.1235171E+00
         21   -1    0    0  503  502  0.00000000000E+00  0.00000000000E+00  0.14563878426E+02  0.14563878426E+02  0.00000000000E+00 0. -1.
         21   -1    0    0  502  503 -0.00000000000E+00 -0.00000000000E+00 -0.26793633874E+03  0.26793633874E+03  0.00000000000E+00 0. -1.
         25    2    1    2    0    0  0.00000000000E+00  0.00000000000E+00 -0.25337246032E+03  0.28250021717E+03  0.12493505934E+03 0.  0.
          4    1    3    3  501    0 -0.35932643367E+02 -0.19521186302E+02 -0.19965450973E+02  0.45532991408E+02  0.15500000000E+01 0. -1.
         -4    1    3    3    0  501  0.35932643367E+02  0.19521186302E+02 -0.23340700934E+03  0.23696722576E+03  0.15500000000E+01 0. -1.
<mgrwt>
<rscale>  2 0.12493506E+03</rscale>
<asrwt>0</asrwt>
<pdfrwt beam="1">  1       21 0.22405968E-02 0.12493506E+03</pdfrwt>
<pdfrwt beam="2">  1       21 0.41220974E-01 0.12493506E+03</pdfrwt>
<totfact> 0.57035678E+06</totfact>
</mgrwt>
</event>
<event>
 5    0  0.1222151E+000  0.1249905E+03  0.7546771E-02  0.1235084E+00
         21   -1    0    0  503  502  0.00000000000E+00  0.00000000000E+00  0.16463706652E+04  0.16463706652E+04  0.00000000000E+00 0. -1.
         21   -1    0    0  502  503 -0.00000000000E+00 -0.00000000000E+00 -0.23722832784E+01  0.23722832784E+01  0.00000000000E+00 0. -1.
         25    2    1    2    0    0  0.00000000000E+00  0.00000000000E+00  0.16439983819E+04  0.16487429485E+04  0.12499052123E+03 0.  0.
          4    1    3    3  501    0  0.39968594645E+02  0.11386823193E+02  0.20665801821E+03  0.21080106093E+03  0.15500000000E+01 0.  1.
         -4    1    3    3    0  501 -0.39968594645E+02 -0.11386823193E+02  0.14373403637E+04  0.14379418875E+04  0.15500000000E+01 0.  1.
<mgrwt>
<rscale>  2 0.12499052E+03</rscale>
<asrwt>0</asrwt>
<pdfrwt beam="1">  1       21 0.25328688E+00 0.12499052E+03</pdfrwt>
<pdfrwt beam="2">  1       21 0.36496797E-03 0.12499052E+03</pdfrwt>
<totfact> 0.11927181E+06</totfact>
</mgrwt>
</event>
<event>
 5    0  0.1697854E+000  0.1250014E+03  0.7546771E-02  0.1235067E+00
         21   -1    0    0  503  502  0.00000000000E+00  0.00000000000E+00  0.80145573587E+02  0.80145573587E+02  0.00000000000E+00 0. -1.
         21   -1    0    0  502  503 -0.00000000000E+00 -0.00000000000E+00 -0.48740492096E+02  0.48740492096E+02  0.00000000000E+00 0. -1.
         25    2    1    2    0    0  0.00000000000E+00  0.00000000000E+00  0.31405081491E+02  0.12888606568E+03  0.12500135513E+03 0.  0.
          4    1    3    3  501    0 -0.37315458745E+02 -0.20600854436E+01  0.67331053395E+02  0.77023117729E+02  0.15500000000E+01 0. -1.
         -4    1    3    3    0  501  0.37315458745E+02  0.20600854436E+01 -0.35925971903E+02  0.51862947955E+02  0.15500000000E+01 0. -1.
<mgrwt>
<rscale>  2 0.12500136E+03</rscale>
<asrwt>0</asrwt>
<pdfrwt beam="1">  1       21 0.12330088E-01 0.12500136E+03</pdfrwt>
<pdfrwt beam="2">  1       21 0.74985372E-02 0.12500136E+03</pdfrwt>
<totfact> 0.73511643E+06</totfact>
</mgrwt>
</event>
<event>
 5    0  0.1233239E+000  0.1249961E+03  0.7546771E-02  0.1235075E+00
         21   -1    0    0  503  502  0.00000000000E+00  0.00000000000E+00  0.59414646758E+03  0.59414646758E+03  0.00000000000E+00 0.  1.
         21   -1    0    0  502  503 -0.00000000000E+00 -0.00000000000E+00 -0.65741478690E+01  0.65741478690E+01  0.00000000000E+00 0.  1.
         25    2    1    2    0    0  0.00000000000E+00  0.00000000000E+00  0.58757231971E+03  0.60072061545E+03  0.12499610768E+03 0.  0.
          4    1    3    3  501    0  0.28294514794E+02  0.12746916538E+02  0.55439530430E+03  0.55526535942E+03  0.15500000000E+01 0. -1.
         -4    1    3    3    0  501 -0.28294514794E+02 -0.12746916538E+02  0.33177015417E+02  0.45455256029E+02  0.15500000000E+01 0. -1.
<mgrwt>
<rscale>  2 0.12499611E+03</rscale>
<asrwt>0</asrwt>
<pdfrwt beam="1">  1       21 0.91407107E-01 0.12499611E+03</pdfrwt>
<pdfrwt beam="2">  1       21 0.10114078E-02 0.12499611E+03</pdfrwt>
<totfact> 0.37063658E+06</totfact>
</mgrwt>
</event>
<event>
 5    0  0.1505696E+000  0.1250037E+03  0.7546771E-02  0.1235064E+00
         21   -1    0    0  503  502  0.00000000000E+00  0.00000000000E+00  0.37208453096E+02  0.37208453096E+02  0.00000000000E+00 0.  1.
         21   -1    0    0  502  503 -0.00000000000E+00 -0.00000000000E+00 -0.10498901163E+03  0.10498901163E+03  0.00000000000E+00 0.  1.
         25    2    1    2    0    0  0.00000000000E+00  0.00000000000E+00 -0.67780558535E+02  0.14219746473E+03  0.12500365938E+03 0.  0.
          4    1    3    3  501    0  0.23622236678E+02 -0.28637916370E+02  0.23281313131E+02  0.43847033660E+02  0.15500000000E+01 0. -1.
         -4    1    3    3    0  501 -0.23622236678E+02  0.28637916370E+02 -0.91061871666E+02  0.98350431067E+02  0.15500000000E+01 0. -1.
<mgrwt>
<rscale>  2 0.12500366E+03</rscale>
<asrwt>0</asrwt>
<pdfrwt beam="1">  1       21 0.57243774E-02 0.12500366E+03</pdfrwt>
<pdfrwt beam="2">  1       21 0.16152156E-01 0.12500366E+03</pdfrwt>
<totfact> 0.71747029E+06</totfact>
</mgrwt>
</event>
<event>
 5    0  0.1538222E+000  0.1250038E+03  0.7546771E-02  0.1235063E+00
         21   -1    0    0  503  502  0.00000000000E+00  0.00000000000E+00  0.46756234583E+02  0.46756234583E+02  0.00000000000E+00 0. -1.
         21   -1    0    0  502  503 -0.00000000000E+00 -0.00000000000E+00 -0.83550046484E+02  0.83550046484E+02  0.00000000000E+00 0. -1.
         25    2    1    2    0    0  0.00000000000E+00  0.00000000000E+00 -0.36793811901E+02  0.13030628107E+03  0.12500376911E+03 0.  0.
          4    1    3    3  501    0  0.42360076143E+02  0.39138317277E+02 -0.43456167404E+02  0.72228975595E+02  0.15500000000E+01 0. -1.
         -4    1    3    3    0  501 -0.42360076143E+02 -0.39138317277E+02  0.66623555028E+01  0.58077305472E+02  0.15500000000E+01 0. -1.
<mgrwt>
<rscale>  2 0.12500377E+03</rscale>
<asrwt>0</asrwt>
<pdfrwt beam="1">  1       21 0.71932669E-02 0.12500377E+03</pdfrwt>
<pdfrwt beam="2">  1       21 0.12853853E-01 0.12500377E+03</pdfrwt>
<totfact> 0.73316954E+06</totfact>
</mgrwt>
</event>
<event>
 5    0  0.1222151E+000  0.1250022E+03  0.7546771E-02  0.1235066E+00
         21   -1    0    0  503  502  0.00000000000E+00  0.00000000000E+00  0.98393225608E+03  0.98393225608E+03  0.00000000000E+00 0. -1.
         21   -1    0    0  502  503 -0.00000000000E+00 -0.00000000000E+00 -0.39701790085E+01  0.39701790085E+01  0.00000000000E+00 0. -1.
         25    2    1    2    0    0  0.00000000000E+00  0.00000000000E+00  0.97996207707E+03  0.98790243509E+03  0.12500219500E+03 0.  0.
          4    1    3    3  501    0  0.58380190420E+02  0.13985173605E+02  0.35306076987E+03  0.35813145832E+03  0.15500000000E+01 0. -1.
         -4    1    3    3    0  501 -0.58380190420E+02 -0.13985173605E+02  0.62690130720E+03  0.62977097677E+03  0.15500000000E+01 0. -1.
<mgrwt>
<rscale>  2 0.12500220E+03</rscale>
<asrwt>0</asrwt>
<pdfrwt beam="1">  1       21 0.15137400E+00 0.12500220E+03</pdfrwt>
<pdfrwt beam="2">  1       21 0.61079755E-03 0.12500220E+03</pdfrwt>
<totfact> 0.23922047E+06</totfact>
</mgrwt>
</event>
<event>
 5    0  0.1577090E+000  0.1250015E+03  0.7546771E-02  0.1235067E+00
         21   -1    0    0  503  502  0.00000000000E+00  0.00000000000E+00  0.61133971412E+02  0.61133971412E+02  0.00000000000E+00 0.  1.
         21   -1    0    0  502  503 -0.00000000000E+00 -0.00000000000E+00 -0.63898102582E+02  0.63898102582E+02  0.00000000000E+00 0.  1.
         25    2    1    2    0    0  0.00000000000E+00  0.00000000000E+00 -0.27641311704E+01  0.12503207399E+03  0.12500151642E+03 0.  0.
          4    1    3    3  501    0  0.52776509283E+02  0.33293721163E+02 -0.45625402921E+01  0.62586348950E+02  0.15500000000E+01 0.  1.
         -4    1    3    3    0  501 -0.52776509283E+02 -0.33293721163E+02  0.17984091217E+01  0.62445725044E+02  0.15500000000E+01 0.  1.
<mgrwt>
<rscale>  2 0.12500152E+03</rscale>
<asrwt>0</asrwt>
<pdfrwt beam="1">  1       21 0.94052264E-02 0.12500152E+03</pdfrwt>
<pdfrwt beam="2">  1       21 0.98304773E-02 0.12500152E+03</pdfrwt>
<totfact> 0.74036379E+06</totfact>
</mgrwt>
</event>
<event>
 5    0  0.1222151E+000  0.1249738E+03  0.7546771E-02  0.1235110E+00
         21   -1    0    0  503  502  0.00000000000E+00  0.00000000000E+00  0.76414030755E+03  0.76414030755E+03  0.00000000000E+00 0. -1.
         21   -1    0    0  502  503 -0.00000000000E+00 -0.00000000000E+00 -0.51098148081E+01  0.51098148081E+01  0.00000000000E+00 0. -1.
         25    2    1    2    0    0  0.00000000000E+00  0.00000000000E+00  0.75903049275E+03  0.76925012236E+03  0.12497384461E+03 0.  0.
          4    1    3    3  501    0 -0.57493910212E+02 -0.15846813593E+02  0.26509609940E+03  0.27172599366E+03  0.15500000000E+01 0. -1.
         -4    1    3    3    0  501  0.57493910212E+02  0.15846813593E+02  0.49393439335E+03  0.49752412870E+03  0.15500000000E+01 0. -1.
<mgrwt>
<rscale>  2 0.12497384E+03</rscale>
<asrwt>0</asrwt>
<pdfrwt beam="1">  1       21 0.11755996E+00 0.12497384E+03</pdfrwt>
<pdfrwt beam="2">  1       21 0.78612596E-03 0.12497384E+03</pdfrwt>
<totfact> 0.30422803E+06</totfact>
</mgrwt>
</event>
<event>
 5    0  0.1356576E+000  0.1250041E+03  0.7546771E-02  0.1235063E+00
         21   -1    0    0  503  502  0.00000000000E+00  0.00000000000E+00  0.46372262295E+03  0.46372262295E+03  0.00000000000E+00 0. -1.
         21   -1    0    0  502  503 -0.00000000000E+00 -0.00000000000E+00 -0.84242356341E+01  0.84242356341E+01  0.00000000000E+00 0. -1.
         25    2    1    2    0    0  0.00000000000E+00  0.00000000000E+00  0.45529838731E+03  0.47214685858E+03  0.12500413824E+03 0.  0.
          4    1    3    3  501    0 -0.16858042127E+02 -0.37355683108E+02  0.40579087673E+03  0.40785816013E+03  0.15500000000E+01 0.  1.
         -4    1    3    3    0  501  0.16858042127E+02  0.37355683108E+02  0.49507510583E+02  0.64288698454E+02  0.15500000000E+01 0.  1.
<mgrwt>
<rscale>  2 0.12500414E+03</rscale>
<asrwt>0</asrwt>
<pdfrwt beam="1">  1       21 0.71341922E-01 0.12500414E+03</pdfrwt>
<pdfrwt beam="2">  1       21 0.12960366E-02 0.12500414E+03</pdfrwt>
<totfact> 0.43591550E+06</totfact>
</mgrwt>
</event>
<event>
 5    0  0.1575218E+000  0.1250191E+03  0.7546771E-02  0.1235039E+00
         21   -1    0    0  503  502  0.00000000000E+00  0.00000000000E+00  0.17195202764E+03  0.17195202764E+03  0.00000000000E+00 0. -1.
         21   -1    0    0  502  503 -0.00000000000E+00 -0.00000000000E+00 -0.22724036249E+02  0.22724036249E+02  0.00000000000E+00 0. -1.
         25    2    1    2    0    0  0.00000000000E+00  0.00000000000E+00  0.14922799139E+03  0.19467606389E+03  0.12501910429E+03 0.  0.
          4    1    3    3  501    0 -0.62145257658E+02  0.63859230085E+01  0.76938589513E+02  0.99119938046E+02  0.15500000000E+01 0.  1.
         -4    1    3    3    0  501  0.62145257658E+02 -0.63859230085E+01  0.72289401878E+02  0.95556125842E+02  0.15500000000E+01 0.  1.
<mgrwt>
<rscale>  2 0.12501910E+03</rscale>
<asrwt>0</asrwt>
<pdfrwt beam="1">  1       21 0.26454157E-01 0.12501910E+03</pdfrwt>
<pdfrwt beam="2">  1       21 0.34960057E-02 0.12501910E+03</pdfrwt>
<totfact> 0.65474804E+06</totfact>
</mgrwt>
</event>
<event>
 5    0  0.1510170E+000  0.1250050E+03  0.7546771E-02  0.1235062E+00
         21   -1    0    0  503  502  0.00000000000E+00  0.00000000000E+00  0.18373213454E+02  0.18373213454E+02  0.00000000000E+00 0. -1.
         21   -1    0    0  502  503 -0.00000000000E+00 -0.00000000000E+00 -0.21262254869E+03  0.21262254869E+03  0.00000000000E+00 0. -1.
         25    2    1    2    0    0  0.00000000000E+00  0.00000000000E+00 -0.19424933524E+03  0.23099576215E+03  0.12500495146E+03 0.  0.
          4    1    3    3  501    0 -0.78726211560E+01 -0.54664260123E+02 -0.15112607637E+03  0.16090883431E+03  0.15500000000E+01 0.  1.
         -4    1    3    3    0  501  0.78726211560E+01  0.54664260123E+02 -0.43123258871E+02  0.70086927842E+02  0.15500000000E+01 0.  1.
<mgrwt>
<rscale>  2 0.12500495E+03</rscale>
<asrwt>0</asrwt>
<pdfrwt beam="1">  1       21 0.28266483E-02 0.12500495E+03</pdfrwt>
<pdfrwt beam="2">  1       21 0.32711161E-01 0.12500495E+03</pdfrwt>
<totfact> 0.61707310E+06</totfact>
</mgrwt>
</event>
<event>
 5    0  0.1472859E+000  0.1250054E+03  0.7546771E-02  0.1235061E+00
         21   -1    0    0  503  502  0.00000000000E+00  0.00000000000E+00  0.20195980320E+02  0.20195980320E+02  0.00000000000E+00 0. -1.
         21   -1    0    0  502  503 -0.00000000000E+00 -0.00000000000E+00 -0.19343404696E+03  0.19343404696E+03  0.00000000000E+00 0. -1.
         25    2    1    2    0    0  0.00000000000E+00  0.00000000000E+00 -0.17323806664E+03  0.21363002728E+03  0.12500544317E+03 0.  0.
          4    1    3    3  501    0 -0.58009526978E+02 -0.22837909072E+02 -0.93770681459E+02  0.11261446849E+03  0.15500000000E+01 0.  1.
         -4    1    3    3    0  501  0.58009526978E+02  0.22837909072E+02 -0.79467385179E+02  0.10101555879E+03  0.15500000000E+01 0.  1.
<mgrwt>
<rscale>  2 0.12500544E+03</rscale>
<asrwt>0</asrwt>
<pdfrwt beam="1">  1       21 0.31070739E-02 0.12500544E+03</pdfrwt>
<pdfrwt beam="2">  1       21 0.29759084E-01 0.12500544E+03</pdfrwt>
<totfact> 0.63470891E+06</totfact>
</mgrwt>
</event>
<event>
 5    0  0.1285908E+000  0.1250211E+03  0.7546771E-02  0.1235036E+00
         21   -1    0    0  503  502  0.00000000000E+00  0.00000000000E+00  0.59177623797E+01  0.59177623797E+01  0.00000000000E+00 0.  1.
         21   -1    0    0  502  503 -0.00000000000E+00 -0.00000000000E+00 -0.66031146672E+03  0.66031146672E+03  0.00000000000E+00 0.  1.
         25    2    1    2    0    0  0.00000000000E+00  0.00000000000E+00 -0.65439370434E+03  0.66622922910E+03  0.12502105993E+03 0.  0.
          4    1    3    3  501    0 -0.10138993143E+02  0.61529383646E+02 -0.34884284519E+03  0.35437606772E+03  0.15500000000E+01 0.  1.
         -4    1    3    3    0  501  0.10138993143E+02 -0.61529383646E+02 -0.30555085914E+03  0.31185316137E+03  0.15500000000E+01 0.  1.
<mgrwt>
<rscale>  2 0.12502106E+03</rscale>
<asrwt>0</asrwt>
<pdfrwt beam="1">  1       21 0.91042468E-03 0.12502106E+03</pdfrwt>
<pdfrwt beam="2">  1       21 0.10158641E+00 0.12502106E+03</pdfrwt>
<totfact> 0.34235272E+06</totfact>
</mgrwt>
</event>
<event>
 5    0  0.1516509E+000  0.1249998E+03  0.7546771E-02  0.1235070E+00
         21   -1    0    0  503  502  0.00000000000E+00  0.00000000000E+00  0.16250664012E+02  0.16250664012E+02  0.00000000000E+00 0.  1.
         21   -1    0    0  502  503 -0.00000000000E+00 -0.00000000000E+00 -0.24037391085E+03  0.24037391085E+03  0.00000000000E+00 0.  1.
         25    2    1    2    0    0  0.00000000000E+00  0.00000000000E+00 -0.22412324684E+03  0.25662457486E+03  0.12499977060E+03 0.  0.
          4    1    3    3  501    0  0.52888178604E+02  0.30146301834E+02 -0.14094072153E+03  0.15353386739E+03  0.15500000000E+01 0.  1.
         -4    1    3    3    0  501 -0.52888178604E+02 -0.30146301834E+02 -0.83182525304E+02  0.10309070747E+03  0.15500000000E+01 0.  1.
<mgrwt>
<rscale>  2 0.12499977E+03</rscale>
<asrwt>0</asrwt>
<pdfrwt beam="1">  1       21 0.25001025E-02 0.12499977E+03</pdfrwt>
<pdfrwt beam="2">  1       21 0.36980597E-01 0.12499977E+03</pdfrwt>
<totfact> 0.59260386E+06</totfact>
</mgrwt>
</event>
<event>
 5    0  0.1548386E+000  0.1250012E+03  0.7546771E-02  0.1235067E+00
         21   -1    0    0  503  502  0.00000000000E+00  0.00000000000E+00  0.66928531373E+02  0.66928531373E+02  0.00000000000E+00 0.  1.
         21   -1    0    0  502  503 -0.00000000000E+00 -0.00000000000E+00 -0.58365659619E+02  0.58365659619E+02  0.00000000000E+00 0.  1.
         25    2    1    2    0    0  0.00000000000E+00  0.00000000000E+00  0.85628717546E+01  0.12529419099E+03  0.12500124609E+03 0.  0.
          4    1    3    3  501    0  0.60103237146E+02  0.14967688695E+02 -0.39533247861E+01  0.62084314421E+02  0.15500000000E+01 0. -1.
         -4    1    3    3    0  501 -0.60103237146E+02 -0.14967688695E+02  0.12516196541E+02  0.63209876571E+02  0.15500000000E+01 0. -1.
<mgrwt>
<rscale>  2 0.12500125E+03</rscale>
<asrwt>0</asrwt>
<pdfrwt beam="1">  1       21 0.10296697E-01 0.12500125E+03</pdfrwt>
<pdfrwt beam="2">  1       21 0.89793322E-02 0.12500125E+03</pdfrwt>
<totfact> 0.74001498E+06</totfact>
</mgrwt>
</event>
<event>
 5    0  0.1582686E+000  0.1250374E+03  0.7546771E-02  0.1235011E+00
         21   -1    0    0  503  502  0.00000000000E+00  0.00000000000E+00  0.42775670138E+02  0.42775670138E+02  0.00000000000E+00 0.  1.
         21   -1    0    0  502  503 -0.00000000000E+00 -0.00000000000E+00 -0.91374134269E+02  0.91374134269E+02  0.00000000000E+00 0.  1.
         25    2    1    2    0    0  0.00000000000E+00  0.00000000000E+00 -0.48598464131E+02  0.13414980441E+03  0.12503743162E+03 0.  0.
          4    1    3    3  501    0  0.98323141933E+01  0.57529887898E+02 -0.31316999203E+00  0.58385468906E+02  0.15500000000E+01 0.  1.
         -4    1    3    3    0  501 -0.98323141933E+01 -0.57529887898E+02 -0.48285294138E+02  0.75764335501E+02  0.15500000000E+01 0.  1.
<mgrwt>
<rscale>  2 0.12503743E+03</rscale>
<asrwt>0</asrwt>
<pdfrwt beam="1">  1       21 0.65808724E-02 0.12503743E+03</pdfrwt>
<pdfrwt beam="2">  1       21 0.14057559E-01 0.12503743E+03</pdfrwt>
<totfact> 0.72739767E+06</totfact>
</mgrwt>
</event>
<event>
 5    0  0.1281271E+000  0.1249948E+03  0.7546771E-02  0.1235077E+00
         21   -1    0    0  503  502  0.00000000000E+00  0.00000000000E+00  0.75313368120E+03  0.75313368120E+03  0.00000000000E+00 0. -1.
         21   -1    0    0  502  503 -0.00000000000E+00 -0.00000000000E+00 -0.51862302433E+01  0.51862302433E+01  0.00000000000E+00 0. -1.
         25    2    1    2    0    0  0.00000000000E+00  0.00000000000E+00  0.74794745096E+03  0.75831991145E+03  0.12499479469E+03 0.  0.
          4    1    3    3  501    0 -0.13316773021E+01  0.37183237694E+02  0.69473209750E+02  0.78824462591E+02  0.15500000000E+01 0.  1.
         -4    1    3    3    0  501  0.13316773021E+01 -0.37183237694E+02  0.67847424121E+03  0.67949544886E+03  0.15500000000E+01 0.  1.
<mgrwt>
<rscale>  2 0.12499479E+03</rscale>
<asrwt>0</asrwt>
<pdfrwt beam="1">  1       21 0.11586663E+00 0.12499479E+03</pdfrwt>
<pdfrwt beam="2">  1       21 0.79788217E-03 0.12499479E+03</pdfrwt>
<totfact> 0.30782366E+06</totfact>
</mgrwt>
</event>
<event>
 5    0  0.1440325E+000  0.1249920E+03  0.7546771E-02  0.1235082E+00
         21   -1    0    0  503  502  0.00000000000E+00  0.00000000000E+00  0.12592073034E+02  0.12592073034E+02  0.00000000000E+00 0. -1.
         21   -1    0    0  502  503 -0.00000000000E+00 -0.00000000000E+00 -0.31017547203E+03  0.31017547203E+03  0.00000000000E+00 0. -1.
         25    2    1    2    0    0  0.00000000000E+00  0.00000000000E+00 -0.29758339899E+03  0.32276754506E+03  0.12499203490E+03 0.  0.
          4    1    3    3  501    0  0.52890758295E+01 -0.60317328551E+02 -0.18856215038E+03  0.19805110831E+03  0.15500000000E+01 0.  1.
         -4    1    3    3    0  501 -0.52890758295E+01  0.60317328551E+02 -0.10902124861E+03  0.12471643675E+03  0.15500000000E+01 0.  1.
<mgrwt>
<rscale>  2 0.12499203E+03</rscale>
<asrwt>0</asrwt>
<pdfrwt beam="1">  1       21 0.19372420E-02 0.12499203E+03</pdfrwt>
<pdfrwt beam="2">  1       21 0.47719303E-01 0.12499203E+03</pdfrwt>
<totfact> 0.53625469E+06</totfact>
</mgrwt>
</event>
<event>
 5    0  0.1422646E+000  0.1250050E+03  0.7546771E-02  0.1235061E+00
         21   -1    0    0  503  502  0.00000000000E+00  0.00000000000E+00  0.12171655680E+02  0.12171655680E+02  0.00000000000E+00 0. -1.
         21   -1    0    0  502  503 -0.00000000000E+00 -0.00000000000E+00 -0.32095569484E+03  0.32095569484E+03  0.00000000000E+00 0. -1.
         25    2    1    2    0    0  0.00000000000E+00  0.00000000000E+00 -0.30878403916E+03  0.33312735052E+03  0.12500499520E+03 0.  0.
          4    1    3    3  501    0  0.30116141345E+01 -0.50761262661E+02 -0.25115381124E+03  0.25625459022E+03  0.15500000000E+01 0.  1.
         -4    1    3    3    0  501 -0.30116141345E+01  0.50761262661E+02 -0.57630227924E+02  0.76872760307E+02  0.15500000000E+01 0.  1.
<mgrwt>
<rscale>  2 0.12500500E+03</rscale>
<asrwt>0</asrwt>
<pdfrwt beam="1">  1       21 0.18725624E-02 0.12500500E+03</pdfrwt>
<pdfrwt beam="2">  1       21 0.49377801E-01 0.12500500E+03</pdfrwt>
<totfact> 0.52802577E+06</totfact>
</mgrwt>
</event>
<event>
 5    0  0.1424935E+000  0.1250058E+03  0.7546771E-02  0.1235060E+00
         21   -1    0    0  503  502  0.00000000000E+00  0.00000000000E+00  0.23715418515E+03  0.23715418515E+03  0.00000000000E+00 0. -1.
         21   -1    0    0  502  503 -0.00000000000E+00 -0.00000000000E+00 -0.16472893358E+02  0.16472893358E+02  0.00000000000E+00 0. -1.
         25    2    1    2    0    0  0.00000000000E+00  0.00000000000E+00  0.22068129179E+03  0.25362707851E+03  0.12500584948E+03 0.  0.
          4    1    3    3  501    0  0.39178968369E+02  0.46190373482E+01  0.20865202527E+03  0.21235441417E+03  0.15500000000E+01 0.  1.
         -4    1    3    3    0  501 -0.39178968369E+02 -0.46190373482E+01  0.12029266524E+02  0.41272664339E+02  0.15500000000E+01 0.  1.
<mgrwt>
<rscale>  2 0.12500585E+03</rscale>
<asrwt>0</asrwt>
<pdfrwt beam="1">  1       21 0.36485257E-01 0.12500585E+03</pdfrwt>
<pdfrwt beam="2">  1       21 0.25342915E-02 0.12500585E+03</pdfrwt>
<totfact> 0.59529601E+06</totfact>
</mgrwt>
</event>
<event>
 5    0  0.1462441E+000  0.1250052E+03  0.7546771E-02  0.1235061E+00
         21   -1    0    0  503  502  0.00000000000E+00  0.00000000000E+00  0.56795045807E+02  0.56795045807E+02  0.00000000000E+00 0. -1.
         21   -1    0    0  502  503 -0.00000000000E+00 -0.00000000000E+00 -0.68783722888E+02  0.68783722888E+02  0.00000000000E+00 0. -1.
         25    2    1    2    0    0  0.00000000000E+00  0.00000000000E+00 -0.11988677081E+02  0.12557876870E+03  0.12500519497E+03 0.  0.
          4    1    3    3  501    0  0.96480103384E+01 -0.32661758419E+02 -0.58620750808E+02  0.67813490486E+02  0.15500000000E+01 0. -1.
         -4    1    3    3    0  501 -0.96480103384E+01  0.32661758419E+02  0.46632073727E+02  0.57765278209E+02  0.15500000000E+01 0. -1.
<mgrwt>
<rscale>  2 0.12500519E+03</rscale>
<asrwt>0</asrwt>
<pdfrwt beam="1">  1       21 0.87376994E-02 0.12500519E+03</pdfrwt>
<pdfrwt beam="2">  1       21 0.10582111E-01 0.12500519E+03</pdfrwt>
<totfact> 0.73954605E+06</totfact>
</mgrwt>
</event>
<event>
 5    0  0.1468201E+000  0.1250023E+03  0.7546771E-02  0.1235066E+00
         21   -1    0    0  503  502  0.00000000000E+00  0.00000000000E+00  0.19832761472E+02  0.19832761472E+02  0.00000000000E+00 0. -1.
         21   -1    0    0  502  503 -0.00000000000E+00 -0.00000000000E+00 -0.19696657333E+03  0.19696657333E+03  0.00000000000E+00 0. -1.
         25    2    1    2    0    0  0.00000000000E+00  0.00000000000E+00 -0.17713381186E+03  0.21679933480E+03  0.12500225705E+03 0.  0.
          4    1    3    3  501    0  0.45686711893E+02  0.24313513789E+02 -0.27850167041E+02  0.58791639717E+02  0.15500000000E+01 0. -1.
         -4    1    3    3    0  501 -0.45686711893E+02 -0.24313513789E+02 -0.14928364482E+03  0.15800769509E+03  0.15500000000E+01 0. -1.
<mgrwt>
<rscale>  2 0.12500226E+03</rscale>
<asrwt>0</asrwt>
<pdfrwt beam="1">  1       21 0.30511941E-02 0.12500226E+03</pdfrwt>
<pdfrwt beam="2">  1       21 0.30302549E-01 0.12500226E+03</pdfrwt>
<totfact> 0.63147589E+06</totfact>
</mgrwt>
</event>
<event>
 5    0  0.1551936E+000  0.1249976E+03  0.7546771E-02  0.1235073E+00
         21   -1    0    0  503  502  0.00000000000E+00  0.00000000000E+00  0.21291944514E+03  0.21291944514E+03  0.00000000000E+00 0.  1.
         21   -1    0    0  502  503 -0.00000000000E+00 -0.00000000000E+00 -0.18345442795E+02  0.18345442795E+02  0.00000000000E+00 0.  1.
         25    2    1    2    0    0  0.00000000000E+00  0.00000000000E+00  0.19457400234E+03  0.23126488794E+03  0.12499762399E+03 0.  0.
          4    1    3    3  501    0 -0.61804387660E+02  0.74524527023E+01  0.87431110139E+02  0.10734022035E+03  0.15500000000E+01 0. -1.
         -4    1    3    3    0  501  0.61804387660E+02 -0.74524527023E+01  0.10714289221E+03  0.12392466758E+03  0.15500000000E+01 0. -1.
<mgrwt>
<rscale>  2 0.12499762E+03</rscale>
<asrwt>0</asrwt>
<pdfrwt beam="1">  1       21 0.32756836E-01 0.12499762E+03</pdfrwt>
<pdfrwt beam="2">  1       21 0.28223760E-02 0.12499762E+03</pdfrwt>
<totfact> 0.61692027E+06</totfact>
</mgrwt>
</event>
<event>
 5    0  0.1222151E+000  0.1249839E+03  0.7546771E-02  0.1235094E+00
         21   -1    0    0  503  502  0.00000000000E+00  0.00000000000E+00  0.38600075986E+01  0.38600075986E+01  0.00000000000E+00 0.  1.
         21   -1    0    0  502  503 -0.00000000000E+00 -0.00000000000E+00 -0.10117193289E+04  0.10117193289E+04  0.00000000000E+00 0.  1.
         25    2    1    2    0    0  0.00000000000E+00  0.00000000000E+00 -0.10078593213E+04  0.10155793365E+04  0.12498390772E+03 0.  0.
          4    1    3    3  501    0 -0.85625913328E+01 -0.45398533883E+02 -0.16221633577E+03  0.16867390711E+03  0.15500000000E+01 0.  1.
         -4    1    3    3    0  501  0.85625913328E+01  0.45398533883E+02 -0.84564298550E+03  0.84690542935E+03  0.15500000000E+01 0.  1.
<mgrwt>
<rscale>  2 0.12498391E+03</rscale>
<asrwt>0</asrwt>
<pdfrwt beam="1">  1       21 0.59384674E-03 0.12498391E+03</pdfrwt>
<pdfrwt beam="2">  1       21 0.15564928E+00 0.12498391E+03</pdfrwt>
<totfact> 0.23241781E+06</totfact>
</mgrwt>
</event>
<event>
 5    0  0.1613217E+000  0.1249958E+03  0.7546771E-02  0.1235076E+00
         21   -1    0    0  503  502  0.00000000000E+00  0.00000000000E+00  0.13834682456E+03  0.13834682456E+03  0.00000000000E+00 0. -1.
         21   -1    0    0  502  503 -0.00000000000E+00 -0.00000000000E+00 -0.28233281979E+02  0.28233281979E+02  0.00000000000E+00 0. -1.
         25    2    1    2    0    0  0.00000000000E+00  0.00000000000E+00  0.11011354258E+03  0.16658010654E+03  0.12499575847E+03 0.  0.
          4    1    3    3  501    0  0.33086880538E+02  0.50405614102E+02  0.33235087263E+02  0.68865384063E+02  0.15500000000E+01 0.  1.
         -4    1    3    3    0  501 -0.33086880538E+02 -0.50405614102E+02  0.76878455321E+02  0.97714722480E+02  0.15500000000E+01 0.  1.
<mgrwt>
<rscale>  2 0.12499576E+03</rscale>
<asrwt>0</asrwt>
<pdfrwt beam="1">  1       21 0.21284126E-01 0.12499576E+03</pdfrwt>
<pdfrwt beam="2">  1       21 0.43435819E-02 0.12499576E+03</pdfrwt>
<totfact> 0.68731690E+06</totfact>
</mgrwt>
</event>
<event>
 5    0  0.1372001E+000  0.1250027E+03  0.7546771E-02  0.1235065E+00
         21   -1    0    0  503  502  0.00000000000E+00  0.00000000000E+00  0.85241320846E+01  0.85241320846E+01  0.00000000000E+00 0.  1.
         21   -1    0    0  502  503 -0.00000000000E+00 -0.00000000000E+00 -0.45827750497E+03  0.45827750497E+03  0.00000000000E+00 0.  1.
         25    2    1    2    0    0  0.00000000000E+00  0.00000000000E+00 -0.44975337288E+03  0.46680163705E+03  0.12500268771E+03 0.  0.
          4    1    3    3  501    0 -0.40041366021E+02  0.36194897552E+02 -0.34241233508E+03  0.34664389698E+03  0.15500000000E+01 0. -1.
         -4    1    3    3    0  501  0.40041366021E+02 -0.36194897552E+02 -0.10734103781E+03  0.12015774007E+03  0.15500000000E+01 0. -1.
<mgrwt>
<rscale>  2 0.12500269E+03</rscale>
<asrwt>0</asrwt>
<pdfrwt beam="1">  1       21 0.13114053E-02 0.12500269E+03</pdfrwt>
<pdfrwt beam="2">  1       21 0.70504212E-01 0.12500269E+03</pdfrwt>
<totfact> 0.43900737E+06</totfact>
</mgrwt>
</event>
<event>
 5    0  0.1577565E+000  0.1249983E+03  0.7546771E-02  0.1235072E+00
         21   -1    0    0  503  502  0.00000000000E+00  0.00000000000E+00  0.75509084241E+02  0.75509084241E+02  0.00000000000E+00 0.  1.
         21   -1    0    0  502  503 -0.00000000000E+00 -0.00000000000E+00 -0.51730792136E+02  0.51730792136E+02  0.00000000000E+00 0.  1.
         25    2    1    2    0    0  0.00000000000E+00  0.00000000000E+00  0.23778292105E+02  0.12723987638E+03  0.12499831585E+03 0.  0.
          4    1    3    3  501    0 -0.30458070103E+02 -0.21460423967E+02  0.62943301979E+02  0.73160820083E+02  0.15500000000E+01 0.  1.
         -4    1    3    3    0  501  0.30458070103E+02  0.21460423967E+02 -0.39165009874E+02  0.54079056294E+02  0.15500000000E+01 0.  1.
<mgrwt>
<rscale>  2 0.12499832E+03</rscale>
<asrwt>0</asrwt>
<pdfrwt beam="1">  1       21 0.11616782E-01 0.12499832E+03</pdfrwt>
<pdfrwt beam="2">  1       21 0.79585834E-02 0.12499832E+03</pdfrwt>
<totfact> 0.73739687E+06</totfact>
</mgrwt>
</event>
<event>
 5    0  0.1424407E+000  0.1250034E+03  0.7546771E-02  0.1235064E+00
         21   -1    0    0  503  502  0.00000000000E+00  0.00000000000E+00  0.34385903547E+03  0.34385903547E+03  0.00000000000E+00 0. -1.
         21   -1    0    0  502  503 -0.00000000000E+00 -0.00000000000E+00 -0.11360649024E+02  0.11360649024E+02  0.00000000000E+00 0. -1.
         25    2    1    2    0    0  0.00000000000E+00  0.00000000000E+00  0.33249838644E+03  0.35521968449E+03  0.12500338901E+03 0.  0.
          4    1    3    3  501    0  0.29508870005E+02  0.54680578013E+02  0.14754577699E+03  0.16010277271E+03  0.15500000000E+01 0.  1.
         -4    1    3    3    0  501 -0.29508870005E+02 -0.54680578013E+02  0.18495260945E+03  0.19511691178E+03  0.15500000000E+01 0.  1.
<mgrwt>
<rscale>  2 0.12500339E+03</rscale>
<asrwt>0</asrwt>
<pdfrwt beam="1">  1       21 0.52901382E-01 0.12500339E+03</pdfrwt>
<pdfrwt beam="2">  1       21 0.17477924E-02 0.12500339E+03</pdfrwt>
<totfact> 0.51150901E+06</totfact>
</mgrwt>
</event>
<event>
 5    0  0.1516801E+000  0.1249967E+03  0.7546771E-02  0.1235074E+00
         21   -1    0    0  503  502  0.00000000000E+00  0.00000000000E+00  0.68255027984E+02  0.68255027984E+02  0.00000000000E+00 0. -1.
         21   -1    0    0  502  503 -0.00000000000E+00 -0.00000000000E+00 -0.57227211208E+02  0.57227211208E+02  0.00000000000E+00 0. -1.
         25    2    1    2    0    0  0.00000000000E+00  0.00000000000E+00  0.11027816776E+02  0.12548223919E+03  0.12499671840E+03 0.  0.
          4    1    3    3  501    0 -0.53765808425E+01 -0.57319840515E+02 -0.18853211822E+02  0.60599652096E+02  0.15500000000E+01 0. -1.
         -4    1    3    3    0  501  0.53765808425E+01  0.57319840515E+02  0.29881028598E+02  0.64882587096E+02  0.15500000000E+01 0. -1.
<mgrwt>
<rscale>  2 0.12499672E+03</rscale>
<asrwt>0</asrwt>
<pdfrwt beam="1">  1       21 0.10500774E-01 0.12499672E+03</pdfrwt>
<pdfrwt beam="2">  1       21 0.88041864E-02 0.12499672E+03</pdfrwt>
<totfact> 0.73984069E+06</totfact>
</mgrwt>
</event>
<event>
 5    0  0.1428323E+000  0.1249995E+03  0.7546771E-02  0.1235070E+00
         21   -1    0    0  503  502  0.00000000000E+00  0.00000000000E+00  0.50376102071E+03  0.50376102071E+03  0.00000000000E+00 0.  1.
         21   -1    0    0  502  503 -0.00000000000E+00 -0.00000000000E+00 -0.77541130066E+01  0.77541130066E+01  0.00000000000E+00 0.  1.
         25    2    1    2    0    0  0.00000000000E+00  0.00000000000E+00  0.49600690771E+03  0.51151513372E+03  0.12499951813E+03 0.  0.
          4    1    3    3  501    0 -0.14438510010E+02  0.59340208514E+02  0.30199585626E+03  0.30811301598E+03  0.15500000000E+01 0. -1.
         -4    1    3    3    0  501  0.14438510010E+02 -0.59340208514E+02  0.19401105145E+03  0.20340211774E+03  0.15500000000E+01 0. -1.
<mgrwt>
<rscale>  2 0.12499952E+03</rscale>
<asrwt>0</asrwt>
<pdfrwt beam="1">  1       21 0.77501670E-01 0.12499952E+03</pdfrwt>
<pdfrwt beam="2">  1       21 0.11929409E-02 0.12499952E+03</pdfrwt>
<totfact> 0.41426892E+06</totfact>
</mgrwt>
</event>
<event>
 5    0  0.1424279E+000  0.1250052E+03  0.7546771E-02  0.1235061E+00
         21   -1    0    0  503  502  0.00000000000E+00  0.00000000000E+00  0.77955379738E+02  0.77955379738E+02  0.00000000000E+00 0.  1.
         21   -1    0    0  502  503 -0.00000000000E+00 -0.00000000000E+00 -0.50112926810E+02  0.50112926810E+02  0.00000000000E+00 0.  1.
         25    2    1    2    0    0  0.00000000000E+00  0.00000000000E+00  0.27842452928E+02  0.12806830655E+03  0.12500515572E+03 0.  0.
          4    1    3    3  501    0  0.25025268709E+02 -0.37830102920E+02 -0.30106106536E+02  0.54462472508E+02  0.15500000000E+01 0. -1.
         -4    1    3    3    0  501 -0.25025268709E+02  0.37830102920E+02  0.57948559464E+02  0.73605834041E+02  0.15500000000E+01 0. -1.
<mgrwt>
<rscale>  2 0.12500516E+03</rscale>
<asrwt>0</asrwt>
<pdfrwt beam="1">  1       21 0.11993135E-01 0.12500516E+03</pdfrwt>
<pdfrwt beam="2">  1       21 0.77096810E-02 0.12500516E+03</pdfrwt>
<totfact> 0.73614644E+06</totfact>
</mgrwt>
</event>
<event>
 5    0  0.1454051E+000  0.1250019E+03  0.7546771E-02  0.1235066E+00
         21   -1    0    0  503  502  0.00000000000E+00  0.00000000000E+00  0.17200961866E+03  0.17200961866E+03  0.00000000000E+00 0.  1.
         21   -1    0    0  502  503 -0.00000000000E+00 -0.00000000000E+00 -0.22710188690E+02  0.22710188690E+02  0.00000000000E+00 0.  1.
         25    2    1    2    0    0  0.00000000000E+00  0.00000000000E+00  0.14929942997E+03  0.19471980735E+03  0.12500193432E+03 0.  0.
          4    1    3    3  501    0 -0.42742040216E+02  0.20799078497E+02  0.11480086889E+02  0.48925234421E+02  0.15500000000E+01 0. -1.
         -4    1    3    3    0  501  0.42742040216E+02 -0.20799078497E+02  0.13781934308E+03  0.14579457293E+03  0.15500000000E+01 0. -1.
<mgrwt>
<rscale>  2 0.12500193E+03</rscale>
<asrwt>0</asrwt>
<pdfrwt beam="1">  1       21 0.26463017E-01 0.12500193E+03</pdfrwt>
<pdfrwt beam="2">  1       21 0.34938753E-02 0.12500193E+03</pdfrwt>
<totfact> 0.65498493E+06</totfact>
</mgrwt>
</event>
<event>
 5    0  0.1444949E+000  0.1249953E+03  0.7546771E-02  0.1235077E+00
         21   -1    0    0  503  502  0.00000000000E+00  0.00000000000E+00  0.24736531388E+03  0.24736531388E+03  0.00000000000E+00 0.  1.
         21   -1    0    0  502  503 -0.00000000000E+00 -0.00000000000E+00 -0.15790231658E+02  0.15790231658E+02  0.00000000000E+00 0.  1.
         25    2    1    2    0    0  0.00000000000E+00  0.00000000000E+00  0.23157508222E+03  0.26315554554E+03  0.12499528968E+03 0.  0.
          4    1    3    3  501    0 -0.35414170157E+02  0.40696655581E+02  0.18213603792E+03  0.18996399667E+03  0.15500000000E+01 0. -1.
         -4    1    3    3    0  501  0.35414170157E+02 -0.40696655581E+02  0.49439044300E+02  0.73191548861E+02  0.15500000000E+01 0. -1.
<mgrwt>
<rscale>  2 0.12499529E+03</rscale>
<asrwt>0</asrwt>
<pdfrwt beam="1">  1       21 0.38056199E-01 0.12499529E+03</pdfrwt>
<pdfrwt beam="2">  1       21 0.24292666E-02 0.12499529E+03</pdfrwt>
<totfact> 0.58668211E+06</totfact>
</mgrwt>
</event>
<event>
 4    0  0.1893473E+000  0.1240138E+03  0.7546771E-02  0.1236619E+00
         21   -1    0    0  503  502  0.00000000000E+00  0.00000000000E+00  0.16667246299E+02  0.16667246299E+02  0.00000000000E+00 0. -1.
         21   -1    0    0  502  503 -0.00000000000E+00 -0.00000000000E+00 -0.23068321228E+03  0.23068321228E+03  0.00000000000E+00 0. -1.
          4    1    1    2  501    0  0.56051564471E+02  0.18439936487E+02 -0.69130499133E+02  0.90902351717E+02  0.15500000000E+01 0.  1.
         -4    1    1    2    0  501 -0.56051564471E+02 -0.18439936487E+02 -0.14488546685E+03  0.15644810686E+03  0.15500000000E+01 0.  1.
<mgrwt>
<rscale>  2 0.12401377E+03</rscale>
<asrwt>0</asrwt>
<pdfrwt beam="1">  1       21 0.25641918E-02 0.12401377E+03</pdfrwt>
<pdfrwt beam="2">  1       21 0.35489725E-01 0.12401377E+03</pdfrwt>
<totfact> 0.61647826E+06</totfact>
</mgrwt>
</event>
<event>
 5    0  0.1428551E+000  0.1249963E+03  0.7546771E-02  0.1235075E+00
         21   -1    0    0  503  502  0.00000000000E+00  0.00000000000E+00  0.19805881656E+03  0.19805881656E+03  0.00000000000E+00 0.  1.
         21   -1    0    0  502  503 -0.00000000000E+00 -0.00000000000E+00 -0.19721516953E+02  0.19721516953E+02  0.00000000000E+00 0.  1.
         25    2    1    2    0    0  0.00000000000E+00  0.00000000000E+00  0.17833729960E+03  0.21778033351E+03  0.12499632488E+03 0.  0.
          4    1    3    3  501    0  0.46410294856E+02 -0.50891636557E+01  0.16830865973E+02  0.49653757206E+02  0.15500000000E+01 0.  1.
         -4    1    3    3    0  501 -0.46410294856E+02  0.50891636557E+01  0.16150643363E+03  0.16812657630E+03  0.15500000000E+01 0.  1.
<mgrwt>
<rscale>  2 0.12499632E+03</rscale>
<asrwt>0</asrwt>
<pdfrwt beam="1">  1       21 0.30470586E-01 0.12499632E+03</pdfrwt>
<pdfrwt beam="2">  1       21 0.30340797E-02 0.12499632E+03</pdfrwt>
<totfact> 0.63055996E+06</totfact>
</mgrwt>
</event>
<event>
 5    0  0.1532265E+000  0.1250037E+03  0.7546771E-02  0.1235064E+00
         21   -1    0    0  503  502  0.00000000000E+00  0.00000000000E+00  0.13405422911E+03  0.13405422911E+03  0.00000000000E+00 0. -1.
         21   -1    0    0  502  503 -0.00000000000E+00 -0.00000000000E+00 -0.29141042090E+02  0.29141042090E+02  0.00000000000E+00 0. -1.
         25    2    1    2    0    0  0.00000000000E+00  0.00000000000E+00  0.10491318702E+03  0.16319527120E+03  0.12500367887E+03 0.  0.
          4    1    3    3  501    0  0.27705980226E+02  0.41375619405E+02  0.10173063320E+03  0.11327439010E+03  0.15500000000E+01 0. -1.
         -4    1    3    3    0  501 -0.27705980226E+02 -0.41375619405E+02  0.31825538258E+01  0.49920881105E+02  0.15500000000E+01 0. -1.
<mgrwt>
<rscale>  2 0.12500368E+03</rscale>
<asrwt>0</asrwt>
<pdfrwt beam="1">  1       21 0.20623727E-01 0.12500368E+03</pdfrwt>
<pdfrwt beam="2">  1       21 0.44832373E-02 0.12500368E+03</pdfrwt>
<totfact> 0.69124697E+06</totfact>
</mgrwt>
</event>
<event>
 5    0  0.1565230E+000  0.1249993E+03  0.7546771E-02  0.1235070E+00
         21   -1    0    0  503  502  0.00000000000E+00  0.00000000000E+00  0.93761717664E+02  0.93761717664E+02  0.00000000000E+00 0. -1.
         21   -1    0    0  502  503 -0.00000000000E+00 -0.00000000000E+00 -0.41661005015E+02  0.41661005015E+02  0.00000000000E+00 0. -1.
         25    2    1    2    0    0  0.00000000000E+00  0.00000000000E+00  0.52100712649E+02  0.13542272268E+03  0.12499931823E+03 0.  0.
          4    1    3    3  501    0  0.40765211404E+02  0.35345869959E+02 -0.80836105092E+01  0.54579119110E+02  0.15500000000E+01 0. -1.
         -4    1    3    3    0  501 -0.40765211404E+02 -0.35345869959E+02  0.60184323158E+02  0.80843603569E+02  0.15500000000E+01 0. -1.
<mgrwt>
<rscale>  2 0.12499932E+03</rscale>
<asrwt>0</asrwt>
<pdfrwt beam="1">  1       21 0.14424880E-01 0.12499932E+03</pdfrwt>
<pdfrwt beam="2">  1       21 0.64093854E-02 0.12499932E+03</pdfrwt>
<totfact> 0.72641812E+06</totfact>
</mgrwt>
</event>
<event>
 5    0  0.1522170E+000  0.1250004E+03  0.7546771E-02  0.1235069E+00
         21   -1    0    0  503  502  0.00000000000E+00  0.00000000000E+00  0.49440564969E+02  0.49440564969E+02  0.00000000000E+00 0.  1.
         21   -1    0    0  502  503 -0.00000000000E+00 -0.00000000000E+00 -0.79009545642E+02  0.79009545642E+02  0.00000000000E+00 0.  1.
         25    2    1    2    0    0  0.00000000000E+00  0.00000000000E+00 -0.29568980673E+02  0.12845011061E+03  0.12500042519E+03 0.  0.
          4    1    3    3  501    0  0.28652247551E+02 -0.49640059816E+02  0.10777441314E+02  0.58340745363E+02  0.15500000000E+01 0. -1.
         -4    1    3    3    0  501 -0.28652247551E+02  0.49640059816E+02 -0.40346421987E+02  0.70109365247E+02  0.15500000000E+01 0. -1.
<mgrwt>
<rscale>  2 0.12500043E+03</rscale>
<asrwt>0</asrwt>
<pdfrwt beam="1">  1       21 0.76062409E-02 0.12500043E+03</pdfrwt>
<pdfrwt beam="2">  1       21 0.12155315E-01 0.12500043E+03</pdfrwt>
<totfact> 0.73572043E+06</totfact>
</mgrwt>
</event>
<event>
 5    0  0.1496807E+000  0.1249962E+03  0.7546771E-02  0.1235075E+00
         21   -1    0    0  503  502  0.00000000000E+00  0.00000000000E+00  0.43919199156E+02  0.43919199156E+02  0.00000000000E+00 0. -1.
         21   -1    0    0  502  503 -0.00000000000E+00 -0.00000000000E+00 -0.88936305097E+02  0.88936305097E+02  0.00000000000E+00 0. -1.
         25    2    1    2    0    0  0.00000000000E+00  0.00000000000E+00 -0.45017105941E+02  0.13285550425E+03  0.12499618067E+03 0.  0.
          4    1    3    3  501    0  0.29984647132E+02  0.32378881711E+02  0.24500610857E+02  0.50499044316E+02  0.15500000000E+01 0. -1.
         -4    1    3    3    0  501 -0.29984647132E+02 -0.32378881711E+02 -0.69517716798E+02  0.82356459937E+02  0.15500000000E+01 0. -1.
<mgrwt>
<rscale>  2 0.12499618E+03</rscale>
<asrwt>0</asrwt>
<pdfrwt beam="1">  1       21 0.67568000E-02 0.12499618E+03</pdfrwt>
<pdfrwt beam="2">  1       21 0.13682508E-01 0.12499618E+03</pdfrwt>
<totfact> 0.72988810E+06</totfact>
</mgrwt>
</event>
<event>
 5    0  0.1347095E+000  0.1249993E+03  0.7546771E-02  0.1235070E+00
         21   -1    0    0  503  502  0.00000000000E+00  0.00000000000E+00  0.36648572315E+03  0.36648572315E+03  0.00000000000E+00 0.  1.
         21   -1    0    0  502  503 -0.00000000000E+00 -0.00000000000E+00 -0.10658542952E+02  0.10658542952E+02  0.00000000000E+00 0.  1.
         25    2    1    2    0    0  0.00000000000E+00  0.00000000000E+00  0.35582718020E+03  0.37714426610E+03  0.12499926114E+03 0.  0.
          4    1    3    3  501    0  0.14918304051E+02  0.29382116106E+02  0.33807787759E+03  0.33968355621E+03  0.15500000000E+01 0. -1.
         -4    1    3    3    0  501 -0.14918304051E+02 -0.29382116106E+02  0.17749302607E+02  0.37460709892E+02  0.15500000000E+01 0. -1.
<mgrwt>
<rscale>  2 0.12499926E+03</rscale>
<asrwt>0</asrwt>
<pdfrwt beam="1">  1       21 0.56382409E-01 0.12499926E+03</pdfrwt>
<pdfrwt beam="2">  1       21 0.16397761E-02 0.12499926E+03</pdfrwt>
<totfact> 0.49595051E+06</totfact>
</mgrwt>
</event>
<event>
 5    0  0.1320083E+000  0.1250016E+03  0.7546771E-02  0.1235067E+00
         21   -1    0    0  503  502  0.00000000000E+00  0.00000000000E+00  0.10050219977E+02  0.10050219977E+02  0.00000000000E+00 0.  1.
         21   -1    0    0  502  503 -0.00000000000E+00 -0.00000000000E+00 -0.38868299538E+03  0.38868299538E+03  0.00000000000E+00 0.  1.
         25    2    1    2    0    0  0.00000000000E+00  0.00000000000E+00 -0.37863277541E+03  0.39873321536E+03  0.12500159367E+03 0.  0.
          4    1    3    3  501    0  0.26110483975E+02  0.44856840760E+02 -0.78355693973E+02  0.93999525607E+02  0.15500000000E+01 0.  1.
         -4    1    3    3    0  501 -0.26110483975E+02 -0.44856840760E+02 -0.30027708143E+03  0.30473368975E+03  0.15500000000E+01 0.  1.
<mgrwt>
<rscale>  2 0.12500159E+03</rscale>
<asrwt>0</asrwt>
<pdfrwt beam="1">  1       21 0.15461874E-02 0.12500159E+03</pdfrwt>
<pdfrwt beam="2">  1       21 0.59797395E-01 0.12500159E+03</pdfrwt>
<totfact> 0.48123567E+06</totfact>
</mgrwt>
</event>
<event>
 5    0  0.1228584E+000  0.1250005E+03  0.7546771E-02  0.1235068E+00
         21   -1    0    0  503  502  0.00000000000E+00  0.00000000000E+00  0.54449284872E+03  0.54449284872E+03  0.00000000000E+00 0.  1.
         21   -1    0    0  502  503 -0.00000000000E+00 -0.00000000000E+00 -0.71741684102E+01  0.71741684102E+01  0.00000000000E+00 0.  1.
         25    2    1    2    0    0  0.00000000000E+00  0.00000000000E+00  0.53731868031E+03  0.55166701713E+03  0.12500053432E+03 0.  0.
          4    1    3    3  501    0 -0.10995682287E+02 -0.29409245288E+02  0.30255545751E+02  0.43630371143E+02  0.15500000000E+01 0.  1.
         -4    1    3    3    0  501  0.10995682287E+02  0.29409245288E+02  0.50706313456E+03  0.50803664599E+03  0.15500000000E+01 0.  1.
<mgrwt>
<rscale>  2 0.12500053E+03</rscale>
<asrwt>0</asrwt>
<pdfrwt beam="1">  1       21 0.83768098E-01 0.12500053E+03</pdfrwt>
<pdfrwt beam="2">  1       21 0.11037186E-02 0.12500053E+03</pdfrwt>
<totfact> 0.39373317E+06</totfact>
</mgrwt>
</event>
<event>
 5    0  0.1505461E+000  0.1250105E+03  0.7546771E-02  0.1235053E+00
         21   -1    0    0  503  502  0.00000000000E+00  0.00000000000E+00  0.59216445393E+02  0.59216445393E+02  0.00000000000E+00 0. -1.
         21   -1    0    0  502  503 -0.00000000000E+00 -0.00000000000E+00 -0.65976745049E+02  0.65976745049E+02  0.00000000000E+00 0. -1.
         25    2    1    2    0    0  0.00000000000E+00  0.00000000000E+00 -0.67602996564E+01  0.12519319044E+03  0.12501053268E+03 0.  0.
          4    1    3    3  501    0 -0.24111979640E+02 -0.32091772242E+02  0.44577568869E+02  0.60006929217E+02  0.15500000000E+01 0. -1.
         -4    1    3    3    0  501  0.24111979640E+02  0.32091772242E+02 -0.51337868525E+02  0.65186261225E+02  0.15500000000E+01 0. -1.
<mgrwt>
<rscale>  2 0.12501053E+03</rscale>
<asrwt>0</asrwt>
<pdfrwt beam="1">  1       21 0.91102225E-02 0.12501053E+03</pdfrwt>
<pdfrwt beam="2">  1       21 0.10150268E-01 0.12501053E+03</pdfrwt>
<totfact> 0.73997564E+06</totfact>
</mgrwt>
</event>
<event>
 5    0  0.1222151E+000  0.1250011E+03  0.7546771E-02  0.1235068E+00
         21   -1    0    0  503  502  0.00000000000E+00  0.00000000000E+00  0.47131144178E+01  0.47131144178E+01  0.00000000000E+00 0. -1.
         21   -1    0    0  502  503 -0.00000000000E+00 -0.00000000000E+00 -0.82881898312E+03  0.82881898312E+03  0.00000000000E+00 0. -1.
         25    2    1    2    0    0  0.00000000000E+00  0.00000000000E+00 -0.82410586870E+03  0.83353209753E+03  0.12500109918E+03 0.  0.
          4    1    3    3  501    0 -0.40832118079E+02  0.43103063615E+02 -0.28227461270E+03  0.28845536126E+03  0.15500000000E+01 0. -1.
         -4    1    3    3    0  501  0.40832118079E+02 -0.43103063615E+02 -0.54183125599E+03  0.54507673628E+03  0.15500000000E+01 0. -1.
<mgrwt>
<rscale>  2 0.12500110E+03</rscale>
<asrwt>0</asrwt>
<pdfrwt beam="1">  1       21 0.72509442E-03 0.12500110E+03</pdfrwt>
<pdfrwt beam="2">  1       21 0.12751063E+00 0.12500110E+03</pdfrwt>
<totfact> 0.28280770E+06</totfact>
</mgrwt>
</event>
<event>
 5    0  0.1483068E+000  0.1250006E+03  0.7546771E-02  0.1235068E+00
         21   -1    0    0  503  502  0.00000000000E+00  0.00000000000E+00  0.16587791025E+03  0.16587791025E+03  0.00000000000E+00 0.  1.
         21   -1    0    0  502  503 -0.00000000000E+00 -0.00000000000E+00 -0.23549159756E+02  0.23549159756E+02  0.00000000000E+00 0.  1.
         25    2    1    2    0    0  0.00000000000E+00  0.00000000000E+00  0.14232875050E+03  0.18942707001E+03  0.12500056653E+03 0.  0.
          4    1    3    3  501    0 -0.21155989343E+00 -0.54591988928E+02  0.25111054873E+02  0.60110711105E+02  0.15500000000E+01 0. -1.
         -4    1    3    3    0  501  0.21155989343E+00  0.54591988928E+02  0.11721769562E+03  0.12931635890E+03  0.15500000000E+01 0. -1.
<mgrwt>
<rscale>  2 0.12500057E+03</rscale>
<asrwt>0</asrwt>
<pdfrwt beam="1">  1       21 0.25519678E-01 0.12500057E+03</pdfrwt>
<pdfrwt beam="2">  1       21 0.36229478E-02 0.12500057E+03</pdfrwt>
<totfact> 0.66085248E+06</totfact>
</mgrwt>
</event>
<event>
 5    0  0.1327372E+000  0.1250031E+03  0.7546771E-02  0.1235064E+00
         21   -1    0    0  503  502  0.00000000000E+00  0.00000000000E+00  0.53817790761E+03  0.53817790761E+03  0.00000000000E+00 0.  1.
         21   -1    0    0  502  503 -0.00000000000E+00 -0.00000000000E+00 -0.72586487049E+01  0.72586487049E+01  0.00000000000E+00 0.  1.
         25    2    1    2    0    0  0.00000000000E+00  0.00000000000E+00  0.53091925890E+03  0.54543655631E+03  0.12500310991E+03 0.  0.
          4    1    3    3  501    0 -0.51495561402E+02  0.17196134368E+02  0.40041042339E+03  0.40407723215E+03  0.15500000000E+01 0.  1.
         -4    1    3    3    0  501  0.51495561402E+02 -0.17196134368E+02  0.13050883552E+03  0.14135932417E+03  0.15500000000E+01 0.  1.
<mgrwt>
<rscale>  2 0.12500311E+03</rscale>
<asrwt>0</asrwt>
<pdfrwt beam="1">  1       21 0.82796570E-01 0.12500311E+03</pdfrwt>
<pdfrwt beam="2">  1       21 0.11167156E-02 0.12500311E+03</pdfrwt>
<totfact> 0.39679431E+06</totfact>
</mgrwt>
</event>
<event>
 5    0  0.1222151E+000  0.1249973E+03  0.7546771E-02  0.1235073E+00
         21   -1    0    0  503  502  0.00000000000E+00  0.00000000000E+00  0.13031608581E+04  0.13031608581E+04  0.00000000000E+00 0.  1.
         21   -1    0    0  502  503 -0.00000000000E+00 -0.00000000000E+00 -0.29973922615E+01  0.29973922615E+01  0.00000000000E+00 0.  1.
         25    2    1    2    0    0  0.00000000000E+00  0.00000000000E+00  0.13001634658E+04  0.13061582504E+04  0.12499734832E+03 0.  0.
          4    1    3    3  501    0  0.92451725808E+01  0.61016755665E+02  0.75201865893E+03  0.75454819830E+03  0.15500000000E+01 0.  1.
         -4    1    3    3    0  501 -0.92451725808E+01 -0.61016755665E+02  0.54814480692E+03  0.55161005206E+03  0.15500000000E+01 0.  1.
<mgrwt>
<rscale>  2 0.12499735E+03</rscale>
<asrwt>0</asrwt>
<pdfrwt beam="1">  1       21 0.20048583E+00 0.12499735E+03</pdfrwt>
<pdfrwt beam="2">  1       21 0.46113831E-03 0.12499735E+03</pdfrwt>
<totfact> 0.17143305E+06</totfact>
</mgrwt>
</event>
<event>
 5    0  0.1222151E+000  0.1250045E+03  0.7546771E-02  0.1235062E+00
         21   -1    0    0  503  502  0.00000000000E+00  0.00000000000E+00  0.21175781211E+02  0.21175781211E+02  0.00000000000E+00 0. -1.
         21   -1    0    0  502  503 -0.00000000000E+00 -0.00000000000E+00 -0.18448122728E+03  0.18448122728E+03  0.00000000000E+00 0. -1.
         25    2    1    2    0    0  0.00000000000E+00  0.00000000000E+00 -0.16330544607E+03  0.20565700849E+03  0.12500454562E+03 0.  0.
          4    1    3    3  501    0  0.16641221395E+02 -0.13333686199E+02 -0.17827791726E+03  0.17955538344E+03  0.15500000000E+01 0. -1.
         -4    1    3    3    0  501 -0.16641221395E+02  0.13333686199E+02  0.14972471190E+02  0.26101625059E+02  0.15500000000E+01 0. -1.
<mgrwt>
<rscale>  2 0.12500455E+03</rscale>
<asrwt>0</asrwt>
<pdfrwt beam="1">  1       21 0.32578125E-02 0.12500455E+03</pdfrwt>
<pdfrwt beam="2">  1       21 0.28381727E-01 0.12500455E+03</pdfrwt>
<totfact> 0.64311987E+06</totfact>
</mgrwt>
</event>
<event>
 5    0  0.1352751E+000  0.1249963E+03  0.7546771E-02  0.1235075E+00
         21   -1    0    0  503  502  0.00000000000E+00  0.00000000000E+00  0.16635087200E+02  0.16635087200E+02  0.00000000000E+00 0.  1.
         21   -1    0    0  502  503 -0.00000000000E+00 -0.00000000000E+00 -0.23480590871E+03  0.23480590871E+03  0.00000000000E+00 0.  1.
         25    2    1    2    0    0  0.00000000000E+00  0.00000000000E+00 -0.21817082151E+03  0.25144099591E+03  0.12499626821E+03 0.  0.
          4    1    3    3  501    0  0.25132532356E+02 -0.83980062713E+01  0.47328557410E+01  0.26962438974E+02  0.15500000000E+01 0. -1.
         -4    1    3    3    0  501 -0.25132532356E+02  0.83980062713E+01 -0.22290367725E+03  0.22447855693E+03  0.15500000000E+01 0. -1.
<mgrwt>
<rscale>  2 0.12499627E+03</rscale>
<asrwt>0</asrwt>
<pdfrwt beam="1">  1       21 0.25592444E-02 0.12499627E+03</pdfrwt>
<pdfrwt beam="2">  1       21 0.36123983E-01 0.12499627E+03</pdfrwt>
<totfact> 0.59748407E+06</totfact>
</mgrwt>
</event>
<event>
 5    0  0.1600435E+000  0.1250197E+03  0.7546771E-02  0.1235039E+00
         21   -1    0    0  503  502  0.00000000000E+00  0.00000000000E+00  0.43330148017E+02  0.43330148017E+02  0.00000000000E+00 0. -1.
         21   -1    0    0  502  503 -0.00000000000E+00 -0.00000000000E+00 -0.90179231701E+02  0.90179231701E+02  0.00000000000E+00 0. -1.
         25    2    1    2    0    0  0.00000000000E+00  0.00000000000E+00 -0.46849083684E+02  0.13350937972E+03  0.12501966978E+03 0.  0.
          4    1    3    3  501    0  0.30090705411E+02 -0.17195865091E+02  0.32105888974E+02  0.47268794518E+02  0.15500000000E+01 0.  1.
         -4    1    3    3    0  501 -0.30090705411E+02  0.17195865091E+02 -0.78954972658E+02  0.86240585201E+02  0.15500000000E+01 0.  1.
<mgrwt>
<rscale>  2 0.12501967E+03</rscale>
<asrwt>0</asrwt>
<pdfrwt beam="1">  1       21 0.66661767E-02 0.12501967E+03</pdfrwt>
<pdfrwt beam="2">  1       21 0.13873728E-01 0.12501967E+03</pdfrwt>
<totfact> 0.72857891E+06</totfact>
</mgrwt>
</event>
<event>
 5    0  0.1483817E+000  0.1250007E+03  0.7546771E-02  0.1235068E+00
         21   -1    0    0  503  502  0.00000000000E+00  0.00000000000E+00  0.56913529738E+02  0.56913529738E+02  0.00000000000E+00 0.  1.
         21   -1    0    0  502  503 -0.00000000000E+00 -0.00000000000E+00 -0.68635599215E+02  0.68635599215E+02  0.00000000000E+00 0.  1.
         25    2    1    2    0    0  0.00000000000E+00  0.00000000000E+00 -0.11722069477E+02  0.12554912895E+03  0.12500070747E+03 0.  0.
          4    1    3    3  501    0  0.31359850359E+02 -0.11654435265E+02 -0.58862105293E+02  0.67723083328E+02  0.15500000000E+01 0. -1.
         -4    1    3    3    0  501 -0.31359850359E+02  0.11654435265E+02  0.47140035816E+02  0.57826045625E+02  0.15500000000E+01 0. -1.
<mgrwt>
<rscale>  2 0.12500071E+03</rscale>
<asrwt>0</asrwt>
<pdfrwt beam="1">  1       21 0.87559276E-02 0.12500071E+03</pdfrwt>
<pdfrwt beam="2">  1       21 0.10559323E-01 0.12500071E+03</pdfrwt>
<totfact> 0.73967200E+06</totfact>
</mgrwt>
</event>
<event>
 5    0  0.1702887E+000  0.1249997E+03  0.7546771E-02  0.1235070E+00
         21   -1    0    0  503  502  0.00000000000E+00  0.00000000000E+00  0.46951967563E+02  0.46951967563E+02  0.00000000000E+00 0. -1.
         21   -1    0    0  502  503 -0.00000000000E+00 -0.00000000000E+00 -0.83196307623E+02  0.83196307623E+02  0.00000000000E+00 0. -1.
         25    2    1    2    0    0  0.00000000000E+00  0.00000000000E+00 -0.36244340061E+02  0.13014827519E+03  0.12499968539E+03 0.  0.
          4    1    3    3  501    0 -0.40692736671E+02  0.36196381064E+02 -0.50006204419E+02  0.73953362333E+02  0.15500000000E+01 0.  1.
         -4    1    3    3    0  501  0.40692736671E+02 -0.36196381064E+02  0.13761864358E+02  0.56194912853E+02  0.15500000000E+01 0.  1.
<mgrwt>
<rscale>  2 0.12499969E+03</rscale>
<asrwt>0</asrwt>
<pdfrwt beam="1">  1       21 0.72233797E-02 0.12499969E+03</pdfrwt>
<pdfrwt beam="2">  1       21 0.12799432E-01 0.12499969E+03</pdfrwt>
<totfact> 0.73345694E+06</totfact>
</mgrwt>
</event>
<event>
 5    0  0.1354196E+000  0.1249823E+03  0.7546771E-02  0.1235097E+00
         21   -1    0    0  503  502  0.00000000000E+00  0.00000000000E+00  0.35441592478E+03  0.35441592478E+03  0.00000000000E+00 0.  1.
         21   -1    0    0  502  503 -0.00000000000E+00 -0.00000000000E+00 -0.11018531737E+02  0.11018531737E+02  0.00000000000E+00 0.  1.
         25    2    1    2    0    0  0.00000000000E+00  0.00000000000E+00  0.34339739305E+03  0.36543445652E+03  0.12498228859E+03 0.  0.
          4    1    3    3  501    0  0.17912322338E+01 -0.28519640497E+02  0.33413024919E+03  0.33535355125E+03  0.15500000000E+01 0.  1.
         -4    1    3    3    0  501 -0.17912322338E+01  0.28519640497E+02  0.92671438540E+01  0.30080905276E+02  0.15500000000E+01 0.  1.
<mgrwt>
<rscale>  2 0.12498229E+03</rscale>
<asrwt>0</asrwt>
<pdfrwt beam="1">  1       21 0.54525518E-01 0.12498229E+03</pdfrwt>
<pdfrwt beam="2">  1       21 0.16951590E-02 0.12498229E+03</pdfrwt>
<totfact> 0.50440729E+06</totfact>
</mgrwt>
</event>
<event>
 5    0  0.1257093E+000  0.1250011E+03  0.7546771E-02  0.1235068E+00
         21   -1    0    0  503  502  0.00000000000E+00  0.00000000000E+00  0.57084749280E+03  0.57084749280E+03  0.00000000000E+00 0.  1.
         21   -1    0    0  502  503 -0.00000000000E+00 -0.00000000000E+00 -0.68430119950E+01  0.68430119950E+01  0.00000000000E+00 0.  1.
         25    2    1    2    0    0  0.00000000000E+00  0.00000000000E+00  0.56400448080E+03  0.57769050479E+03  0.12500105984E+03 0.  0.
          4    1    3    3  501    0 -0.18805205232E+02 -0.38139332199E+02  0.70437683145E+02  0.82292855773E+02  0.15500000000E+01 0.  1.
         -4    1    3    3    0  501  0.18805205232E+02  0.38139332199E+02  0.49356679766E+03  0.49539764902E+03  0.15500000000E+01 0.  1.
<mgrwt>
<rscale>  2 0.12500106E+03</rscale>
<asrwt>0</asrwt>
<pdfrwt beam="1">  1       21 0.87822653E-01 0.12500106E+03</pdfrwt>
<pdfrwt beam="2">  1       21 0.10527715E-02 0.12500106E+03</pdfrwt>
<totfact> 0.38120391E+06</totfact>
</mgrwt>
</event>
<event>
 5    0  0.1360308E+000  0.1249913E+03  0.7546771E-02  0.1235083E+00
         21   -1    0    0  503  502  0.00000000000E+00  0.00000000000E+00  0.16594360955E+02  0.16594360955E+02  0.00000000000E+00 0.  1.
         21   -1    0    0  502  503 -0.00000000000E+00 -0.00000000000E+00 -0.23536362987E+03  0.23536362987E+03  0.00000000000E+00 0.  1.
         25    2    1    2    0    0  0.00000000000E+00  0.00000000000E+00 -0.21876926892E+03  0.25195799083E+03  0.12499134418E+03 0.  0.
          4    1    3    3  501    0 -0.43394292833E+02  0.15204130444E+01 -0.18831962331E+02  0.47354214295E+02  0.15500000000E+01 0.  1.
         -4    1    3    3    0  501  0.43394292833E+02 -0.15204130444E+01 -0.19993730658E+03  0.20460377653E+03  0.15500000000E+01 0.  1.
<mgrwt>
<rscale>  2 0.12499134E+03</rscale>
<asrwt>0</asrwt>
<pdfrwt beam="1">  1       21 0.25529787E-02 0.12499134E+03</pdfrwt>
<pdfrwt beam="2">  1       21 0.36209788E-01 0.12499134E+03</pdfrwt>
<totfact> 0.59707361E+06</totfact>
</mgrwt>
</event>
<event>
 5    0  0.1320991E+000  0.1249936E+03  0.7546771E-02  0.1235079E+00
         21   -1    0    0  503  502  0.00000000000E+00  0.00000000000E+00  0.79189126183E+01  0.79189126183E+01  0.00000000000E+00 0. -1.
         21   -1    0    0  502  503 -0.00000000000E+00 -0.00000000000E+00 -0.49323046797E+03  0.49323046797E+03  0.00000000000E+00 0. -1.
         25    2    1    2    0    0  0.00000000000E+00  0.00000000000E+00 -0.48531155535E+03  0.50114938059E+03  0.12499358346E+03 0.  0.
          4    1    3    3  501    0  0.51912364033E+02  0.33292525053E+02 -0.28278199138E+03  0.28943279516E+03  0.15500000000E+01 0. -1.
         -4    1    3    3    0  501 -0.51912364033E+02 -0.33292525053E+02 -0.20252956397E+03  0.21171658543E+03  0.15500000000E+01 0. -1.
<mgrwt>
<rscale>  2 0.12499358E+03</rscale>
<asrwt>0</asrwt>
<pdfrwt beam="1">  1       21 0.12182938E-02 0.12499358E+03</pdfrwt>
<pdfrwt beam="2">  1       21 0.75881639E-01 0.12499358E+03</pdfrwt>
<totfact> 0.41988503E+06</totfact>
</mgrwt>
</event>
<event>
 5    0  0.1255780E+000  0.1250014E+03  0.7546771E-02  0.1235067E+00
         21   -1    0    0  503  502  0.00000000000E+00  0.00000000000E+00  0.64127816763E+01  0.64127816763E+01  0.00000000000E+00 0. -1.
         21   -1    0    0  502  503 -0.00000000000E+00 -0.00000000000E+00 -0.60914896122E+03  0.60914896122E+03  0.00000000000E+00 0. -1.
         25    2    1    2    0    0  0.00000000000E+00  0.00000000000E+00 -0.60273617954E+03  0.61556174289E+03  0.12500142874E+03 0.  0.
          4    1    3    3  501    0 -0.34342759534E+02  0.51118978484E+02 -0.35333472234E+03  0.35866475099E+03  0.15500000000E+01 0.  1.
         -4    1    3    3    0  501  0.34342759534E+02 -0.51118978484E+02 -0.24940145721E+03  0.25689699191E+03  0.15500000000E+01 0.  1.
<mgrwt>
<rscale>  2 0.12500143E+03</rscale>
<asrwt>0</asrwt>
<pdfrwt beam="1">  1       21 0.98658177E-03 0.12500143E+03</pdfrwt>
<pdfrwt beam="2">  1       21 0.93715227E-01 0.12500143E+03</pdfrwt>
<totfact> 0.36396903E+06</totfact>
</mgrwt>
</event>
<event>
 5    0  0.1316073E+000  0.1250011E+03  0.7546771E-02  0.1235068E+00
         21   -1    0    0  503  502  0.00000000000E+00  0.00000000000E+00  0.31251283242E+03  0.31251283242E+03  0.00000000000E+00 0.  1.
         21   -1    0    0  502  503 -0.00000000000E+00 -0.00000000000E+00 -0.12499706420E+02  0.12499706420E+02  0.00000000000E+00 0.  1.
         25    2    1    2    0    0  0.00000000000E+00  0.00000000000E+00  0.30001312600E+03  0.32501253884E+03  0.12500109852E+03 0.  0.
          4    1    3    3  501    0 -0.46314754995E+02 -0.29014780922E+01  0.25878931253E+03  0.26292163449E+03  0.15500000000E+01 0.  1.
         -4    1    3    3    0  501  0.46314754995E+02  0.29014780922E+01  0.41223813467E+02  0.62090904343E+02  0.15500000000E+01 0.  1.
<mgrwt>
<rscale>  2 0.12500110E+03</rscale>
<asrwt>0</asrwt>
<pdfrwt beam="1">  1       21 0.48078891E-01 0.12500110E+03</pdfrwt>
<pdfrwt beam="2">  1       21 0.19230320E-02 0.12500110E+03</pdfrwt>
<totfact> 0.53437030E+06</totfact>
</mgrwt>
</event>
<event>
 5    0  0.1222151E+000  0.1250026E+03  0.7546771E-02  0.1235065E+00
         21   -1    0    0  503  502  0.00000000000E+00  0.00000000000E+00  0.15734604712E+03  0.15734604712E+03  0.00000000000E+00 0. -1.
         21   -1    0    0  502  503 -0.00000000000E+00 -0.00000000000E+00 -0.24826884503E+02  0.24826884503E+02  0.00000000000E+00 0. -1.
         25    2    1    2    0    0  0.00000000000E+00  0.00000000000E+00  0.13251916262E+03  0.18217293162E+03  0.12500259419E+03 0.  0.
          4    1    3    3  501    0 -0.86022406504E-01 -0.21480257448E+02 -0.19248695122E+02  0.28884660700E+02  0.15500000000E+01 0.  1.
         -4    1    3    3    0  501  0.86022406504E-01  0.21480257448E+02  0.15176785774E+03  0.15328827092E+03  0.15500000000E+01 0.  1.
<mgrwt>
<rscale>  2 0.12500259E+03</rscale>
<asrwt>0</asrwt>
<pdfrwt beam="1">  1       21 0.24207084E-01 0.12500259E+03</pdfrwt>
<pdfrwt beam="2">  1       21 0.38195208E-02 0.12500259E+03</pdfrwt>
<totfact> 0.66898734E+06</totfact>
</mgrwt>
</event>
<event>
 5    0  0.1568685E+000  0.1250006E+03  0.7546771E-02  0.1235068E+00
         21   -1    0    0  503  502  0.00000000000E+00  0.00000000000E+00  0.46440842065E+02  0.46440842065E+02  0.00000000000E+00 0. -1.
         21   -1    0    0  502  503 -0.00000000000E+00 -0.00000000000E+00 -0.84113127253E+02  0.84113127253E+02  0.00000000000E+00 0. -1.
         25    2    1    2    0    0  0.00000000000E+00  0.00000000000E+00 -0.37672285188E+02  0.13055396932E+03  0.12500055133E+03 0.  0.
          4    1    3    3  501    0  0.53177405160E+02 -0.22342057702E+02 -0.43921491106E+02  0.72515542078E+02  0.15500000000E+01 0. -1.
         -4    1    3    3    0  501 -0.53177405160E+02  0.22342057702E+02  0.62492059172E+01  0.58038427240E+02  0.15500000000E+01 0. -1.
<mgrwt>
<rscale>  2 0.12500055E+03</rscale>
<asrwt>0</asrwt>
<pdfrwt beam="1">  1       21 0.71447449E-02 0.12500055E+03</pdfrwt>
<pdfrwt beam="2">  1       21 0.12940481E-01 0.12500055E+03</pdfrwt>
<totfact> 0.73289811E+06</totfact>
</mgrwt>
</event>
<event>
 5    0  0.1435291E+000  0.1250021E+03  0.7546771E-02  0.1235066E+00
         21   -1    0    0  503  502  0.00000000000E+00  0.00000000000E+00  0.14163227822E+02  0.14163227822E+02  0.00000000000E+00 0. -1.
         21   -1    0    0  502  503 -0.00000000000E+00 -0.00000000000E+00 -0.27581143786E+03  0.27581143786E+03  0.00000000000E+00 0. -1.
         25    2    1    2    0    0  0.00000000000E+00  0.00000000000E+00 -0.26164821004E+03  0.28997466568E+03  0.12500208367E+03 0.  0.
          4    1    3    3  501    0 -0.19318006931E+02  0.58622811412E+02 -0.15333393196E+03  0.16529826557E+03  0.15500000000E+01 0. -1.
         -4    1    3    3    0  501  0.19318006931E+02 -0.58622811412E+02 -0.10831427807E+03  0.12467640011E+03  0.15500000000E+01 0. -1.
<mgrwt>
<rscale>  2 0.12500208E+03</rscale>
<asrwt>0</asrwt>
<pdfrwt beam="1">  1       21 0.21789583E-02 0.12500208E+03</pdfrwt>
<pdfrwt beam="2">  1       21 0.42432526E-01 0.12500208E+03</pdfrwt>
<totfact> 0.56296798E+06</totfact>
</mgrwt>
</event>
<event>
 5    0  0.1465312E+000  0.1249964E+03  0.7546771E-02  0.1235075E+00
         21   -1    0    0  503  502  0.00000000000E+00  0.00000000000E+00  0.11348716753E+02  0.11348716753E+02  0.00000000000E+00 0.  1.
         21   -1    0    0  502  503 -0.00000000000E+00 -0.00000000000E+00 -0.34418230230E+03  0.34418230230E+03  0.00000000000E+00 0.  1.
         25    2    1    2    0    0  0.00000000000E+00  0.00000000000E+00 -0.33283358554E+03  0.35553101905E+03  0.12499643931E+03 0.  0.
          4    1    3    3  501    0  0.55590529018E+02  0.27585409624E+02 -0.14583453438E+03  0.15849724180E+03  0.15500000000E+01 0.  1.
         -4    1    3    3    0  501 -0.55590529018E+02 -0.27585409624E+02 -0.18699905117E+03  0.19703377725E+03  0.15500000000E+01 0.  1.
<mgrwt>
<rscale>  2 0.12499644E+03</rscale>
<asrwt>0</asrwt>
<pdfrwt beam="1">  1       21 0.17459563E-02 0.12499644E+03</pdfrwt>
<pdfrwt beam="2">  1       21 0.52951127E-01 0.12499644E+03</pdfrwt>
<totfact> 0.51137086E+06</totfact>
</mgrwt>
</event>
<event>
 5    0  0.1420811E+000  0.1249581E+03  0.7546771E-02  0.1235135E+00
         21   -1    0    0  503  502  0.00000000000E+00  0.00000000000E+00  0.17473524848E+02  0.17473524848E+02  0.00000000000E+00 0.  1.
         21   -1    0    0  502  503 -0.00000000000E+00 -0.00000000000E+00 -0.22340263137E+03  0.22340263137E+03  0.00000000000E+00 0.  1.
         25    2    1    2    0    0  0.00000000000E+00  0.00000000000E+00 -0.20592910652E+03  0.24087615621E+03  0.12495809586E+03 0.  0.
          4    1    3    3  501    0  0.21056901951E+02 -0.42258548523E+02 -0.24141335673E+02  0.53050774086E+02  0.15500000000E+01 0.  1.
         -4    1    3    3    0  501 -0.21056901951E+02  0.42258548523E+02 -0.18178777084E+03  0.18782538213E+03  0.15500000000E+01 0.  1.
<mgrwt>
<rscale>  2 0.12495810E+03</rscale>
<asrwt>0</asrwt>
<pdfrwt beam="1">  1       21 0.26882347E-02 0.12495810E+03</pdfrwt>
<pdfrwt beam="2">  1       21 0.34369634E-01 0.12495810E+03</pdfrwt>
<totfact> 0.60812236E+06</totfact>
</mgrwt>
</event>
<event>
 5    0  0.1222151E+000  0.1249993E+03  0.7546771E-02  0.1235070E+00
         21   -1    0    0  503  502  0.00000000000E+00  0.00000000000E+00  0.40407018796E+01  0.40407018796E+01  0.00000000000E+00 0.  1.
         21   -1    0    0  502  503 -0.00000000000E+00 -0.00000000000E+00 -0.96671506951E+03  0.96671506951E+03  0.00000000000E+00 0.  1.
         25    2    1    2    0    0  0.00000000000E+00  0.00000000000E+00 -0.96267436763E+03  0.97075577139E+03  0.12499931837E+03 0.  0.
          4    1    3    3  501    0  0.17483907893E+02  0.15780849160E+02 -0.31903860671E+02  0.39686031058E+02  0.15500000000E+01 0. -1.
         -4    1    3    3    0  501 -0.17483907893E+02 -0.15780849160E+02 -0.93077050696E+03  0.93106974033E+03  0.15500000000E+01 0. -1.
<mgrwt>
<rscale>  2 0.12499932E+03</rscale>
<asrwt>0</asrwt>
<pdfrwt beam="1">  1       21 0.62164614E-03 0.12499932E+03</pdfrwt>
<pdfrwt beam="2">  1       21 0.14872547E+00 0.12499932E+03</pdfrwt>
<totfact> 0.24364210E+06</totfact>
</mgrwt>
</event>
<event>
 5    0  0.1283178E+000  0.1250093E+03  0.7546771E-02  0.1235055E+00
         21   -1    0    0  503  502  0.00000000000E+00  0.00000000000E+00  0.64565287200E+03  0.64565287200E+03  0.00000000000E+00 0.  1.
         21   -1    0    0  502  503 -0.00000000000E+00 -0.00000000000E+00 -0.60509771601E+01  0.60509771601E+01  0.00000000000E+00 0.  1.
         25    2    1    2    0    0  0.00000000000E+00  0.00000000000E+00  0.63960189484E+03  0.65170384916E+03  0.12500929216E+03 0.  0.
          4    1    3    3  501    0 -0.55777333016E+02  0.92585136529E+01  0.18112501896E+03  0.18975116850E+03  0.15500000000E+01 0. -1.
         -4    1    3    3    0  501  0.55777333016E+02 -0.92585136529E+01  0.45847687588E+03  0.46195268066E+03  0.15500000000E+01 0. -1.
<mgrwt>
<rscale>  2 0.12500929E+03</rscale>
<asrwt>0</asrwt>
<pdfrwt beam="1">  1       21 0.99331157E-01 0.12500929E+03</pdfrwt>
<pdfrwt beam="2">  1       21 0.93092007E-03 0.12500929E+03</pdfrwt>
<totfact> 0.34845751E+06</totfact>
</mgrwt>
</event>
<event>
 5    0  0.1472233E+000  0.1250303E+03  0.7546771E-02  0.1235022E+00
         21   -1    0    0  503  502  0.00000000000E+00  0.00000000000E+00  0.17809155817E+02  0.17809155817E+02  0.00000000000E+00 0.  1.
         21   -1    0    0  502  503 -0.00000000000E+00 -0.00000000000E+00 -0.21944585476E+03  0.21944585476E+03  0.00000000000E+00 0.  1.
         25    2    1    2    0    0  0.00000000000E+00  0.00000000000E+00 -0.20163669895E+03  0.23725501058E+03  0.12503032306E+03 0.  0.
          4    1    3    3  501    0 -0.12459455875E+02  0.58184699681E+02 -0.13707382458E+03  0.14944006559E+03  0.15500000000E+01 0. -1.
         -4    1    3    3    0  501  0.12459455875E+02 -0.58184699681E+02 -0.64562874365E+02  0.87814944992E+02  0.15500000000E+01 0. -1.
<mgrwt>
<rscale>  2 0.12503032E+03</rscale>
<asrwt>0</asrwt>
<pdfrwt beam="1">  1       21 0.27398701E-02 0.12503032E+03</pdfrwt>
<pdfrwt beam="2">  1       21 0.33760901E-01 0.12503032E+03</pdfrwt>
<totfact> 0.61052582E+06</totfact>
</mgrwt>
</event>
<event>
 5    0  0.1222151E+000  0.1250047E+03  0.7546771E-02  0.1235062E+00
         21   -1    0    0  503  502  0.00000000000E+00  0.00000000000E+00  0.17676877234E+04  0.17676877234E+04  0.00000000000E+00 0. -1.
         21   -1    0    0  502  503 -0.00000000000E+00 -0.00000000000E+00 -0.22099746446E+01  0.22099746446E+01  0.00000000000E+00 0. -1.
         25    2    1    2    0    0  0.00000000000E+00  0.00000000000E+00  0.17654777488E+04  0.17698976981E+04  0.12500472068E+03 0.  0.
          4    1    3    3  501    0  0.81497755776E+01 -0.46782862407E+02  0.30777097429E+03  0.31141681099E+03  0.15500000000E+01 0. -1.
         -4    1    3    3    0  501 -0.81497755776E+01  0.46782862407E+02  0.14577067745E+04  0.14584808871E+04  0.15500000000E+01 0. -1.
<mgrwt>
<rscale>  2 0.12500472E+03</rscale>
<asrwt>0</asrwt>
<pdfrwt beam="1">  1       21 0.27195083E+00 0.12500472E+03</pdfrwt>
<pdfrwt beam="2">  1       21 0.33999751E-03 0.12500472E+03</pdfrwt>
<totfact> 0.10419578E+06</totfact>
</mgrwt>
</event>
<event>
 5    0  0.1526291E+000  0.1249724E+03  0.7546771E-02  0.1235112E+00
         21   -1    0    0  503  502  0.00000000000E+00  0.00000000000E+00  0.23835528539E+02  0.23835528539E+02  0.00000000000E+00 0. -1.
         21   -1    0    0  502  503 -0.00000000000E+00 -0.00000000000E+00 -0.16381108693E+03  0.16381108693E+03  0.00000000000E+00 0. -1.
         25    2    1    2    0    0  0.00000000000E+00  0.00000000000E+00 -0.13997555839E+03  0.18764661546E+03  0.12497237835E+03 0.  0.
          4    1    3    3  501    0 -0.24781091311E+02 -0.51056636925E+02 -0.10917787714E+03  0.12305727942E+03  0.15500000000E+01 0. -1.
         -4    1    3    3    0  501  0.24781091311E+02  0.51056636925E+02 -0.30797681243E+02  0.64589336044E+02  0.15500000000E+01 0. -1.
<mgrwt>
<rscale>  2 0.12497238E+03</rscale>
<asrwt>0</asrwt>
<pdfrwt beam="1">  1       21 0.36670044E-02 0.12497238E+03</pdfrwt>
<pdfrwt beam="2">  1       21 0.25201706E-01 0.12497238E+03</pdfrwt>
<totfact> 0.66331408E+06</totfact>
</mgrwt>
</event>
<event>
 5    0  0.1222151E+000  0.1249997E+03  0.7546771E-02  0.1235070E+00
         21   -1    0    0  503  502  0.00000000000E+00  0.00000000000E+00  0.83956439260E+02  0.83956439260E+02  0.00000000000E+00 0. -1.
         21   -1    0    0  502  503 -0.00000000000E+00 -0.00000000000E+00 -0.46526846605E+02  0.46526846605E+02  0.00000000000E+00 0. -1.
         25    2    1    2    0    0  0.00000000000E+00  0.00000000000E+00  0.37429592655E+02  0.13048328587E+03  0.12499965393E+03 0.  0.
          4    1    3    3  501    0  0.25723170212E+00  0.21854894124E+02 -0.42386098222E+02  0.47714634943E+02  0.15500000000E+01 0.  1.
         -4    1    3    3    0  501 -0.25723170212E+00 -0.21854894124E+02  0.79815690877E+02  0.82768650922E+02  0.15500000000E+01 0.  1.
<mgrwt>
<rscale>  2 0.12499965E+03</rscale>
<asrwt>0</asrwt>
<pdfrwt beam="1">  1       21 0.12916375E-01 0.12499965E+03</pdfrwt>
<pdfrwt beam="2">  1       21 0.71579764E-02 0.12499965E+03</pdfrwt>
<totfact> 0.73301037E+06</totfact>
</mgrwt>
</event>
<event>
 5    0  0.1488658E+000  0.1249932E+03  0.7546771E-02  0.1235080E+00
         21   -1    0    0  503  502  0.00000000000E+00  0.00000000000E+00  0.32965106745E+02  0.32965106745E+02  0.00000000000E+00 0.  1.
         21   -1    0    0  502  503 -0.00000000000E+00 -0.00000000000E+00 -0.11848369048E+03  0.11848369048E+03  0.00000000000E+00 0.  1.
         25    2    1    2    0    0  0.00000000000E+00  0.00000000000E+00 -0.85518583740E+02  0.15144879723E+03  0.12499323989E+03 0.  0.
          4    1    3    3  501    0 -0.16876272151E+01 -0.50412022464E+02 -0.87429890307E+02  0.10094854290E+03  0.15500000000E+01 0. -1.
         -4    1    3    3    0  501  0.16876272151E+01  0.50412022464E+02  0.19113065674E+01  0.50500254330E+02  0.15500000000E+01 0. -1.
<mgrwt>
<rscale>  2 0.12499324E+03</rscale>
<asrwt>0</asrwt>
<pdfrwt beam="1">  1       21 0.50715549E-02 0.12499324E+03</pdfrwt>
<pdfrwt beam="2">  1       21 0.18228260E-01 0.12499324E+03</pdfrwt>
<totfact> 0.70589822E+06</totfact>
</mgrwt>
</event>
<event>
 5    0  0.1503926E+000  0.1250015E+03  0.7546771E-02  0.1235067E+00
         21   -1    0    0  503  502  0.00000000000E+00  0.00000000000E+00  0.23541085520E+02  0.23541085520E+02  0.00000000000E+00 0. -1.
         21   -1    0    0  502  503 -0.00000000000E+00 -0.00000000000E+00 -0.16593734369E+03  0.16593734369E+03  0.00000000000E+00 0. -1.
         25    2    1    2    0    0  0.00000000000E+00  0.00000000000E+00 -0.14239625817E+03  0.18947842921E+03  0.12500152317E+03 0.  0.
          4    1    3    3  501    0 -0.50386841397E+01 -0.45605460120E+02 -0.13548516462E+03  0.14305201384E+03  0.15500000000E+01 0.  1.
         -4    1    3    3    0  501  0.50386841397E+01  0.45605460120E+02 -0.69110935529E+01  0.46426415376E+02  0.15500000000E+01 0.  1.
<mgrwt>
<rscale>  2 0.12500152E+03</rscale>
<asrwt>0</asrwt>
<pdfrwt beam="1">  1       21 0.36217055E-02 0.12500152E+03</pdfrwt>
<pdfrwt beam="2">  1       21 0.25528822E-01 0.12500152E+03</pdfrwt>
<totfact> 0.66077928E+06</totfact>
</mgrwt>
</event>
<event>
 5    0  0.1372969E+000  0.1250004E+03  0.7546771E-02  0.1235069E+00
         21   -1    0    0  503  502  0.00000000000E+00  0.00000000000E+00  0.47641774609E+03  0.47641774609E+03  0.00000000000E+00 0. -1.
         21   -1    0    0  502  503 -0.00000000000E+00 -0.00000000000E+00 -0.81992703775E+01  0.81992703775E+01  0.00000000000E+00 0. -1.
         25    2    1    2    0    0  0.00000000000E+00  0.00000000000E+00  0.46821847571E+03  0.48461701647E+03  0.12500044660E+03 0.  0.
          4    1    3    3  501    0 -0.51452047789E+02  0.14027792841E+02  0.10789870098E+03  0.12036870177E+03  0.15500000000E+01 0.  1.
         -4    1    3    3    0  501  0.51452047789E+02 -0.14027792841E+02  0.36031977473E+03  0.36424831469E+03  0.15500000000E+01 0.  1.
<mgrwt>
<rscale>  2 0.12500045E+03</rscale>
<asrwt>0</asrwt>
<pdfrwt beam="1">  1       21 0.73295016E-01 0.12500045E+03</pdfrwt>
<pdfrwt beam="2">  1       21 0.12614266E-02 0.12500045E+03</pdfrwt>
<totfact> 0.42890333E+06</totfact>
</mgrwt>
</event>
<event>
 5    0  0.1375916E+000  0.1250013E+03  0.7546771E-02  0.1235067E+00
         21   -1    0    0  503  502  0.00000000000E+00  0.00000000000E+00  0.42612314745E+03  0.42612314745E+03  0.00000000000E+00 0.  1.
         21   -1    0    0  502  503 -0.00000000000E+00 -0.00000000000E+00 -0.91671383454E+01  0.91671383454E+01  0.00000000000E+00 0.  1.
         25    2    1    2    0    0  0.00000000000E+00  0.00000000000E+00  0.41695600910E+03  0.43529028580E+03  0.12500127751E+03 0.  0.
          4    1    3    3  501    0 -0.88143380267E+01  0.46985421944E+02  0.34857697738E+03  0.35184319531E+03  0.15500000000E+01 0.  1.
         -4    1    3    3    0  501  0.88143380267E+01 -0.46985421944E+02  0.68379031728E+02  0.83447090483E+02  0.15500000000E+01 0.  1.
<mgrwt>
<rscale>  2 0.12500128E+03</rscale>
<asrwt>0</asrwt>
<pdfrwt beam="1">  1       21 0.65557392E-01 0.12500128E+03</pdfrwt>
<pdfrwt beam="2">  1       21 0.14103293E-02 0.12500128E+03</pdfrwt>
<totfact> 0.45783950E+06</totfact>
</mgrwt>
</event>
<event>
 5    0  0.1548080E+000  0.1249980E+03  0.7546771E-02  0.1235072E+00
         21   -1    0    0  503  502  0.00000000000E+00  0.00000000000E+00  0.27952419638E+02  0.27952419638E+02  0.00000000000E+00 0.  1.
         21   -1    0    0  502  503 -0.00000000000E+00 -0.00000000000E+00 -0.13974191063E+03  0.13974191063E+03  0.00000000000E+00 0.  1.
         25    2    1    2    0    0  0.00000000000E+00  0.00000000000E+00 -0.11178949100E+03  0.16769433027E+03  0.12499799242E+03 0.  0.
          4    1    3    3  501    0 -0.57573529353E+02  0.24200366746E+02 -0.58351330174E+02  0.85484789676E+02  0.15500000000E+01 0.  1.
         -4    1    3    3    0  501  0.57573529353E+02 -0.24200366746E+02 -0.53438160821E+02  0.82209540595E+02  0.15500000000E+01 0.  1.
<mgrwt>
<rscale>  2 0.12499799E+03</rscale>
<asrwt>0</asrwt>
<pdfrwt beam="1">  1       21 0.43003723E-02 0.12499799E+03</pdfrwt>
<pdfrwt beam="2">  1       21 0.21498755E-01 0.12499799E+03</pdfrwt>
<totfact> 0.68594838E+06</totfact>
</mgrwt>
</event>
<event>
 5    0  0.1222151E+000  0.1250019E+03  0.7546771E-02  0.1235066E+00
         21   -1    0    0  503  502  0.00000000000E+00  0.00000000000E+00  0.75092316101E+03  0.75092316101E+03  0.00000000000E+00 0.  1.
         21   -1    0    0  502  503 -0.00000000000E+00 -0.00000000000E+00 -0.52020888757E+01  0.52020888757E+01  0.00000000000E+00 0.  1.
         25    2    1    2    0    0  0.00000000000E+00  0.00000000000E+00  0.74572107213E+03  0.75612524989E+03  0.12500190434E+03 0.  0.
          4    1    3    3  501    0 -0.52493283163E+02  0.32025333944E+01  0.57693084647E+03  0.57932495640E+03  0.15500000000E+01 0. -1.
         -4    1    3    3    0  501  0.52493283163E+02 -0.32025333944E+01  0.16879022567E+03  0.17680029349E+03  0.15500000000E+01 0. -1.
<mgrwt>
<rscale>  2 0.12500190E+03</rscale>
<asrwt>0</asrwt>
<pdfrwt beam="1">  1       21 0.11552655E+00 0.12500190E+03</pdfrwt>
<pdfrwt beam="2">  1       21 0.80032196E-03 0.12500190E+03</pdfrwt>
<totfact> 0.30853154E+06</totfact>
</mgrwt>
</event>
<event>
 5    0  0.1364186E+000  0.1250085E+03  0.7546771E-02  0.1235056E+00
         21   -1    0    0  503  502  0.00000000000E+00  0.00000000000E+00  0.43470088891E+03  0.43470088891E+03  0.00000000000E+00 0.  1.
         21   -1    0    0  502  503 -0.00000000000E+00 -0.00000000000E+00 -0.89872904861E+01  0.89872904861E+01  0.00000000000E+00 0.  1.
         25    2    1    2    0    0  0.00000000000E+00  0.00000000000E+00  0.42571359842E+03  0.44368817939E+03  0.12500853032E+03 0.  0.
          4    1    3    3  501    0  0.29193145908E+02  0.45467260579E+02  0.32424199367E+03  0.32871687592E+03  0.15500000000E+01 0.  1.
         -4    1    3    3    0  501 -0.29193145908E+02 -0.45467260579E+02  0.10147160475E+03  0.11497130348E+03  0.15500000000E+01 0.  1.
<mgrwt>
<rscale>  2 0.12500853E+03</rscale>
<asrwt>0</asrwt>
<pdfrwt beam="1">  1       21 0.66877044E-01 0.12500853E+03</pdfrwt>
<pdfrwt beam="2">  1       21 0.13826604E-02 0.12500853E+03</pdfrwt>
<totfact> 0.45262751E+06</totfact>
</mgrwt>
</event>
<event>
 5    0  0.1336795E+000  0.1250312E+03  0.7546771E-02  0.1235021E+00
         21   -1    0    0  503  502  0.00000000000E+00  0.00000000000E+00  0.93799184444E+01  0.93799184444E+01  0.00000000000E+00 0. -1.
         21   -1    0    0  502  503 -0.00000000000E+00 -0.00000000000E+00 -0.41665621718E+03  0.41665621718E+03  0.00000000000E+00 0. -1.
         25    2    1    2    0    0  0.00000000000E+00  0.00000000000E+00 -0.40727629873E+03  0.42603613562E+03  0.12503121749E+03 0.  0.
          4    1    3    3  501    0 -0.49270416159E+02  0.13205573025E+02 -0.32667628884E+03  0.33063841467E+03  0.15500000000E+01 0. -1.
         -4    1    3    3    0  501  0.49270416159E+02 -0.13205573025E+02 -0.80600009892E+02  0.95397720947E+02  0.15500000000E+01 0. -1.
<mgrwt>
<rscale>  2 0.12503122E+03</rscale>
<asrwt>0</asrwt>
<pdfrwt beam="1">  1       21 0.14430647E-02 0.12503122E+03</pdfrwt>
<pdfrwt beam="2">  1       21 0.64100943E-01 0.12503122E+03</pdfrwt>
<totfact> 0.46324913E+06</totfact>
</mgrwt>
</event>
<event>
 5    0  0.1336327E+000  0.1250007E+03  0.7546771E-02  0.1235068E+00
         21   -1    0    0  503  502  0.00000000000E+00  0.00000000000E+00  0.14059870178E+02  0.14059870178E+02  0.00000000000E+00 0.  1.
         21   -1    0    0  502  503 -0.00000000000E+00 -0.00000000000E+00 -0.27783305742E+03  0.27783305742E+03  0.00000000000E+00 0.  1.
         25    2    1    2    0    0  0.00000000000E+00  0.00000000000E+00 -0.26377318724E+03  0.29189292760E+03  0.12500074749E+03 0.  0.
          4    1    3    3  501    0  0.33310900149E+02 -0.15013494213E+01 -0.25527391711E+03  0.25744717007E+03  0.15500000000E+01 0.  1.
         -4    1    3    3    0  501 -0.33310900149E+02  0.15013494213E+01 -0.84992701259E+01  0.34445757525E+02  0.15500000000E+01 0.  1.
<mgrwt>
<rscale>  2 0.12500075E+03</rscale>
<asrwt>0</asrwt>
<pdfrwt beam="1">  1       21 0.21630569E-02 0.12500075E+03</pdfrwt>
<pdfrwt beam="2">  1       21 0.42743548E-01 0.12500075E+03</pdfrwt>
<totfact> 0.56135649E+06</totfact>
</mgrwt>
</event>
<event>
 5    0  0.1305724E+000  0.1250006E+03  0.7546771E-02  0.1235068E+00
         21   -1    0    0  503  502  0.00000000000E+00  0.00000000000E+00  0.40217539325E+03  0.40217539325E+03  0.00000000000E+00 0. -1.
         21   -1    0    0  502  503 -0.00000000000E+00 -0.00000000000E+00 -0.97128930698E+01  0.97128930698E+01  0.00000000000E+00 0. -1.
         25    2    1    2    0    0  0.00000000000E+00  0.00000000000E+00  0.39246250018E+03  0.41188828632E+03  0.12500058544E+03 0.  0.
          4    1    3    3  501    0  0.10411633289E+01 -0.34312091820E+02  0.24207295324E+02  0.42033311945E+02  0.15500000000E+01 0. -1.
         -4    1    3    3    0  501 -0.10411633289E+01  0.34312091820E+02  0.36825520485E+03  0.36985497437E+03  0.15500000000E+01 0. -1.
<mgrwt>
<rscale>  2 0.12500059E+03</rscale>
<asrwt>0</asrwt>
<pdfrwt beam="1">  1       21 0.61873125E-01 0.12500059E+03</pdfrwt>
<pdfrwt beam="2">  1       21 0.14942916E-02 0.12500059E+03</pdfrwt>
<totfact> 0.47261997E+06</totfact>
</mgrwt>
</event>
<event>
 5    0  0.1607925E+000  0.1249973E+03  0.7546771E-02  0.1235073E+00
         21   -1    0    0  503  502  0.00000000000E+00  0.00000000000E+00  0.27431376411E+02  0.27431376411E+02  0.00000000000E+00 0.  1.
         21   -1    0    0  502  503 -0.00000000000E+00 -0.00000000000E+00 -0.14239473105E+03  0.14239473105E+03  0.00000000000E+00 0.  1.
         25    2    1    2    0    0  0.00000000000E+00  0.00000000000E+00 -0.11496335464E+03  0.16982610746E+03  0.12499733543E+03 0.  0.
          4    1    3    3  501    0 -0.26522926975E+02  0.52163051924E+02 -0.27739257526E+02  0.64778997750E+02  0.15500000000E+01 0.  1.
         -4    1    3    3    0  501  0.26522926975E+02 -0.52163051924E+02 -0.87224097115E+02  0.10504710971E+03  0.15500000000E+01 0.  1.
<mgrwt>
<rscale>  2 0.12499734E+03</rscale>
<asrwt>0</asrwt>
<pdfrwt beam="1">  1       21 0.42202118E-02 0.12499734E+03</pdfrwt>
<pdfrwt beam="2">  1       21 0.21906881E-01 0.12499734E+03</pdfrwt>
<totfact> 0.68342878E+06</totfact>
</mgrwt>
</event>
<event>
 5    0  0.1222151E+000  0.1249942E+03  0.7546771E-02  0.1235078E+00
         21   -1    0    0  503  502  0.00000000000E+00  0.00000000000E+00  0.28467637020E+01  0.28467637020E+01  0.00000000000E+00 0.  1.
         21   -1    0    0  502  503 -0.00000000000E+00 -0.00000000000E+00 -0.13720458504E+04  0.13720458504E+04  0.00000000000E+00 0.  1.
         25    2    1    2    0    0  0.00000000000E+00  0.00000000000E+00 -0.13691990867E+04  0.13748926141E+04  0.12499424506E+03 0.  0.
          4    1    3    3  501    0  0.23635669406E+02 -0.54125874709E+02 -0.90874219481E+03  0.91066076797E+03  0.15500000000E+01 0.  1.
         -4    1    3    3    0  501 -0.23635669406E+02  0.54125874709E+02 -0.46045689190E+03  0.46423184615E+03  0.15500000000E+01 0.  1.
<mgrwt>
<rscale>  2 0.12499425E+03</rscale>
<asrwt>0</asrwt>
<pdfrwt beam="1">  1       21 0.43796455E-03 0.12499425E+03</pdfrwt>
<pdfrwt beam="2">  1       21 0.21108354E+00 0.12499425E+03</pdfrwt>
<totfact> 0.15960859E+06</totfact>
</mgrwt>
</event>
<event>
 5    0  0.1370727E+000  0.1249939E+03  0.7546771E-02  0.1235079E+00
         21   -1    0    0  503  502  0.00000000000E+00  0.00000000000E+00  0.36978104762E+03  0.36978104762E+03  0.00000000000E+00 0.  1.
         21   -1    0    0  502  503 -0.00000000000E+00 -0.00000000000E+00 -0.10562659251E+02  0.10562659251E+02  0.00000000000E+00 0.  1.
         25    2    1    2    0    0  0.00000000000E+00  0.00000000000E+00  0.35921838837E+03  0.38034370687E+03  0.12499393911E+03 0.  0.
          4    1    3    3  501    0 -0.57014520595E+02 -0.12377596407E+02  0.11159460463E+03  0.12593497820E+03  0.15500000000E+01 0. -1.
         -4    1    3    3    0  501  0.57014520595E+02  0.12377596407E+02  0.24762378374E+03  0.25440872868E+03  0.15500000000E+01 0. -1.
<mgrwt>
<rscale>  2 0.12499394E+03</rscale>
<asrwt>0</asrwt>
<pdfrwt beam="1">  1       21 0.56889382E-01 0.12499394E+03</pdfrwt>
<pdfrwt beam="2">  1       21 0.16250248E-02 0.12499394E+03</pdfrwt>
<totfact> 0.49380105E+06</totfact>
</mgrwt>
</event>
<event>
 5    0  0.1520809E+000  0.1249995E+03  0.7546771E-02  0.1235070E+00
         21   -1    0    0  503  502  0.00000000000E+00  0.00000000000E+00  0.24464003351E+03  0.24464003351E+03  0.00000000000E+00 0.  1.
         21   -1    0    0  502  503 -0.00000000000E+00 -0.00000000000E+00 -0.15967213759E+02  0.15967213759E+02  0.00000000000E+00 0.  1.
         25    2    1    2    0    0  0.00000000000E+00  0.00000000000E+00  0.22867281975E+03  0.26060724727E+03  0.12499951534E+03 0.  0.
          4    1    3    3  501    0 -0.53142777678E+02  0.15541950676E+02  0.53979261610E+02  0.77342551252E+02  0.15500000000E+01 0. -1.
         -4    1    3    3    0  501  0.53142777678E+02 -0.15541950676E+02  0.17469355814E+03  0.18326469602E+03  0.15500000000E+01 0. -1.
<mgrwt>
<rscale>  2 0.12499952E+03</rscale>
<asrwt>0</asrwt>
<pdfrwt beam="1">  1       21 0.37636926E-01 0.12499952E+03</pdfrwt>
<pdfrwt beam="2">  1       21 0.24564946E-02 0.12499952E+03</pdfrwt>
<totfact> 0.58894378E+06</totfact>
</mgrwt>
</event>
<event>
 5    0  0.1222151E+000  0.1249988E+03  0.7546771E-02  0.1235071E+00
         21   -1    0    0  503  502  0.00000000000E+00  0.00000000000E+00  0.29360012502E+01  0.29360012502E+01  0.00000000000E+00 0. -1.
         21   -1    0    0  502  503 -0.00000000000E+00 -0.00000000000E+00 -0.13304401793E+04  0.13304401793E+04  0.00000000000E+00 0. -1.
         25    2    1    2    0    0  0.00000000000E+00  0.00000000000E+00 -0.13275041781E+04  0.13333761806E+04  0.12499878447E+03 0.  0.
          4    1    3    3  501    0  0.26421921444E+02  0.43620980833E+02 -0.27872048119E+03  0.28335210787E+03  0.15500000000E+01 0.  1.
         -4    1    3    3    0  501 -0.26421921444E+02 -0.43620980833E+02 -0.10487836969E+04  0.10500240727E+04  0.15500000000E+01 0.  1.
<mgrwt>
<rscale>  2 0.12499878E+03</rscale>
<asrwt>0</asrwt>
<pdfrwt beam="1">  1       21 0.45169212E-03 0.12499878E+03</pdfrwt>
<pdfrwt beam="2">  1       21 0.20468328E+00 0.12499878E+03</pdfrwt>
<totfact> 0.16664001E+06</totfact>
</mgrwt>
</event>
<event>
 5    0  0.1660132E+000  0.1249975E+03  0.7546771E-02  0.1235073E+00
         21   -1    0    0  503  502  0.00000000000E+00  0.00000000000E+00  0.46027819811E+02  0.46027819811E+02  0.00000000000E+00 0. -1.
         21   -1    0    0  502  503 -0.00000000000E+00 -0.00000000000E+00 -0.84863796018E+02  0.84863796018E+02  0.00000000000E+00 0. -1.
         25    2    1    2    0    0  0.00000000000E+00  0.00000000000E+00 -0.38835976207E+02  0.13089161583E+03  0.12499752816E+03 0.  0.
          4    1    3    3  501    0  0.13989551178E+02 -0.59486679453E+02 -0.33043884878E+02  0.69488656645E+02  0.15500000000E+01 0.  1.
         -4    1    3    3    0  501 -0.13989551178E+02  0.59486679453E+02 -0.57920913287E+01  0.61402959183E+02  0.15500000000E+01 0.  1.
<mgrwt>
<rscale>  2 0.12499753E+03</rscale>
<asrwt>0</asrwt>
<pdfrwt beam="1">  1       21 0.70812030E-02 0.12499753E+03</pdfrwt>
<pdfrwt beam="2">  1       21 0.13055969E-01 0.12499753E+03</pdfrwt>
<totfact> 0.73249900E+06</totfact>
</mgrwt>
</event>
<event>
 5    0  0.1222151E+000  0.1249949E+03  0.7546771E-02  0.1235077E+00
         21   -1    0    0  503  502  0.00000000000E+00  0.00000000000E+00  0.98764472555E+03  0.98764472555E+03  0.00000000000E+00 0.  1.
         21   -1    0    0  502  503 -0.00000000000E+00 -0.00000000000E+00 -0.39547929706E+01  0.39547929706E+01  0.00000000000E+00 0.  1.
         25    2    1    2    0    0  0.00000000000E+00  0.00000000000E+00  0.98368993258E+03  0.99159951852E+03  0.12499488658E+03 0.  0.
          4    1    3    3  501    0 -0.24339500103E+02 -0.47125086341E+02  0.22989062010E+03  0.23593491631E+03  0.15500000000E+01 0. -1.
         -4    1    3    3    0  501  0.24339500103E+02  0.47125086341E+02  0.75379931248E+03  0.75566460221E+03  0.15500000000E+01 0. -1.
<mgrwt>
<rscale>  2 0.12499489E+03</rscale>
<asrwt>0</asrwt>
<pdfrwt beam="1">  1       21 0.15194515E+00 0.12499489E+03</pdfrwt>
<pdfrwt beam="2">  1       21 0.60843047E-03 0.12499489E+03</pdfrwt>
<totfact> 0.23832739E+06</totfact>
</mgrwt>
</event>
<event>
 5    0  0.1312108E+000  0.1249942E+03  0.7546771E-02  0.1235078E+00
         21   -1    0    0  503  502  0.00000000000E+00  0.00000000000E+00  0.66044396046E+03  0.66044396046E+03  0.00000000000E+00 0. -1.
         21   -1    0    0  502  503 -0.00000000000E+00 -0.00000000000E+00 -0.59140286170E+01  0.59140286170E+01  0.00000000000E+00 0. -1.
         25    2    1    2    0    0  0.00000000000E+00  0.00000000000E+00  0.65452993184E+03  0.66635798908E+03  0.12499415158E+03 0.  0.
          4    1    3    3  501    0 -0.13800019618E+02  0.59973032803E+02  0.38475127275E+03  0.38964490192E+03  0.15500000000E+01 0. -1.
         -4    1    3    3    0  501  0.13800019618E+02 -0.59973032803E+02  0.26977865909E+03  0.27671308716E+03  0.15500000000E+01 0. -1.
<mgrwt>
<rscale>  2 0.12499415E+03</rscale>
<asrwt>0</asrwt>
<pdfrwt beam="1">  1       21 0.10160670E+00 0.12499415E+03</pdfrwt>
<pdfrwt beam="2">  1       21 0.90985108E-03 0.12499415E+03</pdfrwt>
<totfact> 0.34252872E+06</totfact>
</mgrwt>
</event>
<event>
 5    0  0.1409353E+000  0.1249970E+03  0.7546771E-02  0.1235074E+00
         21   -1    0    0  503  502  0.00000000000E+00  0.00000000000E+00  0.11413149592E+02  0.11413149592E+02  0.00000000000E+00 0. -1.
         21   -1    0    0  502  503 -0.00000000000E+00 -0.00000000000E+00 -0.34224243871E+03  0.34224243871E+03  0.00000000000E+00 0. -1.
         25    2    1    2    0    0  0.00000000000E+00  0.00000000000E+00 -0.33082928911E+03  0.35365558830E+03  0.12499702636E+03 0.  0.
          4    1    3    3  501    0 -0.31061695559E+02  0.35823920218E+02 -0.28053251361E+03  0.28451551080E+03  0.15500000000E+01 0.  1.
         -4    1    3    3    0  501  0.31061695559E+02 -0.35823920218E+02 -0.50296775502E+02  0.69140077500E+02  0.15500000000E+01 0.  1.
<mgrwt>
<rscale>  2 0.12499703E+03</rscale>
<asrwt>0</asrwt>
<pdfrwt beam="1">  1       21 0.17558691E-02 0.12499703E+03</pdfrwt>
<pdfrwt beam="2">  1       21 0.52652684E-01 0.12499703E+03</pdfrwt>
<totfact> 0.51273403E+06</totfact>
</mgrwt>
</event>
<event>
 5    0  0.1222151E+000  0.1250036E+03  0.7546771E-02  0.1235064E+00
         21   -1    0    0  503  502  0.00000000000E+00  0.00000000000E+00  0.99835836834E+03  0.99835836834E+03  0.00000000000E+00 0.  1.
         21   -1    0    0  502  503 -0.00000000000E+00 -0.00000000000E+00 -0.39129012615E+01  0.39129012615E+01  0.00000000000E+00 0.  1.
         25    2    1    2    0    0  0.00000000000E+00  0.00000000000E+00  0.99444546708E+03  0.10022712696E+04  0.12500364345E+03 0.  0.
          4    1    3    3  501    0  0.55596961170E+02  0.27381945877E+02  0.43343997719E+03  0.43785089857E+03  0.15500000000E+01 0. -1.
         -4    1    3    3    0  501 -0.55596961170E+02 -0.27381945877E+02  0.56100548988E+03  0.56442037103E+03  0.15500000000E+01 0. -1.
<mgrwt>
<rscale>  2 0.12500364E+03</rscale>
<asrwt>0</asrwt>
<pdfrwt beam="1">  1       21 0.15359339E+00 0.12500364E+03</pdfrwt>
<pdfrwt beam="2">  1       21 0.60198560E-03 0.12500364E+03</pdfrwt>
<totfact> 0.23559957E+06</totfact>
</mgrwt>
</event>
<event>
 5    0  0.1528521E+000  0.1250014E+03  0.7546771E-02  0.1235067E+00
         21   -1    0    0  503  502  0.00000000000E+00  0.00000000000E+00  0.97441146191E+02  0.97441146191E+02  0.00000000000E+00 0. -1.
         21   -1    0    0  502  503 -0.00000000000E+00 -0.00000000000E+00 -0.40089208712E+02  0.40089208712E+02  0.00000000000E+00 0. -1.
         25    2    1    2    0    0  0.00000000000E+00  0.00000000000E+00  0.57351937479E+02  0.13753035490E+03  0.12500141514E+03 0.  0.
          4    1    3    3  501    0  0.11523282840E+02  0.40637258519E+02  0.79331549627E+02  0.89889210106E+02  0.15500000000E+01 0.  1.
         -4    1    3    3    0  501 -0.11523282840E+02 -0.40637258519E+02 -0.21979612148E+02  0.47641144796E+02  0.15500000000E+01 0.  1.
<mgrwt>
<rscale>  2 0.12500142E+03</rscale>
<asrwt>0</asrwt>
<pdfrwt beam="1">  1       21 0.14990945E-01 0.12500142E+03</pdfrwt>
<pdfrwt beam="2">  1       21 0.61675706E-02 0.12500142E+03</pdfrwt>
<totfact> 0.72360526E+06</totfact>
</mgrwt>
</event>
<event>
 5    0  0.1529545E+000  0.1249982E+03  0.7546771E-02  0.1235072E+00
         21   -1    0    0  503  502  0.00000000000E+00  0.00000000000E+00  0.61361646421E+02  0.61361646421E+02  0.00000000000E+00 0.  1.
         21   -1    0    0  502  503 -0.00000000000E+00 -0.00000000000E+00 -0.63657623365E+02  0.63657623365E+02  0.00000000000E+00 0.  1.
         25    2    1    2    0    0  0.00000000000E+00  0.00000000000E+00 -0.22959769437E+01  0.12501926979E+03  0.12499818522E+03 0.  0.
          4    1    3    3  501    0  0.40023995663E+02 -0.30797594790E+02  0.35645741914E+02  0.61833918607E+02  0.15500000000E+01 0.  1.
         -4    1    3    3    0  501 -0.40023995663E+02  0.30797594790E+02 -0.37941718857E+02  0.63185351179E+02  0.15500000000E+01 0.  1.
<mgrwt>
<rscale>  2 0.12499819E+03</rscale>
<asrwt>0</asrwt>
<pdfrwt beam="1">  1       21 0.94402533E-02 0.12499819E+03</pdfrwt>
<pdfrwt beam="2">  1       21 0.97934805E-02 0.12499819E+03</pdfrwt>
<totfact> 0.74044414E+06</totfact>
</mgrwt>
</event>
<event>
 5    0  0.1222151E+000  0.1249967E+03  0.7546771E-02  0.1235074E+00
         21   -1    0    0  503  502  0.00000000000E+00  0.00000000000E+00  0.38066440753E+01  0.38066440753E+01  0.00000000000E+00 0.  1.
         21   -1    0    0  502  503 -0.00000000000E+00 -0.00000000000E+00 -0.10261118511E+04  0.10261118511E+04  0.00000000000E+00 0.  1.
         25    2    1    2    0    0  0.00000000000E+00  0.00000000000E+00 -0.10223052070E+04  0.10299184952E+04  0.12499668153E+03 0.  0.
          4    1    3    3  501    0 -0.61735889389E+02  0.92805168262E+01 -0.53165582987E+03  0.53531091150E+03  0.15500000000E+01 0.  1.
         -4    1    3    3    0  501  0.61735889389E+02 -0.92805168262E+01 -0.49064937713E+03  0.49460758366E+03  0.15500000000E+01 0.  1.
<mgrwt>
<rscale>  2 0.12499668E+03</rscale>
<asrwt>0</asrwt>
<pdfrwt beam="1">  1       21 0.58563633E-03 0.12499668E+03</pdfrwt>
<pdfrwt beam="2">  1       21 0.15786369E+00 0.12499668E+03</pdfrwt>
<totfact> 0.22882694E+06</totfact>
</mgrwt>
</event>
<event>
 5    0  0.1494675E+000  0.1250012E+03  0.7546771E-02  0.1235067E+00
         21   -1    0    0  503  502  0.00000000000E+00  0.00000000000E+00  0.18101037005E+02  0.18101037005E+02  0.00000000000E+00 0. -1.
         21   -1    0    0  502  503 -0.00000000000E+00 -0.00000000000E+00 -0.21580663588E+03  0.21580663588E+03  0.00000000000E+00 0. -1.
         25    2    1    2    0    0  0.00000000000E+00  0.00000000000E+00 -0.19770559888E+03  0.23390767289E+03  0.12500118243E+03 0.  0.
          4    1    3    3  501    0 -0.60953702357E+02 -0.13727137460E+02 -0.99535914069E+02  0.11753122489E+03  0.15500000000E+01 0. -1.
         -4    1    3    3    0  501  0.60953702357E+02  0.13727137460E+02 -0.98169684808E+02  0.11637644800E+03  0.15500000000E+01 0. -1.
<mgrwt>
<rscale>  2 0.12500118E+03</rscale>
<asrwt>0</asrwt>
<pdfrwt beam="1">  1       21 0.27847749E-02 0.12500118E+03</pdfrwt>
<pdfrwt beam="2">  1       21 0.33201021E-01 0.12500118E+03</pdfrwt>
<totfact> 0.61425401E+06</totfact>
</mgrwt>
</event>
<event>
 5    0  0.1476199E+000  0.1249982E+03  0.7546771E-02  0.1235072E+00
         21   -1    0    0  503  502  0.00000000000E+00  0.00000000000E+00  0.24601621188E+02  0.24601621188E+02  0.00000000000E+00 0. -1.
         21   -1    0    0  502  503 -0.00000000000E+00 -0.00000000000E+00 -0.15877568003E+03  0.15877568003E+03  0.00000000000E+00 0. -1.
         25    2    1    2    0    0  0.00000000000E+00  0.00000000000E+00 -0.13417405884E+03  0.18337730122E+03  0.12499822613E+03 0.  0.
          4    1    3    3  501    0 -0.26066984002E+02  0.31532396155E+02 -0.13636417235E+03  0.14237756025E+03  0.15500000000E+01 0. -1.
         -4    1    3    3    0  501  0.26066984002E+02 -0.31532396155E+02  0.21901135080E+01  0.40999740968E+02  0.15500000000E+01 0. -1.
<mgrwt>
<rscale>  2 0.12499823E+03</rscale>
<asrwt>0</asrwt>
<pdfrwt beam="1">  1       21 0.37848648E-02 0.12499823E+03</pdfrwt>
<pdfrwt beam="2">  1       21 0.24427028E-01 0.12499823E+03</pdfrwt>
<totfact> 0.66769203E+06</totfact>
</mgrwt>
</event>
<event>
 5    0  0.1222151E+000  0.1249284E+03  0.7546771E-02  0.1235181E+00
         21   -1    0    0  503  502  0.00000000000E+00  0.00000000000E+00  0.66790182784E+01  0.66790182784E+01  0.00000000000E+00 0. -1.
         21   -1    0    0  502  503 -0.00000000000E+00 -0.00000000000E+00 -0.58418378984E+03  0.58418378984E+03  0.00000000000E+00 0. -1.
         25    2    1    2    0    0  0.00000000000E+00  0.00000000000E+00 -0.57750477157E+03  0.59086280812E+03  0.12492836684E+03 0.  0.
          4    1    3    3  501    0 -0.24727231437E+02 -0.57300605347E+02 -0.27863459243E+03  0.28554235053E+03  0.15500000000E+01 0.  1.
         -4    1    3    3    0  501  0.24727231437E+02  0.57300605347E+02 -0.29887017914E+03  0.30532045759E+03  0.15500000000E+01 0.  1.
<mgrwt>
<rscale>  2 0.12492837E+03</rscale>
<asrwt>0</asrwt>
<pdfrwt beam="1">  1       21 0.10275412E-02 0.12492837E+03</pdfrwt>
<pdfrwt beam="2">  1       21 0.89874434E-01 0.12492837E+03</pdfrwt>
<totfact> 0.37575962E+06</totfact>
</mgrwt>
</event>
<event>
 5    0  0.1304050E+000  0.1249941E+03  0.7546771E-02  0.1235078E+00
         21   -1    0    0  503  502  0.00000000000E+00  0.00000000000E+00  0.24335917451E+03  0.24335917451E+03  0.00000000000E+00 0.  1.
         21   -1    0    0  502  503 -0.00000000000E+00 -0.00000000000E+00 -0.16049867859E+02  0.16049867859E+02  0.00000000000E+00 0.  1.
         25    2    1    2    0    0  0.00000000000E+00  0.00000000000E+00  0.22730930666E+03  0.25940904237E+03  0.12499412135E+03 0.  0.
          4    1    3    3  501    0  0.42666480612E+01 -0.24751801040E+02 -0.50707320854E+01  0.25670425869E+02  0.15500000000E+01 0.  1.
         -4    1    3    3    0  501 -0.42666480612E+01  0.24751801040E+02  0.23238003874E+03  0.23373861650E+03  0.15500000000E+01 0.  1.
<mgrwt>
<rscale>  2 0.12499412E+03</rscale>
<asrwt>0</asrwt>
<pdfrwt beam="1">  1       21 0.37439870E-01 0.12499412E+03</pdfrwt>
<pdfrwt beam="2">  1       21 0.24692106E-02 0.12499412E+03</pdfrwt>
<totfact> 0.59012218E+06</totfact>
</mgrwt>
</event>
<event>
 5    0  0.1435790E+000  0.1249624E+03  0.7546771E-02  0.1235128E+00
         21   -1    0    0  503  502  0.00000000000E+00  0.00000000000E+00  0.67978771761E+02  0.67978771761E+02  0.00000000000E+00 0.  1.
         21   -1    0    0  502  503 -0.00000000000E+00 -0.00000000000E+00 -0.57428271346E+02  0.57428271346E+02  0.00000000000E+00 0.  1.
         25    2    1    2    0    0  0.00000000000E+00  0.00000000000E+00  0.10550500415E+02  0.12540704311E+03  0.12496244797E+03 0.  0.
          4    1    3    3  501    0  0.16554448997E+02 -0.13761132224E+02  0.64119026879E+02  0.67654051243E+02  0.15500000000E+01 0. -1.
         -4    1    3    3    0  501 -0.16554448997E+02  0.13761132224E+02 -0.53568526464E+02  0.57752991864E+02  0.15500000000E+01 0. -1.
<mgrwt>
<rscale>  2 0.12496245E+03</rscale>
<asrwt>0</asrwt>
<pdfrwt beam="1">  1       21 0.10458272E-01 0.12496245E+03</pdfrwt>
<pdfrwt beam="2">  1       21 0.88351188E-02 0.12496245E+03</pdfrwt>
<totfact> 0.74059274E+06</totfact>
</mgrwt>
</event>
<event>
 5    0  0.1404160E+000  0.1249932E+03  0.7546771E-02  0.1235080E+00
         21   -1    0    0  503  502  0.00000000000E+00  0.00000000000E+00  0.12544431703E+02  0.12544431703E+02  0.00000000000E+00 0. -1.
         21   -1    0    0  502  503 -0.00000000000E+00 -0.00000000000E+00 -0.31135944102E+03  0.31135944102E+03  0.00000000000E+00 0. -1.
         25    2    1    2    0    0  0.00000000000E+00  0.00000000000E+00 -0.29881500931E+03  0.32390387272E+03  0.12499323570E+03 0.  0.
          4    1    3    3  501    0 -0.24352000713E+01 -0.46669390352E+02 -0.41952662589E+02  0.62820303991E+02  0.15500000000E+01 0.  1.
         -4    1    3    3    0  501  0.24352000713E+01  0.46669390352E+02 -0.25686234672E+03  0.26108356873E+03  0.15500000000E+01 0.  1.
<mgrwt>
<rscale>  2 0.12499324E+03</rscale>
<asrwt>0</asrwt>
<pdfrwt beam="1">  1       21 0.19299125E-02 0.12499324E+03</pdfrwt>
<pdfrwt beam="2">  1       21 0.47901455E-01 0.12499324E+03</pdfrwt>
<totfact> 0.53534505E+06</totfact>
</mgrwt>
</event>
<event>
 5    0  0.1574217E+000  0.1249995E+03  0.7546771E-02  0.1235070E+00
         21   -1    0    0  503  502  0.00000000000E+00  0.00000000000E+00  0.22321958906E+03  0.22321958906E+03  0.00000000000E+00 0.  1.
         21   -1    0    0  502  503 -0.00000000000E+00 -0.00000000000E+00 -0.17499435062E+02  0.17499435062E+02  0.00000000000E+00 0.  1.
         25    2    1    2    0    0  0.00000000000E+00  0.00000000000E+00  0.20572015399E+03  0.24071902412E+03  0.12499946725E+03 0.  0.
          4    1    3    3  501    0  0.13725417975E+02 -0.60900187710E+02  0.10780528628E+03  0.12458572234E+03  0.15500000000E+01 0.  1.
         -4    1    3    3    0  501 -0.13725417975E+02  0.60900187710E+02  0.97914867711E+02  0.11613330177E+03  0.15500000000E+01 0.  1.
<mgrwt>
<rscale>  2 0.12499947E+03</rscale>
<asrwt>0</asrwt>
<pdfrwt beam="1">  1       21 0.34341473E-01 0.12499947E+03</pdfrwt>
<pdfrwt beam="2">  1       21 0.26922209E-02 0.12499947E+03</pdfrwt>
<totfact> 0.60763971E+06</totfact>
</mgrwt>
</event>
<event>
 4    0  0.1762043E+000  0.1241428E+03  0.7546771E-02  0.1236415E+00
         21   -1    0    0  503  502  0.00000000000E+00  0.00000000000E+00  0.16561946685E+02  0.16561946685E+02  0.00000000000E+00 0. -1.
         21   -1    0    0  502  503 -0.00000000000E+00 -0.00000000000E+00 -0.23263309318E+03  0.23263309318E+03  0.00000000000E+00 0. -1.
          4    1    1    2  501    0 -0.14301351897E+02  0.36732615165E+02 -0.20423322882E+03  0.20800824007E+03  0.15500000000E+01 0.  1.
         -4    1    1    2    0  501  0.14301351897E+02 -0.36732615165E+02 -0.11837917683E+02  0.41186799803E+02  0.15500000000E+01 0.  1.
<mgrwt>
<rscale>  2 0.12414277E+03</rscale>
<asrwt>0</asrwt>
<pdfrwt beam="1">  1       21 0.25479918E-02 0.12414277E+03</pdfrwt>
<pdfrwt beam="2">  1       21 0.35789706E-01 0.12414277E+03</pdfrwt>
<totfact> 0.61267845E+06</totfact>
</mgrwt>
</event>
<event>
 4    0  0.1829723E+000  0.1249011E+03  0.7546771E-02  0.1235224E+00
         21   -1    0    0  503  502  0.00000000000E+00  0.00000000000E+00  0.27357005849E+03  0.27357005849E+03  0.00000000000E+00 0. -1.
         21   -1    0    0  502  503 -0.00000000000E+00 -0.00000000000E+00 -0.14256216686E+02  0.14256216686E+02  0.00000000000E+00 0. -1.
          4    1    1    2  501    0 -0.54979992098E+01  0.59294015963E+02  0.86442620843E+02  0.10497970053E+03  0.15500000000E+01 0. -1.
         -4    1    1    2    0  501  0.54979992098E+01 -0.59294015963E+02  0.17287122096E+03  0.18284657465E+03  0.15500000000E+01 0. -1.
<mgrwt>
<rscale>  2 0.12490115E+03</rscale>
<asrwt>0</asrwt>
<pdfrwt beam="1">  1       21 0.42087698E-01 0.12490115E+03</pdfrwt>
<pdfrwt beam="2">  1       21 0.21932643E-02 0.12490115E+03</pdfrwt>
<totfact> 0.56623900E+06</totfact>
</mgrwt>
</event>
<event>
 5    0  0.1481278E+000  0.1250092E+03  0.7546771E-02  0.1235055E+00
         21   -1    0    0  503  502  0.00000000000E+00  0.00000000000E+00  0.97134359208E+02  0.97134359208E+02  0.00000000000E+00 0. -1.
         21   -1    0    0  502  503 -0.00000000000E+00 -0.00000000000E+00 -0.40220850714E+02  0.40220850714E+02  0.00000000000E+00 0. -1.
         25    2    1    2    0    0  0.00000000000E+00  0.00000000000E+00  0.56913508494E+02  0.13735520992E+03  0.12500922463E+03 0.  0.
          4    1    3    3  501    0  0.93978832240E+01 -0.33350168472E+02 -0.28677424389E+02  0.45003901117E+02  0.15500000000E+01 0. -1.
         -4    1    3    3    0  501 -0.93978832240E+01  0.33350168472E+02  0.85590932883E+02  0.92351308805E+02  0.15500000000E+01 0. -1.
<mgrwt>
<rscale>  2 0.12500922E+03</rscale>
<asrwt>0</asrwt>
<pdfrwt beam="1">  1       21 0.14943747E-01 0.12500922E+03</pdfrwt>
<pdfrwt beam="2">  1       21 0.61878232E-02 0.12500922E+03</pdfrwt>
<totfact> 0.72369078E+06</totfact>
</mgrwt>
</event>
<event>
 5    0  0.1567457E+000  0.1250010E+03  0.7546771E-02  0.1235068E+00
         21   -1    0    0  503  502  0.00000000000E+00  0.00000000000E+00  0.59973491797E+02  0.59973491797E+02  0.00000000000E+00 0.  1.
         21   -1    0    0  502  503 -0.00000000000E+00 -0.00000000000E+00 -0.65133966798E+02  0.65133966798E+02  0.00000000000E+00 0.  1.
         25    2    1    2    0    0  0.00000000000E+00  0.00000000000E+00 -0.51604750005E+01  0.12510745859E+03  0.12500098277E+03 0.  0.
          4    1    3    3  501    0  0.17425226354E+02  0.59880352938E+02 -0.64062861905E+01  0.62711547455E+02  0.15500000000E+01 0.  1.
         -4    1    3    3    0  501 -0.17425226354E+02 -0.59880352938E+02  0.12458111900E+01  0.62395911140E+02  0.15500000000E+01 0.  1.
<mgrwt>
<rscale>  2 0.12500098E+03</rscale>
<asrwt>0</asrwt>
<pdfrwt beam="1">  1       21 0.92266910E-02 0.12500098E+03</pdfrwt>
<pdfrwt beam="2">  1       21 0.10020610E-01 0.12500098E+03</pdfrwt>
<totfact> 0.74027208E+06</totfact>
</mgrwt>
</event>
<event>
 5    0  0.1486447E+000  0.1249988E+03  0.7546771E-02  0.1235071E+00
         21   -1    0    0  503  502  0.00000000000E+00  0.00000000000E+00  0.19948667602E+03  0.19948667602E+03  0.00000000000E+00 0.  1.
         21   -1    0    0  502  503 -0.00000000000E+00 -0.00000000000E+00 -0.19581127142E+02  0.19581127142E+02  0.00000000000E+00 0.  1.
         25    2    1    2    0    0  0.00000000000E+00  0.00000000000E+00  0.17990554887E+03  0.21906780316E+03  0.12499878345E+03 0.  0.
          4    1    3    3  501    0  0.10551128237E+02  0.47508897936E+02  0.21281290568E+02  0.53138663122E+02  0.15500000000E+01 0. -1.
         -4    1    3    3    0  501 -0.10551128237E+02 -0.47508897936E+02  0.15862425831E+03  0.16592914004E+03  0.15500000000E+01 0. -1.
<mgrwt>
<rscale>  2 0.12499878E+03</rscale>
<asrwt>0</asrwt>
<pdfrwt beam="1">  1       21 0.30690256E-01 0.12499878E+03</pdfrwt>
<pdfrwt beam="2">  1       21 0.30124812E-02 0.12499878E+03</pdfrwt>
<totfact> 0.62919881E+06</totfact>
</mgrwt>
</event>
<event>
 5    0  0.1471612E+000  0.1250028E+03  0.7546771E-02  0.1235065E+00
         21   -1    0    0  503  502  0.00000000000E+00  0.00000000000E+00  0.18348453658E+03  0.18348453658E+03  0.00000000000E+00 0.  1.
         21   -1    0    0  502  503 -0.00000000000E+00 -0.00000000000E+00 -0.21290213741E+02  0.21290213741E+02  0.00000000000E+00 0.  1.
         25    2    1    2    0    0  0.00000000000E+00  0.00000000000E+00  0.16219432284E+03  0.20477475032E+03  0.12500280000E+03 0.  0.
          4    1    3    3  501    0 -0.16403122219E+02  0.44909917096E+02  0.14699237931E+03  0.15458048114E+03  0.15500000000E+01 0. -1.
         -4    1    3    3    0  501  0.16403122219E+02 -0.44909917096E+02  0.15201943527E+02  0.50194269186E+02  0.15500000000E+01 0. -1.
<mgrwt>
<rscale>  2 0.12500280E+03</rscale>
<asrwt>0</asrwt>
<pdfrwt beam="1">  1       21 0.28228389E-01 0.12500280E+03</pdfrwt>
<pdfrwt beam="2">  1       21 0.32754176E-02 0.12500280E+03</pdfrwt>
<totfact> 0.64408956E+06</totfact>
</mgrwt>
</event>
<event>
 4    0  0.1897752E+000  0.1246006E+03  0.7546771E-02  0.1235695E+00
         21   -1    0    0  503  502  0.00000000000E+00  0.00000000000E+00  0.47737850774E+02  0.47737850774E+02  0.00000000000E+00 0. -1.
         21   -1    0    0  502  503 -0.00000000000E+00 -0.00000000000E+00 -0.81304985960E+02  0.81304985960E+02  0.00000000000E+00 0. -1.
          4    1    1    2  501    0  0.57659223017E+02  0.13835825380E+02 -0.36512854685E+02  0.69653478880E+02  0.15500000000E+01 0. -1.
         -4    1    1    2    0  501 -0.57659223017E+02 -0.13835825380E+02  0.29457194991E+01  0.59389357854E+02  0.15500000000E+01 0. -1.
<mgrwt>
<rscale>  2 0.12460057E+03</rscale>
<asrwt>0</asrwt>
<pdfrwt beam="1">  1       21 0.73442847E-02 0.12460057E+03</pdfrwt>
<pdfrwt beam="2">  1       21 0.12508459E-01 0.12460057E+03</pdfrwt>
<totfact> 0.74247543E+06</totfact>
</mgrwt>
</event>
<event>
 5    0  0.1665970E+000  0.1249975E+03  0.7546771E-02  0.1235073E+00
         21   -1    0    0  503  502  0.00000000000E+00  0.00000000000E+00  0.99119408526E+02  0.99119408526E+02  0.00000000000E+00 0. -1.
         21   -1    0    0  502  503 -0.00000000000E+00 -0.00000000000E+00 -0.39407969690E+02  0.39407969690E+02  0.00000000000E+00 0. -1.
         25    2    1    2    0    0  0.00000000000E+00  0.00000000000E+00  0.59711438835E+02  0.13852737822E+03  0.12499751433E+03 0.  0.
          4    1    3    3  501    0  0.20786688421E+02 -0.55941839255E+02  0.93572632138E+01  0.60427946098E+02  0.15500000000E+01 0.  1.
         -4    1    3    3    0  501 -0.20786688421E+02  0.55941839255E+02  0.50354175622E+02  0.78099432119E+02  0.15500000000E+01 0.  1.
<mgrwt>
<rscale>  2 0.12499751E+03</rscale>
<asrwt>0</asrwt>
<pdfrwt beam="1">  1       21 0.15249140E-01 0.12499751E+03</pdfrwt>
<pdfrwt beam="2">  1       21 0.60627646E-02 0.12499751E+03</pdfrwt>
<totfact> 0.72236718E+06</totfact>
</mgrwt>
</event>
<event>
 5    0  0.1468426E+000  0.1250146E+03  0.7546771E-02  0.1235047E+00
         21   -1    0    0  503  502  0.00000000000E+00  0.00000000000E+00  0.24509348805E+03  0.24509348805E+03  0.00000000000E+00 0.  1.
         21   -1    0    0  502  503 -0.00000000000E+00 -0.00000000000E+00 -0.15941508163E+02  0.15941508163E+02  0.00000000000E+00 0.  1.
         25    2    1    2    0    0  0.00000000000E+00  0.00000000000E+00  0.22915197989E+03  0.26103499622E+03  0.12501455660E+03 0.  0.
          4    1    3    3  501    0 -0.40959415152E+01 -0.40913771514E+02  0.21282569726E+03  0.21676691019E+03  0.15500000000E+01 0. -1.
         -4    1    3    3    0  501  0.40959415152E+01  0.40913771514E+02  0.16326282629E+02  0.44268086031E+02  0.15500000000E+01 0. -1.
<mgrwt>
<rscale>  2 0.12501456E+03</rscale>
<asrwt>0</asrwt>
<pdfrwt beam="1">  1       21 0.37706688E-01 0.12501456E+03</pdfrwt>
<pdfrwt beam="2">  1       21 0.24525399E-02 0.12501456E+03</pdfrwt>
<totfact> 0.58832964E+06</totfact>
</mgrwt>
</event>
<event>
 5    0  0.1514162E+000  0.1250015E+03  0.7546771E-02  0.1235067E+00
         21   -1    0    0  503  502  0.00000000000E+00  0.00000000000E+00  0.74480313731E+02  0.74480313731E+02  0.00000000000E+00 0. -1.
         21   -1    0    0  502  503 -0.00000000000E+00 -0.00000000000E+00 -0.52448000214E+02  0.52448000214E+02  0.00000000000E+00 0. -1.
         25    2    1    2    0    0  0.00000000000E+00  0.00000000000E+00  0.22032313516E+02  0.12692831395E+03  0.12500149616E+03 0.  0.
          4    1    3    3  501    0  0.37662251781E+02 -0.10778261803E+02 -0.38409859405E+02  0.54884751400E+02  0.15500000000E+01 0.  1.
         -4    1    3    3    0  501 -0.37662251781E+02  0.10778261803E+02  0.60442172922E+02  0.72043562545E+02  0.15500000000E+01 0.  1.
<mgrwt>
<rscale>  2 0.12500150E+03</rscale>
<asrwt>0</asrwt>
<pdfrwt beam="1">  1       21 0.11458510E-01 0.12500150E+03</pdfrwt>
<pdfrwt beam="2">  1       21 0.80689231E-02 0.12500150E+03</pdfrwt>
<totfact> 0.73776080E+06</totfact>
</mgrwt>
</event>
<event>
 5    0  0.1234101E+000  0.1249906E+03  0.7546771E-02  0.1235084E+00
         21   -1    0    0  503  502  0.00000000000E+00  0.00000000000E+00  0.69341565638E+01  0.69341565638E+01  0.00000000000E+00 0. -1.
         21   -1    0    0  502  503 -0.00000000000E+00 -0.00000000000E+00 -0.56325010808E+03  0.56325010808E+03  0.00000000000E+00 0. -1.
         25    2    1    2    0    0  0.00000000000E+00  0.00000000000E+00 -0.55631595152E+03  0.57018426465E+03  0.12499063059E+03 0.  0.
          4    1    3    3  501    0  0.50136665548E+02 -0.10032360118E+02 -0.11438125390E+03  0.12529887160E+03  0.15500000000E+01 0.  1.
         -4    1    3    3    0  501 -0.50136665548E+02  0.10032360118E+02 -0.44193469762E+03  0.44488539304E+03  0.15500000000E+01 0.  1.
<mgrwt>
<rscale>  2 0.12499063E+03</rscale>
<asrwt>0</asrwt>
<pdfrwt beam="1">  1       21 0.10667927E-02 0.12499063E+03</pdfrwt>
<pdfrwt beam="2">  1       21 0.86653912E-01 0.12499063E+03</pdfrwt>
<totfact> 0.38485632E+06</totfact>
</mgrwt>
</event>
<event>
 5    0  0.1533211E+000  0.1250009E+03  0.7546771E-02  0.1235068E+00
         21   -1    0    0  503  502  0.00000000000E+00  0.00000000000E+00  0.12489094942E+03  0.12489094942E+03  0.00000000000E+00 0.  1.
         21   -1    0    0  502  503 -0.00000000000E+00 -0.00000000000E+00 -0.31277724887E+02  0.31277724887E+02  0.00000000000E+00 0.  1.
         25    2    1    2    0    0  0.00000000000E+00  0.00000000000E+00  0.93613224528E+02  0.15616867430E+03  0.12500087610E+03 0.  0.
          4    1    3    3  501    0 -0.44625633099E+02  0.25266589373E+02  0.22127708640E+01  0.51353154946E+02  0.15500000000E+01 0.  1.
         -4    1    3    3    0  501  0.44625633099E+02 -0.25266589373E+02  0.91400453664E+02  0.10481551936E+03  0.15500000000E+01 0.  1.
<mgrwt>
<rscale>  2 0.12500088E+03</rscale>
<asrwt>0</asrwt>
<pdfrwt beam="1">  1       21 0.19213992E-01 0.12500088E+03</pdfrwt>
<pdfrwt beam="2">  1       21 0.48119577E-02 0.12500088E+03</pdfrwt>
<totfact> 0.69989139E+06</totfact>
</mgrwt>
</event>
<event>
 5    0  0.1512717E+000  0.1249998E+03  0.7546771E-02  0.1235070E+00
         21   -1    0    0  503  502  0.00000000000E+00  0.00000000000E+00  0.12532930197E+02  0.12532930197E+02  0.00000000000E+00 0. -1.
         21   -1    0    0  502  503 -0.00000000000E+00 -0.00000000000E+00 -0.31167773440E+03  0.31167773440E+03  0.00000000000E+00 0. -1.
         25    2    1    2    0    0  0.00000000000E+00  0.00000000000E+00 -0.29914480420E+03  0.32421066460E+03  0.12499976463E+03 0.  0.
          4    1    3    3  501    0  0.37264297309E+01 -0.56898840235E+02 -0.21582423119E+03  0.22323500077E+03  0.15500000000E+01 0.  1.
         -4    1    3    3    0  501 -0.37264297309E+01  0.56898840235E+02 -0.83320573009E+02  0.10097566383E+03  0.15500000000E+01 0.  1.
<mgrwt>
<rscale>  2 0.12499976E+03</rscale>
<asrwt>0</asrwt>
<pdfrwt beam="1">  1       21 0.19281429E-02 0.12499976E+03</pdfrwt>
<pdfrwt beam="2">  1       21 0.47950426E-01 0.12499976E+03</pdfrwt>
<totfact> 0.53501660E+06</totfact>
</mgrwt>
</event>
<event>
 5    0  0.1445436E+000  0.1250028E+03  0.7546771E-02  0.1235065E+00
         21   -1    0    0  503  502  0.00000000000E+00  0.00000000000E+00  0.30228691957E+03  0.30228691957E+03  0.00000000000E+00 0.  1.
         21   -1    0    0  502  503 -0.00000000000E+00 -0.00000000000E+00 -0.12922902749E+02  0.12922902749E+02  0.00000000000E+00 0.  1.
         25    2    1    2    0    0  0.00000000000E+00  0.00000000000E+00  0.28936401682E+03  0.31520982232E+03  0.12500279139E+03 0.  0.
          4    1    3    3  501    0  0.42055733021E+02 -0.29226727969E+02  0.54425695042E+02  0.74749214635E+02  0.15500000000E+01 0. -1.
         -4    1    3    3    0  501 -0.42055733021E+02  0.29226727969E+02  0.23493832178E+03  0.24046060768E+03  0.15500000000E+01 0. -1.
<mgrwt>
<rscale>  2 0.12500279E+03</rscale>
<asrwt>0</asrwt>
<pdfrwt beam="1">  1       21 0.46505675E-01 0.12500279E+03</pdfrwt>
<pdfrwt beam="2">  1       21 0.19881391E-02 0.12500279E+03</pdfrwt>
<totfact> 0.54211341E+06</totfact>
</mgrwt>
</event>
<event>
 5    0  0.1394156E+000  0.1250018E+03  0.7546771E-02  0.1235067E+00
         21   -1    0    0  503  502  0.00000000000E+00  0.00000000000E+00  0.10017963905E+02  0.10017963905E+02  0.00000000000E+00 0. -1.
         21   -1    0    0  502  503 -0.00000000000E+00 -0.00000000000E+00 -0.38993551676E+03  0.38993551676E+03  0.00000000000E+00 0. -1.
         25    2    1    2    0    0  0.00000000000E+00  0.00000000000E+00 -0.37991755285E+03  0.39995348066E+03  0.12500175890E+03 0.  0.
          4    1    3    3  501    0 -0.91554497995E+01  0.53618152155E+02 -0.28832859252E+03  0.29341865699E+03  0.15500000000E+01 0.  1.
         -4    1    3    3    0  501  0.91554497995E+01 -0.53618152155E+02 -0.91588960329E+02  0.10653482368E+03  0.15500000000E+01 0.  1.
<mgrwt>
<rscale>  2 0.12500176E+03</rscale>
<asrwt>0</asrwt>
<pdfrwt beam="1">  1       21 0.15412254E-02 0.12500176E+03</pdfrwt>
<pdfrwt beam="2">  1       21 0.59990074E-01 0.12500176E+03</pdfrwt>
<totfact> 0.48042327E+06</totfact>
</mgrwt>
</event>
<event>
 5    0  0.1292432E+000  0.1249819E+03  0.7546771E-02  0.1235098E+00
         21   -1    0    0  503  502  0.00000000000E+00  0.00000000000E+00  0.61910802636E+01  0.61910802636E+01  0.00000000000E+00 0.  1.
         21   -1    0    0  502  503 -0.00000000000E+00 -0.00000000000E+00 -0.63076495126E+03  0.63076495126E+03  0.00000000000E+00 0.  1.
         25    2    1    2    0    0  0.00000000000E+00  0.00000000000E+00 -0.62457387099E+03  0.63695603152E+03  0.12498186174E+03 0.  0.
          4    1    3    3  501    0 -0.22393356291E+02 -0.49647463074E+02 -0.46823814540E+03  0.47139759896E+03  0.15500000000E+01 0. -1.
         -4    1    3    3    0  501  0.22393356291E+02  0.49647463074E+02 -0.15633572559E+03  0.16555843256E+03  0.15500000000E+01 0. -1.
<mgrwt>
<rscale>  2 0.12498186E+03</rscale>
<asrwt>0</asrwt>
<pdfrwt beam="1">  1       21 0.95247372E-03 0.12498186E+03</pdfrwt>
<pdfrwt beam="2">  1       21 0.97040778E-01 0.12498186E+03</pdfrwt>
<totfact> 0.35488875E+06</totfact>
</mgrwt>
</event>
<event>
 5    0  0.1266286E+000  0.1249999E+03  0.7546771E-02  0.1235069E+00
         21   -1    0    0  503  502  0.00000000000E+00  0.00000000000E+00  0.72235952986E+01  0.72235952986E+01  0.00000000000E+00 0.  1.
         21   -1    0    0  502  503 -0.00000000000E+00 -0.00000000000E+00 -0.54076166862E+03  0.54076166862E+03  0.00000000000E+00 0.  1.
         25    2    1    2    0    0  0.00000000000E+00  0.00000000000E+00 -0.53353807332E+03  0.54798526392E+03  0.12499989515E+03 0.  0.
          4    1    3    3  501    0 -0.21000740469E+02  0.38159083723E+02 -0.70387874289E+02  0.82788900933E+02  0.15500000000E+01 0. -1.
         -4    1    3    3    0  501  0.21000740469E+02 -0.38159083723E+02 -0.46315019903E+03  0.46519636298E+03  0.15500000000E+01 0. -1.
<mgrwt>
<rscale>  2 0.12499990E+03</rscale>
<asrwt>0</asrwt>
<pdfrwt beam="1">  1       21 0.11113222E-02 0.12499990E+03</pdfrwt>
<pdfrwt beam="2">  1       21 0.83194115E-01 0.12499990E+03</pdfrwt>
<totfact> 0.39555908E+06</totfact>
</mgrwt>
</event>
<event>
 5    0  0.1463662E+000  0.1250019E+03  0.7546771E-02  0.1235066E+00
         21   -1    0    0  503  502  0.00000000000E+00  0.00000000000E+00  0.97638287631E+02  0.97638287631E+02  0.00000000000E+00 0.  1.
         21   -1    0    0  502  503 -0.00000000000E+00 -0.00000000000E+00 -0.40008562731E+02  0.40008562731E+02  0.00000000000E+00 0.  1.
         25    2    1    2    0    0  0.00000000000E+00  0.00000000000E+00  0.57629724899E+02  0.13764685036E+03  0.12500188088E+03 0.  0.
          4    1    3    3  501    0 -0.49644384514E+02  0.15704944936E+01  0.70556366524E+02  0.86299679744E+02  0.15500000000E+01 0. -1.
         -4    1    3    3    0  501  0.49644384514E+02 -0.15704944936E+01 -0.12926641625E+02  0.51347170618E+02  0.15500000000E+01 0. -1.
<mgrwt>
<rscale>  2 0.12500188E+03</rscale>
<asrwt>0</asrwt>
<pdfrwt beam="1">  1       21 0.15021275E-01 0.12500188E+03</pdfrwt>
<pdfrwt beam="2">  1       21 0.61551635E-02 0.12500188E+03</pdfrwt>
<totfact> 0.72344401E+06</totfact>
</mgrwt>
</event>
<event>
 4    0  0.1345069E+000  0.1248448E+03  0.7546771E-02  0.1235312E+00
         21   -1    0    0  503  502  0.00000000000E+00  0.00000000000E+00  0.89048650713E+03  0.89048650713E+03  0.00000000000E+00 0. -1.
         21   -1    0    0  502  503 -0.00000000000E+00 -0.00000000000E+00 -0.43757595404E+01  0.43757595404E+01  0.00000000000E+00 0. -1.
          4    1    1    2  501    0 -0.39364502561E+02 -0.16803323525E+02  0.76855841299E+03  0.76975083788E+03  0.15500000000E+01 0. -1.
         -4    1    1    2    0  501  0.39364502561E+02  0.16803323525E+02  0.11755233459E+03  0.12511142878E+03  0.15500000000E+01 0. -1.
<mgrwt>
<rscale>  2 0.12484478E+03</rscale>
<asrwt>0</asrwt>
<pdfrwt beam="1">  1       21 0.13699778E+00 0.12484478E+03</pdfrwt>
<pdfrwt beam="2">  1       21 0.67319448E-03 0.12484478E+03</pdfrwt>
<totfact> 0.26549264E+06</totfact>
</mgrwt>
</event>
<event>
 5    0  0.1263058E+000  0.1249963E+03  0.7546771E-02  0.1235075E+00
         21   -1    0    0  503  502  0.00000000000E+00  0.00000000000E+00  0.57186400013E+01  0.57186400013E+01  0.00000000000E+00 0.  1.
         21   -1    0    0  502  503 -0.00000000000E+00 -0.00000000000E+00 -0.68303244193E+03  0.68303244193E+03  0.00000000000E+00 0.  1.
         25    2    1    2    0    0  0.00000000000E+00  0.00000000000E+00 -0.67731380192E+03  0.68875108193E+03  0.12499626626E+03 0.  0.
          4    1    3    3  501    0 -0.32588528840E+02  0.53234859652E+02 -0.35389893098E+03  0.35936446450E+03  0.15500000000E+01 0. -1.
         -4    1    3    3    0  501  0.32588528840E+02 -0.53234859652E+02 -0.32341487095E+03  0.32938661743E+03  0.15500000000E+01 0. -1.
<mgrwt>
<rscale>  2 0.12499627E+03</rscale>
<asrwt>0</asrwt>
<pdfrwt beam="1">  1       21 0.87979099E-03 0.12499627E+03</pdfrwt>
<pdfrwt beam="2">  1       21 0.10508189E+00 0.12499627E+03</pdfrwt>
<totfact> 0.33351448E+06</totfact>
</mgrwt>
</event>
<event>
 5    0  0.1570434E+000  0.1249943E+03  0.7546771E-02  0.1235078E+00
         21   -1    0    0  503  502  0.00000000000E+00  0.00000000000E+00  0.31753910079E+02  0.31753910079E+02  0.00000000000E+00 0. -1.
         21   -1    0    0  502  503 -0.00000000000E+00 -0.00000000000E+00 -0.12300518655E+03  0.12300518655E+03  0.00000000000E+00 0. -1.
         25    2    1    2    0    0  0.00000000000E+00  0.00000000000E+00 -0.91251276473E+02  0.15475909663E+03  0.12499433000E+03 0.  0.
          4    1    3    3  501    0 -0.44047288559E+02 -0.36428899531E+02 -0.14394715507E+02  0.58964724073E+02  0.15500000000E+01 0.  1.
         -4    1    3    3    0  501  0.44047288559E+02  0.36428899531E+02 -0.76856560966E+02  0.95794372559E+02  0.15500000000E+01 0.  1.
<mgrwt>
<rscale>  2 0.12499433E+03</rscale>
<asrwt>0</asrwt>
<pdfrwt beam="1">  1       21 0.48852170E-02 0.12499433E+03</pdfrwt>
<pdfrwt beam="2">  1       21 0.18923875E-01 0.12499433E+03</pdfrwt>
<totfact> 0.70175733E+06</totfact>
</mgrwt>
</event>
<event>
 5    0  0.1222151E+000  0.1249911E+03  0.7546771E-02  0.1235083E+00
         21   -1    0    0  503  502  0.00000000000E+00  0.00000000000E+00  0.77575599403E+03  0.77575599403E+03  0.00000000000E+00 0.  1.
         21   -1    0    0  502  503 -0.00000000000E+00 -0.00000000000E+00 -0.50346934008E+01  0.50346934008E+01  0.00000000000E+00 0.  1.
         25    2    1    2    0    0  0.00000000000E+00  0.00000000000E+00  0.77072130063E+03  0.78079068743E+03  0.12499109702E+03 0.  0.
          4    1    3    3  501    0 -0.37244973963E+01  0.43290827105E+02  0.66579288234E+03  0.66721101030E+03  0.15500000000E+01 0.  1.
         -4    1    3    3    0  501  0.37244973963E+01 -0.43290827105E+02  0.10492841829E+03  0.11357967713E+03  0.15500000000E+01 0.  1.
<mgrwt>
<rscale>  2 0.12499110E+03</rscale>
<asrwt>0</asrwt>
<pdfrwt beam="1">  1       21 0.11934698E+00 0.12499110E+03</pdfrwt>
<pdfrwt beam="2">  1       21 0.77456883E-03 0.12499110E+03</pdfrwt>
<totfact> 0.30015852E+06</totfact>
</mgrwt>
</event>
<event>
 5    0  0.1596172E+000  0.1249991E+03  0.7546771E-02  0.1235071E+00
         21   -1    0    0  503  502  0.00000000000E+00  0.00000000000E+00  0.39302387595E+02  0.39302387595E+02  0.00000000000E+00 0. -1.
         21   -1    0    0  502  503 -0.00000000000E+00 -0.00000000000E+00 -0.99388179759E+02  0.99388179759E+02  0.00000000000E+00 0. -1.
         25    2    1    2    0    0  0.00000000000E+00  0.00000000000E+00 -0.60085792164E+02  0.13869056735E+03  0.12499908421E+03 0.  0.
          4    1    3    3  501    0 -0.20189785773E+02  0.56638224146E+02 -0.11204535024E+02  0.61183821301E+02  0.15500000000E+01 0.  1.
         -4    1    3    3    0  501  0.20189785773E+02 -0.56638224146E+02 -0.48881257141E+02  0.77506746052E+02  0.15500000000E+01 0.  1.
<mgrwt>
<rscale>  2 0.12499908E+03</rscale>
<asrwt>0</asrwt>
<pdfrwt beam="1">  1       21 0.60465212E-02 0.12499908E+03</pdfrwt>
<pdfrwt beam="2">  1       21 0.15290489E-01 0.12499908E+03</pdfrwt>
<totfact> 0.72212401E+06</totfact>
</mgrwt>
</event>
<event>
 5    0  0.1535187E+000  0.1249995E+03  0.7546771E-02  0.1235070E+00
         21   -1    0    0  503  502  0.00000000000E+00  0.00000000000E+00  0.23335324582E+02  0.23335324582E+02  0.00000000000E+00 0.  1.
         21   -1    0    0  502  503 -0.00000000000E+00 -0.00000000000E+00 -0.16739503933E+03  0.16739503933E+03  0.00000000000E+00 0.  1.
         25    2    1    2    0    0  0.00000000000E+00  0.00000000000E+00 -0.14405971474E+03  0.19073036391E+03  0.12499948122E+03 0.  0.
          4    1    3    3  501    0 -0.41193188698E+02  0.27572550562E+02 -0.13993589426E+02  0.51530062921E+02  0.15500000000E+01 0. -1.
         -4    1    3    3    0  501  0.41193188698E+02 -0.27572550562E+02 -0.13006612532E+03  0.13920030099E+03  0.15500000000E+01 0. -1.
<mgrwt>
<rscale>  2 0.12499948E+03</rscale>
<asrwt>0</asrwt>
<pdfrwt beam="1">  1       21 0.35900500E-02 0.12499948E+03</pdfrwt>
<pdfrwt beam="2">  1       21 0.25753083E-01 0.12499948E+03</pdfrwt>
<totfact> 0.65942250E+06</totfact>
</mgrwt>
</event>
<event>
 5    0  0.1222151E+000  0.1250059E+03  0.7546771E-02  0.1235060E+00
         21   -1    0    0  503  502  0.00000000000E+00  0.00000000000E+00  0.31019173594E+01  0.31019173594E+01  0.00000000000E+00 0.  1.
         21   -1    0    0  502  503 -0.00000000000E+00 -0.00000000000E+00 -0.12594207733E+04  0.12594207733E+04  0.00000000000E+00 0.  1.
         25    2    1    2    0    0  0.00000000000E+00  0.00000000000E+00 -0.12563188560E+04  0.12625226907E+04  0.12500590641E+03 0.  0.
          4    1    3    3  501    0 -0.40912564850E+02  0.67152096926E+01 -0.15602826510E+03  0.16145015953E+03  0.15500000000E+01 0.  1.
         -4    1    3    3    0  501  0.40912564850E+02 -0.67152096926E+01 -0.11002905909E+04  0.11010725312E+04  0.15500000000E+01 0.  1.
<mgrwt>
<rscale>  2 0.12500591E+03</rscale>
<asrwt>0</asrwt>
<pdfrwt beam="1">  1       21 0.47721828E-03 0.12500591E+03</pdfrwt>
<pdfrwt beam="2">  1       21 0.19375695E+00 0.12500591E+03</pdfrwt>
<totfact> 0.17936334E+06</totfact>
</mgrwt>
</event>
<event>
 5    0  0.1571413E+000  0.1250036E+03  0.7546771E-02  0.1235064E+00
         21   -1    0    0  503  502  0.00000000000E+00  0.00000000000E+00  0.78847380355E+02  0.78847380355E+02  0.00000000000E+00 0. -1.
         21   -1    0    0  502  503 -0.00000000000E+00 -0.00000000000E+00 -0.49544743959E+02  0.49544743959E+02  0.00000000000E+00 0. -1.
         25    2    1    2    0    0  0.00000000000E+00  0.00000000000E+00  0.29302636396E+02  0.12839212431E+03  0.12500357229E+03 0.  0.
          4    1    3    3  501    0 -0.14875179350E+02  0.50905138531E+02 -0.19281599348E+02  0.56451631181E+02  0.15500000000E+01 0.  1.
         -4    1    3    3    0  501  0.14875179350E+02 -0.50905138531E+02  0.48584235744E+02  0.71940493134E+02  0.15500000000E+01 0.  1.
<mgrwt>
<rscale>  2 0.12500357E+03</rscale>
<asrwt>0</asrwt>
<pdfrwt beam="1">  1       21 0.12130366E-01 0.12500357E+03</pdfrwt>
<pdfrwt beam="2">  1       21 0.76222683E-02 0.12500357E+03</pdfrwt>
<totfact> 0.73573944E+06</totfact>
</mgrwt>
</event>
<event>
 5    0  0.1485550E+000  0.1250051E+03  0.7546771E-02  0.1235061E+00
         21   -1    0    0  503  502  0.00000000000E+00  0.00000000000E+00  0.15183561979E+03  0.15183561979E+03  0.00000000000E+00 0.  1.
         21   -1    0    0  502  503 -0.00000000000E+00 -0.00000000000E+00 -0.25728919078E+02  0.25728919078E+02  0.00000000000E+00 0.  1.
         25    2    1    2    0    0  0.00000000000E+00  0.00000000000E+00  0.12610670071E+03  0.17756453887E+03  0.12500506189E+03 0.  0.
          4    1    3    3  501    0 -0.42638274089E+01 -0.54031420307E+02  0.10721544084E+03  0.12014627693E+03  0.15500000000E+01 0. -1.
         -4    1    3    3    0  501  0.42638274089E+01  0.54031420307E+02  0.18891259864E+02  0.57418261936E+02  0.15500000000E+01 0. -1.
<mgrwt>
<rscale>  2 0.12500506E+03</rscale>
<asrwt>0</asrwt>
<pdfrwt beam="1">  1       21 0.23359326E-01 0.12500506E+03</pdfrwt>
<pdfrwt beam="2">  1       21 0.39582953E-02 0.12500506E+03</pdfrwt>
<totfact> 0.67423370E+06</totfact>
</mgrwt>
</event>
<event>
 5    0  0.1222151E+000  0.1250184E+03  0.7546771E-02  0.1235040E+00
         21   -1    0    0  503  502  0.00000000000E+00  0.00000000000E+00  0.65429647877E+03  0.65429647877E+03  0.00000000000E+00 0. -1.
         21   -1    0    0  502  503 -0.00000000000E+00 -0.00000000000E+00 -0.59719127739E+01  0.59719127739E+01  0.00000000000E+00 0. -1.
         25    2    1    2    0    0  0.00000000000E+00  0.00000000000E+00  0.64832456599E+03  0.66026839154E+03  0.12501842263E+03 0.  0.
          4    1    3    3  501    0  0.50440621892E+01 -0.20498090432E+02  0.13530475466E+02  0.25121515501E+02  0.15500000000E+01 0. -1.
         -4    1    3    3    0  501 -0.50440621892E+01  0.20498090432E+02  0.63479409053E+03  0.63514687604E+03  0.15500000000E+01 0. -1.
<mgrwt>
<rscale>  2 0.12501842E+03</rscale>
<asrwt>0</asrwt>
<pdfrwt beam="1">  1       21 0.10066094E+00 0.12501842E+03</pdfrwt>
<pdfrwt beam="2">  1       21 0.91875633E-03 0.12501842E+03</pdfrwt>
<totfact> 0.34483035E+06</totfact>
</mgrwt>
</event>
<event>
 5    0  0.1543301E+000  0.1249984E+03  0.7546771E-02  0.1235072E+00
         21   -1    0    0  503  502  0.00000000000E+00  0.00000000000E+00  0.23723128467E+03  0.23723128467E+03  0.00000000000E+00 0. -1.
         21   -1    0    0  502  503 -0.00000000000E+00 -0.00000000000E+00 -0.16465587873E+02  0.16465587873E+02  0.00000000000E+00 0. -1.
         25    2    1    2    0    0  0.00000000000E+00  0.00000000000E+00  0.22076569680E+03  0.25369687255E+03  0.12499844101E+03 0.  0.
          4    1    3    3  501    0  0.43286883810E+02 -0.26504320477E+02  0.18433154468E+03  0.19119820652E+03  0.15500000000E+01 0.  1.
         -4    1    3    3    0  501 -0.43286883810E+02  0.26504320477E+02  0.36434152123E+02  0.62498666024E+02  0.15500000000E+01 0.  1.
<mgrwt>
<rscale>  2 0.12499844E+03</rscale>
<asrwt>0</asrwt>
<pdfrwt beam="1">  1       21 0.36497118E-01 0.12499844E+03</pdfrwt>
<pdfrwt beam="2">  1       21 0.25331675E-02 0.12499844E+03</pdfrwt>
<totfact> 0.59534210E+06</totfact>
</mgrwt>
</event>
<event>
 5    0  0.1314119E+000  0.1249954E+03  0.7546771E-02  0.1235076E+00
         21   -1    0    0  503  502  0.00000000000E+00  0.00000000000E+00  0.56192603010E+03  0.56192603010E+03  0.00000000000E+00 0.  1.
         21   -1    0    0  502  503 -0.00000000000E+00 -0.00000000000E+00 -0.69510266019E+01  0.69510266019E+01  0.00000000000E+00 0.  1.
         25    2    1    2    0    0  0.00000000000E+00  0.00000000000E+00  0.55497500350E+03  0.56887705670E+03  0.12499540445E+03 0.  0.
          4    1    3    3  501    0 -0.23655965004E+02 -0.46886566576E+02  0.12344452113E+03  0.13416000560E+03  0.15500000000E+01 0.  1.
         -4    1    3    3    0  501  0.23655965004E+02  0.46886566576E+02  0.43153048237E+03  0.43471705110E+03  0.15500000000E+01 0.  1.
<mgrwt>
<rscale>  2 0.12499540E+03</rscale>
<asrwt>0</asrwt>
<pdfrwt beam="1">  1       21 0.86450122E-01 0.12499540E+03</pdfrwt>
<pdfrwt beam="2">  1       21 0.10693892E-02 0.12499540E+03</pdfrwt>
<totfact> 0.38543460E+06</totfact>
</mgrwt>
</event>
<event>
 5    0  0.1468401E+000  0.1250038E+03  0.7546771E-02  0.1235063E+00
         21   -1    0    0  503  502  0.00000000000E+00  0.00000000000E+00  0.31273660807E+03  0.31273660807E+03  0.00000000000E+00 0.  1.
         21   -1    0    0  502  503 -0.00000000000E+00 -0.00000000000E+00 -0.12491299424E+02  0.12491299424E+02  0.00000000000E+00 0.  1.
         25    2    1    2    0    0  0.00000000000E+00  0.00000000000E+00  0.30024530865E+03  0.32522790749E+03  0.12500378574E+03 0.  0.
          4    1    3    3  501    0  0.14590780285E+02  0.57105557490E+02  0.20408289388E+03  0.21242920147E+03  0.15500000000E+01 0. -1.
         -4    1    3    3    0  501 -0.14590780285E+02 -0.57105557490E+02  0.96162414770E+02  0.11279870602E+03  0.15500000000E+01 0. -1.
<mgrwt>
<rscale>  2 0.12500379E+03</rscale>
<asrwt>0</asrwt>
<pdfrwt beam="1">  1       21 0.48113318E-01 0.12500379E+03</pdfrwt>
<pdfrwt beam="2">  1       21 0.19217386E-02 0.12500379E+03</pdfrwt>
<totfact> 0.53416571E+06</totfact>
</mgrwt>
</event>
<event>
 5    0  0.1222151E+000  0.1250054E+03  0.7546771E-02  0.1235061E+00
         21   -1    0    0  503  502  0.00000000000E+00  0.00000000000E+00  0.49547687345E+01  0.49547687345E+01  0.00000000000E+00 0.  1.
         21   -1    0    0  502  503 -0.00000000000E+00 -0.00000000000E+00 -0.78844950917E+03  0.78844950917E+03  0.00000000000E+00 0.  1.
         25    2    1    2    0    0  0.00000000000E+00  0.00000000000E+00 -0.78349474043E+03  0.79340427790E+03  0.12500535951E+03 0.  0.
          4    1    3    3  501    0 -0.19023320452E+02  0.18115990717E+02 -0.75157627343E+03  0.75203681633E+03  0.15500000000E+01 0. -1.
         -4    1    3    3    0  501  0.19023320452E+02 -0.18115990717E+02 -0.31918467005E+02  0.41367461568E+02  0.15500000000E+01 0. -1.
<mgrwt>
<rscale>  2 0.12500536E+03</rscale>
<asrwt>0</asrwt>
<pdfrwt beam="1">  1       21 0.76227191E-03 0.12500536E+03</pdfrwt>
<pdfrwt beam="2">  1       21 0.12129996E+00 0.12500536E+03</pdfrwt>
<totfact> 0.29578586E+06</totfact>
</mgrwt>
</event>
<event>
 5    0  0.1524805E+000  0.1249992E+03  0.7546771E-02  0.1235071E+00
         21   -1    0    0  503  502  0.00000000000E+00  0.00000000000E+00  0.48591108449E+02  0.48591108449E+02  0.00000000000E+00 0. -1.
         21   -1    0    0  502  503 -0.00000000000E+00 -0.00000000000E+00 -0.80389208442E+02  0.80389208442E+02  0.00000000000E+00 0. -1.
         25    2    1    2    0    0  0.00000000000E+00  0.00000000000E+00 -0.31798099993E+02  0.12898031689E+03  0.12499921193E+03 0.  0.
          4    1    3    3  501    0  0.83697362896E+01  0.27589553351E+02  0.41297062784E+02  0.50389342467E+02  0.15500000000E+01 0.  1.
         -4    1    3    3    0  501 -0.83697362896E+01 -0.27589553351E+02 -0.73095162776E+02  0.78590974424E+02  0.15500000000E+01 0.  1.
<mgrwt>
<rscale>  2 0.12499921E+03</rscale>
<asrwt>0</asrwt>
<pdfrwt beam="1">  1       21 0.74755552E-02 0.12499921E+03</pdfrwt>
<pdfrwt beam="2">  1       21 0.12367570E-01 0.12499921E+03</pdfrwt>
<totfact> 0.73503003E+06</totfact>
</mgrwt>
</event>
<event>
 5    0  0.1602120E+000  0.1250173E+03  0.7546771E-02  0.1235042E+00
         21   -1    0    0  503  502  0.00000000000E+00  0.00000000000E+00  0.50383190767E+02  0.50383190767E+02  0.00000000000E+00 0. -1.
         21   -1    0    0  502  503 -0.00000000000E+00 -0.00000000000E+00 -0.77552338757E+02  0.77552338757E+02  0.00000000000E+00 0. -1.
         25    2    1    2    0    0  0.00000000000E+00  0.00000000000E+00 -0.27169147989E+02  0.12793552952E+03  0.12501734724E+03 0.  0.
          4    1    3    3  501    0 -0.43823041482E+02  0.30047529703E+02  0.20071077330E+02  0.56820450994E+02  0.15500000000E+01 0.  1.
         -4    1    3    3    0  501  0.43823041482E+02 -0.30047529703E+02 -0.47240225320E+02  0.71115078530E+02  0.15500000000E+01 0.  1.
<mgrwt>
<rscale>  2 0.12501735E+03</rscale>
<asrwt>0</asrwt>
<pdfrwt beam="1">  1       21 0.77512602E-02 0.12501735E+03</pdfrwt>
<pdfrwt beam="2">  1       21 0.11931129E-01 0.12501735E+03</pdfrwt>
<totfact> 0.73609665E+06</totfact>
</mgrwt>
</event>
<event>
 5    0  0.1404299E+000  0.1249674E+03  0.7546771E-02  0.1235120E+00
         21   -1    0    0  503  502  0.00000000000E+00  0.00000000000E+00  0.41347640093E+03  0.41347640093E+03  0.00000000000E+00 0.  1.
         21   -1    0    0  502  503 -0.00000000000E+00 -0.00000000000E+00 -0.94424116742E+01  0.94424116742E+01  0.00000000000E+00 0.  1.
         25    2    1    2    0    0  0.00000000000E+00  0.00000000000E+00  0.40403398925E+03  0.42291881260E+03  0.12496742608E+03 0.  0.
          4    1    3    3  501    0 -0.61082710425E+02 -0.13055875395E+02  0.20029635311E+03  0.20981559752E+03  0.15500000000E+01 0.  1.
         -4    1    3    3    0  501  0.61082710425E+02  0.13055875395E+02  0.20373763615E+03  0.21310321508E+03  0.15500000000E+01 0.  1.
<mgrwt>
<rscale>  2 0.12496743E+03</rscale>
<asrwt>0</asrwt>
<pdfrwt beam="1">  1       21 0.63611740E-01 0.12496743E+03</pdfrwt>
<pdfrwt beam="2">  1       21 0.14526790E-02 0.12496743E+03</pdfrwt>
<totfact> 0.46595314E+06</totfact>
</mgrwt>
</event>
<event>
 5    0  0.1425966E+000  0.1249764E+03  0.7546771E-02  0.1235106E+00
         21   -1    0    0  503  502  0.00000000000E+00  0.00000000000E+00  0.31214799037E+03  0.31214799037E+03  0.00000000000E+00 0.  1.
         21   -1    0    0  502  503 -0.00000000000E+00 -0.00000000000E+00 -0.12509380469E+02  0.12509380469E+02  0.00000000000E+00 0.  1.
         25    2    1    2    0    0  0.00000000000E+00  0.00000000000E+00  0.29963860991E+03  0.32465737084E+03  0.12497644537E+03 0.  0.
          4    1    3    3  501    0  0.43658047731E+02  0.29590674742E+02  0.23678540268E+03  0.24259299780E+03  0.15500000000E+01 0. -1.
         -4    1    3    3    0  501 -0.43658047731E+02 -0.29590674742E+02  0.62853207229E+02  0.82064373039E+02  0.15500000000E+01 0. -1.
<mgrwt>
<rscale>  2 0.12497645E+03</rscale>
<asrwt>0</asrwt>
<pdfrwt beam="1">  1       21 0.48022762E-01 0.12497645E+03</pdfrwt>
<pdfrwt beam="2">  1       21 0.19245203E-02 0.12497645E+03</pdfrwt>
<totfact> 0.53497925E+06</totfact>
</mgrwt>
</event>
<event>
 5    0  0.1387629E+000  0.1249945E+03  0.7546771E-02  0.1235078E+00
         21   -1    0    0  503  502  0.00000000000E+00  0.00000000000E+00  0.48343585819E+03  0.48343585819E+03  0.00000000000E+00 0. -1.
         21   -1    0    0  502  503 -0.00000000000E+00 -0.00000000000E+00 -0.80794762894E+01  0.80794762894E+01  0.00000000000E+00 0. -1.
         25    2    1    2    0    0  0.00000000000E+00  0.00000000000E+00  0.47535638190E+03  0.49151533448E+03  0.12499453674E+03 0.  0.
          4    1    3    3  501    0 -0.60418659108E+02  0.13988503435E+02  0.20788253925E+03  0.21694157099E+03  0.15500000000E+01 0. -1.
         -4    1    3    3    0  501  0.60418659108E+02 -0.13988503435E+02  0.26747384264E+03  0.27457376349E+03  0.15500000000E+01 0. -1.
<mgrwt>
<rscale>  2 0.12499454E+03</rscale>
<asrwt>0</asrwt>
<pdfrwt beam="1">  1       21 0.74374725E-01 0.12499454E+03</pdfrwt>
<pdfrwt beam="2">  1       21 0.12429967E-02 0.12499454E+03</pdfrwt>
<totfact> 0.42513775E+06</totfact>
</mgrwt>
</event>
<event>
 5    0  0.1511893E+000  0.1250034E+03  0.7546771E-02  0.1235064E+00
         21   -1    0    0  503  502  0.00000000000E+00  0.00000000000E+00  0.11529655162E+03  0.11529655162E+03  0.00000000000E+00 0.  1.
         21   -1    0    0  502  503 -0.00000000000E+00 -0.00000000000E+00 -0.33881893581E+02  0.33881893581E+02  0.00000000000E+00 0.  1.
         25    2    1    2    0    0  0.00000000000E+00  0.00000000000E+00  0.81414658042E+02  0.14917844520E+03  0.12500344783E+03 0.  0.
          4    1    3    3  501    0 -0.60012344758E+02 -0.80070321148E+01  0.22278405656E+02  0.64531573243E+02  0.15500000000E+01 0. -1.
         -4    1    3    3    0  501  0.60012344758E+02  0.80070321148E+01  0.59136252386E+02  0.84646871961E+02  0.15500000000E+01 0. -1.
<mgrwt>
<rscale>  2 0.12500345E+03</rscale>
<asrwt>0</asrwt>
<pdfrwt beam="1">  1       21 0.17737931E-01 0.12500345E+03</pdfrwt>
<pdfrwt beam="2">  1       21 0.52125990E-02 0.12500345E+03</pdfrwt>
<totfact> 0.70856337E+06</totfact>
</mgrwt>
</event>
<event>
 5    0  0.1527692E+000  0.1249947E+03  0.7546771E-02  0.1235078E+00
         21   -1    0    0  503  502  0.00000000000E+00  0.00000000000E+00  0.75483102055E+02  0.75483102055E+02  0.00000000000E+00 0.  1.
         21   -1    0    0  502  503 -0.00000000000E+00 -0.00000000000E+00 -0.51745583450E+02  0.51745583450E+02  0.00000000000E+00 0.  1.
         25    2    1    2    0    0  0.00000000000E+00  0.00000000000E+00  0.23737518605E+02  0.12722868551E+03  0.12499467439E+03 0.  0.
          4    1    3    3  501    0  0.56596546921E+02  0.28050588484E+01  0.38654043771E+02  0.68611770698E+02  0.15500000000E+01 0.  1.
         -4    1    3    3    0  501 -0.56596546921E+02 -0.28050588484E+01 -0.14916525166E+02  0.58616914807E+02  0.15500000000E+01 0.  1.
<mgrwt>
<rscale>  2 0.12499467E+03</rscale>
<asrwt>0</asrwt>
<pdfrwt beam="1">  1       21 0.11612785E-01 0.12499467E+03</pdfrwt>
<pdfrwt beam="2">  1       21 0.79608590E-02 0.12499467E+03</pdfrwt>
<totfact> 0.73748062E+06</totfact>
</mgrwt>
</event>
<event>
 5    0  0.1629016E+000  0.1250016E+03  0.7546771E-02  0.1235067E+00
         21   -1    0    0  503  502  0.00000000000E+00  0.00000000000E+00  0.73631506046E+02  0.73631506046E+02  0.00000000000E+00 0.  1.
         21   -1    0    0  502  503 -0.00000000000E+00 -0.00000000000E+00 -0.53052656053E+02  0.53052656053E+02  0.00000000000E+00 0.  1.
         25    2    1    2    0    0  0.00000000000E+00  0.00000000000E+00  0.20578849994E+02  0.12668416210E+03  0.12500155143E+03 0.  0.
          4    1    3    3  501    0  0.73099774338E+01  0.61001617551E+02  0.21814008651E+02  0.65214159408E+02  0.15500000000E+01 0. -1.
         -4    1    3    3    0  501 -0.73099774338E+01 -0.61001617551E+02 -0.12351586576E+01  0.61470002691E+02  0.15500000000E+01 0. -1.
<mgrwt>
<rscale>  2 0.12500155E+03</rscale>
<asrwt>0</asrwt>
<pdfrwt beam="1">  1       21 0.11327924E-01 0.12500155E+03</pdfrwt>
<pdfrwt beam="2">  1       21 0.81619471E-02 0.12500155E+03</pdfrwt>
<totfact> 0.73809275E+06</totfact>
</mgrwt>
</event>
<event>
 5    0  0.1498763E+000  0.1249820E+03  0.7546771E-02  0.1235097E+00
         21   -1    0    0  503  502  0.00000000000E+00  0.00000000000E+00  0.18619338294E+03  0.18619338294E+03  0.00000000000E+00 0. -1.
         21   -1    0    0  502  503 -0.00000000000E+00 -0.00000000000E+00 -0.20973482475E+02  0.20973482475E+02  0.00000000000E+00 0. -1.
         25    2    1    2    0    0  0.00000000000E+00  0.00000000000E+00  0.16521990047E+03  0.20716686541E+03  0.12498197716E+03 0.  0.
          4    1    3    3  501    0 -0.34699805583E+00 -0.45971304164E+02  0.15272434607E+03  0.15950112726E+03  0.15500000000E+01 0.  1.
         -4    1    3    3    0  501  0.34699805583E+00  0.45971304164E+02  0.12495554394E+02  0.47665738155E+02  0.15500000000E+01 0.  1.
<mgrwt>
<rscale>  2 0.12498198E+03</rscale>
<asrwt>0</asrwt>
<pdfrwt beam="1">  1       21 0.28645135E-01 0.12498198E+03</pdfrwt>
<pdfrwt beam="2">  1       21 0.32266897E-02 0.12498198E+03</pdfrwt>
<totfact> 0.64188117E+06</totfact>
</mgrwt>
</event>
<event>
 5    0  0.1383490E+000  0.1249933E+03  0.7546771E-02  0.1235080E+00
         21   -1    0    0  503  502  0.00000000000E+00  0.00000000000E+00  0.20027200691E+02  0.20027200691E+02  0.00000000000E+00 0. -1.
         21   -1    0    0  502  503 -0.00000000000E+00 -0.00000000000E+00 -0.19502632524E+03  0.19502632524E+03  0.00000000000E+00 0. -1.
         25    2    1    2    0    0  0.00000000000E+00  0.00000000000E+00 -0.17499912455E+03  0.21505352593E+03  0.12499330151E+03 0.  0.
          4    1    3    3  501    0 -0.20574730234E+02  0.26948911103E+02 -0.17778780332E+03  0.18099853271E+03  0.15500000000E+01 0. -1.
         -4    1    3    3    0  501  0.20574730234E+02 -0.26948911103E+02  0.27886787729E+01  0.34054993219E+02  0.15500000000E+01 0. -1.
<mgrwt>
<rscale>  2 0.12499330E+03</rscale>
<asrwt>0</asrwt>
<pdfrwt beam="1">  1       21 0.30811077E-02 0.12499330E+03</pdfrwt>
<pdfrwt beam="2">  1       21 0.30004051E-01 0.12499330E+03</pdfrwt>
<totfact> 0.63342465E+06</totfact>
</mgrwt>
</event>
<event>
 5    0  0.1527407E+000  0.1249925E+03  0.7546771E-02  0.1235081E+00
         21   -1    0    0  503  502  0.00000000000E+00  0.00000000000E+00  0.11975716040E+03  0.11975716040E+03  0.00000000000E+00 0. -1.
         21   -1    0    0  502  503 -0.00000000000E+00 -0.00000000000E+00 -0.32614186129E+02  0.32614186129E+02  0.00000000000E+00 0. -1.
         25    2    1    2    0    0  0.00000000000E+00  0.00000000000E+00  0.87142974275E+02  0.15237134653E+03  0.12499251689E+03 0.  0.
          4    1    3    3  501    0  0.25460152516E+02 -0.55667192259E+02  0.28329824542E+02  0.67468786255E+02  0.15500000000E+01 0.  1.
         -4    1    3    3    0  501 -0.25460152516E+02  0.55667192259E+02  0.58813149733E+02  0.84902560278E+02  0.15500000000E+01 0.  1.
<mgrwt>
<rscale>  2 0.12499252E+03</rscale>
<asrwt>0</asrwt>
<pdfrwt beam="1">  1       21 0.18424178E-01 0.12499252E+03</pdfrwt>
<pdfrwt beam="2">  1       21 0.50175672E-02 0.12499252E+03</pdfrwt>
<totfact> 0.70475993E+06</totfact>
</mgrwt>
</event>
<event>
 5    0  0.1255001E+000  0.1250040E+03  0.7546771E-02  0.1235063E+00
         21   -1    0    0  503  502  0.00000000000E+00  0.00000000000E+00  0.68556697357E+03  0.68556697357E+03  0.00000000000E+00 0. -1.
         21   -1    0    0  502  503 -0.00000000000E+00 -0.00000000000E+00 -0.56981990075E+01  0.56981990075E+01  0.00000000000E+00 0. -1.
         25    2    1    2    0    0  0.00000000000E+00  0.00000000000E+00  0.67986877457E+03  0.69126517258E+03  0.12500395271E+03 0.  0.
          4    1    3    3  501    0  0.57956101455E+02  0.20240278978E+00  0.46904932901E+03  0.47261890166E+03  0.15500000000E+01 0. -1.
         -4    1    3    3    0  501 -0.57956101455E+02 -0.20240278978E+00  0.21081944556E+03  0.21864627093E+03  0.15500000000E+01 0. -1.
<mgrwt>
<rscale>  2 0.12500395E+03</rscale>
<asrwt>0</asrwt>
<pdfrwt beam="1">  1       21 0.10547178E+00 0.12500395E+03</pdfrwt>
<pdfrwt beam="2">  1       21 0.87664654E-03 0.12500395E+03</pdfrwt>
<totfact> 0.33246384E+06</totfact>
</mgrwt>
</event>
<event>
 5    0  0.1662837E+000  0.1250038E+03  0.7546771E-02  0.1235063E+00
         21   -1    0    0  503  502  0.00000000000E+00  0.00000000000E+00  0.43609279513E+02  0.43609279513E+02  0.00000000000E+00 0.  1.
         21   -1    0    0  502  503 -0.00000000000E+00 -0.00000000000E+00 -0.89579226980E+02  0.89579226980E+02  0.00000000000E+00 0.  1.
         25    2    1    2    0    0  0.00000000000E+00  0.00000000000E+00 -0.45969947467E+02  0.13318850649E+03  0.12500376871E+03 0.  0.
          4    1    3    3  501    0 -0.53255767848E+02 -0.31675425093E+02 -0.14423048632E+02  0.63639109011E+02  0.15500000000E+01 0.  1.
         -4    1    3    3    0  501  0.53255767848E+02  0.31675425093E+02 -0.31546898835E+02  0.69549397481E+02  0.15500000000E+01 0.  1.
<mgrwt>
<rscale>  2 0.12500377E+03</rscale>
<asrwt>0</asrwt>
<pdfrwt beam="1">  1       21 0.67091200E-02 0.12500377E+03</pdfrwt>
<pdfrwt beam="2">  1       21 0.13781419E-01 0.12500377E+03</pdfrwt>
<totfact> 0.72930225E+06</totfact>
</mgrwt>
</event>
<event>
 5    0  0.1360640E+000  0.1250002E+03  0.7546771E-02  0.1235069E+00
         21   -1    0    0  503  502  0.00000000000E+00  0.00000000000E+00  0.22019725740E+03  0.22019725740E+03  0.00000000000E+00 0. -1.
         21   -1    0    0  502  503 -0.00000000000E+00 -0.00000000000E+00 -0.17739826329E+02  0.17739826329E+02  0.00000000000E+00 0. -1.
         25    2    1    2    0    0  0.00000000000E+00  0.00000000000E+00  0.20245743107E+03  0.23793708373E+03  0.12500017767E+03 0.  0.
          4    1    3    3  501    0  0.26171365173E+02 -0.27968234664E+01  0.20909312018E+03  0.21074889794E+03  0.15500000000E+01 0.  1.
         -4    1    3    3    0  501 -0.26171365173E+02  0.27968234664E+01 -0.66356891083E+01  0.27188185789E+02  0.15500000000E+01 0.  1.
<mgrwt>
<rscale>  2 0.12500018E+03</rscale>
<asrwt>0</asrwt>
<pdfrwt beam="1">  1       21 0.33876499E-01 0.12500018E+03</pdfrwt>
<pdfrwt beam="2">  1       21 0.27292042E-02 0.12500018E+03</pdfrwt>
<totfact> 0.61032587E+06</totfact>
</mgrwt>
</event>
<event>
 5    0  0.1532502E+000  0.1249977E+03  0.7546771E-02  0.1235073E+00
         21   -1    0    0  503  502  0.00000000000E+00  0.00000000000E+00  0.38894179472E+02  0.38894179472E+02  0.00000000000E+00 0.  1.
         21   -1    0    0  502  503 -0.00000000000E+00 -0.00000000000E+00 -0.10042906532E+03  0.10042906532E+03  0.00000000000E+00 0.  1.
         25    2    1    2    0    0  0.00000000000E+00  0.00000000000E+00 -0.61534885851E+02  0.13932324479E+03  0.12499769743E+03 0.  0.
          4    1    3    3  501    0 -0.28362690125E+02  0.47052943735E+02  0.23962096225E+01  0.55014234756E+02  0.15500000000E+01 0.  1.
         -4    1    3    3    0  501  0.28362690125E+02 -0.47052943735E+02 -0.63931095473E+02  0.84309010038E+02  0.15500000000E+01 0.  1.
<mgrwt>
<rscale>  2 0.12499770E+03</rscale>
<asrwt>0</asrwt>
<pdfrwt beam="1">  1       21 0.59837200E-02 0.12499770E+03</pdfrwt>
<pdfrwt beam="2">  1       21 0.15450625E-01 0.12499770E+03</pdfrwt>
<totfact> 0.72132012E+06</totfact>
</mgrwt>
</event>
<event>
 5    0  0.1495725E+000  0.1250054E+03  0.7546771E-02  0.1235061E+00
         21   -1    0    0  503  502  0.00000000000E+00  0.00000000000E+00  0.25163403638E+02  0.25163403638E+02  0.00000000000E+00 0. -1.
         21   -1    0    0  502  503 -0.00000000000E+00 -0.00000000000E+00 -0.15524885016E+03  0.15524885016E+03  0.00000000000E+00 0. -1.
         25    2    1    2    0    0  0.00000000000E+00  0.00000000000E+00 -0.13008544652E+03  0.18041225379E+03  0.12500543157E+03 0.  0.
          4    1    3    3  501    0 -0.31876357786E+02  0.53408347273E+02 -0.56427534764E+02  0.83994183868E+02  0.15500000000E+01 0. -1.
         -4    1    3    3    0  501  0.31876357786E+02 -0.53408347273E+02 -0.73657911753E+02  0.96418069925E+02  0.15500000000E+01 0. -1.
<mgrwt>
<rscale>  2 0.12500543E+03</rscale>
<asrwt>0</asrwt>
<pdfrwt beam="1">  1       21 0.38712929E-02 0.12500543E+03</pdfrwt>
<pdfrwt beam="2">  1       21 0.23884438E-01 0.12500543E+03</pdfrwt>
<totfact> 0.67095032E+06</totfact>
</mgrwt>
</event>
<event>
 5    0  0.1498337E+000  0.1250021E+03  0.7546771E-02  0.1235066E+00
         21   -1    0    0  503  502  0.00000000000E+00  0.00000000000E+00  0.10621185398E+03  0.10621185398E+03  0.00000000000E+00 0.  1.
         21   -1    0    0  502  503 -0.00000000000E+00 -0.00000000000E+00 -0.36779163935E+02  0.36779163935E+02  0.00000000000E+00 0.  1.
         25    2    1    2    0    0  0.00000000000E+00  0.00000000000E+00  0.69432690049E+02  0.14299101792E+03  0.12500213101E+03 0.  0.
          4    1    3    3  501    0  0.37190552120E+02  0.40035006470E+01 -0.22534145546E+02  0.43696171456E+02  0.15500000000E+01 0. -1.
         -4    1    3    3    0  501 -0.37190552120E+02 -0.40035006470E+01  0.91966835596E+02  0.99294846462E+02  0.15500000000E+01 0. -1.
<mgrwt>
<rscale>  2 0.12500213E+03</rscale>
<asrwt>0</asrwt>
<pdfrwt beam="1">  1       21 0.16340285E-01 0.12500213E+03</pdfrwt>
<pdfrwt beam="2">  1       21 0.56583329E-02 0.12500213E+03</pdfrwt>
<totfact> 0.71647313E+06</totfact>
</mgrwt>
</event>
<event>
 5    0  0.1222151E+000  0.1250026E+03  0.7546771E-02  0.1235065E+00
         21   -1    0    0  503  502  0.00000000000E+00  0.00000000000E+00  0.10848918941E+04  0.10848918941E+04  0.00000000000E+00 0. -1.
         21   -1    0    0  502  503 -0.00000000000E+00 -0.00000000000E+00 -0.36007394143E+01  0.36007394143E+01  0.00000000000E+00 0. -1.
         25    2    1    2    0    0  0.00000000000E+00  0.00000000000E+00  0.10812911547E+04  0.10884926335E+04  0.12500260803E+03 0.  0.
          4    1    3    3  501    0 -0.31813033328E+02 -0.12958254862E+02  0.99512263877E+03  0.99571655311E+03  0.15500000000E+01 0.  1.
         -4    1    3    3    0  501  0.31813033328E+02  0.12958254862E+02  0.86168515901E+02  0.92776080383E+02  0.15500000000E+01 0.  1.
<mgrwt>
<rscale>  2 0.12500261E+03</rscale>
<asrwt>0</asrwt>
<pdfrwt beam="1">  1       21 0.16690618E+00 0.12500261E+03</pdfrwt>
<pdfrwt beam="2">  1       21 0.55396078E-03 0.12500261E+03</pdfrwt>
<totfact> 0.21507806E+06</totfact>
</mgrwt>
</event>
<event>
 5    0  0.1222151E+000  0.1249987E+03  0.7546771E-02  0.1235071E+00
         21   -1    0    0  503  502  0.00000000000E+00  0.00000000000E+00  0.39114210927E+01  0.39114210927E+01  0.00000000000E+00 0. -1.
         21   -1    0    0  502  503 -0.00000000000E+00 -0.00000000000E+00 -0.99865639055E+03  0.99865639055E+03  0.00000000000E+00 0. -1.
         25    2    1    2    0    0  0.00000000000E+00  0.00000000000E+00 -0.99474496946E+03  0.10025678116E+04  0.12499865072E+03 0.  0.
          4    1    3    3  501    0 -0.87023034392E+01  0.26811056997E+02 -0.50140574621E+02  0.57541659568E+02  0.15500000000E+01 0.  1.
         -4    1    3    3    0  501  0.87023034392E+01 -0.26811056997E+02 -0.94460439484E+03  0.94502615208E+03  0.15500000000E+01 0.  1.
<mgrwt>
<rscale>  2 0.12499865E+03</rscale>
<asrwt>0</asrwt>
<pdfrwt beam="1">  1       21 0.60175617E-03 0.12499865E+03</pdfrwt>
<pdfrwt beam="2">  1       21 0.15363968E+00 0.12499865E+03</pdfrwt>
<totfact> 0.23555415E+06</totfact>
</mgrwt>
</event>
<event>
 5    0  0.1222151E+000  0.1249906E+03  0.7546771E-02  0.1235084E+00
         21   -1    0    0  503  502  0.00000000000E+00  0.00000000000E+00  0.16190342464E+04  0.16190342464E+04  0.00000000000E+00 0. -1.
         21   -1    0    0  502  503 -0.00000000000E+00 -0.00000000000E+00 -0.24123406048E+01  0.24123406048E+01  0.00000000000E+00 0. -1.
         25    2    1    2    0    0  0.00000000000E+00  0.00000000000E+00  0.16166219058E+04  0.16214465870E+04  0.12499059250E+03 0.  0.
          4    1    3    3  501    0 -0.17708165371E+02  0.38160286096E+02  0.20911496686E+03  0.21331023984E+03  0.15500000000E+01 0. -1.
         -4    1    3    3    0  501  0.17708165371E+02 -0.38160286096E+02  0.14075069389E+04  0.14081363471E+04  0.15500000000E+01 0. -1.
<mgrwt>
<rscale>  2 0.12499059E+03</rscale>
<asrwt>0</asrwt>
<pdfrwt beam="1">  1       21 0.24908132E+00 0.12499059E+03</pdfrwt>
<pdfrwt beam="2">  1       21 0.37113062E-03 0.12499059E+03</pdfrwt>
<totfact> 0.12287747E+06</totfact>
</mgrwt>
</event>
<event>
 5    0  0.1294969E+000  0.1249608E+03  0.7546771E-02  0.1235131E+00
         21   -1    0    0  503  502  0.00000000000E+00  0.00000000000E+00  0.40167624009E+03  0.40167624009E+03  0.00000000000E+00 0.  1.
         21   -1    0    0  502  503 -0.00000000000E+00 -0.00000000000E+00 -0.97187693218E+01  0.97187693218E+01  0.00000000000E+00 0.  1.
         25    2    1    2    0    0  0.00000000000E+00  0.00000000000E+00  0.39195747077E+03  0.41139500941E+03  0.12496077336E+03 0.  0.
          4    1    3    3  501    0 -0.39868170456E+02  0.14884929547E+02  0.34649945341E+03  0.34910643915E+03  0.15500000000E+01 0.  1.
         -4    1    3    3    0  501  0.39868170456E+02 -0.14884929547E+02  0.45458017360E+02  0.62288570263E+02  0.15500000000E+01 0.  1.
<mgrwt>
<rscale>  2 0.12496077E+03</rscale>
<asrwt>0</asrwt>
<pdfrwt beam="1">  1       21 0.61796332E-01 0.12496077E+03</pdfrwt>
<pdfrwt beam="2">  1       21 0.14951956E-02 0.12496077E+03</pdfrwt>
<totfact> 0.47340986E+06</totfact>
</mgrwt>
</event>
<event>
 5    0  0.1465386E+000  0.1250034E+03  0.7546771E-02  0.1235064E+00
         21   -1    0    0  503  502  0.00000000000E+00  0.00000000000E+00  0.51058192947E+02  0.51058192947E+02  0.00000000000E+00 0.  1.
         21   -1    0    0  502  503 -0.00000000000E+00 -0.00000000000E+00 -0.76509982583E+02  0.76509982583E+02  0.00000000000E+00 0.  1.
         25    2    1    2    0    0  0.00000000000E+00  0.00000000000E+00 -0.25451789635E+02  0.12756817553E+03  0.12500338320E+03 0.  0.
          4    1    3    3  501    0 -0.19180802357E+01 -0.33748554087E+02  0.40901465243E+02  0.53084614473E+02  0.15500000000E+01 0.  1.
         -4    1    3    3    0  501  0.19180802357E+01  0.33748554087E+02 -0.66353254878E+02  0.74483561057E+02  0.15500000000E+01 0.  1.
<mgrwt>
<rscale>  2 0.12500338E+03</rscale>
<asrwt>0</asrwt>
<pdfrwt beam="1">  1       21 0.78551066E-02 0.12500338E+03</pdfrwt>
<pdfrwt beam="2">  1       21 0.11770767E-01 0.12500338E+03</pdfrwt>
<totfact> 0.73685614E+06</totfact>
</mgrwt>
</event>
<event>
 5    0  0.1222151E+000  0.1250248E+03  0.7546771E-02  0.1235031E+00
         21   -1    0    0  503  502  0.00000000000E+00  0.00000000000E+00  0.50183344418E+03  0.50183344418E+03  0.00000000000E+00 0.  1.
         21   -1    0    0  502  503 -0.00000000000E+00 -0.00000000000E+00 -0.77870426878E+01  0.77870426878E+01  0.00000000000E+00 0.  1.
         25    2    1    2    0    0  0.00000000000E+00  0.00000000000E+00  0.49404640150E+03  0.50962048687E+03  0.12502477278E+03 0.  0.
          4    1    3    3  501    0  0.20025927739E+02 -0.29618513846E+02  0.45594764526E+03  0.45734992277E+03  0.15500000000E+01 0. -1.
         -4    1    3    3    0  501 -0.20025927739E+02  0.29618513846E+02  0.38098756237E+02  0.52270564097E+02  0.15500000000E+01 0. -1.
<mgrwt>
<rscale>  2 0.12502477E+03</rscale>
<asrwt>0</asrwt>
<pdfrwt beam="1">  1       21 0.77205120E-01 0.12502477E+03</pdfrwt>
<pdfrwt beam="2">  1       21 0.11980070E-02 0.12502477E+03</pdfrwt>
<totfact> 0.41501501E+06</totfact>
</mgrwt>
</event>
<event>
 5    0  0.1222151E+000  0.1250035E+03  0.7546771E-02  0.1235064E+00
         21   -1    0    0  503  502  0.00000000000E+00  0.00000000000E+00  0.48575968304E+01  0.48575968304E+01  0.00000000000E+00 0. -1.
         21   -1    0    0  502  503 -0.00000000000E+00 -0.00000000000E+00 -0.80419743072E+03  0.80419743072E+03  0.00000000000E+00 0. -1.
         25    2    1    2    0    0  0.00000000000E+00  0.00000000000E+00 -0.79933983389E+03  0.80905502755E+03  0.12500347020E+03 0.  0.
          4    1    3    3  501    0 -0.21642607031E+01  0.22314002069E+02 -0.22194183198E+02  0.31584537048E+02  0.15500000000E+01 0.  1.
         -4    1    3    3    0  501  0.21642607031E+01 -0.22314002069E+02 -0.77714565069E+03  0.77747049050E+03  0.15500000000E+01 0.  1.
<mgrwt>
<rscale>  2 0.12500347E+03</rscale>
<asrwt>0</asrwt>
<pdfrwt beam="1">  1       21 0.74732248E-03 0.12500347E+03</pdfrwt>
<pdfrwt beam="2">  1       21 0.12372270E+00 0.12500347E+03</pdfrwt>
<totfact> 0.29062485E+06</totfact>
</mgrwt>
</event>
<event>
 5    0  0.1222151E+000  0.1249997E+03  0.7546771E-02  0.1235070E+00
         21   -1    0    0  503  502  0.00000000000E+00  0.00000000000E+00  0.96412941206E+03  0.96412941206E+03  0.00000000000E+00 0. -1.
         21   -1    0    0  502  503 -0.00000000000E+00 -0.00000000000E+00 -0.40515615133E+01  0.40515615133E+01  0.00000000000E+00 0. -1.
         25    2    1    2    0    0  0.00000000000E+00  0.00000000000E+00  0.96007785054E+03  0.96818097357E+03  0.12499967392E+03 0.  0.
          4    1    3    3  501    0  0.32430642636E+01  0.44352926216E+02  0.14010838090E+03  0.14700496736E+03  0.15500000000E+01 0. -1.
         -4    1    3    3    0  501 -0.32430642636E+01 -0.44352926216E+02  0.81996946964E+03  0.82117600621E+03  0.15500000000E+01 0. -1.
<mgrwt>
<rscale>  2 0.12499967E+03</rscale>
<asrwt>0</asrwt>
<pdfrwt beam="1">  1       21 0.14832742E+00 0.12499967E+03</pdfrwt>
<pdfrwt beam="2">  1       21 0.62331792E-03 0.12499967E+03</pdfrwt>
<totfact> 0.24431099E+06</totfact>
</mgrwt>
</event>
<event>
 5    0  0.1510198E+000  0.1250020E+03  0.7546771E-02  0.1235066E+00
         21   -1    0    0  503  502  0.00000000000E+00  0.00000000000E+00  0.19479027540E+03  0.19479027540E+03  0.00000000000E+00 0.  1.
         21   -1    0    0  502  503 -0.00000000000E+00 -0.00000000000E+00 -0.20054259849E+02  0.20054259849E+02  0.00000000000E+00 0.  1.
         25    2    1    2    0    0  0.00000000000E+00  0.00000000000E+00  0.17473601555E+03  0.21484453525E+03  0.12500199677E+03 0.  0.
          4    1    3    3  501    0 -0.80680800844E+01 -0.61270256115E+02  0.71537582397E+02  0.94547164928E+02  0.15500000000E+01 0.  1.
         -4    1    3    3    0  501  0.80680800844E+01  0.61270256115E+02  0.10319843316E+03  0.12029737032E+03  0.15500000000E+01 0.  1.
<mgrwt>
<rscale>  2 0.12500200E+03</rscale>
<asrwt>0</asrwt>
<pdfrwt beam="1">  1       21 0.29967733E-01 0.12500200E+03</pdfrwt>
<pdfrwt beam="2">  1       21 0.30852709E-02 0.12500200E+03</pdfrwt>
<totfact> 0.63350214E+06</totfact>
</mgrwt>
</event>
<event>
 5    0  0.1510748E+000  0.1249996E+03  0.7546771E-02  0.1235070E+00
         21   -1    0    0  503  502  0.00000000000E+00  0.00000000000E+00  0.21523050713E+03  0.21523050713E+03  0.00000000000E+00 0. -1.
         21   -1    0    0  502  503 -0.00000000000E+00 -0.00000000000E+00 -0.18149034174E+02  0.18149034174E+02  0.00000000000E+00 0. -1.
         25    2    1    2    0    0  0.00000000000E+00  0.00000000000E+00  0.19708147296E+03  0.23337954131E+03  0.12499961327E+03 0.  0.
          4    1    3    3  501    0  0.41082795456E+02 -0.35761672044E+02  0.15569571250E+03  0.16495529897E+03  0.15500000000E+01 0. -1.
         -4    1    3    3    0  501 -0.41082795456E+02  0.35761672044E+02  0.41385760463E+02  0.68424242334E+02  0.15500000000E+01 0. -1.
<mgrwt>
<rscale>  2 0.12499961E+03</rscale>
<asrwt>0</asrwt>
<pdfrwt beam="1">  1       21 0.33112384E-01 0.12499961E+03</pdfrwt>
<pdfrwt beam="2">  1       21 0.27921593E-02 0.12499961E+03</pdfrwt>
<totfact> 0.61479856E+06</totfact>
</mgrwt>
</event>
<event>
 5    0  0.1514086E+000  0.1250194E+03  0.7546771E-02  0.1235039E+00
         21   -1    0    0  503  502  0.00000000000E+00  0.00000000000E+00  0.42313711764E+02  0.42313711764E+02  0.00000000000E+00 0. -1.
         21   -1    0    0  502  503 -0.00000000000E+00 -0.00000000000E+00 -0.92345051760E+02  0.92345051760E+02  0.00000000000E+00 0. -1.
         25    2    1    2    0    0  0.00000000000E+00  0.00000000000E+00 -0.50031339996E+02  0.13465876352E+03  0.12501938894E+03 0.  0.
          4    1    3    3  501    0  0.27758502320E+02 -0.27548195135E+02  0.27482710988E+02  0.47824046352E+02  0.15500000000E+01 0. -1.
         -4    1    3    3    0  501 -0.27758502320E+02  0.27548195135E+02 -0.77514050985E+02  0.86834717172E+02  0.15500000000E+01 0. -1.
<mgrwt>
<rscale>  2 0.12501939E+03</rscale>
<asrwt>0</asrwt>
<pdfrwt beam="1">  1       21 0.65098018E-02 0.12501939E+03</pdfrwt>
<pdfrwt beam="2">  1       21 0.14206931E-01 0.12501939E+03</pdfrwt>
<totfact> 0.72705723E+06</totfact>
</mgrwt>
</event>
<event>
 5    0  0.1428380E+000  0.1250078E+03  0.7546771E-02  0.1235057E+00
         21   -1    0    0  503  502  0.00000000000E+00  0.00000000000E+00  0.41728907742E+02  0.41728907742E+02  0.00000000000E+00 0.  1.
         21   -1    0    0  502  503 -0.00000000000E+00 -0.00000000000E+00 -0.93621869668E+02  0.93621869668E+02  0.00000000000E+00 0.  1.
         25    2    1    2    0    0  0.00000000000E+00  0.00000000000E+00 -0.51892961925E+02  0.13535077741E+03  0.12500781355E+03 0.  0.
          4    1    3    3  501    0  0.16187176951E+02  0.40204865963E+02 -0.74680299852E+02  0.86359745430E+02  0.15500000000E+01 0.  1.
         -4    1    3    3    0  501 -0.16187176951E+02 -0.40204865963E+02  0.22787337927E+02  0.48991031980E+02  0.15500000000E+01 0.  1.
<mgrwt>
<rscale>  2 0.12500781E+03</rscale>
<asrwt>0</asrwt>
<pdfrwt beam="1">  1       21 0.64198320E-02 0.12500781E+03</pdfrwt>
<pdfrwt beam="2">  1       21 0.14403364E-01 0.12500781E+03</pdfrwt>
<totfact> 0.72635584E+06</totfact>
</mgrwt>
</event>
<event>
 5    0  0.1420440E+000  0.1249938E+03  0.7546771E-02  0.1235079E+00
         21   -1    0    0  503  502  0.00000000000E+00  0.00000000000E+00  0.40532268469E+03  0.40532268469E+03  0.00000000000E+00 0. -1.
         21   -1    0    0  502  503 -0.00000000000E+00 -0.00000000000E+00 -0.96364330464E+01  0.96364330464E+01  0.00000000000E+00 0. -1.
         25    2    1    2    0    0  0.00000000000E+00  0.00000000000E+00  0.39568625164E+03  0.41495911773E+03  0.12499383846E+03 0.  0.
          4    1    3    3  501    0 -0.52504181867E+02  0.26448699306E+02  0.26805116340E+03  0.27442676893E+03  0.15500000000E+01 0.  1.
         -4    1    3    3    0  501  0.52504181867E+02 -0.26448699306E+02  0.12763508824E+03  0.14053234880E+03  0.15500000000E+01 0.  1.
<mgrwt>
<rscale>  2 0.12499384E+03</rscale>
<asrwt>0</asrwt>
<pdfrwt beam="1">  1       21 0.62357323E-01 0.12499384E+03</pdfrwt>
<pdfrwt beam="2">  1       21 0.14825285E-02 0.12499384E+03</pdfrwt>
<totfact> 0.47071953E+06</totfact>
</mgrwt>
</event>
<event>
 5    0  0.1222151E+000  0.1250105E+03  0.7546771E-02  0.1235053E+00
         21   -1    0    0  503  502  0.00000000000E+00  0.00000000000E+00  0.30252650973E+04  0.30252650973E+04  0.00000000000E+00 0.  1.
         21   -1    0    0  502  503 -0.00000000000E+00 -0.00000000000E+00 -0.12914256764E+01  0.12914256764E+01  0.00000000000E+00 0.  1.
         25    2    1    2    0    0  0.00000000000E+00  0.00000000000E+00  0.30239736716E+04  0.30265565230E+04  0.12501047995E+03 0.  0.
          4    1    3    3  501    0  0.35273698710E+02 -0.48394579145E+02  0.19438789306E+04  0.19448017813E+04  0.15500000000E+01 0. -1.
         -4    1    3    3    0  501 -0.35273698710E+02  0.48394579145E+02  0.10800947410E+04  0.10817547417E+04  0.15500000000E+01 0. -1.
<mgrwt>
<rscale>  2 0.12501048E+03</rscale>
<asrwt>0</asrwt>
<pdfrwt beam="1">  1       21 0.46541973E+00 0.12501048E+03</pdfrwt>
<pdfrwt beam="2">  1       21 0.19868329E-03 0.12501048E+03</pdfrwt>
<totfact> 0.16525082E+05</totfact>
</mgrwt>
</event>
<event>
 5    0  0.1371708E+000  0.1250034E+03  0.7546771E-02  0.1235064E+00
         21   -1    0    0  503  502  0.00000000000E+00  0.00000000000E+00  0.11499957880E+02  0.11499957880E+02  0.00000000000E+00 0. -1.
         21   -1    0    0  502  503 -0.00000000000E+00 -0.00000000000E+00 -0.33969345861E+03  0.33969345861E+03  0.00000000000E+00 0. -1.
         25    2    1    2    0    0  0.00000000000E+00  0.00000000000E+00 -0.32819350073E+03  0.35119341649E+03  0.12500336741E+03 0.  0.
          4    1    3    3  501    0 -0.19835291928E+02 -0.42116002045E+02 -0.28118336568E+03  0.28501523480E+03  0.15500000000E+01 0. -1.
         -4    1    3    3    0  501  0.19835291928E+02  0.42116002045E+02 -0.47010135048E+02  0.66178181686E+02  0.15500000000E+01 0. -1.
<mgrwt>
<rscale>  2 0.12500337E+03</rscale>
<asrwt>0</asrwt>
<pdfrwt beam="1">  1       21 0.17692247E-02 0.12500337E+03</pdfrwt>
<pdfrwt beam="2">  1       21 0.52260519E-01 0.12500337E+03</pdfrwt>
<totfact> 0.51446081E+06</totfact>
</mgrwt>
</event>
<event>
 5    0  0.1513934E+000  0.1249962E+03  0.7546771E-02  0.1235075E+00
         21   -1    0    0  503  502  0.00000000000E+00  0.00000000000E+00  0.31596501433E+02  0.31596501433E+02  0.00000000000E+00 0. -1.
         21   -1    0    0  502  503 -0.00000000000E+00 -0.00000000000E+00 -0.12362176361E+03  0.12362176361E+03  0.00000000000E+00 0. -1.
         25    2    1    2    0    0  0.00000000000E+00  0.00000000000E+00 -0.92025262181E+02  0.15521826505E+03  0.12499624364E+03 0.  0.
          4    1    3    3  501    0  0.32965706686E+02  0.37485030466E+02 -0.92670442345E+02  0.10527145250E+03  0.15500000000E+01 0. -1.
         -4    1    3    3    0  501 -0.32965706686E+02 -0.37485030466E+02  0.64518016476E+00  0.49946812549E+02  0.15500000000E+01 0. -1.
<mgrwt>
<rscale>  2 0.12499624E+03</rscale>
<asrwt>0</asrwt>
<pdfrwt beam="1">  1       21 0.48610002E-02 0.12499624E+03</pdfrwt>
<pdfrwt beam="2">  1       21 0.19018733E-01 0.12499624E+03</pdfrwt>
<totfact> 0.70115241E+06</totfact>
</mgrwt>
</event>
<event>
 5    0  0.1222151E+000  0.1250006E+03  0.7546771E-02  0.1235068E+00
         21   -1    0    0  503  502  0.00000000000E+00  0.00000000000E+00  0.45377598880E+01  0.45377598880E+01  0.00000000000E+00 0.  1.
         21   -1    0    0  502  503 -0.00000000000E+00 -0.00000000000E+00 -0.86084110732E+03  0.86084110732E+03  0.00000000000E+00 0.  1.
         25    2    1    2    0    0  0.00000000000E+00  0.00000000000E+00 -0.85630334743E+03  0.86537886721E+03  0.12500064395E+03 0.  0.
          4    1    3    3  501    0 -0.13115696161E+02  0.54401449158E+02 -0.23575360237E+03  0.24230910566E+03  0.15500000000E+01 0.  1.
         -4    1    3    3    0  501  0.13115696161E+02 -0.54401449158E+02 -0.62054974507E+03  0.62306976155E+03  0.15500000000E+01 0.  1.
<mgrwt>
<rscale>  2 0.12500064E+03</rscale>
<asrwt>0</asrwt>
<pdfrwt beam="1">  1       21 0.69811732E-03 0.12500064E+03</pdfrwt>
<pdfrwt beam="2">  1       21 0.13243701E+00 0.12500064E+03</pdfrwt>
<totfact> 0.27307186E+06</totfact>
</mgrwt>
</event>
<event>
 5    0  0.1486758E+000  0.1249937E+03  0.7546771E-02  0.1235079E+00
         21   -1    0    0  503  502  0.00000000000E+00  0.00000000000E+00  0.20592267665E+02  0.20592267665E+02  0.00000000000E+00 0. -1.
         21   -1    0    0  502  503 -0.00000000000E+00 -0.00000000000E+00 -0.18967582072E+03  0.18967582072E+03  0.00000000000E+00 0. -1.
         25    2    1    2    0    0  0.00000000000E+00  0.00000000000E+00 -0.16908355305E+03  0.21026808838E+03  0.12499368416E+03 0.  0.
          4    1    3    3  501    0  0.20824044199E+02  0.27326830899E+02  0.32418674889E+01  0.34544300668E+02  0.15500000000E+01 0.  1.
         -4    1    3    3    0  501 -0.20824044199E+02 -0.27326830899E+02 -0.17232542054E+03  0.17572378772E+03  0.15500000000E+01 0.  1.
<mgrwt>
<rscale>  2 0.12499368E+03</rscale>
<asrwt>0</asrwt>
<pdfrwt beam="1">  1       21 0.31680411E-02 0.12499368E+03</pdfrwt>
<pdfrwt beam="2">  1       21 0.29180896E-01 0.12499368E+03</pdfrwt>
<totfact> 0.63841538E+06</totfact>
</mgrwt>
</event>
<event>
 5    0  0.1495848E+000  0.1249835E+03  0.7546771E-02  0.1235095E+00
         21   -1    0    0  503  502  0.00000000000E+00  0.00000000000E+00  0.33196469722E+02  0.33196469722E+02  0.00000000000E+00 0.  1.
         21   -1    0    0  502  503 -0.00000000000E+00 -0.00000000000E+00 -0.11763966652E+03  0.11763966652E+03  0.00000000000E+00 0.  1.
         25    2    1    2    0    0  0.00000000000E+00  0.00000000000E+00 -0.84443196800E+02  0.15083613624E+03  0.12498354496E+03 0.  0.
          4    1    3    3  501    0 -0.46327515535E+02 -0.22238199517E+02  0.65196904624E+00  0.51415987562E+02  0.15500000000E+01 0.  1.
         -4    1    3    3    0  501  0.46327515535E+02  0.22238199517E+02 -0.85095165847E+02  0.99420148681E+02  0.15500000000E+01 0.  1.
<mgrwt>
<rscale>  2 0.12498354E+03</rscale>
<asrwt>0</asrwt>
<pdfrwt beam="1">  1       21 0.51071492E-02 0.12498354E+03</pdfrwt>
<pdfrwt beam="2">  1       21 0.18098410E-01 0.12498354E+03</pdfrwt>
<totfact> 0.70683925E+06</totfact>
</mgrwt>
</event>
<event>
 5    0  0.1222151E+000  0.1250002E+03  0.7546771E-02  0.1235069E+00
         21   -1    0    0  503  502  0.00000000000E+00  0.00000000000E+00  0.32942309357E+01  0.32942309357E+01  0.00000000000E+00 0. -1.
         21   -1    0    0  502  503 -0.00000000000E+00 -0.00000000000E+00 -0.11857883929E+04  0.11857883929E+04  0.00000000000E+00 0. -1.
         25    2    1    2    0    0  0.00000000000E+00  0.00000000000E+00 -0.11824941620E+04  0.11890826239E+04  0.12500017291E+03 0.  0.
          4    1    3    3  501    0  0.23053774878E+02  0.42222346969E+02 -0.97052091756E+03  0.97171367030E+03  0.15500000000E+01 0.  1.
         -4    1    3    3    0  501 -0.23053774878E+02 -0.42222346969E+02 -0.21197324443E+03  0.21736895357E+03  0.15500000000E+01 0.  1.
<mgrwt>
<rscale>  2 0.12500017E+03</rscale>
<asrwt>0</asrwt>
<pdfrwt beam="1">  1       21 0.50680395E-03 0.12500017E+03</pdfrwt>
<pdfrwt beam="2">  1       21 0.18242927E+00 0.12500017E+03</pdfrwt>
<totfact> 0.19362179E+06</totfact>
</mgrwt>
</event>
<event>
 5    0  0.1222151E+000  0.1249875E+03  0.7546771E-02  0.1235089E+00
         21   -1    0    0  503  502  0.00000000000E+00  0.00000000000E+00  0.95196836406E+03  0.95196836406E+03  0.00000000000E+00 0. -1.
         21   -1    0    0  502  503 -0.00000000000E+00 -0.00000000000E+00 -0.41025191675E+01  0.41025191675E+01  0.00000000000E+00 0. -1.
         25    2    1    2    0    0  0.00000000000E+00  0.00000000000E+00  0.94786584489E+03  0.95607088323E+03  0.12498749474E+03 0.  0.
          4    1    3    3  501    0 -0.53918157766E+02  0.39585206501E+01  0.71342279661E+03  0.71547000415E+03  0.15500000000E+01 0. -1.
         -4    1    3    3    0  501  0.53918157766E+02 -0.39585206501E+01  0.23444304829E+03  0.24060087908E+03  0.15500000000E+01 0. -1.
<mgrwt>
<rscale>  2 0.12498749E+03</rscale>
<asrwt>0</asrwt>
<pdfrwt beam="1">  1       21 0.14645650E+00 0.12498749E+03</pdfrwt>
<pdfrwt beam="2">  1       21 0.63115755E-03 0.12498749E+03</pdfrwt>
<totfact> 0.24757255E+06</totfact>
</mgrwt>
</event>
<event>
 5    0  0.1222151E+000  0.1249970E+03  0.7546771E-02  0.1235074E+00
         21   -1    0    0  503  502  0.00000000000E+00  0.00000000000E+00  0.20217026008E+04  0.20217026008E+04  0.00000000000E+00 0.  1.
         21   -1    0    0  502  503 -0.00000000000E+00 -0.00000000000E+00 -0.19320646677E+01  0.19320646677E+01  0.00000000000E+00 0.  1.
         25    2    1    2    0    0  0.00000000000E+00  0.00000000000E+00  0.20197705361E+04  0.20236346655E+04  0.12499696258E+03 0.  0.
          4    1    3    3  501    0 -0.17289245599E+02 -0.59521850352E+02  0.11372471055E+04  0.11389359728E+04  0.15500000000E+01 0.  1.
         -4    1    3    3    0  501  0.17289245599E+02  0.59521850352E+02  0.88252343067E+03  0.88469869269E+03  0.15500000000E+01 0.  1.
<mgrwt>
<rscale>  2 0.12499696E+03</rscale>
<asrwt>0</asrwt>
<pdfrwt beam="1">  1       21 0.31102948E+00 0.12499696E+03</pdfrwt>
<pdfrwt beam="2">  1       21 0.29724234E-03 0.12499696E+03</pdfrwt>
<totfact> 0.77204507E+05</totfact>
</mgrwt>
</event>
<event>
 5    0  0.1431909E+000  0.1249918E+03  0.7546771E-02  0.1235082E+00
         21   -1    0    0  503  502  0.00000000000E+00  0.00000000000E+00  0.13616310347E+03  0.13616310347E+03  0.00000000000E+00 0.  1.
         21   -1    0    0  502  503 -0.00000000000E+00 -0.00000000000E+00 -0.28684255122E+02  0.28684255122E+02  0.00000000000E+00 0.  1.
         25    2    1    2    0    0  0.00000000000E+00  0.00000000000E+00  0.10747884834E+03  0.16484735859E+03  0.12499179490E+03 0.  0.
          4    1    3    3  501    0 -0.46054393165E+02 -0.12983887185E+02  0.10672017515E+03  0.11696660524E+03  0.15500000000E+01 0.  1.
         -4    1    3    3    0  501  0.46054393165E+02  0.12983887185E+02  0.75867319061E+00  0.47880753349E+02  0.15500000000E+01 0.  1.
<mgrwt>
<rscale>  2 0.12499179E+03</rscale>
<asrwt>0</asrwt>
<pdfrwt beam="1">  1       21 0.20948169E-01 0.12499179E+03</pdfrwt>
<pdfrwt beam="2">  1       21 0.44129624E-02 0.12499179E+03</pdfrwt>
<totfact> 0.68946374E+06</totfact>
</mgrwt>
</event>
<event>
 5    0  0.1568163E+000  0.1249960E+03  0.7546771E-02  0.1235075E+00
         21   -1    0    0  503  502  0.00000000000E+00  0.00000000000E+00  0.55241645041E+02  0.55241645041E+02  0.00000000000E+00 0.  1.
         21   -1    0    0  502  503 -0.00000000000E+00 -0.00000000000E+00 -0.70707554871E+02  0.70707554871E+02  0.00000000000E+00 0.  1.
         25    2    1    2    0    0  0.00000000000E+00  0.00000000000E+00 -0.15465909830E+02  0.12594919991E+03  0.12499602630E+03 0.  0.
          4    1    3    3  501    0  0.27000123482E+02 -0.56248124198E+02 -0.11035293866E+02  0.63380110086E+02  0.15500000000E+01 0.  1.
         -4    1    3    3    0  501 -0.27000123482E+02  0.56248124198E+02 -0.44306159643E+01  0.62569089826E+02  0.15500000000E+01 0.  1.
<mgrwt>
<rscale>  2 0.12499603E+03</rscale>
<asrwt>0</asrwt>
<pdfrwt beam="1">  1       21 0.84987146E-02 0.12499603E+03</pdfrwt>
<pdfrwt beam="2">  1       21 0.10878085E-01 0.12499603E+03</pdfrwt>
<totfact> 0.73920539E+06</totfact>
</mgrwt>
</event>
<event>
 5    0  0.1348733E+000  0.1250044E+03  0.7546771E-02  0.1235062E+00
         21   -1    0    0  503  502  0.00000000000E+00  0.00000000000E+00  0.40271351561E+03  0.40271351561E+03  0.00000000000E+00 0.  1.
         21   -1    0    0  502  503 -0.00000000000E+00 -0.00000000000E+00 -0.97005073978E+01  0.97005073978E+01  0.00000000000E+00 0.  1.
         25    2    1    2    0    0  0.00000000000E+00  0.00000000000E+00  0.39301300821E+03  0.41241402300E+03  0.12500440692E+03 0.  0.
          4    1    3    3  501    0 -0.45268558834E+02 -0.42901408691E+02  0.20900416584E+03  0.21811675114E+03  0.15500000000E+01 0.  1.
         -4    1    3    3    0  501  0.45268558834E+02  0.42901408691E+02  0.18400884237E+03  0.19429727187E+03  0.15500000000E+01 0.  1.
<mgrwt>
<rscale>  2 0.12500441E+03</rscale>
<asrwt>0</asrwt>
<pdfrwt beam="1">  1       21 0.61955913E-01 0.12500441E+03</pdfrwt>
<pdfrwt beam="2">  1       21 0.14923861E-02 0.12500441E+03</pdfrwt>
<totfact> 0.47223503E+06</totfact>
</mgrwt>
</event>
<event>
 5    0  0.1222151E+000  0.1250421E+03  0.7546771E-02  0.1235004E+00
         21   -1    0    0  503  502  0.00000000000E+00  0.00000000000E+00  0.99149115914E+01  0.99149115914E+01  0.00000000000E+00 0.  1.
         21   -1    0    0  502  503 -0.00000000000E+00 -0.00000000000E+00 -0.39424269721E+03  0.39424269721E+03  0.00000000000E+00 0.  1.
         25    2    1    2    0    0  0.00000000000E+00  0.00000000000E+00 -0.38432778562E+03  0.40415760880E+03  0.12504209673E+03 0.  0.
          4    1    3    3  501    0 -0.12398094957E+01 -0.23139393034E+02 -0.45444208238E+01  0.23664802940E+02  0.15500000000E+01 0.  1.
         -4    1    3    3    0  501  0.12398094957E+01  0.23139393034E+02 -0.37978336480E+03  0.38049280586E+03  0.15500000000E+01 0.  1.
<mgrwt>
<rscale>  2 0.12504210E+03</rscale>
<asrwt>0</asrwt>
<pdfrwt beam="1">  1       21 0.15253711E-02 0.12504210E+03</pdfrwt>
<pdfrwt beam="2">  1       21 0.60652720E-01 0.12504210E+03</pdfrwt>
<totfact> 0.47716584E+06</totfact>
</mgrwt>
</event>
<event>
 5    0  0.1222151E+000  0.1249933E+03  0.7546771E-02  0.1235080E+00
         21   -1    0    0  503  502  0.00000000000E+00  0.00000000000E+00  0.10109505652E+02  0.10109505652E+02  0.00000000000E+00 0.  1.
         21   -1    0    0  502  503 -0.00000000000E+00 -0.00000000000E+00 -0.38635238350E+03  0.38635238350E+03  0.00000000000E+00 0.  1.
         25    2    1    2    0    0  0.00000000000E+00  0.00000000000E+00 -0.37624287785E+03  0.39646188915E+03  0.12499330549E+03 0.  0.
          4    1    3    3  501    0  0.17629244544E+02  0.17031766171E+02 -0.37040181050E+03  0.37121526780E+03  0.15500000000E+01 0.  1.
         -4    1    3    3    0  501 -0.17629244544E+02 -0.17031766171E+02 -0.58410673461E+01  0.25246621355E+02  0.15500000000E+01 0.  1.
<mgrwt>
<rscale>  2 0.12499331E+03</rscale>
<asrwt>0</asrwt>
<pdfrwt beam="1">  1       21 0.15553081E-02 0.12499331E+03</pdfrwt>
<pdfrwt beam="2">  1       21 0.59438844E-01 0.12499331E+03</pdfrwt>
<totfact> 0.48284991E+06</totfact>
</mgrwt>
</event>
<event>
 5    0  0.1250774E+000  0.1250050E+03  0.7546771E-02  0.1235061E+00
         21   -1    0    0  503  502  0.00000000000E+00  0.00000000000E+00  0.65960255787E+03  0.65960255787E+03  0.00000000000E+00 0.  1.
         21   -1    0    0  502  503 -0.00000000000E+00 -0.00000000000E+00 -0.59225991993E+01  0.59225991993E+01  0.00000000000E+00 0.  1.
         25    2    1    2    0    0  0.00000000000E+00  0.00000000000E+00  0.65367995867E+03  0.66552515706E+03  0.12500498520E+03 0.  0.
          4    1    3    3  501    0  0.53243445244E+02 -0.29719555339E+02  0.25422212674E+03  0.26143719830E+03  0.15500000000E+01 0. -1.
         -4    1    3    3    0  501 -0.53243445244E+02  0.29719555339E+02  0.39945783193E+03  0.40408795876E+03  0.15500000000E+01 0. -1.
<mgrwt>
<rscale>  2 0.12500499E+03</rscale>
<asrwt>0</asrwt>
<pdfrwt beam="1">  1       21 0.10147726E+00 0.12500499E+03</pdfrwt>
<pdfrwt beam="2">  1       21 0.91116963E-03 0.12500499E+03</pdfrwt>
<totfact> 0.34277820E+06</totfact>
</mgrwt>
</event>
<event>
 5    0  0.1394150E+000  0.1250039E+03  0.7546771E-02  0.1235063E+00
         21   -1    0    0  503  502  0.00000000000E+00  0.00000000000E+00  0.25705028748E+03  0.25705028748E+03  0.00000000000E+00 0.  1.
         21   -1    0    0  502  503 -0.00000000000E+00 -0.00000000000E+00 -0.15197382623E+02  0.15197382623E+02  0.00000000000E+00 0.  1.
         25    2    1    2    0    0  0.00000000000E+00  0.00000000000E+00  0.24185290486E+03  0.27224767011E+03  0.12500386510E+03 0.  0.
          4    1    3    3  501    0 -0.20265842038E+02  0.29013998535E+02  0.23307470012E+03  0.23575142588E+03  0.15500000000E+01 0. -1.
         -4    1    3    3    0  501  0.20265842038E+02 -0.29013998535E+02  0.87782047357E+01  0.36496244230E+02  0.15500000000E+01 0. -1.
<mgrwt>
<rscale>  2 0.12500387E+03</rscale>
<asrwt>0</asrwt>
<pdfrwt beam="1">  1       21 0.39546195E-01 0.12500387E+03</pdfrwt>
<pdfrwt beam="2">  1       21 0.23380591E-02 0.12500387E+03</pdfrwt>
<totfact> 0.57838718E+06</totfact>
</mgrwt>
</event>
<event>
 5    0  0.1503856E+000  0.1250014E+03  0.7546771E-02  0.1235067E+00
         21   -1    0    0  503  502  0.00000000000E+00  0.00000000000E+00  0.12349903416E+03  0.12349903416E+03  0.00000000000E+00 0.  1.
         21   -1    0    0  502  503 -0.00000000000E+00 -0.00000000000E+00 -0.31630509830E+02  0.31630509830E+02  0.00000000000E+00 0.  1.
         25    2    1    2    0    0  0.00000000000E+00  0.00000000000E+00  0.91868524328E+02  0.15512954399E+03  0.12500139861E+03 0.  0.
          4    1    3    3  501    0  0.18863084558E+01 -0.44169627627E+02  0.10072819030E+03  0.11001402176E+03  0.15500000000E+01 0.  1.
         -4    1    3    3    0  501 -0.18863084558E+01  0.44169627627E+02 -0.88596659697E+01  0.45115522222E+02  0.15500000000E+01 0.  1.
<mgrwt>
<rscale>  2 0.12500140E+03</rscale>
<asrwt>0</asrwt>
<pdfrwt beam="1">  1       21 0.18999851E-01 0.12500140E+03</pdfrwt>
<pdfrwt beam="2">  1       21 0.48662324E-02 0.12500140E+03</pdfrwt>
<totfact> 0.70117068E+06</totfact>
</mgrwt>
</event>
<event>
 5    0  0.1435154E+000  0.1250009E+03  0.7546771E-02  0.1235068E+00
         21   -1    0    0  503  502  0.00000000000E+00  0.00000000000E+00  0.31603347124E+03  0.31603347124E+03  0.00000000000E+00 0. -1.
         21   -1    0    0  502  503 -0.00000000000E+00 -0.00000000000E+00 -0.12360423049E+02  0.12360423049E+02  0.00000000000E+00 0. -1.
         25    2    1    2    0    0  0.00000000000E+00  0.00000000000E+00  0.30367304819E+03  0.32839389429E+03  0.12500091843E+03 0.  0.
          4    1    3    3  501    0  0.61873663523E+02  0.79200173390E+01  0.14242714056E+03  0.15549588348E+03  0.15500000000E+01 0.  1.
         -4    1    3    3    0  501 -0.61873663523E+02 -0.79200173390E+01  0.16124590763E+03  0.17289801080E+03  0.15500000000E+01 0.  1.
<mgrwt>
<rscale>  2 0.12500092E+03</rscale>
<asrwt>0</asrwt>
<pdfrwt beam="1">  1       21 0.48620528E-01 0.12500092E+03</pdfrwt>
<pdfrwt beam="2">  1       21 0.19016038E-02 0.12500092E+03</pdfrwt>
<totfact> 0.53173580E+06</totfact>
</mgrwt>
</event>
<event>
 5    0  0.1521879E+000  0.1249955E+03  0.7546771E-02  0.1235076E+00
         21   -1    0    0  503  502  0.00000000000E+00  0.00000000000E+00  0.16568340339E+03  0.16568340339E+03  0.00000000000E+00 0.  1.
         21   -1    0    0  502  503 -0.00000000000E+00 -0.00000000000E+00 -0.23574903130E+02  0.23574903130E+02  0.00000000000E+00 0.  1.
         25    2    1    2    0    0  0.00000000000E+00  0.00000000000E+00  0.14210850026E+03  0.18925830652E+03  0.12499552288E+03 0.  0.
          4    1    3    3  501    0  0.17025512328E+02 -0.56431337201E+02  0.10242264307E+03  0.11818275763E+03  0.15500000000E+01 0. -1.
         -4    1    3    3    0  501 -0.17025512328E+02  0.56431337201E+02  0.39685857187E+02  0.71075548883E+02  0.15500000000E+01 0. -1.
<mgrwt>
<rscale>  2 0.12499552E+03</rscale>
<asrwt>0</asrwt>
<pdfrwt beam="1">  1       21 0.25489754E-01 0.12499552E+03</pdfrwt>
<pdfrwt beam="2">  1       21 0.36269083E-02 0.12499552E+03</pdfrwt>
<totfact> 0.66112492E+06</totfact>
</mgrwt>
</event>
<event>
 5    0  0.1222151E+000  0.1249988E+03  0.7546771E-02  0.1235071E+00
         21   -1    0    0  503  502  0.00000000000E+00  0.00000000000E+00  0.29129511696E+03  0.29129511696E+03  0.00000000000E+00 0.  1.
         21   -1    0    0  502  503 -0.00000000000E+00 -0.00000000000E+00 -0.13409684846E+02  0.13409684846E+02  0.00000000000E+00 0.  1.
         25    2    1    2    0    0  0.00000000000E+00  0.00000000000E+00  0.27788543211E+03  0.30470480180E+03  0.12499881144E+03 0.  0.
          4    1    3    3  501    0  0.20482211377E+02  0.16793788763E+01 -0.48882402962E+01  0.21181092736E+02  0.15500000000E+01 0. -1.
         -4    1    3    3    0  501 -0.20482211377E+02 -0.16793788763E+01  0.28277367241E+03  0.28352370907E+03  0.15500000000E+01 0. -1.
<mgrwt>
<rscale>  2 0.12499881E+03</rscale>
<asrwt>0</asrwt>
<pdfrwt beam="1">  1       21 0.44814628E-01 0.12499881E+03</pdfrwt>
<pdfrwt beam="2">  1       21 0.20630287E-02 0.12499881E+03</pdfrwt>
<totfact> 0.55069085E+06</totfact>
</mgrwt>
</event>
<event>
 5    0  0.1222151E+000  0.1250675E+03  0.7546771E-02  0.1234964E+00
         21   -1    0    0  503  502  0.00000000000E+00  0.00000000000E+00  0.17598834548E+04  0.17598834548E+04  0.00000000000E+00 0. -1.
         21   -1    0    0  502  503 -0.00000000000E+00 -0.00000000000E+00 -0.22220038130E+01  0.22220038130E+01  0.00000000000E+00 0. -1.
         25    2    1    2    0    0  0.00000000000E+00  0.00000000000E+00  0.17576614510E+04  0.17621054586E+04  0.12506746575E+03 0.  0.
          4    1    3    3  501    0 -0.36790086795E+02  0.44465944738E+02  0.12173639589E+04  0.12187321862E+04  0.15500000000E+01 0. -1.
         -4    1    3    3    0  501  0.36790086795E+02 -0.44465944738E+02  0.54029749212E+03  0.54337327245E+03  0.15500000000E+01 0. -1.
<mgrwt>
<rscale>  2 0.12506747E+03</rscale>
<asrwt>0</asrwt>
<pdfrwt beam="1">  1       21 0.27075019E+00 0.12506747E+03</pdfrwt>
<pdfrwt beam="2">  1       21 0.34184815E-03 0.12506747E+03</pdfrwt>
<totfact> 0.10495347E+06</totfact>
</mgrwt>
</event>
<event>
 5    0  0.1222151E+000  0.1249945E+03  0.7546771E-02  0.1235078E+00
         21   -1    0    0  503  502  0.00000000000E+00  0.00000000000E+00  0.11412780244E+04  0.11412780244E+04  0.00000000000E+00 0. -1.
         21   -1    0    0  502  503 -0.00000000000E+00 -0.00000000000E+00 -0.34223967785E+01  0.34223967785E+01  0.00000000000E+00 0. -1.
         25    2    1    2    0    0  0.00000000000E+00  0.00000000000E+00  0.11378556276E+04  0.11447004212E+04  0.12499449963E+03 0.  0.
          4    1    3    3  501    0 -0.55822762944E+02  0.25305173529E+02  0.45790381651E+03  0.46199008685E+03  0.15500000000E+01 0. -1.
         -4    1    3    3    0  501  0.55822762944E+02 -0.25305173529E+02  0.67995181113E+03  0.68271033435E+03  0.15500000000E+01 0. -1.
<mgrwt>
<rscale>  2 0.12499450E+03</rscale>
<asrwt>0</asrwt>
<pdfrwt beam="1">  1       21 0.17558093E+00 0.12499450E+03</pdfrwt>
<pdfrwt beam="2">  1       21 0.52652349E-03 0.12499450E+03</pdfrwt>
<totfact> 0.20284213E+06</totfact>
</mgrwt>
</event>
<event>
 5    0  0.1422632E+000  0.1250016E+03  0.7546771E-02  0.1235067E+00
         21   -1    0    0  503  502  0.00000000000E+00  0.00000000000E+00  0.11187448875E+03  0.11187448875E+03  0.00000000000E+00 0.  1.
         21   -1    0    0  502  503 -0.00000000000E+00 -0.00000000000E+00 -0.34917256094E+02  0.34917256094E+02  0.00000000000E+00 0.  1.
         25    2    1    2    0    0  0.00000000000E+00  0.00000000000E+00  0.76957232659E+02  0.14679174485E+03  0.12500160278E+03 0.  0.
          4    1    3    3  501    0  0.48604109953E+02 -0.11163019202E+02  0.82683186453E+02  0.96570618327E+02  0.15500000000E+01 0. -1.
         -4    1    3    3    0  501 -0.48604109953E+02  0.11163019202E+02 -0.57259537941E+01  0.50221126519E+02  0.15500000000E+01 0. -1.
<mgrwt>
<rscale>  2 0.12500160E+03</rscale>
<asrwt>0</asrwt>
<pdfrwt beam="1">  1       21 0.17211460E-01 0.12500160E+03</pdfrwt>
<pdfrwt beam="2">  1       21 0.53718856E-02 0.12500160E+03</pdfrwt>
<totfact> 0.71161678E+06</totfact>
</mgrwt>
</event>
<event>
 5    0  0.1583070E+000  0.1250067E+03  0.7546771E-02  0.1235059E+00
         21   -1    0    0  503  502  0.00000000000E+00  0.00000000000E+00  0.34023152531E+02  0.34023152531E+02  0.00000000000E+00 0. -1.
         21   -1    0    0  502  503 -0.00000000000E+00 -0.00000000000E+00 -0.11482384056E+03  0.11482384056E+03  0.00000000000E+00 0. -1.
         25    2    1    2    0    0  0.00000000000E+00  0.00000000000E+00 -0.80800688030E+02  0.14884699309E+03  0.12500670449E+03 0.  0.
          4    1    3    3  501    0  0.43189903524E+02  0.44261682417E+02 -0.29763462697E+02  0.68649329993E+02  0.15500000000E+01 0.  1.
         -4    1    3    3    0  501 -0.43189903524E+02 -0.44261682417E+02 -0.51037225333E+02  0.80197663099E+02  0.15500000000E+01 0.  1.
<mgrwt>
<rscale>  2 0.12500670E+03</rscale>
<asrwt>0</asrwt>
<pdfrwt beam="1">  1       21 0.52343312E-02 0.12500670E+03</pdfrwt>
<pdfrwt beam="2">  1       21 0.17665206E-01 0.12500670E+03</pdfrwt>
<totfact> 0.70892240E+06</totfact>
</mgrwt>
</event>
<event>
 5    0  0.1511138E+000  0.1250029E+03  0.7546771E-02  0.1235065E+00
         21   -1    0    0  503  502  0.00000000000E+00  0.00000000000E+00  0.21880914997E+02  0.21880914997E+02  0.00000000000E+00 0. -1.
         21   -1    0    0  502  503 -0.00000000000E+00 -0.00000000000E+00 -0.17853155120E+03  0.17853155120E+03  0.00000000000E+00 0. -1.
         25    2    1    2    0    0  0.00000000000E+00  0.00000000000E+00 -0.15665063620E+03  0.20041246620E+03  0.12500293910E+03 0.  0.
          4    1    3    3  501    0  0.88493542919E+01 -0.54755733929E+02 -0.32204573552E+02  0.64156359990E+02  0.15500000000E+01 0. -1.
         -4    1    3    3    0  501 -0.88493542919E+01  0.54755733929E+02 -0.12444606265E+03  0.13625610621E+03  0.15500000000E+01 0. -1.
<mgrwt>
<rscale>  2 0.12500294E+03</rscale>
<asrwt>0</asrwt>
<pdfrwt beam="1">  1       21 0.33662946E-02 0.12500294E+03</pdfrwt>
<pdfrwt beam="2">  1       21 0.27466392E-01 0.12500294E+03</pdfrwt>
<totfact> 0.64877759E+06</totfact>
</mgrwt>
</event>
<event>
 5    0  0.1468367E+000  0.1250330E+03  0.7546771E-02  0.1235018E+00
         21   -1    0    0  503  502  0.00000000000E+00  0.00000000000E+00  0.18200387664E+03  0.18200387664E+03  0.00000000000E+00 0. -1.
         21   -1    0    0  502  503 -0.00000000000E+00 -0.00000000000E+00 -0.21473792497E+02  0.21473792497E+02  0.00000000000E+00 0. -1.
         25    2    1    2    0    0  0.00000000000E+00  0.00000000000E+00  0.16053008414E+03  0.20347766914E+03  0.12503301133E+03 0.  0.
          4    1    3    3  501    0 -0.47563480907E+02  0.24131758764E+02  0.13328116572E+03  0.14356496136E+03  0.15500000000E+01 0. -1.
         -4    1    3    3    0  501  0.47563480907E+02 -0.24131758764E+02  0.27248918426E+02  0.59912707771E+02  0.15500000000E+01 0. -1.
<mgrwt>
<rscale>  2 0.12503301E+03</rscale>
<asrwt>0</asrwt>
<pdfrwt beam="1">  1       21 0.28000595E-01 0.12503301E+03</pdfrwt>
<pdfrwt beam="2">  1       21 0.33036605E-02 0.12503301E+03</pdfrwt>
<totfact> 0.64498458E+06</totfact>
</mgrwt>
</event>
<event>
 5    0  0.1402285E+000  0.1250078E+03  0.7546771E-02  0.1235057E+00
         21   -1    0    0  503  502  0.00000000000E+00  0.00000000000E+00  0.27591933074E+03  0.27591933074E+03  0.00000000000E+00 0. -1.
         21   -1    0    0  502  503 -0.00000000000E+00 -0.00000000000E+00 -0.14158994452E+02  0.14158994452E+02  0.00000000000E+00 0. -1.
         25    2    1    2    0    0  0.00000000000E+00  0.00000000000E+00  0.26176033629E+03  0.29007832519E+03  0.12500784413E+03 0.  0.
          4    1    3    3  501    0  0.40282753900E+02  0.43577619993E+02  0.85489487176E+02  0.10407960484E+03  0.15500000000E+01 0. -1.
         -4    1    3    3    0  501 -0.40282753900E+02 -0.43577619993E+02  0.17627084911E+03  0.18599872035E+03  0.15500000000E+01 0. -1.
<mgrwt>
<rscale>  2 0.12500784E+03</rscale>
<asrwt>0</asrwt>
<pdfrwt beam="1">  1       21 0.42449124E-01 0.12500784E+03</pdfrwt>
<pdfrwt beam="2">  1       21 0.21783070E-02 0.12500784E+03</pdfrwt>
<totfact> 0.56279818E+06</totfact>
</mgrwt>
</event>
<event>
 5    0  0.1542108E+000  0.1249978E+03  0.7546771E-02  0.1235073E+00
         21   -1    0    0  503  502  0.00000000000E+00  0.00000000000E+00  0.35909752749E+02  0.35909752749E+02  0.00000000000E+00 0. -1.
         21   -1    0    0  502  503 -0.00000000000E+00 -0.00000000000E+00 -0.10877579369E+03  0.10877579369E+03  0.00000000000E+00 0. -1.
         25    2    1    2    0    0  0.00000000000E+00  0.00000000000E+00 -0.72866040942E+02  0.14468554644E+03  0.12499778968E+03 0.  0.
          4    1    3    3  501    0  0.59325792799E+02  0.14617090718E+02 -0.51547229348E+02  0.79954539494E+02  0.15500000000E+01 0. -1.
         -4    1    3    3    0  501 -0.59325792799E+02 -0.14617090718E+02 -0.21318811595E+02  0.64731006945E+02  0.15500000000E+01 0. -1.
<mgrwt>
<rscale>  2 0.12499779E+03</rscale>
<asrwt>0</asrwt>
<pdfrwt beam="1">  1       21 0.55245773E-02 0.12499779E+03</pdfrwt>
<pdfrwt beam="2">  1       21 0.16734738E-01 0.12499779E+03</pdfrwt>
<totfact> 0.71437386E+06</totfact>
</mgrwt>
</event>
<event>
 5    0  0.1252379E+000  0.1249937E+03  0.7546771E-02  0.1235079E+00
         21   -1    0    0  503  502  0.00000000000E+00  0.00000000000E+00  0.56536626985E+01  0.56536626985E+01  0.00000000000E+00 0. -1.
         21   -1    0    0  502  503 -0.00000000000E+00 -0.00000000000E+00 -0.69085429404E+03  0.69085429404E+03  0.00000000000E+00 0. -1.
         25    2    1    2    0    0  0.00000000000E+00  0.00000000000E+00 -0.68520063134E+03  0.69650795674E+03  0.12499371428E+03 0.  0.
          4    1    3    3  501    0  0.50070882267E+02 -0.35913851385E+02 -0.40012155687E+03  0.40484140197E+03  0.15500000000E+01 0. -1.
         -4    1    3    3    0  501 -0.50070882267E+02  0.35913851385E+02 -0.28507907447E+03  0.29166655477E+03  0.15500000000E+01 0. -1.
<mgrwt>
<rscale>  2 0.12499371E+03</rscale>
<asrwt>0</asrwt>
<pdfrwt beam="1">  1       21 0.86979408E-03 0.12499371E+03</pdfrwt>
<pdfrwt beam="2">  1       21 0.10628530E+00 0.12499371E+03</pdfrwt>
<totfact> 0.33050349E+06</totfact>
</mgrwt>
</event>
<event>
 5    0  0.1318450E+000  0.1249987E+03  0.7546771E-02  0.1235071E+00
         21   -1    0    0  503  502  0.00000000000E+00  0.00000000000E+00  0.66740001639E+01  0.66740001639E+01  0.00000000000E+00 0.  1.
         21   -1    0    0  502  503 -0.00000000000E+00 -0.00000000000E+00 -0.58528102157E+03  0.58528102157E+03  0.00000000000E+00 0.  1.
         25    2    1    2    0    0  0.00000000000E+00  0.00000000000E+00 -0.57860702141E+03  0.59195502174E+03  0.12499865014E+03 0.  0.
          4    1    3    3  501    0  0.45192981665E+02  0.41047979764E+02 -0.22640238729E+03  0.23449474558E+03  0.15500000000E+01 0.  1.
         -4    1    3    3    0  501 -0.45192981665E+02 -0.41047979764E+02 -0.35220463412E+03  0.35746027616E+03  0.15500000000E+01 0.  1.
<mgrwt>
<rscale>  2 0.12499865E+03</rscale>
<asrwt>0</asrwt>
<pdfrwt beam="1">  1       21 0.10267688E-02 0.12499865E+03</pdfrwt>
<pdfrwt beam="2">  1       21 0.90043277E-01 0.12499865E+03</pdfrwt>
<totfact> 0.37460243E+06</totfact>
</mgrwt>
</event>
<event>
 5    0  0.1542292E+000  0.1249990E+03  0.7546771E-02  0.1235071E+00
         21   -1    0    0  503  502  0.00000000000E+00  0.00000000000E+00  0.10296231470E+03  0.10296231470E+03  0.00000000000E+00 0. -1.
         21   -1    0    0  502  503 -0.00000000000E+00 -0.00000000000E+00 -0.37938044300E+02  0.37938044300E+02  0.00000000000E+00 0. -1.
         25    2    1    2    0    0  0.00000000000E+00  0.00000000000E+00  0.65024270401E+02  0.14090035900E+03  0.12499902170E+03 0.  0.
          4    1    3    3  501    0  0.55646433222E+02  0.22357574179E+02  0.12748937858E+02  0.61329638594E+02  0.15500000000E+01 0. -1.
         -4    1    3    3    0  501 -0.55646433222E+02 -0.22357574179E+02  0.52275332543E+02  0.79570720407E+02  0.15500000000E+01 0. -1.
<mgrwt>
<rscale>  2 0.12499902E+03</rscale>
<asrwt>0</asrwt>
<pdfrwt beam="1">  1       21 0.15840356E-01 0.12499902E+03</pdfrwt>
<pdfrwt beam="2">  1       21 0.58366222E-02 0.12499902E+03</pdfrwt>
<totfact> 0.71923778E+06</totfact>
</mgrwt>
</event>
<event>
 5    0  0.1497834E+000  0.1250004E+03  0.7546771E-02  0.1235069E+00
         21   -1    0    0  503  502  0.00000000000E+00  0.00000000000E+00  0.16948402377E+03  0.16948402377E+03  0.00000000000E+00 0.  1.
         21   -1    0    0  502  503 -0.00000000000E+00 -0.00000000000E+00 -0.23048059947E+02  0.23048059947E+02  0.00000000000E+00 0.  1.
         25    2    1    2    0    0  0.00000000000E+00  0.00000000000E+00  0.14643596383E+03  0.19253208372E+03  0.12500044704E+03 0.  0.
          4    1    3    3  501    0 -0.26953800471E+02 -0.55812558692E+02  0.61058152848E+02  0.87017524653E+02  0.15500000000E+01 0.  1.
         -4    1    3    3    0  501  0.26953800471E+02  0.55812558692E+02  0.85377810978E+02  0.10551455907E+03  0.15500000000E+01 0.  1.
<mgrwt>
<rscale>  2 0.12500045E+03</rscale>
<asrwt>0</asrwt>
<pdfrwt beam="1">  1       21 0.26074464E-01 0.12500045E+03</pdfrwt>
<pdfrwt beam="2">  1       21 0.35458555E-02 0.12500045E+03</pdfrwt>
<totfact> 0.65741402E+06</totfact>
</mgrwt>
</event>
<event>
 5    0  0.1471522E+000  0.1250064E+03  0.7546771E-02  0.1235059E+00
         21   -1    0    0  503  502  0.00000000000E+00  0.00000000000E+00  0.17249638735E+03  0.17249638735E+03  0.00000000000E+00 0. -1.
         21   -1    0    0  502  503 -0.00000000000E+00 -0.00000000000E+00 -0.22647734443E+02  0.22647734443E+02  0.00000000000E+00 0. -1.
         25    2    1    2    0    0  0.00000000000E+00  0.00000000000E+00  0.14984865291E+03  0.19514412180E+03  0.12500643781E+03 0.  0.
          4    1    3    3  501    0 -0.34406243605E+02 -0.70975134172E+01 -0.57407750505E+01  0.35630370386E+02  0.15500000000E+01 0.  1.
         -4    1    3    3    0  501  0.34406243605E+02  0.70975134172E+01  0.15558942796E+03  0.15951375141E+03  0.15500000000E+01 0.  1.
<mgrwt>
<rscale>  2 0.12500644E+03</rscale>
<asrwt>0</asrwt>
<pdfrwt beam="1">  1       21 0.26537905E-01 0.12500644E+03</pdfrwt>
<pdfrwt beam="2">  1       21 0.34842670E-02 0.12500644E+03</pdfrwt>
<totfact> 0.65444580E+06</totfact>
</mgrwt>
</event>
<event>
 5    0  0.1222151E+000  0.1249993E+03  0.7546771E-02  0.1235070E+00
         21   -1    0    0  503  502  0.00000000000E+00  0.00000000000E+00  0.17219488614E+04  0.17219488614E+04  0.00000000000E+00 0. -1.
         21   -1    0    0  502  503 -0.00000000000E+00 -0.00000000000E+00 -0.22684787650E+01  0.22684787650E+01  0.00000000000E+00 0. -1.
         25    2    1    2    0    0  0.00000000000E+00  0.00000000000E+00  0.17196803827E+04  0.17242173402E+04  0.12499927082E+03 0.  0.
          4    1    3    3  501    0 -0.26384382688E+02 -0.49316904598E+02  0.47571038677E+03  0.47898963173E+03  0.15500000000E+01 0.  1.
         -4    1    3    3    0  501  0.26384382688E+02  0.49316904598E+02  0.12439699959E+04  0.12452277085E+04  0.15500000000E+01 0.  1.
<mgrwt>
<rscale>  2 0.12499927E+03</rscale>
<asrwt>0</asrwt>
<pdfrwt beam="1">  1       21 0.26491417E+00 0.12499927E+03</pdfrwt>
<pdfrwt beam="2">  1       21 0.34899811E-03 0.12499927E+03</pdfrwt>
<totfact> 0.10970559E+06</totfact>
</mgrwt>
</event>
<event>
 5    0  0.1222151E+000  0.1250257E+03  0.7546771E-02  0.1235029E+00
         21   -1    0    0  503  502  0.00000000000E+00  0.00000000000E+00  0.30772767373E+01  0.30772767373E+01  0.00000000000E+00 0. -1.
         21   -1    0    0  502  503 -0.00000000000E+00 -0.00000000000E+00 -0.12699082010E+04  0.12699082010E+04  0.00000000000E+00 0. -1.
         25    2    1    2    0    0  0.00000000000E+00  0.00000000000E+00 -0.12668309243E+04  0.12729854777E+04  0.12502574080E+03 0.  0.
          4    1    3    3  501    0 -0.24033163106E+00 -0.60992063079E+02 -0.49479090814E+03  0.49853839852E+03  0.15500000000E+01 0. -1.
         -4    1    3    3    0  501  0.24033163106E+00  0.60992063079E+02 -0.77204001611E+03  0.77444707921E+03  0.15500000000E+01 0. -1.
<mgrwt>
<rscale>  2 0.12502574E+03</rscale>
<asrwt>0</asrwt>
<pdfrwt beam="1">  1       21 0.47342568E-03 0.12502574E+03</pdfrwt>
<pdfrwt beam="2">  1       21 0.19537112E+00 0.12502574E+03</pdfrwt>
<totfact> 0.17733082E+06</totfact>
</mgrwt>
</event>
<event>
 5    0  0.1503904E+000  0.1249958E+03  0.7546771E-02  0.1235076E+00
         21   -1    0    0  503  502  0.00000000000E+00  0.00000000000E+00  0.22281471978E+02  0.22281471978E+02  0.00000000000E+00 0.  1.
         21   -1    0    0  502  503 -0.00000000000E+00 -0.00000000000E+00 -0.17530201461E+03  0.17530201461E+03  0.00000000000E+00 0.  1.
         25    2    1    2    0    0  0.00000000000E+00  0.00000000000E+00 -0.15302054263E+03  0.19758348659E+03  0.12499579075E+03 0.  0.
          4    1    3    3  501    0  0.58683513850E+02  0.15368633405E+02 -0.52871500681E+02  0.80484456728E+02  0.15500000000E+01 0.  1.
         -4    1    3    3    0  501 -0.58683513850E+02 -0.15368633405E+02 -0.10014904195E+03  0.11709902986E+03  0.15500000000E+01 0.  1.
<mgrwt>
<rscale>  2 0.12499579E+03</rscale>
<asrwt>0</asrwt>
<pdfrwt beam="1">  1       21 0.34279187E-02 0.12499579E+03</pdfrwt>
<pdfrwt beam="2">  1       21 0.26969542E-01 0.12499579E+03</pdfrwt>
<totfact> 0.65196320E+06</totfact>
</mgrwt>
</event>
<event>
 4    0  0.1910480E+000  0.1238136E+03  0.7546771E-02  0.1236935E+00
         21   -1    0    0  503  502  0.00000000000E+00  0.00000000000E+00  0.20969877505E+02  0.20969877505E+02  0.00000000000E+00 0.  1.
         21   -1    0    0  502  503 -0.00000000000E+00 -0.00000000000E+00 -0.18275979757E+03  0.18275979757E+03  0.00000000000E+00 0.  1.
          4    1    1    2  501    0  0.25335978736E+02  0.56154885040E+02 -0.71193033563E+02  0.94160147941E+02  0.15500000000E+01 0. -1.
         -4    1    1    2    0  501 -0.25335978736E+02 -0.56154885040E+02 -0.90596886500E+02  0.10956952713E+03  0.15500000000E+01 0. -1.
<mgrwt>
<rscale>  2 0.12381358E+03</rscale>
<asrwt>0</asrwt>
<pdfrwt beam="1">  1       21 0.32261350E-02 0.12381358E+03</pdfrwt>
<pdfrwt beam="2">  1       21 0.28116892E-01 0.12381358E+03</pdfrwt>
<totfact> 0.66500685E+06</totfact>
</mgrwt>
</event>
<event>
 5    0  0.1417046E+000  0.1250043E+03  0.7546771E-02  0.1235063E+00
         21   -1    0    0  503  502  0.00000000000E+00  0.00000000000E+00  0.24044315317E+02  0.24044315317E+02  0.00000000000E+00 0.  1.
         21   -1    0    0  502  503 -0.00000000000E+00 -0.00000000000E+00 -0.16247154471E+03  0.16247154471E+03  0.00000000000E+00 0.  1.
         25    2    1    2    0    0  0.00000000000E+00  0.00000000000E+00 -0.13842722939E+03  0.18651586003E+03  0.12500427275E+03 0.  0.
          4    1    3    3  501    0 -0.10661462977E+01 -0.50742327422E+02 -0.14835808665E+02  0.52900134016E+02  0.15500000000E+01 0.  1.
         -4    1    3    3    0  501  0.10661462977E+01  0.50742327422E+02 -0.12359142073E+03  0.13361572601E+03  0.15500000000E+01 0.  1.
<mgrwt>
<rscale>  2 0.12500427E+03</rscale>
<asrwt>0</asrwt>
<pdfrwt beam="1">  1       21 0.36991253E-02 0.12500427E+03</pdfrwt>
<pdfrwt beam="2">  1       21 0.24995623E-01 0.12500427E+03</pdfrwt>
<totfact> 0.66404610E+06</totfact>
</mgrwt>
</event>
<event>
 5    0  0.1352763E+000  0.1249989E+03  0.7546771E-02  0.1235071E+00
         21   -1    0    0  503  502  0.00000000000E+00  0.00000000000E+00  0.47320191743E+03  0.47320191743E+03  0.00000000000E+00 0. -1.
         21   -1    0    0  502  503 -0.00000000000E+00 -0.00000000000E+00 -0.82547842432E+01  0.82547842432E+01  0.00000000000E+00 0. -1.
         25    2    1    2    0    0  0.00000000000E+00  0.00000000000E+00  0.46494713318E+03  0.48145670167E+03  0.12499887570E+03 0.  0.
          4    1    3    3  501    0 -0.40316882390E+02 -0.47730287260E+02  0.23394481191E+03  0.24214914587E+03  0.15500000000E+01 0.  1.
         -4    1    3    3    0  501  0.40316882390E+02  0.47730287260E+02  0.23100232127E+03  0.23930755579E+03  0.15500000000E+01 0.  1.
<mgrwt>
<rscale>  2 0.12499888E+03</rscale>
<asrwt>0</asrwt>
<pdfrwt beam="1">  1       21 0.72800274E-01 0.12499888E+03</pdfrwt>
<pdfrwt beam="2">  1       21 0.12699672E-02 0.12499888E+03</pdfrwt>
<totfact> 0.43069119E+06</totfact>
</mgrwt>
</event>
<event>
 5    0  0.1500903E+000  0.1249960E+03  0.7546771E-02  0.1235076E+00
         21   -1    0    0  503  502  0.00000000000E+00  0.00000000000E+00  0.17920316238E+03  0.17920316238E+03  0.00000000000E+00 0. -1.
         21   -1    0    0  502  503 -0.00000000000E+00 -0.00000000000E+00 -0.21796482905E+02  0.21796482905E+02  0.00000000000E+00 0. -1.
         25    2    1    2    0    0  0.00000000000E+00  0.00000000000E+00  0.15740667947E+03  0.20099964528E+03  0.12499597858E+03 0.  0.
          4    1    3    3  501    0 -0.50804617270E+02  0.26812012847E+02  0.39196258662E+02  0.69561069299E+02  0.15500000000E+01 0. -1.
         -4    1    3    3    0  501  0.50804617270E+02 -0.26812012847E+02  0.11821042081E+03  0.13143857598E+03  0.15500000000E+01 0. -1.
<mgrwt>
<rscale>  2 0.12499598E+03</rscale>
<asrwt>0</asrwt>
<pdfrwt beam="1">  1       21 0.27569716E-01 0.12499598E+03</pdfrwt>
<pdfrwt beam="2">  1       21 0.33533052E-02 0.12499598E+03</pdfrwt>
<totfact> 0.64825694E+06</totfact>
</mgrwt>
</event>
<event>
 5    0  0.1279676E+000  0.1250001E+03  0.7546771E-02  0.1235069E+00
         21   -1    0    0  503  502  0.00000000000E+00  0.00000000000E+00  0.54946558630E+03  0.54946558630E+03  0.00000000000E+00 0.  1.
         21   -1    0    0  502  503 -0.00000000000E+00 -0.00000000000E+00 -0.71091964140E+01  0.71091964140E+01  0.00000000000E+00 0.  1.
         25    2    1    2    0    0  0.00000000000E+00  0.00000000000E+00  0.54235638989E+03  0.55657478271E+03  0.12500014041E+03 0.  0.
          4    1    3    3  501    0  0.41554308728E+02  0.31831089536E+02  0.11927509044E+03  0.13026483998E+03  0.15500000000E+01 0. -1.
         -4    1    3    3    0  501 -0.41554308728E+02 -0.31831089536E+02  0.42308129945E+03  0.42630994274E+03  0.15500000000E+01 0. -1.
<mgrwt>
<rscale>  2 0.12500014E+03</rscale>
<asrwt>0</asrwt>
<pdfrwt beam="1">  1       21 0.84533134E-01 0.12500014E+03</pdfrwt>
<pdfrwt beam="2">  1       21 0.10937230E-02 0.12500014E+03</pdfrwt>
<totfact> 0.39133008E+06</totfact>
</mgrwt>
</event>
<event>
 5    0  0.1543968E+000  0.1249970E+03  0.7546771E-02  0.1235074E+00
         21   -1    0    0  503  502  0.00000000000E+00  0.00000000000E+00  0.22098995831E+03  0.22098995831E+03  0.00000000000E+00 0. -1.
         21   -1    0    0  502  503 -0.00000000000E+00 -0.00000000000E+00 -0.17675287946E+02  0.17675287946E+02  0.00000000000E+00 0. -1.
         25    2    1    2    0    0  0.00000000000E+00  0.00000000000E+00  0.20331467037E+03  0.23866524626E+03  0.12499697830E+03 0.  0.
          4    1    3    3  501    0  0.49706783998E+01  0.61404649732E+02  0.81776054451E+02  0.10239611435E+03  0.15500000000E+01 0. -1.
         -4    1    3    3    0  501 -0.49706783998E+01 -0.61404649732E+02  0.12153861591E+03  0.13626913191E+03  0.15500000000E+01 0. -1.
<mgrwt>
<rscale>  2 0.12499698E+03</rscale>
<asrwt>0</asrwt>
<pdfrwt beam="1">  1       21 0.33998453E-01 0.12499698E+03</pdfrwt>
<pdfrwt beam="2">  1       21 0.27192752E-02 0.12499698E+03</pdfrwt>
<totfact> 0.60966712E+06</totfact>
</mgrwt>
</event>
<event>
 5    0  0.1222151E+000  0.1249973E+03  0.7546771E-02  0.1235073E+00
         21   -1    0    0  503  502  0.00000000000E+00  0.00000000000E+00  0.38137397198E+01  0.38137397198E+01  0.00000000000E+00 0. -1.
         21   -1    0    0  502  503 -0.00000000000E+00 -0.00000000000E+00 -0.10242135856E+04  0.10242135856E+04  0.00000000000E+00 0. -1.
         25    2    1    2    0    0  0.00000000000E+00  0.00000000000E+00 -0.10203998459E+04  0.10280273254E+04  0.12499734450E+03 0.  0.
          4    1    3    3  501    0 -0.31383044976E+02  0.18704252310E+02 -0.93349164652E+02  0.10025574102E+03  0.15500000000E+01 0. -1.
         -4    1    3    3    0  501  0.31383044976E+02 -0.18704252310E+02 -0.92705068126E+03  0.92777158433E+03  0.15500000000E+01 0. -1.
<mgrwt>
<rscale>  2 0.12499734E+03</rscale>
<asrwt>0</asrwt>
<pdfrwt beam="1">  1       21 0.58672870E-03 0.12499734E+03</pdfrwt>
<pdfrwt beam="2">  1       21 0.15757145E+00 0.12499734E+03</pdfrwt>
<totfact> 0.22928369E+06</totfact>
</mgrwt>
</event>
<event>
 5    0  0.1465252E+000  0.1250056E+03  0.7546771E-02  0.1235061E+00
         21   -1    0    0  503  502  0.00000000000E+00  0.00000000000E+00  0.79389838146E+02  0.79389838146E+02  0.00000000000E+00 0. -1.
         21   -1    0    0  502  503 -0.00000000000E+00 -0.00000000000E+00 -0.49207808012E+02  0.49207808012E+02  0.00000000000E+00 0. -1.
         25    2    1    2    0    0  0.00000000000E+00  0.00000000000E+00  0.30182030135E+02  0.12859764616E+03  0.12500559849E+03 0.  0.
          4    1    3    3  501    0 -0.13513291874E+01 -0.47607765839E+02  0.56699146165E+02  0.74064304051E+02  0.15500000000E+01 0. -1.
         -4    1    3    3    0  501  0.13513291874E+01  0.47607765839E+02 -0.26517116031E+02  0.54533342107E+02  0.15500000000E+01 0. -1.
<mgrwt>
<rscale>  2 0.12500560E+03</rscale>
<asrwt>0</asrwt>
<pdfrwt beam="1">  1       21 0.12213821E-01 0.12500560E+03</pdfrwt>
<pdfrwt beam="2">  1       21 0.75704320E-02 0.12500560E+03</pdfrwt>
<totfact> 0.73542463E+06</totfact>
</mgrwt>
</event>
<event>
 5    0  0.1254917E+000  0.1249990E+03  0.7546771E-02  0.1235071E+00
         21   -1    0    0  503  502  0.00000000000E+00  0.00000000000E+00  0.59206344239E+03  0.59206344239E+03  0.00000000000E+00 0.  1.
         21   -1    0    0  502  503 -0.00000000000E+00 -0.00000000000E+00 -0.65975831743E+01  0.65975831743E+01  0.00000000000E+00 0.  1.
         25    2    1    2    0    0  0.00000000000E+00  0.00000000000E+00  0.58546585922E+03  0.59866102557E+03  0.12499900489E+03 0.  0.
          4    1    3    3  501    0 -0.42366156937E+02 -0.37880243953E+02  0.41706933607E+03  0.42092640417E+03  0.15500000000E+01 0. -1.
         -4    1    3    3    0  501  0.42366156937E+02  0.37880243953E+02  0.16839652315E+03  0.17773462140E+03  0.15500000000E+01 0. -1.
<mgrwt>
<rscale>  2 0.12499900E+03</rscale>
<asrwt>0</asrwt>
<pdfrwt beam="1">  1       21 0.91086641E-01 0.12499900E+03</pdfrwt>
<pdfrwt beam="2">  1       21 0.10150133E-02 0.12499900E+03</pdfrwt>
<totfact> 0.37154185E+06</totfact>
</mgrwt>
</event>
<event>
 5    0  0.1393745E+000  0.1250013E+03  0.7546771E-02  0.1235067E+00
         21   -1    0    0  503  502  0.00000000000E+00  0.00000000000E+00  0.29342592276E+03  0.29342592276E+03  0.00000000000E+00 0.  1.
         21   -1    0    0  502  503 -0.00000000000E+00 -0.00000000000E+00 -0.13312839932E+02  0.13312839932E+02  0.00000000000E+00 0.  1.
         25    2    1    2    0    0  0.00000000000E+00  0.00000000000E+00  0.28011308283E+03  0.30673876269E+03  0.12500131746E+03 0.  0.
          4    1    3    3  501    0 -0.27665600256E+02  0.35456788081E+01  0.28588978474E+01  0.28080831054E+02  0.15500000000E+01 0. -1.
         -4    1    3    3    0  501  0.27665600256E+02 -0.35456788081E+01  0.27725418498E+03  0.27865793164E+03  0.15500000000E+01 0. -1.
<mgrwt>
<rscale>  2 0.12500132E+03</rscale>
<asrwt>0</asrwt>
<pdfrwt beam="1">  1       21 0.45142445E-01 0.12500132E+03</pdfrwt>
<pdfrwt beam="2">  1       21 0.20481295E-02 0.12500132E+03</pdfrwt>
<totfact> 0.54898951E+06</totfact>
</mgrwt>
</event>
<event>
 5    0  0.1428064E+000  0.1250005E+03  0.7546771E-02  0.1235069E+00
         21   -1    0    0  503  502  0.00000000000E+00  0.00000000000E+00  0.16080486723E+02  0.16080486723E+02  0.00000000000E+00 0. -1.
         21   -1    0    0  502  503 -0.00000000000E+00 -0.00000000000E+00 -0.24292046978E+03  0.24292046978E+03  0.00000000000E+00 0. -1.
         25    2    1    2    0    0  0.00000000000E+00  0.00000000000E+00 -0.22683998305E+03  0.25900095650E+03  0.12500047022E+03 0.  0.
          4    1    3    3  501    0 -0.23900288097E+02 -0.16815326153E+02 -0.22784800894E+03  0.22971960440E+03  0.15500000000E+01 0.  1.
         -4    1    3    3    0  501  0.23900288097E+02  0.16815326153E+02  0.10080258902E+01  0.29281352102E+02  0.15500000000E+01 0.  1.
<mgrwt>
<rscale>  2 0.12500047E+03</rscale>
<asrwt>0</asrwt>
<pdfrwt beam="1">  1       21 0.24739210E-02 0.12500047E+03</pdfrwt>
<pdfrwt beam="2">  1       21 0.37372381E-01 0.12500047E+03</pdfrwt>
<totfact> 0.59040261E+06</totfact>
</mgrwt>
</event>
<event>
 5    0  0.1391225E+000  0.1250035E+03  0.7546771E-02  0.1235064E+00
         21   -1    0    0  503  502  0.00000000000E+00  0.00000000000E+00  0.27294552709E+03  0.27294552709E+03  0.00000000000E+00 0.  1.
         21   -1    0    0  502  503 -0.00000000000E+00 -0.00000000000E+00 -0.14312261114E+02  0.14312261114E+02  0.00000000000E+00 0.  1.
         25    2    1    2    0    0  0.00000000000E+00  0.00000000000E+00  0.25863326598E+03  0.28725778821E+03  0.12500348241E+03 0.  0.
          4    1    3    3  501    0  0.45736256054E+02 -0.56696624916E+01  0.22627241769E+03  0.23092327665E+03  0.15500000000E+01 0.  1.
         -4    1    3    3    0  501 -0.45736256054E+02  0.56696624916E+01  0.32360848287E+02  0.56334511558E+02  0.15500000000E+01 0.  1.
<mgrwt>
<rscale>  2 0.12500348E+03</rscale>
<asrwt>0</asrwt>
<pdfrwt beam="1">  1       21 0.41991616E-01 0.12500348E+03</pdfrwt>
<pdfrwt beam="2">  1       21 0.22018865E-02 0.12500348E+03</pdfrwt>
<totfact> 0.56527061E+06</totfact>
</mgrwt>
</event>
<event>
 5    0  0.1460981E+000  0.1249951E+03  0.7546771E-02  0.1235077E+00
         21   -1    0    0  503  502  0.00000000000E+00  0.00000000000E+00  0.15508052595E+03  0.15508052595E+03  0.00000000000E+00 0.  1.
         21   -1    0    0  502  503 -0.00000000000E+00 -0.00000000000E+00 -0.25186546775E+02  0.25186546775E+02  0.00000000000E+00 0.  1.
         25    2    1    2    0    0  0.00000000000E+00  0.00000000000E+00  0.12989397917E+03  0.18026707272E+03  0.12499508663E+03 0.  0.
          4    1    3    3  501    0 -0.26565372172E+02  0.12341948328E+02  0.14453590838E+03  0.14748245319E+03  0.15500000000E+01 0.  1.
         -4    1    3    3    0  501  0.26565372172E+02 -0.12341948328E+02 -0.14641929207E+02  0.32784619535E+02  0.15500000000E+01 0.  1.
<mgrwt>
<rscale>  2 0.12499509E+03</rscale>
<asrwt>0</asrwt>
<pdfrwt beam="1">  1       21 0.23858542E-01 0.12499509E+03</pdfrwt>
<pdfrwt beam="2">  1       21 0.38748535E-02 0.12499509E+03</pdfrwt>
<totfact> 0.67129277E+06</totfact>
</mgrwt>
</event>
<event>
 4    0  0.1686415E+000  0.1246031E+03  0.7546771E-02  0.1235691E+00
         21   -1    0    0  503  502  0.00000000000E+00  0.00000000000E+00  0.56086120967E+03  0.56086120967E+03  0.00000000000E+00 0.  1.
         21   -1    0    0  502  503 -0.00000000000E+00 -0.00000000000E+00 -0.69205777803E+01  0.69205777803E+01  0.00000000000E+00 0.  1.
          4    1    1    2  501    0  0.47894190157E+02 -0.33143561718E+02  0.37750074332E+03  0.38197063086E+03  0.15500000000E+01 0. -1.
         -4    1    1    2    0  501 -0.47894190157E+02  0.33143561718E+02  0.17643988857E+03  0.18581115659E+03  0.15500000000E+01 0. -1.
<mgrwt>
<rscale>  2 0.12460311E+03</rscale>
<asrwt>0</asrwt>
<pdfrwt beam="1">  1       21 0.86286304E-01 0.12460311E+03</pdfrwt>
<pdfrwt beam="2">  1       21 0.10647047E-02 0.12460311E+03</pdfrwt>
<totfact> 0.38974562E+06</totfact>
</mgrwt>
</event>
<event>
 5    0  0.1528596E+000  0.1249964E+03  0.7546771E-02  0.1235075E+00
         21   -1    0    0  503  502  0.00000000000E+00  0.00000000000E+00  0.79332762568E+02  0.79332762568E+02  0.00000000000E+00 0.  1.
         21   -1    0    0  502  503 -0.00000000000E+00 -0.00000000000E+00 -0.49235940397E+02  0.49235940397E+02  0.00000000000E+00 0.  1.
         25    2    1    2    0    0  0.00000000000E+00  0.00000000000E+00  0.30096822171E+02  0.12856870297E+03  0.12499637066E+03 0.  0.
          4    1    3    3  501    0 -0.33933185327E+01  0.51706163910E+02  0.50954214260E+02  0.72689589679E+02  0.15500000000E+01 0.  1.
         -4    1    3    3    0  501  0.33933185327E+01 -0.51706163910E+02 -0.20857392088E+02  0.55879113286E+02  0.15500000000E+01 0.  1.
<mgrwt>
<rscale>  2 0.12499637E+03</rscale>
<asrwt>0</asrwt>
<pdfrwt beam="1">  1       21 0.12205040E-01 0.12499637E+03</pdfrwt>
<pdfrwt beam="2">  1       21 0.75747600E-02 0.12499637E+03</pdfrwt>
<totfact> 0.73563688E+06</totfact>
</mgrwt>
</event>
<event>
 5    0  0.1338328E+000  0.1250009E+03  0.7546771E-02  0.1235068E+00
         21   -1    0    0  503  502  0.00000000000E+00  0.00000000000E+00  0.10410366956E+02  0.10410366956E+02  0.00000000000E+00 0.  1.
         21   -1    0    0  502  503 -0.00000000000E+00 -0.00000000000E+00 -0.37523208142E+03  0.37523208142E+03  0.00000000000E+00 0.  1.
         25    2    1    2    0    0  0.00000000000E+00  0.00000000000E+00 -0.36482171446E+03  0.38564244837E+03  0.12500085858E+03 0.  0.
          4    1    3    3  501    0  0.34451238241E+02  0.31002455695E+02 -0.31168656150E+03  0.31511736733E+03  0.15500000000E+01 0.  1.
         -4    1    3    3    0  501 -0.34451238241E+02 -0.31002455695E+02 -0.53135152963E+02  0.70525081041E+02  0.15500000000E+01 0.  1.
<mgrwt>
<rscale>  2 0.12500086E+03</rscale>
<asrwt>0</asrwt>
<pdfrwt beam="1">  1       21 0.16015952E-02 0.12500086E+03</pdfrwt>
<pdfrwt beam="2">  1       21 0.57728003E-01 0.12500086E+03</pdfrwt>
<totfact> 0.49007434E+06</totfact>
</mgrwt>
</event>
<event>
 5    0  0.1341130E+000  0.1249913E+03  0.7546771E-02  0.1235083E+00
         21   -1    0    0  503  502  0.00000000000E+00  0.00000000000E+00  0.13594606751E+02  0.13594606751E+02  0.00000000000E+00 0. -1.
         21   -1    0    0  502  503 -0.00000000000E+00 -0.00000000000E+00 -0.28729839353E+03  0.28729839353E+03  0.00000000000E+00 0. -1.
         25    2    1    2    0    0  0.00000000000E+00  0.00000000000E+00 -0.27370378678E+03  0.30089300028E+03  0.12499133858E+03 0.  0.
          4    1    3    3  501    0  0.83025650620E+01 -0.36072251283E+02 -0.15690568148E+02  0.40233522441E+02  0.15500000000E+01 0. -1.
         -4    1    3    3    0  501 -0.83025650620E+01  0.36072251283E+02 -0.25801321863E+03  0.26065947784E+03  0.15500000000E+01 0. -1.
<mgrwt>
<rscale>  2 0.12499134E+03</rscale>
<asrwt>0</asrwt>
<pdfrwt beam="1">  1       21 0.20914778E-02 0.12499134E+03</pdfrwt>
<pdfrwt beam="2">  1       21 0.44199756E-01 0.12499134E+03</pdfrwt>
<totfact> 0.55394095E+06</totfact>
</mgrwt>
</event>
<event>
 5    0  0.1593285E+000  0.1250010E+03  0.7546771E-02  0.1235068E+00
         21   -1    0    0  503  502  0.00000000000E+00  0.00000000000E+00  0.37131286339E+02  0.37131286339E+02  0.00000000000E+00 0. -1.
         21   -1    0    0  502  503 -0.00000000000E+00 -0.00000000000E+00 -0.10520266341E+03  0.10520266341E+03  0.00000000000E+00 0. -1.
         25    2    1    2    0    0  0.00000000000E+00  0.00000000000E+00 -0.68071377075E+02  0.14233394975E+03  0.12500096350E+03 0.  0.
          4    1    3    3  501    0  0.14998539282E+02  0.58083487970E+02 -0.53930052758E+02  0.80681477712E+02  0.15500000000E+01 0.  1.
         -4    1    3    3    0  501 -0.14998539282E+02 -0.58083487970E+02 -0.14141324318E+02  0.61652472042E+02  0.15500000000E+01 0.  1.
<mgrwt>
<rscale>  2 0.12500096E+03</rscale>
<asrwt>0</asrwt>
<pdfrwt beam="1">  1       21 0.57125057E-02 0.12500096E+03</pdfrwt>
<pdfrwt beam="2">  1       21 0.16185025E-01 0.12500096E+03</pdfrwt>
<totfact> 0.71734301E+06</totfact>
</mgrwt>
</event>
<event>
 5    0  0.1222151E+000  0.1250027E+03  0.7546771E-02  0.1235065E+00
         21   -1    0    0  503  502  0.00000000000E+00  0.00000000000E+00  0.90967273005E+03  0.90967273005E+03  0.00000000000E+00 0.  1.
         21   -1    0    0  502  503 -0.00000000000E+00 -0.00000000000E+00 -0.42943149825E+01  0.42943149825E+01  0.00000000000E+00 0.  1.
         25    2    1    2    0    0  0.00000000000E+00  0.00000000000E+00  0.90537841507E+03  0.91396704504E+03  0.12500273971E+03 0.  0.
          4    1    3    3  501    0  0.38419873592E+02  0.19472364102E+02  0.12174372976E+03  0.12914796896E+03  0.15500000000E+01 0. -1.
         -4    1    3    3    0  501 -0.38419873592E+02 -0.19472364102E+02  0.78363468531E+03  0.78481907608E+03  0.15500000000E+01 0. -1.
<mgrwt>
<rscale>  2 0.12500274E+03</rscale>
<asrwt>0</asrwt>
<pdfrwt beam="1">  1       21 0.13994950E+00 0.12500274E+03</pdfrwt>
<pdfrwt beam="2">  1       21 0.66066457E-03 0.12500274E+03</pdfrwt>
<totfact> 0.25899759E+06</totfact>
</mgrwt>
</event>
<event>
 5    0  0.1580466E+000  0.1250013E+03  0.7546771E-02  0.1235067E+00
         21   -1    0    0  503  502  0.00000000000E+00  0.00000000000E+00  0.76231270584E+02  0.76231270584E+02  0.00000000000E+00 0.  1.
         21   -1    0    0  502  503 -0.00000000000E+00 -0.00000000000E+00 -0.51243144683E+02  0.51243144683E+02  0.00000000000E+00 0.  1.
         25    2    1    2    0    0  0.00000000000E+00  0.00000000000E+00  0.24988125901E+02  0.12747441527E+03  0.12500128044E+03 0.  0.
          4    1    3    3  501    0  0.56760533201E+02  0.19819643782E+02 -0.48528080929E+01  0.60336793545E+02  0.15500000000E+01 0.  1.
         -4    1    3    3    0  501 -0.56760533201E+02 -0.19819643782E+02  0.29840933994E+02  0.67137621722E+02  0.15500000000E+01 0.  1.
<mgrwt>
<rscale>  2 0.12500128E+03</rscale>
<asrwt>0</asrwt>
<pdfrwt beam="1">  1       21 0.11727888E-01 0.12500128E+03</pdfrwt>
<pdfrwt beam="2">  1       21 0.78835607E-02 0.12500128E+03</pdfrwt>
<totfact> 0.73702277E+06</totfact>
</mgrwt>
</event>
<event>
 5    0  0.1464538E+000  0.1250212E+03  0.7546771E-02  0.1235036E+00
         21   -1    0    0  503  502  0.00000000000E+00  0.00000000000E+00  0.10741940492E+03  0.10741940492E+03  0.00000000000E+00 0.  1.
         21   -1    0    0  502  503 -0.00000000000E+00 -0.00000000000E+00 -0.36376806426E+02  0.36376806426E+02  0.00000000000E+00 0.  1.
         25    2    1    2    0    0  0.00000000000E+00  0.00000000000E+00  0.71042598499E+02  0.14379621135E+03  0.12502119659E+03 0.  0.
          4    1    3    3  501    0  0.15400836510E+02 -0.23071758770E+02 -0.28885200967E+02  0.40078038286E+02  0.15500000000E+01 0.  1.
         -4    1    3    3    0  501 -0.15400836510E+02  0.23071758770E+02  0.99927799465E+02  0.10371817306E+03  0.15500000000E+01 0.  1.
<mgrwt>
<rscale>  2 0.12502120E+03</rscale>
<asrwt>0</asrwt>
<pdfrwt beam="1">  1       21 0.16526062E-01 0.12502120E+03</pdfrwt>
<pdfrwt beam="2">  1       21 0.55964318E-02 0.12502120E+03</pdfrwt>
<totfact> 0.71508899E+06</totfact>
</mgrwt>
</event>
<event>
 5    0  0.1222151E+000  0.1250000E+03  0.7546771E-02  0.1235069E+00
         21   -1    0    0  503  502  0.00000000000E+00  0.00000000000E+00  0.27875785355E+01  0.27875785355E+01  0.00000000000E+00 0. -1.
         21   -1    0    0  502  503 -0.00000000000E+00 -0.00000000000E+00 -0.14013063845E+04  0.14013063845E+04  0.00000000000E+00 0. -1.
         25    2    1    2    0    0  0.00000000000E+00  0.00000000000E+00 -0.13985188059E+04  0.14040939630E+04  0.12500002559E+03 0.  0.
          4    1    3    3  501    0  0.50724788023E+02 -0.11433969188E+02 -0.10883909815E+04  0.10896334571E+04  0.15500000000E+01 0. -1.
         -4    1    3    3    0  501 -0.50724788023E+02  0.11433969188E+02 -0.31012782443E+03  0.31446050588E+03  0.15500000000E+01 0. -1.
<mgrwt>
<rscale>  2 0.12500003E+03</rscale>
<asrwt>0</asrwt>
<pdfrwt beam="1">  1       21 0.42885685E-03 0.12500003E+03</pdfrwt>
<pdfrwt beam="2">  1       21 0.21558630E+00 0.12500003E+03</pdfrwt>
<totfact> 0.15478196E+06</totfact>
</mgrwt>
</event>
<event>
 5    0  0.1542270E+000  0.1250143E+03  0.7546771E-02  0.1235047E+00
         21   -1    0    0  503  502  0.00000000000E+00  0.00000000000E+00  0.30502995160E+02  0.30502995160E+02  0.00000000000E+00 0. -1.
         21   -1    0    0  502  503 -0.00000000000E+00 -0.00000000000E+00 -0.12809046405E+03  0.12809046405E+03  0.00000000000E+00 0. -1.
         25    2    1    2    0    0  0.00000000000E+00  0.00000000000E+00 -0.97587468892E+02  0.15859345921E+03  0.12501428407E+03 0.  0.
          4    1    3    3  501    0 -0.28773476062E+02 -0.17171461476E+02 -0.11570538171E+03  0.12046953918E+03  0.15500000000E+01 0. -1.
         -4    1    3    3    0  501  0.28773476062E+02  0.17171461476E+02  0.18117912816E+02  0.38123920033E+02  0.15500000000E+01 0. -1.
<mgrwt>
<rscale>  2 0.12501428E+03</rscale>
<asrwt>0</asrwt>
<pdfrwt beam="1">  1       21 0.46927685E-02 0.12501428E+03</pdfrwt>
<pdfrwt beam="2">  1       21 0.19706225E-01 0.12501428E+03</pdfrwt>
<totfact> 0.69666463E+06</totfact>
</mgrwt>
</event>
<event>
 5    0  0.1432312E+000  0.1250080E+03  0.7546771E-02  0.1235057E+00
         21   -1    0    0  503  502  0.00000000000E+00  0.00000000000E+00  0.29396557182E+03  0.29396557182E+03  0.00000000000E+00 0.  1.
         21   -1    0    0  502  503 -0.00000000000E+00 -0.00000000000E+00 -0.13289811959E+02  0.13289811959E+02  0.00000000000E+00 0.  1.
         25    2    1    2    0    0  0.00000000000E+00  0.00000000000E+00  0.28067575987E+03  0.30725538378E+03  0.12500795450E+03 0.  0.
          4    1    3    3  501    0 -0.15690163335E+02  0.55967942491E+02  0.19669550382E+03  0.20511000837E+03  0.15500000000E+01 0.  1.
         -4    1    3    3    0  501  0.15690163335E+02 -0.55967942491E+02  0.83980256049E+02  0.10214537541E+03  0.15500000000E+01 0.  1.
<mgrwt>
<rscale>  2 0.12500795E+03</rscale>
<asrwt>0</asrwt>
<pdfrwt beam="1">  1       21 0.45225468E-01 0.12500795E+03</pdfrwt>
<pdfrwt beam="2">  1       21 0.20445867E-02 0.12500795E+03</pdfrwt>
<totfact> 0.54847606E+06</totfact>
</mgrwt>
</event>
<event>
 5    0  0.1222151E+000  0.1249971E+03  0.7546771E-02  0.1235074E+00
         21   -1    0    0  503  502  0.00000000000E+00  0.00000000000E+00  0.24964163208E+01  0.24964163208E+01  0.00000000000E+00 0.  1.
         21   -1    0    0  502  503 -0.00000000000E+00 -0.00000000000E+00 -0.15646694964E+04  0.15646694964E+04  0.00000000000E+00 0.  1.
         25    2    1    2    0    0  0.00000000000E+00  0.00000000000E+00 -0.15621730801E+04  0.15671659127E+04  0.12499706344E+03 0.  0.
          4    1    3    3  501    0  0.35435270432E+02 -0.45108189871E+02 -0.47060459750E+03  0.47409017799E+03  0.15500000000E+01 0.  1.
         -4    1    3    3    0  501 -0.35435270432E+02  0.45108189871E+02 -0.10915684826E+04  0.10930757347E+04  0.15500000000E+01 0.  1.
<mgrwt>
<rscale>  2 0.12499706E+03</rscale>
<asrwt>0</asrwt>
<pdfrwt beam="1">  1       21 0.38406325E-03 0.12499706E+03</pdfrwt>
<pdfrwt beam="2">  1       21 0.24071888E+00 0.12499706E+03</pdfrwt>
<totfact> 0.13026705E+06</totfact>
</mgrwt>
</event>
<event>
 5    0  0.1400048E+000  0.1250131E+03  0.7546771E-02  0.1235049E+00
         21   -1    0    0  503  502  0.00000000000E+00  0.00000000000E+00  0.13531070464E+02  0.13531070464E+02  0.00000000000E+00 0. -1.
         21   -1    0    0  502  503 -0.00000000000E+00 -0.00000000000E+00 -0.28874792205E+03  0.28874792205E+03  0.00000000000E+00 0. -1.
         25    2    1    2    0    0  0.00000000000E+00  0.00000000000E+00 -0.27521685159E+03  0.30227899252E+03  0.12501309499E+03 0.  0.
          4    1    3    3  501    0  0.26063048102E+02  0.31494824190E+01 -0.27472005851E+03  0.27597593149E+03  0.15500000000E+01 0.  1.
         -4    1    3    3    0  501 -0.26063048102E+02 -0.31494824190E+01 -0.49679307968E+00  0.26303061024E+02  0.15500000000E+01 0.  1.
<mgrwt>
<rscale>  2 0.12501309E+03</rscale>
<asrwt>0</asrwt>
<pdfrwt beam="1">  1       21 0.20817031E-02 0.12501309E+03</pdfrwt>
<pdfrwt beam="2">  1       21 0.44422758E-01 0.12501309E+03</pdfrwt>
<totfact> 0.55249132E+06</totfact>
</mgrwt>
</event>
<event>
 5    0  0.1519871E+000  0.1249992E+03  0.7546771E-02  0.1235071E+00
         21   -1    0    0  503  502  0.00000000000E+00  0.00000000000E+00  0.11535904984E+03  0.11535904984E+03  0.00000000000E+00 0.  1.
         21   -1    0    0  502  503 -0.00000000000E+00 -0.00000000000E+00 -0.33861230469E+02  0.33861230469E+02  0.00000000000E+00 0.  1.
         25    2    1    2    0    0  0.00000000000E+00  0.00000000000E+00  0.81497819374E+02  0.14922028031E+03  0.12499918997E+03 0.  0.
          4    1    3    3  501    0  0.37316542701E+02 -0.49725283109E+02  0.33325547862E+02  0.70555813224E+02  0.15500000000E+01 0. -1.
         -4    1    3    3    0  501 -0.37316542701E+02  0.49725283109E+02  0.48172271512E+02  0.78664467087E+02  0.15500000000E+01 0. -1.
<mgrwt>
<rscale>  2 0.12499919E+03</rscale>
<asrwt>0</asrwt>
<pdfrwt beam="1">  1       21 0.17747546E-01 0.12499919E+03</pdfrwt>
<pdfrwt beam="2">  1       21 0.52094201E-02 0.12499919E+03</pdfrwt>
<totfact> 0.70858747E+06</totfact>
</mgrwt>
</event>
<event>
 5    0  0.1222151E+000  0.1249929E+03  0.7546771E-02  0.1235080E+00
         21   -1    0    0  503  502  0.00000000000E+00  0.00000000000E+00  0.49827774278E+01  0.49827774278E+01  0.00000000000E+00 0.  1.
         21   -1    0    0  502  503 -0.00000000000E+00 -0.00000000000E+00 -0.78386080711E+03  0.78386080711E+03  0.00000000000E+00 0.  1.
         25    2    1    2    0    0  0.00000000000E+00  0.00000000000E+00 -0.77887802968E+03  0.78884358454E+03  0.12499286278E+03 0.  0.
          4    1    3    3  501    0 -0.12829255642E+02  0.18529713063E+02 -0.75719104572E+03  0.75752796799E+03  0.15500000000E+01 0. -1.
         -4    1    3    3    0  501  0.12829255642E+02 -0.18529713063E+02 -0.21686983965E+02  0.31315616552E+02  0.15500000000E+01 0. -1.
<mgrwt>
<rscale>  2 0.12499286E+03</rscale>
<asrwt>0</asrwt>
<pdfrwt beam="1">  1       21 0.76658127E-03 0.12499286E+03</pdfrwt>
<pdfrwt beam="2">  1       21 0.12059395E+00 0.12499286E+03</pdfrwt>
<totfact> 0.29741067E+06</totfact>
</mgrwt>
</event>
<event>
 5    0  0.1450881E+000  0.1250008E+03  0.7546771E-02  0.1235068E+00
         21   -1    0    0  503  502  0.00000000000E+00  0.00000000000E+00  0.11439060964E+02  0.11439060964E+02  0.00000000000E+00 0.  1.
         21   -1    0    0  502  503 -0.00000000000E+00 -0.00000000000E+00 -0.34148775413E+03  0.34148775413E+03  0.00000000000E+00 0.  1.
         25    2    1    2    0    0  0.00000000000E+00  0.00000000000E+00 -0.33004869317E+03  0.35292681510E+03  0.12500078781E+03 0.  0.
          4    1    3    3  501    0  0.58415123631E+02  0.19321894757E+02 -0.13432395404E+03  0.14775313673E+03  0.15500000000E+01 0.  1.
         -4    1    3    3    0  501 -0.58415123631E+02 -0.19321894757E+02 -0.19572473913E+03  0.20517367837E+03  0.15500000000E+01 0.  1.
<mgrwt>
<rscale>  2 0.12500079E+03</rscale>
<asrwt>0</asrwt>
<pdfrwt beam="1">  1       21 0.17598556E-02 0.12500079E+03</pdfrwt>
<pdfrwt beam="2">  1       21 0.52536576E-01 0.12500079E+03</pdfrwt>
<totfact> 0.51321990E+06</totfact>
</mgrwt>
</event>
<event>
 5    0  0.1222151E+000  0.1250052E+03  0.7546771E-02  0.1235061E+00
         21   -1    0    0  503  502  0.00000000000E+00  0.00000000000E+00  0.44128296866E+01  0.44128296866E+01  0.00000000000E+00 0. -1.
         21   -1    0    0  502  503 -0.00000000000E+00 -0.00000000000E+00 -0.88527686718E+03  0.88527686718E+03  0.00000000000E+00 0. -1.
         25    2    1    2    0    0  0.00000000000E+00  0.00000000000E+00 -0.88086403749E+03  0.88968969687E+03  0.12500521654E+03 0.  0.
          4    1    3    3  501    0 -0.31273775804E+02  0.39112531120E+02 -0.17447886623E+03  0.18152993253E+03  0.15500000000E+01 0. -1.
         -4    1    3    3    0  501  0.31273775804E+02 -0.39112531120E+02 -0.70638517127E+03  0.70815976434E+03  0.15500000000E+01 0. -1.
<mgrwt>
<rscale>  2 0.12500522E+03</rscale>
<asrwt>0</asrwt>
<pdfrwt beam="1">  1       21 0.67889719E-03 0.12500522E+03</pdfrwt>
<pdfrwt beam="2">  1       21 0.13619638E+00 0.12500522E+03</pdfrwt>
<totfact> 0.26592763E+06</totfact>
</mgrwt>
</event>
<event>
 5    0  0.1503272E+000  0.1250004E+03  0.7546771E-02  0.1235069E+00
         21   -1    0    0  503  502  0.00000000000E+00  0.00000000000E+00  0.13933331323E+03  0.13933331323E+03  0.00000000000E+00 0.  1.
         21   -1    0    0  502  503 -0.00000000000E+00 -0.00000000000E+00 -0.28035454530E+02  0.28035454530E+02  0.00000000000E+00 0.  1.
         25    2    1    2    0    0  0.00000000000E+00  0.00000000000E+00  0.11129785870E+03  0.16736876776E+03  0.12500036428E+03 0.  0.
          4    1    3    3  501    0  0.53556437381E+02  0.17276881873E+02  0.92000460056E+02  0.10785763664E+03  0.15500000000E+01 0.  1.
         -4    1    3    3    0  501 -0.53556437381E+02 -0.17276881873E+02  0.19297398645E+02  0.59511131116E+02  0.15500000000E+01 0.  1.
<mgrwt>
<rscale>  2 0.12500036E+03</rscale>
<asrwt>0</asrwt>
<pdfrwt beam="1">  1       21 0.21435894E-01 0.12500036E+03</pdfrwt>
<pdfrwt beam="2">  1       21 0.43131469E-02 0.12500036E+03</pdfrwt>
<totfact> 0.68629499E+06</totfact>
</mgrwt>
</event>
<event>
 5    0  0.1386415E+000  0.1250019E+03  0.7546771E-02  0.1235066E+00
         21   -1    0    0  503  502  0.00000000000E+00  0.00000000000E+00  0.15692193383E+02  0.15692193383E+02  0.00000000000E+00 0. -1.
         21   -1    0    0  502  503 -0.00000000000E+00 -0.00000000000E+00 -0.24893709612E+03  0.24893709612E+03  0.00000000000E+00 0. -1.
         25    2    1    2    0    0  0.00000000000E+00  0.00000000000E+00 -0.23324490274E+03  0.26462928950E+03  0.12500190482E+03 0.  0.
          4    1    3    3  501    0  0.28729055269E+02 -0.32462805451E+02 -0.21362670370E+02  0.48352440887E+02  0.15500000000E+01 0.  1.
         -4    1    3    3    0  501 -0.28729055269E+02  0.32462805451E+02 -0.21188223237E+03  0.21627684862E+03  0.15500000000E+01 0.  1.
<mgrwt>
<rscale>  2 0.12500190E+03</rscale>
<asrwt>0</asrwt>
<pdfrwt beam="1">  1       21 0.24141837E-02 0.12500190E+03</pdfrwt>
<pdfrwt beam="2">  1       21 0.38298014E-01 0.12500190E+03</pdfrwt>
<totfact> 0.58524747E+06</totfact>
</mgrwt>
</event>
<event>
 5    0  0.1582158E+000  0.1249785E+03  0.7546771E-02  0.1235103E+00
         21   -1    0    0  503  502  0.00000000000E+00  0.00000000000E+00  0.19132351521E+03  0.19132351521E+03  0.00000000000E+00 0. -1.
         21   -1    0    0  502  503 -0.00000000000E+00 -0.00000000000E+00 -0.20409981539E+02  0.20409981539E+02  0.00000000000E+00 0. -1.
         25    2    1    2    0    0  0.00000000000E+00  0.00000000000E+00  0.17091353368E+03  0.21173349675E+03  0.12497854878E+03 0.  0.
          4    1    3    3  501    0  0.18058879693E+02  0.59534175072E+02  0.95050220272E+02  0.11361068617E+03  0.15500000000E+01 0.  1.
         -4    1    3    3    0  501 -0.18058879693E+02 -0.59534175072E+02  0.75863313403E+02  0.98122810588E+02  0.15500000000E+01 0.  1.
<mgrwt>
<rscale>  2 0.12497855E+03</rscale>
<asrwt>0</asrwt>
<pdfrwt beam="1">  1       21 0.29434386E-01 0.12497855E+03</pdfrwt>
<pdfrwt beam="2">  1       21 0.31399973E-02 0.12497855E+03</pdfrwt>
<totfact> 0.63712171E+06</totfact>
</mgrwt>
</event>
<event>
 5    0  0.1222151E+000  0.1249963E+03  0.7546771E-02  0.1235075E+00
         21   -1    0    0  503  502  0.00000000000E+00  0.00000000000E+00  0.78060644106E+03  0.78060644106E+03  0.00000000000E+00 0.  1.
         21   -1    0    0  502  503 -0.00000000000E+00 -0.00000000000E+00 -0.50038261903E+01  0.50038261903E+01  0.00000000000E+00 0.  1.
         25    2    1    2    0    0  0.00000000000E+00  0.00000000000E+00  0.77560261487E+03  0.78561026725E+03  0.12499630321E+03 0.  0.
          4    1    3    3  501    0 -0.13022850480E+02  0.15563633726E+02  0.75919485905E+03  0.75946761474E+03  0.15500000000E+01 0.  1.
         -4    1    3    3    0  501  0.13022850480E+02 -0.15563633726E+02  0.16407755824E+02  0.26142652516E+02  0.15500000000E+01 0.  1.
<mgrwt>
<rscale>  2 0.12499630E+03</rscale>
<asrwt>0</asrwt>
<pdfrwt beam="1">  1       21 0.12009320E+00 0.12499630E+03</pdfrwt>
<pdfrwt beam="2">  1       21 0.76982003E-03 0.12499630E+03</pdfrwt>
<totfact> 0.29847914E+06</totfact>
</mgrwt>
</event>
<event>
 5    0  0.1490311E+000  0.1250052E+03  0.7546771E-02  0.1235061E+00
         21   -1    0    0  503  502  0.00000000000E+00  0.00000000000E+00  0.21415525045E+03  0.21415525045E+03  0.00000000000E+00 0.  1.
         21   -1    0    0  502  503 -0.00000000000E+00 -0.00000000000E+00 -0.18241790438E+02  0.18241790438E+02  0.00000000000E+00 0.  1.
         25    2    1    2    0    0  0.00000000000E+00  0.00000000000E+00  0.19591346001E+03  0.23239704089E+03  0.12500520309E+03 0.  0.
          4    1    3    3  501    0  0.99582336026E+01  0.60793140882E+02  0.78529341294E+02  0.99821001492E+02  0.15500000000E+01 0.  1.
         -4    1    3    3    0  501 -0.99582336026E+01 -0.60793140882E+02  0.11738411872E+03  0.13257603940E+03  0.15500000000E+01 0.  1.
<mgrwt>
<rscale>  2 0.12500520E+03</rscale>
<asrwt>0</asrwt>
<pdfrwt beam="1">  1       21 0.32946960E-01 0.12500520E+03</pdfrwt>
<pdfrwt beam="2">  1       21 0.28064294E-02 0.12500520E+03</pdfrwt>
<totfact> 0.61568153E+06</totfact>
</mgrwt>
</event>
<event>
 5    0  0.1421136E+000  0.1249999E+03  0.7546771E-02  0.1235069E+00
         21   -1    0    0  503  502  0.00000000000E+00  0.00000000000E+00  0.17465098293E+02  0.17465098293E+02  0.00000000000E+00 0.  1.
         21   -1    0    0  502  503 -0.00000000000E+00 -0.00000000000E+00 -0.22366000952E+03  0.22366000952E+03  0.00000000000E+00 0.  1.
         25    2    1    2    0    0  0.00000000000E+00  0.00000000000E+00 -0.20619491123E+03  0.24112510781E+03  0.12499990481E+03 0.  0.
          4    1    3    3  501    0  0.25059378734E+02 -0.30042916720E+02 -0.19707159615E+03  0.20092328341E+03  0.15500000000E+01 0. -1.
         -4    1    3    3    0  501 -0.25059378734E+02  0.30042916720E+02 -0.91233150812E+01  0.40201824407E+02  0.15500000000E+01 0. -1.
<mgrwt>
<rscale>  2 0.12499990E+03</rscale>
<asrwt>0</asrwt>
<pdfrwt beam="1">  1       21 0.26869380E-02 0.12499990E+03</pdfrwt>
<pdfrwt beam="2">  1       21 0.34409234E-01 0.12499990E+03</pdfrwt>
<totfact> 0.60724102E+06</totfact>
</mgrwt>
</event>
<event>
 5    0  0.1532222E+000  0.1250040E+03  0.7546771E-02  0.1235063E+00
         21   -1    0    0  503  502  0.00000000000E+00  0.00000000000E+00  0.63653472383E+02  0.63653472383E+02  0.00000000000E+00 0.  1.
         21   -1    0    0  502  503 -0.00000000000E+00 -0.00000000000E+00 -0.61371357158E+02  0.61371357158E+02  0.00000000000E+00 0.  1.
         25    2    1    2    0    0  0.00000000000E+00  0.00000000000E+00  0.22821152245E+01  0.12502482954E+03  0.12500399974E+03 0.  0.
          4    1    3    3  501    0  0.15693402666E+02 -0.45584221161E+02 -0.38613438368E+02  0.61786764187E+02  0.15500000000E+01 0.  1.
         -4    1    3    3    0  501 -0.15693402666E+02  0.45584221161E+02  0.40895553592E+02  0.63238065354E+02  0.15500000000E+01 0.  1.
<mgrwt>
<rscale>  2 0.12500400E+03</rscale>
<asrwt>0</asrwt>
<pdfrwt beam="1">  1       21 0.97928419E-02 0.12500400E+03</pdfrwt>
<pdfrwt beam="2">  1       21 0.94417473E-02 0.12500400E+03</pdfrwt>
<totfact> 0.74032657E+06</totfact>
</mgrwt>
</event>
<event>
 5    0  0.1492689E+000  0.1250019E+03  0.7546771E-02  0.1235066E+00
         21   -1    0    0  503  502  0.00000000000E+00  0.00000000000E+00  0.70961853015E+02  0.70961853015E+02  0.00000000000E+00 0.  1.
         21   -1    0    0  502  503 -0.00000000000E+00 -0.00000000000E+00 -0.55048828464E+02  0.55048828464E+02  0.00000000000E+00 0.  1.
         25    2    1    2    0    0  0.00000000000E+00  0.00000000000E+00  0.15913024551E+02  0.12601068148E+03  0.12500186997E+03 0.  0.
          4    1    3    3  501    0 -0.33925328460E+02  0.22627092607E+02  0.55678303258E+02  0.69031798359E+02  0.15500000000E+01 0.  1.
         -4    1    3    3    0  501  0.33925328460E+02 -0.22627092607E+02 -0.39765278707E+02  0.56978883120E+02  0.15500000000E+01 0.  1.
<mgrwt>
<rscale>  2 0.12500187E+03</rscale>
<asrwt>0</asrwt>
<pdfrwt beam="1">  1       21 0.10917208E-01 0.12500187E+03</pdfrwt>
<pdfrwt beam="2">  1       21 0.84690505E-02 0.12500187E+03</pdfrwt>
<totfact> 0.73901040E+06</totfact>
</mgrwt>
</event>
<event>
 5    0  0.1449521E+000  0.1249867E+03  0.7546771E-02  0.1235090E+00
         21   -1    0    0  503  502  0.00000000000E+00  0.00000000000E+00  0.13251533941E+02  0.13251533941E+02  0.00000000000E+00 0.  1.
         21   -1    0    0  502  503 -0.00000000000E+00 -0.00000000000E+00 -0.29471446404E+03  0.29471446404E+03  0.00000000000E+00 0.  1.
         25    2    1    2    0    0  0.00000000000E+00  0.00000000000E+00 -0.28146293010E+03  0.30796599798E+03  0.12498669886E+03 0.  0.
          4    1    3    3  501    0 -0.45015572771E+02  0.26722099115E+02 -0.56719016333E+02  0.77200529057E+02  0.15500000000E+01 0. -1.
         -4    1    3    3    0  501  0.45015572771E+02 -0.26722099115E+02 -0.22474391377E+03  0.23076546892E+03  0.15500000000E+01 0. -1.
<mgrwt>
<rscale>  2 0.12498670E+03</rscale>
<asrwt>0</asrwt>
<pdfrwt beam="1">  1       21 0.20386975E-02 0.12498670E+03</pdfrwt>
<pdfrwt beam="2">  1       21 0.45340687E-01 0.12498670E+03</pdfrwt>
<totfact> 0.54818907E+06</totfact>
</mgrwt>
</event>
<event>
 5    0  0.1584798E+000  0.1249860E+03  0.7546771E-02  0.1235091E+00
         21   -1    0    0  503  502  0.00000000000E+00  0.00000000000E+00  0.21195940662E+02  0.21195940662E+02  0.00000000000E+00 0. -1.
         21   -1    0    0  502  503 -0.00000000000E+00 -0.00000000000E+00 -0.18425112287E+03  0.18425112287E+03  0.00000000000E+00 0. -1.
         25    2    1    2    0    0  0.00000000000E+00  0.00000000000E+00 -0.16305518220E+03  0.20544706353E+03  0.12498601309E+03 0.  0.
          4    1    3    3  501    0  0.30047852983E+02  0.53207560847E+02 -0.60155205316E+02  0.85761117220E+02  0.15500000000E+01 0.  1.
         -4    1    3    3    0  501 -0.30047852983E+02 -0.53207560847E+02 -0.10289997689E+03  0.11968594631E+03  0.15500000000E+01 0.  1.
<mgrwt>
<rscale>  2 0.12498601E+03</rscale>
<asrwt>0</asrwt>
<pdfrwt beam="1">  1       21 0.32609139E-02 0.12498601E+03</pdfrwt>
<pdfrwt beam="2">  1       21 0.28346327E-01 0.12498601E+03</pdfrwt>
<totfact> 0.64364540E+06</totfact>
</mgrwt>
</event>
<event>
 5    0  0.1544675E+000  0.1249992E+03  0.7546771E-02  0.1235071E+00
         21   -1    0    0  503  502  0.00000000000E+00  0.00000000000E+00  0.19695290062E+02  0.19695290062E+02  0.00000000000E+00 0.  1.
         21   -1    0    0  502  503 -0.00000000000E+00 -0.00000000000E+00 -0.19833168200E+03  0.19833168200E+03  0.00000000000E+00 0.  1.
         25    2    1    2    0    0  0.00000000000E+00  0.00000000000E+00 -0.17863639194E+03  0.21802697206E+03  0.12499920008E+03 0.  0.
          4    1    3    3  501    0 -0.49881920986E+02 -0.37422567103E+02 -0.82530724323E+02  0.10345229590E+03  0.15500000000E+01 0.  1.
         -4    1    3    3    0  501  0.49881920986E+02  0.37422567103E+02 -0.96105667616E+02  0.11457467616E+03  0.15500000000E+01 0.  1.
<mgrwt>
<rscale>  2 0.12499920E+03</rscale>
<asrwt>0</asrwt>
<pdfrwt beam="1">  1       21 0.30300447E-02 0.12499920E+03</pdfrwt>
<pdfrwt beam="2">  1       21 0.30512566E-01 0.12499920E+03</pdfrwt>
<totfact> 0.63026051E+06</totfact>
</mgrwt>
</event>
<event>
 5    0  0.1566273E+000  0.1250008E+03  0.7546771E-02  0.1235068E+00
         21   -1    0    0  503  502  0.00000000000E+00  0.00000000000E+00  0.27842667287E+02  0.27842667287E+02  0.00000000000E+00 0.  1.
         21   -1    0    0  502  503 -0.00000000000E+00 -0.00000000000E+00 -0.14029907917E+03  0.14029907917E+03  0.00000000000E+00 0.  1.
         25    2    1    2    0    0  0.00000000000E+00  0.00000000000E+00 -0.11245641189E+03  0.16814174646E+03  0.12500080931E+03 0.  0.
          4    1    3    3  501    0 -0.51478944495E+02 -0.34330781430E+02 -0.67893924674E+02  0.91873128756E+02  0.15500000000E+01 0. -1.
         -4    1    3    3    0  501  0.51478944495E+02  0.34330781430E+02 -0.44562487214E+02  0.76268617705E+02  0.15500000000E+01 0. -1.
<mgrwt>
<rscale>  2 0.12500081E+03</rscale>
<asrwt>0</asrwt>
<pdfrwt beam="1">  1       21 0.42834873E-02 0.12500081E+03</pdfrwt>
<pdfrwt beam="2">  1       21 0.21584474E-01 0.12500081E+03</pdfrwt>
<totfact> 0.68536684E+06</totfact>
</mgrwt>
</event>
<event>
 5    0  0.1525642E+000  0.1249966E+03  0.7546771E-02  0.1235075E+00
         21   -1    0    0  503  502  0.00000000000E+00  0.00000000000E+00  0.11245034713E+03  0.11245034713E+03  0.00000000000E+00 0. -1.
         21   -1    0    0  502  503 -0.00000000000E+00 -0.00000000000E+00 -0.34735636522E+02  0.34735636522E+02  0.00000000000E+00 0. -1.
         25    2    1    2    0    0  0.00000000000E+00  0.00000000000E+00  0.77714710603E+02  0.14718598365E+03  0.12499655011E+03 0.  0.
          4    1    3    3  501    0 -0.50538623079E+02  0.28252927999E+02  0.11210653487E+02  0.58995437238E+02  0.15500000000E+01 0. -1.
         -4    1    3    3    0  501  0.50538623079E+02 -0.28252927999E+02  0.66504057116E+02  0.88190546410E+02  0.15500000000E+01 0. -1.
<mgrwt>
<rscale>  2 0.12499655E+03</rscale>
<asrwt>0</asrwt>
<pdfrwt beam="1">  1       21 0.17300053E-01 0.12499655E+03</pdfrwt>
<pdfrwt beam="2">  1       21 0.53439441E-02 0.12499655E+03</pdfrwt>
<totfact> 0.71120756E+06</totfact>
</mgrwt>
</event>
<event>
 5    0  0.1404022E+000  0.1249986E+03  0.7546771E-02  0.1235071E+00
         21   -1    0    0  503  502  0.00000000000E+00  0.00000000000E+00  0.10660521889E+02  0.10660521889E+02  0.00000000000E+00 0.  1.
         21   -1    0    0  502  503 -0.00000000000E+00 -0.00000000000E+00 -0.36641407176E+03  0.36641407176E+03  0.00000000000E+00 0.  1.
         25    2    1    2    0    0  0.00000000000E+00  0.00000000000E+00 -0.35575354987E+03  0.37707459365E+03  0.12499864371E+03 0.  0.
          4    1    3    3  501    0  0.11122707292E+02 -0.55790214915E+02 -0.99939069198E+02  0.11500644656E+03  0.15500000000E+01 0.  1.
         -4    1    3    3    0  501 -0.11122707292E+02  0.55790214915E+02 -0.25581448067E+03  0.26206814709E+03  0.15500000000E+01 0.  1.
<mgrwt>
<rscale>  2 0.12499864E+03</rscale>
<asrwt>0</asrwt>
<pdfrwt beam="1">  1       21 0.16400800E-02 0.12499864E+03</pdfrwt>
<pdfrwt beam="2">  1       21 0.56371407E-01 0.12499864E+03</pdfrwt>
<totfact> 0.49600650E+06</totfact>
</mgrwt>
</event>
<event>
 5    0  0.1222151E+000  0.1249986E+03  0.7546771E-02  0.1235071E+00
         21   -1    0    0  503  502  0.00000000000E+00  0.00000000000E+00  0.34360562391E+01  0.34360562391E+01  0.00000000000E+00 0.  1.
         21   -1    0    0  502  503 -0.00000000000E+00 -0.00000000000E+00 -0.11368161891E+04  0.11368161891E+04  0.00000000000E+00 0.  1.
         25    2    1    2    0    0  0.00000000000E+00  0.00000000000E+00 -0.11333801329E+04  0.11402522454E+04  0.12499862974E+03 0.  0.
          4    1    3    3  501    0 -0.53016525273E+02  0.32074733025E+02 -0.49358699948E+03  0.49746363586E+03  0.15500000000E+01 0.  1.
         -4    1    3    3    0  501  0.53016525273E+02 -0.32074733025E+02 -0.63979313342E+03  0.64278860951E+03  0.15500000000E+01 0.  1.
<mgrwt>
<rscale>  2 0.12499863E+03</rscale>
<asrwt>0</asrwt>
<pdfrwt beam="1">  1       21 0.52862353E-03 0.12499863E+03</pdfrwt>
<pdfrwt beam="2">  1       21 0.17489497E+00 0.12499863E+03</pdfrwt>
<totfact> 0.20376832E+06</totfact>
</mgrwt>
</event>
<event>
 5    0  0.1546344E+000  0.1249845E+03  0.7546771E-02  0.1235094E+00
         21   -1    0    0  503  502  0.00000000000E+00  0.00000000000E+00  0.69983938353E+02  0.69983938353E+02  0.00000000000E+00 0. -1.
         21   -1    0    0  502  503 -0.00000000000E+00 -0.00000000000E+00 -0.55802515600E+02  0.55802515600E+02  0.00000000000E+00 0. -1.
         25    2    1    2    0    0  0.00000000000E+00  0.00000000000E+00  0.14181422753E+02  0.12578645395E+03  0.12498447602E+03 0.  0.
          4    1    3    3  501    0 -0.33846936021E+02  0.33049072033E+02 -0.33975786423E+02  0.58263305805E+02  0.15500000000E+01 0. -1.
         -4    1    3    3    0  501  0.33846936021E+02 -0.33049072033E+02  0.48157209176E+02  0.67523148149E+02  0.15500000000E+01 0. -1.
<mgrwt>
<rscale>  2 0.12498448E+03</rscale>
<asrwt>0</asrwt>
<pdfrwt beam="1">  1       21 0.10766760E-01 0.12498448E+03</pdfrwt>
<pdfrwt beam="2">  1       21 0.85850024E-02 0.12498448E+03</pdfrwt>
<totfact> 0.73964830E+06</totfact>
</mgrwt>
</event>
<event>
 5    0  0.1222151E+000  0.1250020E+03  0.7546771E-02  0.1235066E+00
         21   -1    0    0  503  502  0.00000000000E+00  0.00000000000E+00  0.49493563013E+01  0.49493563013E+01  0.00000000000E+00 0.  1.
         21   -1    0    0  502  503 -0.00000000000E+00 -0.00000000000E+00 -0.78926987909E+03  0.78926987909E+03  0.00000000000E+00 0.  1.
         25    2    1    2    0    0  0.00000000000E+00  0.00000000000E+00 -0.78432052279E+03  0.79421923539E+03  0.12500204557E+03 0.  0.
          4    1    3    3  501    0  0.23096785654E+02 -0.48564911833E+02 -0.19004196137E+03  0.19751040922E+03  0.15500000000E+01 0. -1.
         -4    1    3    3    0  501 -0.23096785654E+02  0.48564911833E+02 -0.59427856141E+03  0.59670882616E+03  0.15500000000E+01 0. -1.
<mgrwt>
<rscale>  2 0.12500205E+03</rscale>
<asrwt>0</asrwt>
<pdfrwt beam="1">  1       21 0.76143905E-03 0.12500205E+03</pdfrwt>
<pdfrwt beam="2">  1       21 0.12142620E+00 0.12500205E+03</pdfrwt>
<totfact> 0.29553736E+06</totfact>
</mgrwt>
</event>
<event>
 5    0  0.1595033E+000  0.1250242E+03  0.7546771E-02  0.1235031E+00
         21   -1    0    0  503  502  0.00000000000E+00  0.00000000000E+00  0.62073000200E+02  0.62073000200E+02  0.00000000000E+00 0. -1.
         21   -1    0    0  502  503 -0.00000000000E+00 -0.00000000000E+00 -0.62954287102E+02  0.62954287102E+02  0.00000000000E+00 0. -1.
         25    2    1    2    0    0  0.00000000000E+00  0.00000000000E+00 -0.88128690150E+00  0.12502728730E+03  0.12502418128E+03 0.  0.
          4    1    3    3  501    0  0.13283942520E+02 -0.54989047482E+02 -0.26995031765E+02  0.62700819068E+02  0.15500000000E+01 0. -1.
         -4    1    3    3    0  501 -0.13283942520E+02  0.54989047482E+02  0.26113744863E+02  0.62326468235E+02  0.15500000000E+01 0. -1.
<mgrwt>
<rscale>  2 0.12502418E+03</rscale>
<asrwt>0</asrwt>
<pdfrwt beam="1">  1       21 0.95496923E-02 0.12502418E+03</pdfrwt>
<pdfrwt beam="2">  1       21 0.96852750E-02 0.12502418E+03</pdfrwt>
<totfact> 0.73994139E+06</totfact>
</mgrwt>
</event>
<event>
 5    0  0.1510849E+000  0.1250022E+03  0.7546771E-02  0.1235066E+00
         21   -1    0    0  503  502  0.00000000000E+00  0.00000000000E+00  0.19199968897E+02  0.19199968897E+02  0.00000000000E+00 0. -1.
         21   -1    0    0  502  503 -0.00000000000E+00 -0.00000000000E+00 -0.20345790398E+03  0.20345790398E+03  0.00000000000E+00 0. -1.
         25    2    1    2    0    0  0.00000000000E+00  0.00000000000E+00 -0.18425793508E+03  0.22265787287E+03  0.12500216683E+03 0.  0.
          4    1    3    3  501    0 -0.30038643853E+02  0.20317081521E+02 -0.14980470276E+01  0.36328371433E+02  0.15500000000E+01 0.  1.
         -4    1    3    3    0  501  0.30038643853E+02 -0.20317081521E+02 -0.18275988805E+03  0.18632950144E+03  0.15500000000E+01 0.  1.
<mgrwt>
<rscale>  2 0.12500217E+03</rscale>
<asrwt>0</asrwt>
<pdfrwt beam="1">  1       21 0.29538414E-02 0.12500217E+03</pdfrwt>
<pdfrwt beam="2">  1       21 0.31301216E-01 0.12500217E+03</pdfrwt>
<totfact> 0.62548469E+06</totfact>
</mgrwt>
</event>
<event>
 5    0  0.1472373E+000  0.1249897E+03  0.7546771E-02  0.1235085E+00
         21   -1    0    0  503  502  0.00000000000E+00  0.00000000000E+00  0.16011891398E+02  0.16011891398E+02  0.00000000000E+00 0.  1.
         21   -1    0    0  502  503 -0.00000000000E+00 -0.00000000000E+00 -0.24391917596E+03  0.24391917596E+03  0.00000000000E+00 0.  1.
         25    2    1    2    0    0  0.00000000000E+00  0.00000000000E+00 -0.22790728456E+03  0.25993106736E+03  0.12498971726E+03 0.  0.
          4    1    3    3  501    0 -0.50482599188E+02 -0.12850111650E+02 -0.18568052360E+03  0.19285558725E+03  0.15500000000E+01 0.  1.
         -4    1    3    3    0  501  0.50482599188E+02  0.12850111650E+02 -0.42226760964E+02  0.67075480107E+02  0.15500000000E+01 0.  1.
<mgrwt>
<rscale>  2 0.12498972E+03</rscale>
<asrwt>0</asrwt>
<pdfrwt beam="1">  1       21 0.24633678E-02 0.12498972E+03</pdfrwt>
<pdfrwt beam="2">  1       21 0.37526028E-01 0.12498972E+03</pdfrwt>
<totfact> 0.58970863E+06</totfact>
</mgrwt>
</event>
<event>
 5    0  0.1582285E+000  0.1249970E+03  0.7546771E-02  0.1235074E+00
         21   -1    0    0  503  502  0.00000000000E+00  0.00000000000E+00  0.54602783446E+02  0.54602783446E+02  0.00000000000E+00 0. -1.
         21   -1    0    0  502  503 -0.00000000000E+00 -0.00000000000E+00 -0.71535985995E+02  0.71535985995E+02  0.00000000000E+00 0. -1.
         25    2    1    2    0    0  0.00000000000E+00  0.00000000000E+00 -0.16933202549E+02  0.12613876944E+03  0.12499702319E+03 0.  0.
          4    1    3    3  501    0  0.50116599124E+02 -0.69080525038E+01 -0.45465742894E+02  0.68036247502E+02  0.15500000000E+01 0.  1.
         -4    1    3    3    0  501 -0.50116599124E+02  0.69080525038E+01  0.28532540345E+02  0.58102521939E+02  0.15500000000E+01 0.  1.
<mgrwt>
<rscale>  2 0.12499702E+03</rscale>
<asrwt>0</asrwt>
<pdfrwt beam="1">  1       21 0.84004282E-02 0.12499702E+03</pdfrwt>
<pdfrwt beam="2">  1       21 0.11005536E-01 0.12499702E+03</pdfrwt>
<totfact> 0.73892540E+06</totfact>
</mgrwt>
</event>
<event>
 5    0  0.1552712E+000  0.1249992E+03  0.7546771E-02  0.1235071E+00
         21   -1    0    0  503  502  0.00000000000E+00  0.00000000000E+00  0.90884281744E+02  0.90884281744E+02  0.00000000000E+00 0.  1.
         21   -1    0    0  502  503 -0.00000000000E+00 -0.00000000000E+00 -0.42979916647E+02  0.42979916647E+02  0.00000000000E+00 0.  1.
         25    2    1    2    0    0  0.00000000000E+00  0.00000000000E+00  0.47904365097E+02  0.13386419839E+03  0.12499918166E+03 0.  0.
          4    1    3    3  501    0  0.47710708650E+02 -0.36288877233E+02  0.50783797971E+01  0.60177959189E+02  0.15500000000E+01 0. -1.
         -4    1    3    3    0  501 -0.47710708650E+02  0.36288877233E+02  0.42825985300E+02  0.73686239202E+02  0.15500000000E+01 0. -1.
<mgrwt>
<rscale>  2 0.12499918E+03</rscale>
<asrwt>0</asrwt>
<pdfrwt beam="1">  1       21 0.13982197E-01 0.12499918E+03</pdfrwt>
<pdfrwt beam="2">  1       21 0.66122949E-02 0.12499918E+03</pdfrwt>
<totfact> 0.72848735E+06</totfact>
</mgrwt>
</event>
<event>
 5    0  0.1286073E+000  0.1250004E+03  0.7546771E-02  0.1235069E+00
         21   -1    0    0  503  502  0.00000000000E+00  0.00000000000E+00  0.10022184937E+02  0.10022184937E+02  0.00000000000E+00 0.  1.
         21   -1    0    0  502  503 -0.00000000000E+00 -0.00000000000E+00 -0.38976273834E+03  0.38976273834E+03  0.00000000000E+00 0.  1.
         25    2    1    2    0    0  0.00000000000E+00  0.00000000000E+00 -0.37974055340E+03  0.39978492327E+03  0.12500038792E+03 0.  0.
          4    1    3    3  501    0  0.28266509150E+02  0.11409595655E+02 -0.15434146615E+02  0.34202189905E+02  0.15500000000E+01 0. -1.
         -4    1    3    3    0  501 -0.28266509150E+02 -0.11409595655E+02 -0.36430640678E+03  0.36558273337E+03  0.15500000000E+01 0. -1.
<mgrwt>
<rscale>  2 0.12500039E+03</rscale>
<asrwt>0</asrwt>
<pdfrwt beam="1">  1       21 0.15418747E-02 0.12500039E+03</pdfrwt>
<pdfrwt beam="2">  1       21 0.59963496E-01 0.12500039E+03</pdfrwt>
<totfact> 0.48055155E+06</totfact>
</mgrwt>
</event>
<event>
 5    0  0.1508985E+000  0.1250039E+03  0.7546771E-02  0.1235063E+00
         21   -1    0    0  503  502  0.00000000000E+00  0.00000000000E+00  0.73621789783E+02  0.73621789783E+02  0.00000000000E+00 0. -1.
         21   -1    0    0  502  503 -0.00000000000E+00 -0.00000000000E+00 -0.53061612266E+02  0.53061612266E+02  0.00000000000E+00 0. -1.
         25    2    1    2    0    0  0.00000000000E+00  0.00000000000E+00  0.20560177516E+02  0.12668340205E+03  0.12500385376E+03 0.  0.
          4    1    3    3  501    0 -0.28434019376E+02 -0.47279183554E+02  0.40004594416E+02  0.68165861909E+02  0.15500000000E+01 0. -1.
         -4    1    3    3    0  501  0.28434019376E+02  0.47279183554E+02 -0.19444416900E+02  0.58517540140E+02  0.15500000000E+01 0. -1.
<mgrwt>
<rscale>  2 0.12500385E+03</rscale>
<asrwt>0</asrwt>
<pdfrwt beam="1">  1       21 0.11326429E-01 0.12500385E+03</pdfrwt>
<pdfrwt beam="2">  1       21 0.81633250E-02 0.12500385E+03</pdfrwt>
<totfact> 0.73805042E+06</totfact>
</mgrwt>
</event>
<event>
 5    0  0.1496893E+000  0.1249999E+03  0.7546771E-02  0.1235069E+00
         21   -1    0    0  503  502  0.00000000000E+00  0.00000000000E+00  0.16607939103E+02  0.16607939103E+02  0.00000000000E+00 0. -1.
         21   -1    0    0  502  503 -0.00000000000E+00 -0.00000000000E+00 -0.23520357745E+03  0.23520357745E+03  0.00000000000E+00 0. -1.
         25    2    1    2    0    0  0.00000000000E+00  0.00000000000E+00 -0.21859563835E+03  0.25181151655E+03  0.12499994706E+03 0.  0.
          4    1    3    3  501    0 -0.12573098174E+02 -0.50997446573E+02 -0.41131060454E+02  0.66730719977E+02  0.15500000000E+01 0.  1.
         -4    1    3    3    0  501  0.12573098174E+02  0.50997446573E+02 -0.17746457789E+03  0.18508079658E+03  0.15500000000E+01 0.  1.
<mgrwt>
<rscale>  2 0.12499995E+03</rscale>
<asrwt>0</asrwt>
<pdfrwt beam="1">  1       21 0.25550674E-02 0.12499995E+03</pdfrwt>
<pdfrwt beam="2">  1       21 0.36185168E-01 0.12499995E+03</pdfrwt>
<totfact> 0.59708134E+06</totfact>
</mgrwt>
</event>
<event>
 5    0  0.1652713E+000  0.1250121E+03  0.7546771E-02  0.1235050E+00
         21   -1    0    0  503  502  0.00000000000E+00  0.00000000000E+00  0.11618338178E+03  0.11618338178E+03  0.00000000000E+00 0. -1.
         21   -1    0    0  502  503 -0.00000000000E+00 -0.00000000000E+00 -0.33627925690E+02  0.33627925690E+02  0.00000000000E+00 0. -1.
         25    2    1    2    0    0  0.00000000000E+00  0.00000000000E+00  0.82555456093E+02  0.14981130747E+03  0.12501209748E+03 0.  0.
          4    1    3    3  501    0  0.55408163238E+02 -0.22320916757E+02  0.63254614075E+02  0.87016300657E+02  0.15500000000E+01 0.  1.
         -4    1    3    3    0  501 -0.55408163238E+02  0.22320916757E+02  0.19300842019E+02  0.62795006815E+02  0.15500000000E+01 0.  1.
<mgrwt>
<rscale>  2 0.12501210E+03</rscale>
<asrwt>0</asrwt>
<pdfrwt beam="1">  1       21 0.17874366E-01 0.12501210E+03</pdfrwt>
<pdfrwt beam="2">  1       21 0.51735271E-02 0.12501210E+03</pdfrwt>
<totfact> 0.70761119E+06</totfact>
</mgrwt>
</event>
<event>
 5    0  0.1463887E+000  0.1250063E+03  0.7546771E-02  0.1235059E+00
         21   -1    0    0  503  502  0.00000000000E+00  0.00000000000E+00  0.58042841626E+02  0.58042841626E+02  0.00000000000E+00 0.  1.
         21   -1    0    0  502  503 -0.00000000000E+00 -0.00000000000E+00 -0.67306219579E+02  0.67306219579E+02  0.00000000000E+00 0.  1.
         25    2    1    2    0    0  0.00000000000E+00  0.00000000000E+00 -0.92633779533E+01  0.12534906121E+03  0.12500630774E+03 0.  0.
          4    1    3    3  501    0 -0.38596639248E+02 -0.35364805668E+02  0.29577416056E+02  0.60146455272E+02  0.15500000000E+01 0.  1.
         -4    1    3    3    0  501  0.38596639248E+02  0.35364805668E+02 -0.38840794009E+02  0.65202605933E+02  0.15500000000E+01 0.  1.
<mgrwt>
<rscale>  2 0.12500631E+03</rscale>
<asrwt>0</asrwt>
<pdfrwt beam="1">  1       21 0.89296680E-02 0.12500631E+03</pdfrwt>
<pdfrwt beam="2">  1       21 0.10354803E-01 0.12500631E+03</pdfrwt>
<totfact> 0.73984518E+06</totfact>
</mgrwt>
</event>
<event>
 5    0  0.1540186E+000  0.1249979E+03  0.7546771E-02  0.1235072E+00
         21   -1    0    0  503  502  0.00000000000E+00  0.00000000000E+00  0.29580353853E+02  0.29580353853E+02  0.00000000000E+00 0.  1.
         21   -1    0    0  502  503 -0.00000000000E+00 -0.00000000000E+00 -0.13205121899E+03  0.13205121899E+03  0.00000000000E+00 0.  1.
         25    2    1    2    0    0  0.00000000000E+00  0.00000000000E+00 -0.10247086513E+03  0.16163157284E+03  0.12499794853E+03 0.  0.
          4    1    3    3  501    0 -0.21716474352E+02 -0.47165526847E+02 -0.96169088693E+02  0.10930273693E+03  0.15500000000E+01 0.  1.
         -4    1    3    3    0  501  0.21716474352E+02  0.47165526847E+02 -0.63017764405E+01  0.52328835907E+02  0.15500000000E+01 0.  1.
<mgrwt>
<rscale>  2 0.12499795E+03</rscale>
<asrwt>0</asrwt>
<pdfrwt beam="1">  1       21 0.45508236E-02 0.12499795E+03</pdfrwt>
<pdfrwt beam="2">  1       21 0.20315573E-01 0.12499795E+03</pdfrwt>
<totfact> 0.69324298E+06</totfact>
</mgrwt>
</event>
<event>
 5    0  0.1222151E+000  0.1249947E+03  0.7546771E-02  0.1235078E+00
         21   -1    0    0  503  502  0.00000000000E+00  0.00000000000E+00  0.50677116777E+01  0.50677116777E+01  0.00000000000E+00 0.  1.
         21   -1    0    0  502  503 -0.00000000000E+00 -0.00000000000E+00 -0.77074561694E+03  0.77074561694E+03  0.00000000000E+00 0.  1.
         25    2    1    2    0    0  0.00000000000E+00  0.00000000000E+00 -0.76567790526E+03  0.77581332861E+03  0.12499466490E+03 0.  0.
          4    1    3    3  501    0  0.18381790194E+02  0.16683523131E+02 -0.26974697865E+02  0.36691511003E+02  0.15500000000E+01 0. -1.
         -4    1    3    3    0  501 -0.18381790194E+02 -0.16683523131E+02 -0.73870320739E+03  0.73912181761E+03  0.15500000000E+01 0. -1.
<mgrwt>
<rscale>  2 0.12499466E+03</rscale>
<asrwt>0</asrwt>
<pdfrwt beam="1">  1       21 0.77964857E-03 0.12499466E+03</pdfrwt>
<pdfrwt beam="2">  1       21 0.11857615E+00 0.12499466E+03</pdfrwt>
<totfact> 0.30183966E+06</totfact>
</mgrwt>
</event>
<event>
 5    0  0.1485759E+000  0.1250017E+03  0.7546771E-02  0.1235067E+00
         21   -1    0    0  503  502  0.00000000000E+00  0.00000000000E+00  0.62035762098E+02  0.62035762098E+02  0.00000000000E+00 0. -1.
         21   -1    0    0  502  503 -0.00000000000E+00 -0.00000000000E+00 -0.62969443161E+02  0.62969443161E+02  0.00000000000E+00 0. -1.
         25    2    1    2    0    0  0.00000000000E+00  0.00000000000E+00 -0.93368106338E+00  0.12500520526E+03  0.12500171831E+03 0.  0.
          4    1    3    3  501    0  0.48236079956E+02 -0.70996141301E+01  0.38608933915E+02  0.62210740298E+02  0.15500000000E+01 0.  1.
         -4    1    3    3    0  501 -0.48236079956E+02  0.70996141301E+01 -0.39542614979E+02  0.62794464961E+02  0.15500000000E+01 0.  1.
<mgrwt>
<rscale>  2 0.12500172E+03</rscale>
<asrwt>0</asrwt>
<pdfrwt beam="1">  1       21 0.95439634E-02 0.12500172E+03</pdfrwt>
<pdfrwt beam="2">  1       21 0.96876066E-02 0.12500172E+03</pdfrwt>
<totfact> 0.74039626E+06</totfact>
</mgrwt>
</event>
<event>
 5    0  0.1568853E+000  0.1249721E+03  0.7546771E-02  0.1235113E+00
         21   -1    0    0  503  502  0.00000000000E+00  0.00000000000E+00  0.32843679537E+02  0.32843679537E+02  0.00000000000E+00 0.  1.
         21   -1    0    0  502  503 -0.00000000000E+00 -0.00000000000E+00 -0.11888158864E+03  0.11888158864E+03  0.00000000000E+00 0.  1.
         25    2    1    2    0    0  0.00000000000E+00  0.00000000000E+00 -0.86037909105E+02  0.15172526818E+03  0.12497213770E+03 0.  0.
          4    1    3    3  501    0 -0.21160979627E+02 -0.49910321067E+02 -0.53380966361E+01  0.54495183122E+02  0.15500000000E+01 0. -1.
         -4    1    3    3    0  501  0.21160979627E+02  0.49910321067E+02 -0.80699812469E+02  0.97230085057E+02  0.15500000000E+01 0. -1.
<mgrwt>
<rscale>  2 0.12497214E+03</rscale>
<asrwt>0</asrwt>
<pdfrwt beam="1">  1       21 0.50528738E-02 0.12497214E+03</pdfrwt>
<pdfrwt beam="2">  1       21 0.18289475E-01 0.12497214E+03</pdfrwt>
<totfact> 0.70593190E+06</totfact>
</mgrwt>
</event>
<event>
 5    0  0.1595585E+000  0.1250023E+03  0.7546771E-02  0.1235066E+00
         21   -1    0    0  503  502  0.00000000000E+00  0.00000000000E+00  0.40646046697E+02  0.40646046697E+02  0.00000000000E+00 0.  1.
         21   -1    0    0  502  503 -0.00000000000E+00 -0.00000000000E+00 -0.96107526488E+02  0.96107526488E+02  0.00000000000E+00 0.  1.
         25    2    1    2    0    0  0.00000000000E+00  0.00000000000E+00 -0.55461479791E+02  0.13675357319E+03  0.12500225613E+03 0.  0.
          4    1    3    3  501    0  0.16722368248E+02 -0.58301301113E+02 -0.11309335647E+02  0.61716957832E+02  0.15500000000E+01 0.  1.
         -4    1    3    3    0  501 -0.16722368248E+02  0.58301301113E+02 -0.44152144143E+02  0.75036615354E+02  0.15500000000E+01 0.  1.
<mgrwt>
<rscale>  2 0.12500226E+03</rscale>
<asrwt>0</asrwt>
<pdfrwt beam="1">  1       21 0.62532380E-02 0.12500226E+03</pdfrwt>
<pdfrwt beam="2">  1       21 0.14785773E-01 0.12500226E+03</pdfrwt>
<totfact> 0.72460941E+06</totfact>
</mgrwt>
</event>
<event>
 5    0  0.1250214E+000  0.1250073E+03  0.7546771E-02  0.1235058E+00
         21   -1    0    0  503  502  0.00000000000E+00  0.00000000000E+00  0.60725384818E+01  0.60725384818E+01  0.00000000000E+00 0.  1.
         21   -1    0    0  502  503 -0.00000000000E+00 -0.00000000000E+00 -0.64334011483E+03  0.64334011483E+03  0.00000000000E+00 0.  1.
         25    2    1    2    0    0  0.00000000000E+00  0.00000000000E+00 -0.63726757635E+03  0.64941265331E+03  0.12500732145E+03 0.  0.
          4    1    3    3  501    0 -0.62129640674E+02  0.58874994586E+01 -0.33468809728E+03  0.34046039397E+03  0.15500000000E+01 0.  1.
         -4    1    3    3    0  501  0.62129640674E+02 -0.58874994586E+01 -0.30257947906E+03  0.30895225934E+03  0.15500000000E+01 0.  1.
<mgrwt>
<rscale>  2 0.12500732E+03</rscale>
<asrwt>0</asrwt>
<pdfrwt beam="1">  1       21 0.93423682E-03 0.12500732E+03</pdfrwt>
<pdfrwt beam="2">  1       21 0.98975389E-01 0.12500732E+03</pdfrwt>
<totfact> 0.34942627E+06</totfact>
</mgrwt>
</event>
<event>
 5    0  0.1522092E+000  0.1249998E+03  0.7546771E-02  0.1235070E+00
         21   -1    0    0  503  502  0.00000000000E+00  0.00000000000E+00  0.28564880980E+02  0.28564880980E+02  0.00000000000E+00 0. -1.
         21   -1    0    0  502  503 -0.00000000000E+00 -0.00000000000E+00 -0.13674956696E+03  0.13674956696E+03  0.00000000000E+00 0. -1.
         25    2    1    2    0    0  0.00000000000E+00  0.00000000000E+00 -0.10818468598E+03  0.16531444794E+03  0.12499976167E+03 0.  0.
          4    1    3    3  501    0  0.32150015123E+01 -0.48529143260E+02 -0.10596504738E+03  0.11660363522E+03  0.15500000000E+01 0. -1.
         -4    1    3    3    0  501 -0.32150015123E+01  0.48529143260E+02 -0.22196385990E+01  0.48710812720E+02  0.15500000000E+01 0. -1.
<mgrwt>
<rscale>  2 0.12499976E+03</rscale>
<asrwt>0</asrwt>
<pdfrwt beam="1">  1       21 0.43945971E-02 0.12499976E+03</pdfrwt>
<pdfrwt beam="2">  1       21 0.21038395E-01 0.12499976E+03</pdfrwt>
<totfact> 0.68876306E+06</totfact>
</mgrwt>
</event>
<event>
 5    0  0.1222151E+000  0.1250082E+03  0.7546771E-02  0.1235056E+00
         21   -1    0    0  503  502  0.00000000000E+00  0.00000000000E+00  0.64192306641E+01  0.64192306641E+01  0.00000000000E+00 0.  1.
         21   -1    0    0  502  503 -0.00000000000E+00 -0.00000000000E+00 -0.60860278177E+03  0.60860278177E+03  0.00000000000E+00 0.  1.
         25    2    1    2    0    0  0.00000000000E+00  0.00000000000E+00 -0.60218355111E+03  0.61502201244E+03  0.12500818596E+03 0.  0.
          4    1    3    3  501    0  0.58103631085E+01  0.45848347512E+02 -0.94192886532E+02  0.10493109006E+03  0.15500000000E+01 0.  1.
         -4    1    3    3    0  501 -0.58103631085E+01 -0.45848347512E+02 -0.50799066458E+03  0.51009092237E+03  0.15500000000E+01 0.  1.
<mgrwt>
<rscale>  2 0.12500819E+03</rscale>
<asrwt>0</asrwt>
<pdfrwt beam="1">  1       21 0.98757404E-03 0.12500819E+03</pdfrwt>
<pdfrwt beam="2">  1       21 0.93631188E-01 0.12500819E+03</pdfrwt>
<totfact> 0.36414573E+06</totfact>
</mgrwt>
</event>
<event>
 5    0  0.1222151E+000  0.1250048E+03  0.7546771E-02  0.1235062E+00
         21   -1    0    0  503  502  0.00000000000E+00  0.00000000000E+00  0.43139812125E+01  0.43139812125E+01  0.00000000000E+00 0.  1.
         21   -1    0    0  502  503 -0.00000000000E+00 -0.00000000000E+00 -0.90555545928E+03  0.90555545928E+03  0.00000000000E+00 0.  1.
         25    2    1    2    0    0  0.00000000000E+00  0.00000000000E+00 -0.90124147806E+03  0.90986944049E+03  0.12500478772E+03 0.  0.
          4    1    3    3  501    0 -0.81815189702E+01 -0.25186451285E+02 -0.86254832611E+03  0.86295614718E+03  0.15500000000E+01 0. -1.
         -4    1    3    3    0  501  0.81815189702E+01  0.25186451285E+02 -0.38693151958E+02  0.46913293313E+02  0.15500000000E+01 0. -1.
<mgrwt>
<rscale>  2 0.12500479E+03</rscale>
<asrwt>0</asrwt>
<pdfrwt beam="1">  1       21 0.66368992E-03 0.12500479E+03</pdfrwt>
<pdfrwt beam="2">  1       21 0.13931612E+00 0.12500479E+03</pdfrwt>
<totfact> 0.26014258E+06</totfact>
</mgrwt>
</event>
<event>
 5    0  0.1305969E+000  0.1250029E+03  0.7546771E-02  0.1235065E+00
         21   -1    0    0  503  502  0.00000000000E+00  0.00000000000E+00  0.72970766213E+01  0.72970766213E+01  0.00000000000E+00 0. -1.
         21   -1    0    0  502  503 -0.00000000000E+00 -0.00000000000E+00 -0.53534176633E+03  0.53534176633E+03  0.00000000000E+00 0. -1.
         25    2    1    2    0    0  0.00000000000E+00  0.00000000000E+00 -0.52804468971E+03  0.54263884295E+03  0.12500287817E+03 0.  0.
          4    1    3    3  501    0  0.84740267256E+01 -0.38912400168E+02 -0.55019766340E+02  0.67937921693E+02  0.15500000000E+01 0. -1.
         -4    1    3    3    0  501 -0.84740267256E+01  0.38912400168E+02 -0.47302492337E+03  0.47470092126E+03  0.15500000000E+01 0. -1.
<mgrwt>
<rscale>  2 0.12500288E+03</rscale>
<asrwt>0</asrwt>
<pdfrwt beam="1">  1       21 0.11226269E-02 0.12500288E+03</pdfrwt>
<pdfrwt beam="2">  1       21 0.82360293E-01 0.12500288E+03</pdfrwt>
<totfact> 0.39819362E+06</totfact>
</mgrwt>
</event>
<event>
 5    0  0.1588247E+000  0.1249986E+03  0.7546771E-02  0.1235071E+00
         21   -1    0    0  503  502  0.00000000000E+00  0.00000000000E+00  0.21754143094E+02  0.21754143094E+02  0.00000000000E+00 0. -1.
         21   -1    0    0  502  503 -0.00000000000E+00 -0.00000000000E+00 -0.17955947861E+03  0.17955947861E+03  0.00000000000E+00 0. -1.
         25    2    1    2    0    0  0.00000000000E+00  0.00000000000E+00 -0.15780533552E+03  0.20131362170E+03  0.12499860146E+03 0.  0.
          4    1    3    3  501    0  0.56762843059E+02  0.25705243047E+02 -0.71525782629E+02  0.94874232292E+02  0.15500000000E+01 0. -1.
         -4    1    3    3    0  501 -0.56762843059E+02 -0.25705243047E+02 -0.86279552887E+02  0.10643938941E+03  0.15500000000E+01 0. -1.
<mgrwt>
<rscale>  2 0.12499860E+03</rscale>
<asrwt>0</asrwt>
<pdfrwt beam="1">  1       21 0.33467912E-02 0.12499860E+03</pdfrwt>
<pdfrwt beam="2">  1       21 0.27624536E-01 0.12499860E+03</pdfrwt>
<totfact> 0.64787483E+06</totfact>
</mgrwt>
</event>
<event>
 5    0  0.1614920E+000  0.1249938E+03  0.7546771E-02  0.1235079E+00
         21   -1    0    0  503  502  0.00000000000E+00  0.00000000000E+00  0.29026808876E+02  0.29026808876E+02  0.00000000000E+00 0. -1.
         21   -1    0    0  502  503 -0.00000000000E+00 -0.00000000000E+00 -0.13456050330E+03  0.13456050330E+03  0.00000000000E+00 0. -1.
         25    2    1    2    0    0  0.00000000000E+00  0.00000000000E+00 -0.10553369443E+03  0.16358731218E+03  0.12499379203E+03 0.  0.
          4    1    3    3  501    0 -0.60166040804E+02  0.10929157580E+02 -0.36003402442E+02  0.70979197226E+02  0.15500000000E+01 0.  1.
         -4    1    3    3    0  501  0.60166040804E+02 -0.10929157580E+02 -0.69530291983E+02  0.92608114951E+02  0.15500000000E+01 0.  1.
<mgrwt>
<rscale>  2 0.12499379E+03</rscale>
<asrwt>0</asrwt>
<pdfrwt beam="1">  1       21 0.44656629E-02 0.12499379E+03</pdfrwt>
<pdfrwt beam="2">  1       21 0.20701616E-01 0.12499379E+03</pdfrwt>
<totfact> 0.69094701E+06</totfact>
</mgrwt>
</event>
<event>
 5    0  0.1378422E+000  0.1249982E+03  0.7546771E-02  0.1235072E+00
         21   -1    0    0  503  502  0.00000000000E+00  0.00000000000E+00  0.33542932694E+03  0.33542932694E+03  0.00000000000E+00 0. -1.
         21   -1    0    0  502  503 -0.00000000000E+00 -0.00000000000E+00 -0.11645181602E+02  0.11645181602E+02  0.00000000000E+00 0. -1.
         25    2    1    2    0    0  0.00000000000E+00  0.00000000000E+00  0.32378414534E+03  0.34707450854E+03  0.12499816682E+03 0.  0.
          4    1    3    3  501    0 -0.44015768169E+02 -0.15980620773E+02  0.47039794030E+02  0.66392114066E+02  0.15500000000E+01 0. -1.
         -4    1    3    3    0  501  0.44015768169E+02  0.15980620773E+02  0.27674435131E+03  0.28068239448E+03  0.15500000000E+01 0. -1.
<mgrwt>
<rscale>  2 0.12499817E+03</rscale>
<asrwt>0</asrwt>
<pdfrwt beam="1">  1       21 0.51604504E-01 0.12499817E+03</pdfrwt>
<pdfrwt beam="2">  1       21 0.17915667E-02 0.12499817E+03</pdfrwt>
<totfact> 0.51757596E+06</totfact>
</mgrwt>
</event>
<event>
 5    0  0.1347807E+000  0.1250025E+03  0.7546771E-02  0.1235065E+00
         21   -1    0    0  503  502  0.00000000000E+00  0.00000000000E+00  0.82508640003E+01  0.82508640003E+01  0.00000000000E+00 0.  1.
         21   -1    0    0  502  503 -0.00000000000E+00 -0.00000000000E+00 -0.47345390271E+03  0.47345390271E+03  0.00000000000E+00 0.  1.
         25    2    1    2    0    0  0.00000000000E+00  0.00000000000E+00 -0.46520303871E+03  0.48170476671E+03  0.12500246016E+03 0.  0.
          4    1    3    3  501    0 -0.44986494399E+02  0.37787904239E+02 -0.15064730389E+03  0.16170566797E+03  0.15500000000E+01 0.  1.
         -4    1    3    3    0  501  0.44986494399E+02 -0.37787904239E+02 -0.31455573483E+03  0.31999909874E+03  0.15500000000E+01 0.  1.
<mgrwt>
<rscale>  2 0.12500246E+03</rscale>
<asrwt>0</asrwt>
<pdfrwt beam="1">  1       21 0.12693635E-02 0.12500246E+03</pdfrwt>
<pdfrwt beam="2">  1       21 0.72839074E-01 0.12500246E+03</pdfrwt>
<totfact> 0.43051321E+06</totfact>
</mgrwt>
</event>
<event>
 5    0  0.1307693E+000  0.1249969E+03  0.7546771E-02  0.1235074E+00
         21   -1    0    0  503  502  0.00000000000E+00  0.00000000000E+00  0.12266979603E+02  0.12266979603E+02  0.00000000000E+00 0.  1.
         21   -1    0    0  502  503 -0.00000000000E+00 -0.00000000000E+00 -0.31842059867E+03  0.31842059867E+03  0.00000000000E+00 0.  1.
         25    2    1    2    0    0  0.00000000000E+00  0.00000000000E+00 -0.30615361907E+03  0.33068757828E+03  0.12499694379E+03 0.  0.
          4    1    3    3  501    0 -0.14318668692E+02 -0.22467469675E+02 -0.35650314174E+01  0.26924401864E+02  0.15500000000E+01 0. -1.
         -4    1    3    3    0  501  0.14318668692E+02  0.22467469675E+02 -0.30258858765E+03  0.30376317641E+03  0.15500000000E+01 0. -1.
<mgrwt>
<rscale>  2 0.12499694E+03</rscale>
<asrwt>0</asrwt>
<pdfrwt beam="1">  1       21 0.18872279E-02 0.12499694E+03</pdfrwt>
<pdfrwt beam="2">  1       21 0.48987778E-01 0.12499694E+03</pdfrwt>
<totfact> 0.53001192E+06</totfact>
</mgrwt>
</event>
<event>
 5    0  0.1505980E+000  0.1250005E+03  0.7546771E-02  0.1235069E+00
         21   -1    0    0  503  502  0.00000000000E+00  0.00000000000E+00  0.90155488038E+02  0.90155488038E+02  0.00000000000E+00 0.  1.
         21   -1    0    0  502  503 -0.00000000000E+00 -0.00000000000E+00 -0.43328261951E+02  0.43328261951E+02  0.00000000000E+00 0.  1.
         25    2    1    2    0    0  0.00000000000E+00  0.00000000000E+00  0.46827226087E+02  0.13348374999E+03  0.12500048963E+03 0.  0.
          4    1    3    3  501    0  0.30030396981E+01  0.47703303112E+02 -0.19557269311E+02  0.51667326795E+02  0.15500000000E+01 0.  1.
         -4    1    3    3    0  501 -0.30030396981E+01 -0.47703303112E+02  0.66384495398E+02  0.81816423195E+02  0.15500000000E+01 0.  1.
<mgrwt>
<rscale>  2 0.12500049E+03</rscale>
<asrwt>0</asrwt>
<pdfrwt beam="1">  1       21 0.13870075E-01 0.12500049E+03</pdfrwt>
<pdfrwt beam="2">  1       21 0.66658865E-02 0.12500049E+03</pdfrwt>
<totfact> 0.72896959E+06</totfact>
</mgrwt>
</event>
<event>
 5    0  0.1450760E+000  0.1249668E+03  0.7546771E-02  0.1235121E+00
         21   -1    0    0  503  502  0.00000000000E+00  0.00000000000E+00  0.12742784017E+02  0.12742784017E+02  0.00000000000E+00 0.  1.
         21   -1    0    0  502  503 -0.00000000000E+00 -0.00000000000E+00 -0.30638304609E+03  0.30638304609E+03  0.00000000000E+00 0.  1.
         25    2    1    2    0    0  0.00000000000E+00  0.00000000000E+00 -0.29364026207E+03  0.31912583011E+03  0.12496676331E+03 0.  0.
          4    1    3    3  501    0  0.30262259949E+02  0.54000768259E+02 -0.16816795534E+03  0.17920589012E+03  0.15500000000E+01 0. -1.
         -4    1    3    3    0  501 -0.30262259949E+02 -0.54000768259E+02 -0.12547230673E+03  0.13991993999E+03  0.15500000000E+01 0. -1.
<mgrwt>
<rscale>  2 0.12496676E+03</rscale>
<asrwt>0</asrwt>
<pdfrwt beam="1">  1       21 0.19604284E-02 0.12496676E+03</pdfrwt>
<pdfrwt beam="2">  1       21 0.47135852E-01 0.12496676E+03</pdfrwt>
<totfact> 0.53947664E+06</totfact>
</mgrwt>
</event>
<event>
 5    0  0.1579074E+000  0.1249992E+03  0.7546771E-02  0.1235070E+00
         21   -1    0    0  503  502  0.00000000000E+00  0.00000000000E+00  0.19343514697E+03  0.19343514697E+03  0.00000000000E+00 0. -1.
         21   -1    0    0  502  503 -0.00000000000E+00 -0.00000000000E+00 -0.20193855613E+02  0.20193855613E+02  0.00000000000E+00 0. -1.
         25    2    1    2    0    0  0.00000000000E+00  0.00000000000E+00  0.17324129135E+03  0.21362900258E+03  0.12499922285E+03 0.  0.
          4    1    3    3  501    0  0.31022960872E+02  0.41294631840E+02  0.26533073277E+02  0.58086807431E+02  0.15500000000E+01 0.  1.
         -4    1    3    3    0  501 -0.31022960872E+02 -0.41294631840E+02  0.14670821808E+03  0.15554219515E+03  0.15500000000E+01 0.  1.
<mgrwt>
<rscale>  2 0.12499922E+03</rscale>
<asrwt>0</asrwt>
<pdfrwt beam="1">  1       21 0.29759252E-01 0.12499922E+03</pdfrwt>
<pdfrwt beam="2">  1       21 0.31067471E-02 0.12499922E+03</pdfrwt>
<totfact> 0.63480983E+06</totfact>
</mgrwt>
</event>
<event>
 5    0  0.1222151E+000  0.1249936E+03  0.7546771E-02  0.1235079E+00
         21   -1    0    0  503  502  0.00000000000E+00  0.00000000000E+00  0.94614451740E+03  0.94614451740E+03  0.00000000000E+00 0. -1.
         21   -1    0    0  502  503 -0.00000000000E+00 -0.00000000000E+00 -0.41281735996E+01  0.41281735996E+01  0.00000000000E+00 0. -1.
         25    2    1    2    0    0  0.00000000000E+00  0.00000000000E+00  0.94201634380E+03  0.95027269100E+03  0.12499358093E+03 0.  0.
          4    1    3    3  501    0  0.20929009737E+02  0.56776660348E+02  0.58923579460E+03  0.59233675958E+03  0.15500000000E+01 0.  1.
         -4    1    3    3    0  501 -0.20929009737E+02 -0.56776660348E+02  0.35278054920E+03  0.35793593142E+03  0.15500000000E+01 0.  1.
<mgrwt>
<rscale>  2 0.12499358E+03</rscale>
<asrwt>0</asrwt>
<pdfrwt beam="1">  1       21 0.14556052E+00 0.12499358E+03</pdfrwt>
<pdfrwt beam="2">  1       21 0.63510438E-03 0.12499358E+03</pdfrwt>
<totfact> 0.24908090E+06</totfact>
</mgrwt>
</event>
<event>
 5    0  0.1612119E+000  0.1249956E+03  0.7546771E-02  0.1235076E+00
         21   -1    0    0  503  502  0.00000000000E+00  0.00000000000E+00  0.59995210544E+02  0.59995210544E+02  0.00000000000E+00 0.  1.
         21   -1    0    0  502  503 -0.00000000000E+00 -0.00000000000E+00 -0.65104765119E+02  0.65104765119E+02  0.00000000000E+00 0.  1.
         25    2    1    2    0    0  0.00000000000E+00  0.00000000000E+00 -0.51095545751E+01  0.12509997566E+03  0.12499558537E+03 0.  0.
          4    1    3    3  501    0  0.18908914824E+02  0.58372053053E+02  0.92333424878E+01  0.62068516584E+02  0.15500000000E+01 0. -1.
         -4    1    3    3    0  501 -0.18908914824E+02 -0.58372053053E+02 -0.14342897063E+02  0.63031459079E+02  0.15500000000E+01 0. -1.
<mgrwt>
<rscale>  2 0.12499559E+03</rscale>
<asrwt>0</asrwt>
<pdfrwt beam="1">  1       21 0.92300324E-02 0.12499559E+03</pdfrwt>
<pdfrwt beam="2">  1       21 0.10016118E-01 0.12499559E+03</pdfrwt>
<totfact> 0.74038435E+06</totfact>
</mgrwt>
</event>
<event>
 5    0  0.1589674E+000  0.1249998E+03  0.7546771E-02  0.1235070E+00
         21   -1    0    0  503  502  0.00000000000E+00  0.00000000000E+00  0.77188482875E+02  0.77188482875E+02  0.00000000000E+00 0.  1.
         21   -1    0    0  502  503 -0.00000000000E+00 -0.00000000000E+00 -0.50606505254E+02  0.50606505254E+02  0.00000000000E+00 0.  1.
         25    2    1    2    0    0  0.00000000000E+00  0.00000000000E+00  0.26581977621E+02  0.12779498813E+03  0.12499982983E+03 0.  0.
          4    1    3    3  501    0  0.29315476490E+02  0.50788666616E+02 -0.87539051737E+01  0.59312049149E+02  0.15500000000E+01 0. -1.
         -4    1    3    3    0  501 -0.29315476490E+02 -0.50788666616E+02  0.35335882795E+02  0.68482938980E+02  0.15500000000E+01 0. -1.
<mgrwt>
<rscale>  2 0.12499983E+03</rscale>
<asrwt>0</asrwt>
<pdfrwt beam="1">  1       21 0.11875151E-01 0.12499983E+03</pdfrwt>
<pdfrwt beam="2">  1       21 0.77856162E-02 0.12499983E+03</pdfrwt>
<totfact> 0.73661592E+06</totfact>
</mgrwt>
</event>
<event>
 5    0  0.1315113E+000  0.1250133E+03  0.7546771E-02  0.1235049E+00
         21   -1    0    0  503  502  0.00000000000E+00  0.00000000000E+00  0.82084814239E+01  0.82084814239E+01  0.00000000000E+00 0. -1.
         21   -1    0    0  502  503 -0.00000000000E+00 -0.00000000000E+00 -0.47598065308E+03  0.47598065308E+03  0.00000000000E+00 0. -1.
         25    2    1    2    0    0  0.00000000000E+00  0.00000000000E+00 -0.46777217166E+03  0.48418913450E+03  0.12501325288E+03 0.  0.
          4    1    3    3  501    0  0.21399432592E+02 -0.40323638626E+02 -0.39915206585E+03  0.40175702323E+03  0.15500000000E+01 0.  1.
         -4    1    3    3    0  501 -0.21399432592E+02  0.40323638626E+02 -0.68620105809E+02  0.82432111270E+02  0.15500000000E+01 0.  1.
<mgrwt>
<rscale>  2 0.12501325E+03</rscale>
<asrwt>0</asrwt>
<pdfrwt beam="1">  1       21 0.12628430E-02 0.12501325E+03</pdfrwt>
<pdfrwt beam="2">  1       21 0.73227811E-01 0.12501325E+03</pdfrwt>
<totfact> 0.42900545E+06</totfact>
</mgrwt>
</event>
<event>
 5    0  0.1527453E+000  0.1250249E+03  0.7546771E-02  0.1235030E+00
         21   -1    0    0  503  502  0.00000000000E+00  0.00000000000E+00  0.64873699166E+02  0.64873699166E+02  0.00000000000E+00 0. -1.
         21   -1    0    0  502  503 -0.00000000000E+00 -0.00000000000E+00 -0.60237184420E+02  0.60237184420E+02  0.00000000000E+00 0. -1.
         25    2    1    2    0    0  0.00000000000E+00  0.00000000000E+00  0.46365147455E+01  0.12511088359E+03  0.12502494120E+03 0.  0.
          4    1    3    3  501    0  0.52334217176E+02  0.34125768861E+02  0.91440569204E+00  0.62503416111E+02  0.15500000000E+01 0. -1.
         -4    1    3    3    0  501 -0.52334217176E+02 -0.34125768861E+02  0.37221090535E+01  0.62607467475E+02  0.15500000000E+01 0. -1.
<mgrwt>
<rscale>  2 0.12502494E+03</rscale>
<asrwt>0</asrwt>
<pdfrwt beam="1">  1       21 0.99805691E-02 0.12502494E+03</pdfrwt>
<pdfrwt beam="2">  1       21 0.92672591E-02 0.12502494E+03</pdfrwt>
<totfact> 0.73981420E+06</totfact>
</mgrwt>
</event>
<event>
 5    0  0.1285579E+000  0.1250008E+03  0.7546771E-02  0.1235068E+00
         21   -1    0    0  503  502  0.00000000000E+00  0.00000000000E+00  0.11344602542E+02  0.11344602542E+02  0.00000000000E+00 0. -1.
         21   -1    0    0  502  503 -0.00000000000E+00 -0.00000000000E+00 -0.34433096773E+03  0.34433096773E+03  0.00000000000E+00 0. -1.
         25    2    1    2    0    0  0.00000000000E+00  0.00000000000E+00 -0.33298636519E+03  0.35567557027E+03  0.12500076755E+03 0.  0.
          4    1    3    3  501    0 -0.19550738174E+02 -0.20880818968E+02 -0.32455067080E+03  0.32581249267E+03  0.15500000000E+01 0. -1.
         -4    1    3    3    0  501  0.19550738174E+02  0.20880818968E+02 -0.84356943870E+01  0.29863077600E+02  0.15500000000E+01 0. -1.
<mgrwt>
<rscale>  2 0.12500077E+03</rscale>
<asrwt>0</asrwt>
<pdfrwt beam="1">  1       21 0.17453237E-02 0.12500077E+03</pdfrwt>
<pdfrwt beam="2">  1       21 0.52973988E-01 0.12500077E+03</pdfrwt>
<totfact> 0.51121008E+06</totfact>
</mgrwt>
</event>
<event>
 5    0  0.1547855E+000  0.1249954E+03  0.7546771E-02  0.1235077E+00
         21   -1    0    0  503  502  0.00000000000E+00  0.00000000000E+00  0.68543640196E+02  0.68543640196E+02  0.00000000000E+00 0.  1.
         21   -1    0    0  502  503 -0.00000000000E+00 -0.00000000000E+00 -0.56985027105E+02  0.56985027105E+02  0.00000000000E+00 0.  1.
         25    2    1    2    0    0  0.00000000000E+00  0.00000000000E+00  0.11558613091E+02  0.12552866730E+03  0.12499537903E+03 0.  0.
          4    1    3    3  501    0 -0.16118554385E+02  0.56570602433E+02  0.26929020924E+02  0.64711788130E+02  0.15500000000E+01 0. -1.
         -4    1    3    3    0  501  0.16118554385E+02 -0.56570602433E+02 -0.15370407833E+02  0.60816879171E+02  0.15500000000E+01 0. -1.
<mgrwt>
<rscale>  2 0.12499538E+03</rscale>
<asrwt>0</asrwt>
<pdfrwt beam="1">  1       21 0.10545175E-01 0.12499538E+03</pdfrwt>
<pdfrwt beam="2">  1       21 0.87669272E-02 0.12499538E+03</pdfrwt>
<totfact> 0.73980105E+06</totfact>
</mgrwt>
</event>
<event>
 5    0  0.1553697E+000  0.1250108E+03  0.7546771E-02  0.1235052E+00
         21   -1    0    0  503  502  0.00000000000E+00  0.00000000000E+00  0.56570557707E+02  0.56570557707E+02  0.00000000000E+00 0.  1.
         21   -1    0    0  502  503 -0.00000000000E+00 -0.00000000000E+00 -0.69062893384E+02  0.69062893384E+02  0.00000000000E+00 0.  1.
         25    2    1    2    0    0  0.00000000000E+00  0.00000000000E+00 -0.12492335677E+02  0.12563345109E+03  0.12501082186E+03 0.  0.
          4    1    3    3  501    0 -0.25495863047E+02  0.51517846181E+02 -0.30871194810E+02  0.65265309902E+02  0.15500000000E+01 0.  1.
         -4    1    3    3    0  501  0.25495863047E+02 -0.51517846181E+02  0.18378859132E+02  0.60368141189E+02  0.15500000000E+01 0.  1.
<mgrwt>
<rscale>  2 0.12501082E+03</rscale>
<asrwt>0</asrwt>
<pdfrwt beam="1">  1       21 0.87031627E-02 0.12501082E+03</pdfrwt>
<pdfrwt beam="2">  1       21 0.10625061E-01 0.12501082E+03</pdfrwt>
<totfact> 0.73936382E+06</totfact>
</mgrwt>
</event>
<event>
 5    0  0.1358380E+000  0.1250013E+03  0.7546771E-02  0.1235067E+00
         21   -1    0    0  503  502  0.00000000000E+00  0.00000000000E+00  0.51749689017E+03  0.51749689017E+03  0.00000000000E+00 0. -1.
         21   -1    0    0  502  503 -0.00000000000E+00 -0.00000000000E+00 -0.75485157455E+01  0.75485157455E+01  0.00000000000E+00 0. -1.
         25    2    1    2    0    0  0.00000000000E+00  0.00000000000E+00  0.50994837442E+03  0.52504540591E+03  0.12500133477E+03 0.  0.
          4    1    3    3  501    0  0.54413558389E+02 -0.14432755379E+02  0.36883235046E+03  0.37310701550E+03  0.15500000000E+01 0.  1.
         -4    1    3    3    0  501 -0.54413558389E+02  0.14432755379E+02  0.14111602396E+03  0.15193839042E+03  0.15500000000E+01 0.  1.
<mgrwt>
<rscale>  2 0.12500133E+03</rscale>
<asrwt>0</asrwt>
<pdfrwt beam="1">  1       21 0.79614878E-01 0.12500133E+03</pdfrwt>
<pdfrwt beam="2">  1       21 0.11613105E-02 0.12500133E+03</pdfrwt>
<totfact> 0.40716236E+06</totfact>
</mgrwt>
</event>
<event>
 5    0  0.1394381E+000  0.1250691E+03  0.7546771E-02  0.1234961E+00
         21   -1    0    0  503  502  0.00000000000E+00  0.00000000000E+00  0.44881267501E+03  0.44881267501E+03  0.00000000000E+00 0. -1.
         21   -1    0    0  502  503 -0.00000000000E+00 -0.00000000000E+00 -0.87131425627E+01  0.87131425627E+01  0.00000000000E+00 0. -1.
         25    2    1    2    0    0  0.00000000000E+00  0.00000000000E+00  0.44009953244E+03  0.45752581757E+03  0.12506908205E+03 0.  0.
          4    1    3    3  501    0  0.22010908521E+02  0.57094960263E+02  0.26687620951E+03  0.27380582222E+03  0.15500000000E+01 0.  1.
         -4    1    3    3    0  501 -0.22010908521E+02 -0.57094960263E+02  0.17322332294E+03  0.18371999535E+03  0.15500000000E+01 0.  1.
<mgrwt>
<rscale>  2 0.12506908E+03</rscale>
<asrwt>0</asrwt>
<pdfrwt beam="1">  1       21 0.69048086E-01 0.12506908E+03</pdfrwt>
<pdfrwt beam="2">  1       21 0.13404838E-02 0.12506908E+03</pdfrwt>
<totfact> 0.44368877E+06</totfact>
</mgrwt>
</event>
<event>
 5    0  0.1492159E+000  0.1250008E+03  0.7546771E-02  0.1235068E+00
         21   -1    0    0  503  502  0.00000000000E+00  0.00000000000E+00  0.10612608323E+03  0.10612608323E+03  0.00000000000E+00 0.  1.
         21   -1    0    0  502  503 -0.00000000000E+00 -0.00000000000E+00 -0.36808086709E+02  0.36808086709E+02  0.00000000000E+00 0.  1.
         25    2    1    2    0    0  0.00000000000E+00  0.00000000000E+00  0.69317996518E+02  0.14293416994E+03  0.12500076917E+03 0.  0.
          4    1    3    3  501    0 -0.45955824140E+02 -0.20994415832E+02 -0.73731860860E+01  0.51082968214E+02  0.15500000000E+01 0.  1.
         -4    1    3    3    0  501  0.45955824140E+02  0.20994415832E+02  0.76691182604E+02  0.91851201722E+02  0.15500000000E+01 0.  1.
<mgrwt>
<rscale>  2 0.12500077E+03</rscale>
<asrwt>0</asrwt>
<pdfrwt beam="1">  1       21 0.16327090E-01 0.12500077E+03</pdfrwt>
<pdfrwt beam="2">  1       21 0.56627826E-02 0.12500077E+03</pdfrwt>
<totfact> 0.71657131E+06</totfact>
</mgrwt>
</event>
<event>
 5    0  0.1222151E+000  0.1250042E+03  0.7546771E-02  0.1235063E+00
         21   -1    0    0  503  502  0.00000000000E+00  0.00000000000E+00  0.94833343022E+03  0.94833343022E+03  0.00000000000E+00 0. -1.
         21   -1    0    0  502  503 -0.00000000000E+00 -0.00000000000E+00 -0.41193427280E+01  0.41193427280E+01  0.00000000000E+00 0. -1.
         25    2    1    2    0    0  0.00000000000E+00  0.00000000000E+00  0.94421408749E+03  0.95245277295E+03  0.12500416664E+03 0.  0.
          4    1    3    3  501    0  0.25091887514E+02  0.39201063259E+02  0.15448065560E+03  0.16134745624E+03  0.15500000000E+01 0.  1.
         -4    1    3    3    0  501 -0.25091887514E+02 -0.39201063259E+02  0.78973343189E+03  0.79110531671E+03  0.15500000000E+01 0.  1.
<mgrwt>
<rscale>  2 0.12500417E+03</rscale>
<asrwt>0</asrwt>
<pdfrwt beam="1">  1       21 0.14589728E+00 0.12500417E+03</pdfrwt>
<pdfrwt beam="2">  1       21 0.63374579E-03 0.12500417E+03</pdfrwt>
<totfact> 0.24843317E+06</totfact>
</mgrwt>
</event>
<event>
 5    0  0.1540014E+000  0.1250016E+03  0.7546771E-02  0.1235067E+00
         21   -1    0    0  503  502  0.00000000000E+00  0.00000000000E+00  0.58293012473E+02  0.58293012473E+02  0.00000000000E+00 0.  1.
         21   -1    0    0  502  503 -0.00000000000E+00 -0.00000000000E+00 -0.67012280326E+02  0.67012280326E+02  0.00000000000E+00 0.  1.
         25    2    1    2    0    0  0.00000000000E+00  0.00000000000E+00 -0.87192678529E+01  0.12530529280E+03  0.12500156308E+03 0.  0.
          4    1    3    3  501    0 -0.53821746399E+02  0.68036702195E+01  0.26713667052E+02  0.60490435784E+02  0.15500000000E+01 0. -1.
         -4    1    3    3    0  501  0.53821746399E+02 -0.68036702195E+01 -0.35432934905E+02  0.64814857015E+02  0.15500000000E+01 0. -1.
<mgrwt>
<rscale>  2 0.12500156E+03</rscale>
<asrwt>0</asrwt>
<pdfrwt beam="1">  1       21 0.89681558E-02 0.12500156E+03</pdfrwt>
<pdfrwt beam="2">  1       21 0.10309582E-01 0.12500156E+03</pdfrwt>
<totfact> 0.73999400E+06</totfact>
</mgrwt>
</event>
<event>
 4    0  0.1389945E+000  0.1251096E+03  0.7546771E-02  0.1234898E+00
         21   -1    0    0  503  502  0.00000000000E+00  0.00000000000E+00  0.26965611119E+03  0.26965611119E+03  0.00000000000E+00 0.  1.
         21   -1    0    0  502  503 -0.00000000000E+00 -0.00000000000E+00 -0.14511464520E+02  0.14511464520E+02  0.00000000000E+00 0.  1.
          4    1    1    2  501    0 -0.33581559099E+02  0.58692418148E+01  0.24665107867E+03  0.24900065505E+03  0.15500000000E+01 0.  1.
         -4    1    1    2    0  501  0.33581559099E+02 -0.58692418148E+01  0.84935680051E+01  0.35166920656E+02  0.15500000000E+01 0.  1.
<mgrwt>
<rscale>  2 0.12510963E+03</rscale>
<asrwt>0</asrwt>
<pdfrwt beam="1">  1       21 0.41485552E-01 0.12510963E+03</pdfrwt>
<pdfrwt beam="2">  1       21 0.22325332E-02 0.12510963E+03</pdfrwt>
<totfact> 0.56641795E+06</totfact>
</mgrwt>
</event>
<event>
 5    0  0.1393149E+000  0.1249984E+03  0.7546771E-02  0.1235072E+00
         21   -1    0    0  503  502  0.00000000000E+00  0.00000000000E+00  0.29122803126E+03  0.29122803126E+03  0.00000000000E+00 0. -1.
         21   -1    0    0  502  503 -0.00000000000E+00 -0.00000000000E+00 -0.13412691222E+02  0.13412691222E+02  0.00000000000E+00 0. -1.
         25    2    1    2    0    0  0.00000000000E+00  0.00000000000E+00  0.27781534004E+03  0.30464072248E+03  0.12499842652E+03 0.  0.
          4    1    3    3  501    0 -0.28495850536E+02 -0.31778899029E+02  0.27707155507E+02  0.50911696962E+02  0.15500000000E+01 0. -1.
         -4    1    3    3    0  501  0.28495850536E+02  0.31778899029E+02  0.25010818453E+03  0.25372902552E+03  0.15500000000E+01 0. -1.
<mgrwt>
<rscale>  2 0.12499843E+03</rscale>
<asrwt>0</asrwt>
<pdfrwt beam="1">  1       21 0.44804308E-01 0.12499843E+03</pdfrwt>
<pdfrwt beam="2">  1       21 0.20634912E-02 0.12499843E+03</pdfrwt>
<totfact> 0.55074882E+06</totfact>
</mgrwt>
</event>
<event>
 5    0  0.1322811E+000  0.1250092E+03  0.7546771E-02  0.1235055E+00
         21   -1    0    0  503  502  0.00000000000E+00  0.00000000000E+00  0.58868391426E+03  0.58868391426E+03  0.00000000000E+00 0. -1.
         21   -1    0    0  502  503 -0.00000000000E+00 -0.00000000000E+00 -0.66365384613E+01  0.66365384613E+01  0.00000000000E+00 0. -1.
         25    2    1    2    0    0  0.00000000000E+00  0.00000000000E+00  0.58204737579E+03  0.59532045272E+03  0.12500917468E+03 0.  0.
          4    1    3    3  501    0  0.13567899020E+02  0.60967833924E+02  0.28243019206E+03  0.28925832839E+03  0.15500000000E+01 0.  1.
         -4    1    3    3    0  501 -0.13567899020E+02 -0.60967833924E+02  0.29961718373E+03  0.30606212432E+03  0.15500000000E+01 0.  1.
<mgrwt>
<rscale>  2 0.12500917E+03</rscale>
<asrwt>0</asrwt>
<pdfrwt beam="1">  1       21 0.90566714E-01 0.12500917E+03</pdfrwt>
<pdfrwt beam="2">  1       21 0.10210064E-02 0.12500917E+03</pdfrwt>
<totfact> 0.37296627E+06</totfact>
</mgrwt>
</event>
<event>
 5    0  0.1222151E+000  0.1250144E+03  0.7546771E-02  0.1235047E+00
         21   -1    0    0  503  502  0.00000000000E+00  0.00000000000E+00  0.90996542452E+03  0.90996542452E+03  0.00000000000E+00 0.  1.
         21   -1    0    0  502  503 -0.00000000000E+00 -0.00000000000E+00 -0.42937346923E+01  0.42937346923E+01  0.00000000000E+00 0.  1.
         25    2    1    2    0    0  0.00000000000E+00  0.00000000000E+00  0.90567168983E+03  0.91425915921E+03  0.12501440096E+03 0.  0.
          4    1    3    3  501    0 -0.28065659532E+02 -0.24772924523E+02  0.86928039329E+02  0.94658679242E+02  0.15500000000E+01 0.  1.
         -4    1    3    3    0  501  0.28065659532E+02  0.24772924523E+02  0.81874365050E+03  0.81960047997E+03  0.15500000000E+01 0.  1.
<mgrwt>
<rscale>  2 0.12501440E+03</rscale>
<asrwt>0</asrwt>
<pdfrwt beam="1">  1       21 0.13999453E+00 0.12501440E+03</pdfrwt>
<pdfrwt beam="2">  1       21 0.66057529E-03 0.12501440E+03</pdfrwt>
<totfact> 0.25884056E+06</totfact>
</mgrwt>
</event>
<event>
 5    0  0.1375782E+000  0.1249980E+03  0.7546771E-02  0.1235072E+00
         21   -1    0    0  503  502  0.00000000000E+00  0.00000000000E+00  0.41571873763E+03  0.41571873763E+03  0.00000000000E+00 0.  1.
         21   -1    0    0  502  503 -0.00000000000E+00 -0.00000000000E+00 -0.93960777356E+01  0.93960777356E+01  0.00000000000E+00 0.  1.
         25    2    1    2    0    0  0.00000000000E+00  0.00000000000E+00  0.40632265990E+03  0.42511481537E+03  0.12499800918E+03 0.  0.
          4    1    3    3  501    0 -0.36540566486E+02  0.34107690411E+02  0.33064907325E+03  0.33440956877E+03  0.15500000000E+01 0.  1.
         -4    1    3    3    0  501  0.36540566486E+02 -0.34107690411E+02  0.75673586649E+02  0.90705246599E+02  0.15500000000E+01 0.  1.
<mgrwt>
<rscale>  2 0.12499801E+03</rscale>
<asrwt>0</asrwt>
<pdfrwt beam="1">  1       21 0.63956714E-01 0.12499801E+03</pdfrwt>
<pdfrwt beam="2">  1       21 0.14455507E-02 0.12499801E+03</pdfrwt>
<totfact> 0.46421250E+06</totfact>
</mgrwt>
</event>
<event>
 5    0  0.1511540E+000  0.1249978E+03  0.7546771E-02  0.1235073E+00
         21   -1    0    0  503  502  0.00000000000E+00  0.00000000000E+00  0.33931889847E+03  0.33931889847E+03  0.00000000000E+00 0. -1.
         21   -1    0    0  502  503 -0.00000000000E+00 -0.00000000000E+00 -0.11511621362E+02  0.11511621362E+02  0.00000000000E+00 0. -1.
         25    2    1    2    0    0  0.00000000000E+00  0.00000000000E+00  0.32780727710E+03  0.35083051983E+03  0.12499777086E+03 0.  0.
          4    1    3    3  501    0  0.33603580351E+02  0.48775426186E+02  0.10808884439E+03  0.12326331000E+03  0.15500000000E+01 0.  1.
         -4    1    3    3    0  501 -0.33603580351E+02 -0.48775426186E+02  0.21971843272E+03  0.22756720983E+03  0.15500000000E+01 0.  1.
<mgrwt>
<rscale>  2 0.12499777E+03</rscale>
<asrwt>0</asrwt>
<pdfrwt beam="1">  1       21 0.52202900E-01 0.12499777E+03</pdfrwt>
<pdfrwt beam="2">  1       21 0.17710189E-02 0.12499777E+03</pdfrwt>
<totfact> 0.51480032E+06</totfact>
</mgrwt>
</event>
<event>
 5    0  0.1222151E+000  0.1249918E+03  0.7546771E-02  0.1235082E+00
         21   -1    0    0  503  502  0.00000000000E+00  0.00000000000E+00  0.34072618290E+01  0.34072618290E+01  0.00000000000E+00 0. -1.
         21   -1    0    0  502  503 -0.00000000000E+00 -0.00000000000E+00 -0.11462982845E+04  0.11462982845E+04  0.00000000000E+00 0. -1.
         25    2    1    2    0    0  0.00000000000E+00  0.00000000000E+00 -0.11428910227E+04  0.11497055463E+04  0.12499181396E+03 0.  0.
          4    1    3    3  501    0 -0.50424684063E+02 -0.12176391045E+02 -0.89172717236E+03  0.89323606381E+03  0.15500000000E+01 0. -1.
         -4    1    3    3    0  501  0.50424684063E+02  0.12176391045E+02 -0.25116385032E+03  0.25646948253E+03  0.15500000000E+01 0. -1.
<mgrwt>
<rscale>  2 0.12499181E+03</rscale>
<asrwt>0</asrwt>
<pdfrwt beam="1">  1       21 0.52419434E-03 0.12499181E+03</pdfrwt>
<pdfrwt beam="2">  1       21 0.17635351E+00 0.12499181E+03</pdfrwt>
<totfact> 0.20179471E+06</totfact>
</mgrwt>
</event>
<event>
 4    0  0.1222151E+000  0.1251777E+03  0.7546771E-02  0.1234792E+00
         21   -1    0    0  503  502  0.00000000000E+00  0.00000000000E+00  0.29140765234E+01  0.29140765234E+01  0.00000000000E+00 0. -1.
         21   -1    0    0  502  503 -0.00000000000E+00 -0.00000000000E+00 -0.13442911217E+04  0.13442911217E+04  0.00000000000E+00 0. -1.
          4    1    1    2  501    0 -0.36666914222E+01  0.58649294633E+02 -0.43941585000E+03  0.44333043672E+03  0.15500000000E+01 0.  1.
         -4    1    1    2    0  501  0.36666914222E+01 -0.58649294633E+02 -0.90196119516E+03  0.90387476149E+03  0.15500000000E+01 0.  1.
<mgrwt>
<rscale>  2 0.12517775E+03</rscale>
<asrwt>0</asrwt>
<pdfrwt beam="1">  1       21 0.44832023E-03 0.12517775E+03</pdfrwt>
<pdfrwt beam="2">  1       21 0.20681367E+00 0.12517775E+03</pdfrwt>
<totfact> 0.16353266E+06</totfact>
</mgrwt>
</event>
<event>
 5    0  0.1329796E+000  0.1250034E+03  0.7546771E-02  0.1235064E+00
         21   -1    0    0  503  502  0.00000000000E+00  0.00000000000E+00  0.12101165558E+02  0.12101165558E+02  0.00000000000E+00 0. -1.
         21   -1    0    0  502  503 -0.00000000000E+00 -0.00000000000E+00 -0.32281678845E+03  0.32281678845E+03  0.00000000000E+00 0. -1.
         25    2    1    2    0    0  0.00000000000E+00  0.00000000000E+00 -0.31071562289E+03  0.33491795401E+03  0.12500335038E+03 0.  0.
          4    1    3    3  501    0 -0.20049323083E+02 -0.27970450912E+02 -0.15630885355E+02  0.37829202440E+02  0.15500000000E+01 0. -1.
         -4    1    3    3    0  501  0.20049323083E+02  0.27970450912E+02 -0.29508473754E+03  0.29708875157E+03  0.15500000000E+01 0. -1.
<mgrwt>
<rscale>  2 0.12500335E+03</rscale>
<asrwt>0</asrwt>
<pdfrwt beam="1">  1       21 0.18617176E-02 0.12500335E+03</pdfrwt>
<pdfrwt beam="2">  1       21 0.49664126E-01 0.12500335E+03</pdfrwt>
<totfact> 0.52667520E+06</totfact>
</mgrwt>
</event>
