<event>
 5    0  0.1440262E+000  0.1249994E+03  0.7546771E-02  0.1235070E+00
         21   -1    0    0  503  502  0.00000000000E+00  0.00000000000E+00  0.95621518831E+01  0.95621518831E+01  0.00000000000E+00 0. -1.
         21   -1    0    0  502  503 -0.00000000000E+00 -0.00000000000E+00 -0.40850796327E+03  0.40850796327E+03  0.00000000000E+00 0. -1.
         25    2    1    2    0    0  0.00000000000E+00  0.00000000000E+00 -0.39894581139E+03  0.41807011516E+03  0.12499944304E+03 0.  0.
          4    1    3    3  501    0  0.24882629492E+02 -0.54765998366E+02 -0.14297502424E+03  0.15512162932E+03  0.15500000000E+01 0.  1.
         -4    1    3    3    0  501 -0.24882629492E+02  0.54765998366E+02 -0.25597078715E+03  0.26294848584E+03  0.15500000000E+01 0.  1.
<mgrwt>
<rscale>  2 0.12499944E+03</rscale>
<asrwt>0</asrwt>
<pdfrwt beam="1">  1       21 0.14711001E-02 0.12499944E+03</pdfrwt>
<pdfrwt beam="2">  1       21 0.62847385E-01 0.12499944E+03</pdfrwt>
<totfact> 0.46866079E+06</totfact>
</mgrwt>
</event>
<event>
 5    0  0.1396453E+000  0.1249948E+03  0.7546771E-02  0.1235077E+00
         21   -1    0    0  503  502  0.00000000000E+00  0.00000000000E+00  0.86761799767E+01  0.86761799767E+01  0.00000000000E+00 0.  1.
         21   -1    0    0  502  503 -0.00000000000E+00 -0.00000000000E+00 -0.45018916368E+03  0.45018916368E+03  0.00000000000E+00 0.  1.
         25    2    1    2    0    0  0.00000000000E+00  0.00000000000E+00 -0.44151298371E+03  0.45886534366E+03  0.12499475521E+03 0.  0.
          4    1    3    3  501    0  0.53121195679E+02  0.24668731615E+02 -0.30060658561E+03  0.30626317043E+03  0.15500000000E+01 0.  1.
         -4    1    3    3    0  501 -0.53121195679E+02 -0.24668731615E+02 -0.14090639810E+03  0.15260217323E+03  0.15500000000E+01 0.  1.
<mgrwt>
<rscale>  2 0.12499476E+03</rscale>
<asrwt>0</asrwt>
<pdfrwt beam="1">  1       21 0.13347967E-02 0.12499476E+03</pdfrwt>
<pdfrwt beam="2">  1       21 0.69259882E-01 0.12499476E+03</pdfrwt>
<totfact> 0.44372293E+06</totfact>
</mgrwt>
</event>
<event>
 5    0  0.1435529E+000  0.1249973E+03  0.7546771E-02  0.1235073E+00
         21   -1    0    0  503  502  0.00000000000E+00  0.00000000000E+00  0.13054956552E+02  0.13054956552E+02  0.00000000000E+00 0. -1.
         21   -1    0    0  502  503 -0.00000000000E+00 -0.00000000000E+00 -0.29920296172E+03  0.29920296172E+03  0.00000000000E+00 0. -1.
         25    2    1    2    0    0  0.00000000000E+00  0.00000000000E+00 -0.28614800517E+03  0.31225791828E+03  0.12499730662E+03 0.  0.
          4    1    3    3  501    0 -0.27998456734E+02  0.34960853671E+02 -0.25189286686E+03  0.25584877123E+03  0.15500000000E+01 0.  1.
         -4    1    3    3    0  501  0.27998456734E+02 -0.34960853671E+02 -0.34255138315E+02  0.56409147041E+02  0.15500000000E+01 0.  1.
<mgrwt>
<rscale>  2 0.12499731E+03</rscale>
<asrwt>0</asrwt>
<pdfrwt beam="1">  1       21 0.20084548E-02 0.12499731E+03</pdfrwt>
<pdfrwt beam="2">  1       21 0.46031226E-01 0.12499731E+03</pdfrwt>
<totfact> 0.54456302E+06</totfact>
</mgrwt>
</event>
<event>
 4    0  0.1472055E+000  0.1250972E+03  0.7546771E-02  0.1234917E+00
         21   -1    0    0  503  502  0.00000000000E+00  0.00000000000E+00  0.33444382453E+02  0.33444382453E+02  0.00000000000E+00 0. -1.
         21   -1    0    0  502  503 -0.00000000000E+00 -0.00000000000E+00 -0.11698010219E+03  0.11698010219E+03  0.00000000000E+00 0. -1.
          4    1    1    2  501    0  0.19958374154E+02  0.45398250650E+02 -0.87565471063E+02  0.10064517914E+03  0.15500000000E+01 0. -1.
         -4    1    1    2    0  501 -0.19958374154E+02 -0.45398250650E+02  0.40297513261E+01  0.49779305506E+02  0.15500000000E+01 0. -1.
<mgrwt>
<rscale>  2 0.12509720E+03</rscale>
<asrwt>0</asrwt>
<pdfrwt beam="1">  1       21 0.51452896E-02 0.12509720E+03</pdfrwt>
<pdfrwt beam="2">  1       21 0.17996939E-01 0.12509720E+03</pdfrwt>
<totfact> 0.70531260E+06</totfact>
</mgrwt>
</event>
<event>
 5    0  0.1560676E+000  0.1249959E+03  0.7546771E-02  0.1235076E+00
         21   -1    0    0  503  502  0.00000000000E+00  0.00000000000E+00  0.39807660630E+02  0.39807660630E+02  0.00000000000E+00 0.  1.
         21   -1    0    0  502  503 -0.00000000000E+00 -0.00000000000E+00 -0.98121590056E+02  0.98121590056E+02  0.00000000000E+00 0.  1.
         25    2    1    2    0    0  0.00000000000E+00  0.00000000000E+00 -0.58313929426E+02  0.13792925069E+03  0.12499585525E+03 0.  0.
          4    1    3    3  501    0  0.57380290540E+02  0.11649456345E+02 -0.50977404487E+01  0.58792831479E+02  0.15500000000E+01 0. -1.
         -4    1    3    3    0  501 -0.57380290540E+02 -0.11649456345E+02 -0.53216188977E+02  0.79136419207E+02  0.15500000000E+01 0. -1.
<mgrwt>
<rscale>  2 0.12499586E+03</rscale>
<asrwt>0</asrwt>
<pdfrwt beam="1">  1       21 0.61242555E-02 0.12499586E+03</pdfrwt>
<pdfrwt beam="2">  1       21 0.15095629E-01 0.12499586E+03</pdfrwt>
<totfact> 0.72318444E+06</totfact>
</mgrwt>
</event>
<event>
 5    0  0.1400829E+000  0.1249883E+03  0.7546771E-02  0.1235088E+00
         21   -1    0    0  503  502  0.00000000000E+00  0.00000000000E+00  0.38697512239E+03  0.38697512239E+03  0.00000000000E+00 0.  1.
         21   -1    0    0  502  503 -0.00000000000E+00 -0.00000000000E+00 -0.10092424069E+02  0.10092424069E+02  0.00000000000E+00 0.  1.
         25    2    1    2    0    0  0.00000000000E+00  0.00000000000E+00  0.37688269832E+03  0.39706754646E+03  0.12498827208E+03 0.  0.
          4    1    3    3  501    0 -0.40581539224E+02  0.46914229553E+02  0.16481534914E+03  0.17610879612E+03  0.15500000000E+01 0. -1.
         -4    1    3    3    0  501  0.40581539224E+02 -0.46914229553E+02  0.21206734918E+03  0.22095875034E+03  0.15500000000E+01 0. -1.
<mgrwt>
<rscale>  2 0.12498827E+03</rscale>
<asrwt>0</asrwt>
<pdfrwt beam="1">  1       21 0.59534623E-01 0.12498827E+03</pdfrwt>
<pdfrwt beam="2">  1       21 0.15526809E-02 0.12498827E+03</pdfrwt>
<totfact> 0.48250616E+06</totfact>
</mgrwt>
</event>
<event>
 5    0  0.1546528E+000  0.1250130E+03  0.7546771E-02  0.1235049E+00
         21   -1    0    0  503  502  0.00000000000E+00  0.00000000000E+00  0.18711767252E+02  0.18711767252E+02  0.00000000000E+00 0. -1.
         21   -1    0    0  502  503 -0.00000000000E+00 -0.00000000000E+00 -0.20880243099E+03  0.20880243099E+03  0.00000000000E+00 0. -1.
         25    2    1    2    0    0  0.00000000000E+00  0.00000000000E+00 -0.19009066373E+03  0.22751419824E+03  0.12501299917E+03 0.  0.
          4    1    3    3  501    0  0.60095671257E+02 -0.12715537228E+02 -0.74176790475E+02  0.96321198788E+02  0.15500000000E+01 0.  1.
         -4    1    3    3    0  501 -0.60095671257E+02  0.12715537228E+02 -0.11591387326E+03  0.13119299945E+03  0.15500000000E+01 0.  1.
<mgrwt>
<rscale>  2 0.12501300E+03</rscale>
<asrwt>0</asrwt>
<pdfrwt beam="1">  1       21 0.28787334E-02 0.12501300E+03</pdfrwt>
<pdfrwt beam="2">  1       21 0.32123451E-01 0.12501300E+03</pdfrwt>
<totfact> 0.62041867E+06</totfact>
</mgrwt>
</event>
<event>
 5    0  0.1465992E+000  0.1249952E+03  0.7546771E-02  0.1235077E+00
         21   -1    0    0  503  502  0.00000000000E+00  0.00000000000E+00  0.56402241653E+02  0.56402241653E+02  0.00000000000E+00 0.  1.
         21   -1    0    0  502  503 -0.00000000000E+00 -0.00000000000E+00 -0.69251655811E+02  0.69251655811E+02  0.00000000000E+00 0.  1.
         25    2    1    2    0    0  0.00000000000E+00  0.00000000000E+00 -0.12849414158E+02  0.12565389746E+03  0.12499517792E+03 0.  0.
          4    1    3    3  501    0 -0.62098087656E+02 -0.63218301658E+01 -0.36885811239E+01  0.62547151477E+02  0.15500000000E+01 0. -1.
         -4    1    3    3    0  501  0.62098087656E+02  0.63218301658E+01 -0.91608330342E+01  0.63106745987E+02  0.15500000000E+01 0. -1.
<mgrwt>
<rscale>  2 0.12499518E+03</rscale>
<asrwt>0</asrwt>
<pdfrwt beam="1">  1       21 0.86772679E-02 0.12499518E+03</pdfrwt>
<pdfrwt beam="2">  1       21 0.10654101E-01 0.12499518E+03</pdfrwt>
<totfact> 0.73963037E+06</totfact>
</mgrwt>
</event>
<event>
 5    0  0.1361681E+000  0.1249638E+03  0.7546771E-02  0.1235126E+00
         21   -1    0    0  503  502  0.00000000000E+00  0.00000000000E+00  0.41089379185E+03  0.41089379185E+03  0.00000000000E+00 0.  1.
         21   -1    0    0  502  503 -0.00000000000E+00 -0.00000000000E+00 -0.95012020203E+01  0.95012020203E+01  0.00000000000E+00 0.  1.
         25    2    1    2    0    0  0.00000000000E+00  0.00000000000E+00  0.40139258983E+03  0.42039499387E+03  0.12496375355E+03 0.  0.
          4    1    3    3  501    0 -0.38326260860E+02 -0.49110966415E+02  0.18535601005E+03  0.19555061303E+03  0.15500000000E+01 0.  1.
         -4    1    3    3    0  501  0.38326260860E+02  0.49110966415E+02  0.21603657978E+03  0.22484438084E+03  0.15500000000E+01 0.  1.
<mgrwt>
<rscale>  2 0.12496375E+03</rscale>
<asrwt>0</asrwt>
<pdfrwt beam="1">  1       21 0.63214416E-01 0.12496375E+03</pdfrwt>
<pdfrwt beam="2">  1       21 0.14617237E-02 0.12496375E+03</pdfrwt>
<totfact> 0.46759673E+06</totfact>
</mgrwt>
</event>
<event>
 5    0  0.1361378E+000  0.1250059E+03  0.7546771E-02  0.1235060E+00
         21   -1    0    0  503  502  0.00000000000E+00  0.00000000000E+00  0.34093391595E+03  0.34093391595E+03  0.00000000000E+00 0. -1.
         21   -1    0    0  502  503 -0.00000000000E+00 -0.00000000000E+00 -0.11458573634E+02  0.11458573634E+02  0.00000000000E+00 0. -1.
         25    2    1    2    0    0  0.00000000000E+00  0.00000000000E+00  0.32947534231E+03  0.35239248958E+03  0.12500586194E+03 0.  0.
          4    1    3    3  501    0 -0.47041184585E+02 -0.16125894910E+02  0.58087625383E+02  0.76481973408E+02  0.15500000000E+01 0.  1.
         -4    1    3    3    0  501  0.47041184585E+02  0.16125894910E+02  0.27138771693E+03  0.27591051617E+03  0.15500000000E+01 0.  1.
<mgrwt>
<rscale>  2 0.12500586E+03</rscale>
<asrwt>0</asrwt>
<pdfrwt beam="1">  1       21 0.52451364E-01 0.12500586E+03</pdfrwt>
<pdfrwt beam="2">  1       21 0.17628577E-02 0.12500586E+03</pdfrwt>
<totfact> 0.51354687E+06</totfact>
</mgrwt>
</event>
<event>
 5    0  0.1222151E+000  0.1249990E+03  0.7546771E-02  0.1235071E+00
         21   -1    0    0  503  502  0.00000000000E+00  0.00000000000E+00  0.20841491870E+04  0.20841491870E+04  0.00000000000E+00 0. -1.
         21   -1    0    0  502  503 -0.00000000000E+00 -0.00000000000E+00 -0.18742346214E+01  0.18742346214E+01  0.00000000000E+00 0. -1.
         25    2    1    2    0    0  0.00000000000E+00  0.00000000000E+00  0.20822749523E+04  0.20860234216E+04  0.12499895299E+03 0.  0.
          4    1    3    3  501    0 -0.11226498017E+02  0.28382061975E+02  0.13132416874E+03  0.13483328779E+03  0.15500000000E+01 0. -1.
         -4    1    3    3    0  501  0.11226498017E+02 -0.28382061975E+02  0.19509507836E+04  0.19511901338E+04  0.15500000000E+01 0. -1.
<mgrwt>
<rscale>  2 0.12499895E+03</rscale>
<asrwt>0</asrwt>
<pdfrwt beam="1">  1       21 0.32063648E+00 0.12499895E+03</pdfrwt>
<pdfrwt beam="2">  1       21 0.28834545E-03 0.12499895E+03</pdfrwt>
<totfact> 0.71396813E+05</totfact>
</mgrwt>
</event>
<event>
 5    0  0.1354123E+000  0.1250021E+03  0.7546771E-02  0.1235066E+00
         21   -1    0    0  503  502  0.00000000000E+00  0.00000000000E+00  0.46501130922E+03  0.46501130922E+03  0.00000000000E+00 0.  1.
         21   -1    0    0  502  503 -0.00000000000E+00 -0.00000000000E+00 -0.84006162883E+01  0.84006162883E+01  0.00000000000E+00 0.  1.
         25    2    1    2    0    0  0.00000000000E+00  0.00000000000E+00  0.45661069293E+03  0.47341192551E+03  0.12500210524E+03 0.  0.
          4    1    3    3  501    0  0.41909704568E+02  0.21257784753E+02  0.38425756329E+03  0.38712348701E+03  0.15500000000E+01 0.  1.
         -4    1    3    3    0  501 -0.41909704568E+02 -0.21257784753E+02  0.72353129645E+02  0.86288438502E+02  0.15500000000E+01 0.  1.
<mgrwt>
<rscale>  2 0.12500211E+03</rscale>
<asrwt>0</asrwt>
<pdfrwt beam="1">  1       21 0.71540181E-01 0.12500211E+03</pdfrwt>
<pdfrwt beam="2">  1       21 0.12924029E-02 0.12500211E+03</pdfrwt>
<totfact> 0.43521428E+06</totfact>
</mgrwt>
</event>
<event>
 5    0  0.1565535E+000  0.1250002E+03  0.7546771E-02  0.1235069E+00
         21   -1    0    0  503  502  0.00000000000E+00  0.00000000000E+00  0.57430059608E+02  0.57430059608E+02  0.00000000000E+00 0. -1.
         21   -1    0    0  502  503 -0.00000000000E+00 -0.00000000000E+00 -0.68017712274E+02  0.68017712274E+02  0.00000000000E+00 0. -1.
         25    2    1    2    0    0  0.00000000000E+00  0.00000000000E+00 -0.10587652666E+02  0.12544777188E+03  0.12500018032E+03 0.  0.
          4    1    3    3  501    0  0.89020011474E+01 -0.57646871938E+02 -0.27767118298E+02  0.64620606831E+02  0.15500000000E+01 0.  1.
         -4    1    3    3    0  501 -0.89020011474E+01  0.57646871938E+02  0.17179465632E+02  0.60827165050E+02  0.15500000000E+01 0.  1.
<mgrwt>
<rscale>  2 0.12500018E+03</rscale>
<asrwt>0</asrwt>
<pdfrwt beam="1">  1       21 0.88353937E-02 0.12500018E+03</pdfrwt>
<pdfrwt beam="2">  1       21 0.10464263E-01 0.12500018E+03</pdfrwt>
<totfact> 0.73982368E+06</totfact>
</mgrwt>
</event>
<event>
 5    0  0.1222151E+000  0.1250026E+03  0.7546771E-02  0.1235065E+00
         21   -1    0    0  503  502  0.00000000000E+00  0.00000000000E+00  0.57584381355E+01  0.57584381355E+01  0.00000000000E+00 0.  1.
         21   -1    0    0  502  503 -0.00000000000E+00 -0.00000000000E+00 -0.67838070697E+03  0.67838070697E+03  0.00000000000E+00 0.  1.
         25    2    1    2    0    0  0.00000000000E+00  0.00000000000E+00 -0.67262226884E+03  0.68413914511E+03  0.12500261331E+03 0.  0.
          4    1    3    3  501    0 -0.23876330003E+02  0.51987151617E+02 -0.19880180792E+03  0.20687509371E+03  0.15500000000E+01 0.  1.
         -4    1    3    3    0  501  0.23876330003E+02 -0.51987151617E+02 -0.47382046092E+03  0.47726405140E+03  0.15500000000E+01 0.  1.
<mgrwt>
<rscale>  2 0.12500261E+03</rscale>
<asrwt>0</asrwt>
<pdfrwt beam="1">  1       21 0.88591364E-03 0.12500261E+03</pdfrwt>
<pdfrwt beam="2">  1       21 0.10436625E+00 0.12500261E+03</pdfrwt>
<totfact> 0.33528480E+06</totfact>
</mgrwt>
</event>
<event>
 5    0  0.1232978E+000  0.1249137E+03  0.7546771E-02  0.1235204E+00
         21   -1    0    0  503  502  0.00000000000E+00  0.00000000000E+00  0.13636810533E+02  0.13636810533E+02  0.00000000000E+00 0.  1.
         21   -1    0    0  502  503 -0.00000000000E+00 -0.00000000000E+00 -0.28605370753E+03  0.28605370753E+03  0.00000000000E+00 0.  1.
         25    2    1    2    0    0  0.00000000000E+00  0.00000000000E+00 -0.27241689699E+03  0.29969051806E+03  0.12491373362E+03 0.  0.
          4    1    3    3  501    0  0.48948948174E+02  0.26263243842E+02 -0.67812874552E+02  0.87674089442E+02  0.15500000000E+01 0.  1.
         -4    1    3    3    0  501 -0.48948948174E+02 -0.26263243842E+02 -0.20460402244E+03  0.21201642862E+03  0.15500000000E+01 0.  1.
<mgrwt>
<rscale>  2 0.12491373E+03</rscale>
<asrwt>0</asrwt>
<pdfrwt beam="1">  1       21 0.20979710E-02 0.12491373E+03</pdfrwt>
<pdfrwt beam="2">  1       21 0.44008259E-01 0.12491373E+03</pdfrwt>
<totfact> 0.55602330E+06</totfact>
</mgrwt>
</event>
<event>
 5    0  0.1542988E+000  0.1249936E+03  0.7546771E-02  0.1235079E+00
         21   -1    0    0  503  502  0.00000000000E+00  0.00000000000E+00  0.10582044950E+03  0.10582044950E+03  0.00000000000E+00 0. -1.
         21   -1    0    0  502  503 -0.00000000000E+00 -0.00000000000E+00 -0.36910135560E+02  0.36910135560E+02  0.00000000000E+00 0. -1.
         25    2    1    2    0    0  0.00000000000E+00  0.00000000000E+00  0.68910313937E+02  0.14273058506E+03  0.12499355401E+03 0.  0.
          4    1    3    3  501    0 -0.12869136658E+02 -0.50106700152E+02 -0.55465017102E+01  0.52052495230E+02  0.15500000000E+01 0. -1.
         -4    1    3    3    0  501  0.12869136658E+02  0.50106700152E+02  0.74456815647E+02  0.90678089827E+02  0.15500000000E+01 0. -1.
<mgrwt>
<rscale>  2 0.12499355E+03</rscale>
<asrwt>0</asrwt>
<pdfrwt beam="1">  1       21 0.16280069E-01 0.12499355E+03</pdfrwt>
<pdfrwt beam="2">  1       21 0.56784824E-02 0.12499355E+03</pdfrwt>
<totfact> 0.71696582E+06</totfact>
</mgrwt>
</event>
<event>
 5    0  0.1483715E+000  0.1250069E+03  0.7546771E-02  0.1235059E+00
         21   -1    0    0  503  502  0.00000000000E+00  0.00000000000E+00  0.11393725364E+03  0.11393725364E+03  0.00000000000E+00 0.  1.
         21   -1    0    0  502  503 -0.00000000000E+00 -0.00000000000E+00 -0.34287985408E+02  0.34287985408E+02  0.00000000000E+00 0.  1.
         25    2    1    2    0    0  0.00000000000E+00  0.00000000000E+00  0.79649268231E+02  0.14822523905E+03  0.12500686206E+03 0.  0.
          4    1    3    3  501    0 -0.51704180991E+02 -0.19431844110E+02  0.74462713952E+02  0.92725493617E+02  0.15500000000E+01 0. -1.
         -4    1    3    3    0  501  0.51704180991E+02  0.19431844110E+02  0.51865542787E+01  0.55499745430E+02  0.15500000000E+01 0. -1.
<mgrwt>
<rscale>  2 0.12500686E+03</rscale>
<asrwt>0</asrwt>
<pdfrwt beam="1">  1       21 0.17528808E-01 0.12500686E+03</pdfrwt>
<pdfrwt beam="2">  1       21 0.52750747E-02 0.12500686E+03</pdfrwt>
<totfact> 0.70970461E+06</totfact>
</mgrwt>
</event>
<event>
 5    0  0.1443034E+000  0.1250062E+03  0.7546771E-02  0.1235060E+00
         21   -1    0    0  503  502  0.00000000000E+00  0.00000000000E+00  0.62285902948E+02  0.62285902948E+02  0.00000000000E+00 0.  1.
         21   -1    0    0  502  503 -0.00000000000E+00 -0.00000000000E+00 -0.62721046752E+02  0.62721046752E+02  0.00000000000E+00 0.  1.
         25    2    1    2    0    0  0.00000000000E+00  0.00000000000E+00 -0.43514380351E+00  0.12500694970E+03  0.12500619234E+03 0.  0.
          4    1    3    3  501    0 -0.32692234059E+02  0.37017963147E+02  0.38059582128E+02  0.62370233727E+02  0.15500000000E+01 0. -1.
         -4    1    3    3    0  501  0.32692234059E+02 -0.37017963147E+02 -0.38494725932E+02  0.62636715973E+02  0.15500000000E+01 0. -1.
<mgrwt>
<rscale>  2 0.12500619E+03</rscale>
<asrwt>0</asrwt>
<pdfrwt beam="1">  1       21 0.95824466E-02 0.12500619E+03</pdfrwt>
<pdfrwt beam="2">  1       21 0.96493918E-02 0.12500619E+03</pdfrwt>
<totfact> 0.74030922E+06</totfact>
</mgrwt>
</event>
<event>
 5    0  0.1583117E+000  0.1249972E+03  0.7546771E-02  0.1235074E+00
         21   -1    0    0  503  502  0.00000000000E+00  0.00000000000E+00  0.86442443897E+02  0.86442443897E+02  0.00000000000E+00 0. -1.
         21   -1    0    0  502  503 -0.00000000000E+00 -0.00000000000E+00 -0.45186995344E+02  0.45186995344E+02  0.00000000000E+00 0. -1.
         25    2    1    2    0    0  0.00000000000E+00  0.00000000000E+00  0.41255448552E+02  0.13162943924E+03  0.12499718893E+03 0.  0.
          4    1    3    3  501    0  0.29450150835E+02  0.39605274321E+02 -0.19716713066E+02  0.53169920184E+02  0.15500000000E+01 0. -1.
         -4    1    3    3    0  501 -0.29450150835E+02 -0.39605274321E+02  0.60972161618E+02  0.78459519057E+02  0.15500000000E+01 0. -1.
<mgrwt>
<rscale>  2 0.12499719E+03</rscale>
<asrwt>0</asrwt>
<pdfrwt beam="1">  1       21 0.13298838E-01 0.12499719E+03</pdfrwt>
<pdfrwt beam="2">  1       21 0.69518454E-02 0.12499719E+03</pdfrwt>
<totfact> 0.73151221E+06</totfact>
</mgrwt>
</event>
<event>
 5    0  0.1222151E+000  0.1250121E+03  0.7546771E-02  0.1235050E+00
         21   -1    0    0  503  502  0.00000000000E+00  0.00000000000E+00  0.29588248235E+01  0.29588248235E+01  0.00000000000E+00 0.  1.
         21   -1    0    0  502  503 -0.00000000000E+00 -0.00000000000E+00 -0.13204579398E+04  0.13204579398E+04  0.00000000000E+00 0.  1.
         25    2    1    2    0    0  0.00000000000E+00  0.00000000000E+00 -0.13174991149E+04  0.13234167646E+04  0.12501205911E+03 0.  0.
          4    1    3    3  501    0  0.52142662100E+02  0.14653275646E+02 -0.98863264296E+03  0.99011639767E+03  0.15500000000E+01 0.  1.
         -4    1    3    3    0  501 -0.52142662100E+02 -0.14653275646E+02 -0.32886647197E+03  0.33330036691E+03  0.15500000000E+01 0.  1.
<mgrwt>
<rscale>  2 0.12501206E+03</rscale>
<asrwt>0</asrwt>
<pdfrwt beam="1">  1       21 0.45520497E-03 0.12501206E+03</pdfrwt>
<pdfrwt beam="2">  1       21 0.20314686E+00 0.12501206E+03</pdfrwt>
<totfact> 0.16832088E+06</totfact>
</mgrwt>
</event>
<event>
 5    0  0.1520371E+000  0.1250221E+03  0.7546771E-02  0.1235035E+00
         21   -1    0    0  503  502  0.00000000000E+00  0.00000000000E+00  0.14754559640E+03  0.14754559640E+03  0.00000000000E+00 0.  1.
         21   -1    0    0  502  503 -0.00000000000E+00 -0.00000000000E+00 -0.26484215914E+02  0.26484215914E+02  0.00000000000E+00 0.  1.
         25    2    1    2    0    0  0.00000000000E+00  0.00000000000E+00  0.12106138049E+03  0.17402981231E+03  0.12502206897E+03 0.  0.
          4    1    3    3  501    0  0.51464247826E+02 -0.69385938419E+01  0.12139888139E+02  0.53352528270E+02  0.15500000000E+01 0.  1.
         -4    1    3    3    0  501 -0.51464247826E+02  0.69385938419E+01  0.10892149235E+03  0.12067728404E+03  0.15500000000E+01 0.  1.
<mgrwt>
<rscale>  2 0.12502207E+03</rscale>
<asrwt>0</asrwt>
<pdfrwt beam="1">  1       21 0.22699322E-01 0.12502207E+03</pdfrwt>
<pdfrwt beam="2">  1       21 0.40744948E-02 0.12502207E+03</pdfrwt>
<totfact> 0.67805124E+06</totfact>
</mgrwt>
</event>
<event>
 5    0  0.1613165E+000  0.1250015E+03  0.7546771E-02  0.1235067E+00
         21   -1    0    0  503  502  0.00000000000E+00  0.00000000000E+00  0.19622608525E+02  0.19622608525E+02  0.00000000000E+00 0. -1.
         21   -1    0    0  502  503 -0.00000000000E+00 -0.00000000000E+00 -0.19907360297E+03  0.19907360297E+03  0.00000000000E+00 0. -1.
         25    2    1    2    0    0  0.00000000000E+00  0.00000000000E+00 -0.17945099445E+03  0.21869621150E+03  0.12500149405E+03 0.  0.
          4    1    3    3  501    0 -0.50018196520E+02 -0.35440571495E+02 -0.68579336648E+02  0.91996641276E+02  0.15500000000E+01 0.  1.
         -4    1    3    3    0  501  0.50018196520E+02  0.35440571495E+02 -0.11087165780E+03  0.12669957022E+03  0.15500000000E+01 0.  1.
<mgrwt>
<rscale>  2 0.12500149E+03</rscale>
<asrwt>0</asrwt>
<pdfrwt beam="1">  1       21 0.30188627E-02 0.12500149E+03</pdfrwt>
<pdfrwt beam="2">  1       21 0.30626709E-01 0.12500149E+03</pdfrwt>
<totfact> 0.62953671E+06</totfact>
</mgrwt>
</event>
<event>
 5    0  0.1369995E+000  0.1249893E+03  0.7546771E-02  0.1235086E+00
         21   -1    0    0  503  502  0.00000000000E+00  0.00000000000E+00  0.12916633298E+02  0.12916633298E+02  0.00000000000E+00 0. -1.
         21   -1    0    0  502  503 -0.00000000000E+00 -0.00000000000E+00 -0.30236835641E+03  0.30236835641E+03  0.00000000000E+00 0. -1.
         25    2    1    2    0    0  0.00000000000E+00  0.00000000000E+00 -0.28945172311E+03  0.31528498970E+03  0.12498929843E+03 0.  0.
          4    1    3    3  501    0 -0.44584586111E+02 -0.98543690901E+01 -0.37163230837E+02  0.58893141665E+02  0.15500000000E+01 0. -1.
         -4    1    3    3    0  501  0.44584586111E+02  0.98543690901E+01 -0.25228849227E+03  0.25639184804E+03  0.15500000000E+01 0. -1.
<mgrwt>
<rscale>  2 0.12498930E+03</rscale>
<asrwt>0</asrwt>
<pdfrwt beam="1">  1       21 0.19871742E-02 0.12498930E+03</pdfrwt>
<pdfrwt beam="2">  1       21 0.46518212E-01 0.12498930E+03</pdfrwt>
<totfact> 0.54223670E+06</totfact>
</mgrwt>
</event>
<event>
 5    0  0.1357465E+000  0.1250017E+03  0.7546771E-02  0.1235067E+00
         21   -1    0    0  503  502  0.00000000000E+00  0.00000000000E+00  0.13235180222E+02  0.13235180222E+02  0.00000000000E+00 0.  1.
         21   -1    0    0  502  503 -0.00000000000E+00 -0.00000000000E+00 -0.29514961806E+03  0.29514961806E+03  0.00000000000E+00 0.  1.
         25    2    1    2    0    0  0.00000000000E+00  0.00000000000E+00 -0.28191443784E+03  0.30838479829E+03  0.12500173419E+03 0.  0.
          4    1    3    3  501    0  0.30975580977E+02  0.34218295656E+02 -0.37060457517E+02  0.59213667222E+02  0.15500000000E+01 0.  1.
         -4    1    3    3    0  501 -0.30975580977E+02 -0.34218295656E+02 -0.24485398033E+03  0.24917113106E+03  0.15500000000E+01 0.  1.
<mgrwt>
<rscale>  2 0.12500173E+03</rscale>
<asrwt>0</asrwt>
<pdfrwt beam="1">  1       21 0.20361816E-02 0.12500173E+03</pdfrwt>
<pdfrwt beam="2">  1       21 0.45407633E-01 0.12500173E+03</pdfrwt>
<totfact> 0.54764099E+06</totfact>
</mgrwt>
</event>
<event>
 5    0  0.1558874E+000  0.1250038E+03  0.7546771E-02  0.1235063E+00
         21   -1    0    0  503  502  0.00000000000E+00  0.00000000000E+00  0.21985877642E+03  0.21985877642E+03  0.00000000000E+00 0.  1.
         21   -1    0    0  502  503 -0.00000000000E+00 -0.00000000000E+00 -0.17768173488E+02  0.17768173488E+02  0.00000000000E+00 0.  1.
         25    2    1    2    0    0  0.00000000000E+00  0.00000000000E+00  0.20209060293E+03  0.23762694991E+03  0.12500382206E+03 0.  0.
          4    1    3    3  501    0  0.24679997614E+01 -0.61152447694E+02  0.12496819236E+03  0.13915877437E+03  0.15500000000E+01 0. -1.
         -4    1    3    3    0  501 -0.24679997614E+01  0.61152447694E+02  0.77122410571E+02  0.98468175540E+02  0.15500000000E+01 0. -1.
<mgrwt>
<rscale>  2 0.12500382E+03</rscale>
<asrwt>0</asrwt>
<pdfrwt beam="1">  1       21 0.33824425E-01 0.12500382E+03</pdfrwt>
<pdfrwt beam="2">  1       21 0.27335653E-02 0.12500382E+03</pdfrwt>
<totfact> 0.61057169E+06</totfact>
</mgrwt>
</event>
<event>
 5    0  0.1428377E+000  0.1250008E+03  0.7546771E-02  0.1235068E+00
         21   -1    0    0  503  502  0.00000000000E+00  0.00000000000E+00  0.65323724097E+02  0.65323724097E+02  0.00000000000E+00 0.  1.
         21   -1    0    0  502  503 -0.00000000000E+00 -0.00000000000E+00 -0.59799086661E+02  0.59799086661E+02  0.00000000000E+00 0.  1.
         25    2    1    2    0    0  0.00000000000E+00  0.00000000000E+00  0.55246374359E+01  0.12512281076E+03  0.12500078461E+03 0.  0.
          4    1    3    3  501    0 -0.28775660107E+02 -0.42019005557E+02  0.38995183717E+02  0.64161221121E+02  0.15500000000E+01 0.  1.
         -4    1    3    3    0  501  0.28775660107E+02  0.42019005557E+02 -0.33470546281E+02  0.60961589637E+02  0.15500000000E+01 0.  1.
<mgrwt>
<rscale>  2 0.12500078E+03</rscale>
<asrwt>0</asrwt>
<pdfrwt beam="1">  1       21 0.10049804E-01 0.12500078E+03</pdfrwt>
<pdfrwt beam="2">  1       21 0.91998596E-02 0.12500078E+03</pdfrwt>
<totfact> 0.74025510E+06</totfact>
</mgrwt>
</event>
<event>
 5    0  0.1508330E+000  0.1250036E+03  0.7546771E-02  0.1235064E+00
         21   -1    0    0  503  502  0.00000000000E+00  0.00000000000E+00  0.18214436838E+03  0.18214436838E+03  0.00000000000E+00 0.  1.
         21   -1    0    0  502  503 -0.00000000000E+00 -0.00000000000E+00 -0.21447121285E+02  0.21447121285E+02  0.00000000000E+00 0.  1.
         25    2    1    2    0    0  0.00000000000E+00  0.00000000000E+00  0.16069724710E+03  0.20359148967E+03  0.12500355771E+03 0.  0.
          4    1    3    3  501    0 -0.63275063117E+01  0.58970018913E+02  0.11237080982E+03  0.12707124720E+03  0.15500000000E+01 0.  1.
         -4    1    3    3    0  501  0.63275063117E+01 -0.58970018913E+02  0.48326437285E+02  0.76520242468E+02  0.15500000000E+01 0.  1.
<mgrwt>
<rscale>  2 0.12500356E+03</rscale>
<asrwt>0</asrwt>
<pdfrwt beam="1">  1       21 0.28022209E-01 0.12500356E+03</pdfrwt>
<pdfrwt beam="2">  1       21 0.32995572E-02 0.12500356E+03</pdfrwt>
<totfact> 0.64534345E+06</totfact>
</mgrwt>
</event>
<event>
 5    0  0.1268195E+000  0.1249910E+03  0.7546771E-02  0.1235083E+00
         21   -1    0    0  503  502  0.00000000000E+00  0.00000000000E+00  0.10438473821E+02  0.10438473821E+02  0.00000000000E+00 0.  1.
         21   -1    0    0  502  503 -0.00000000000E+00 -0.00000000000E+00 -0.37416264128E+03  0.37416264128E+03  0.00000000000E+00 0.  1.
         25    2    1    2    0    0  0.00000000000E+00  0.00000000000E+00 -0.36372416746E+03  0.38460111510E+03  0.12499099065E+03 0.  0.
          4    1    3    3  501    0  0.45945416075E+02  0.11911332414E+02 -0.30686769466E+03  0.31052060419E+03  0.15500000000E+01 0.  1.
         -4    1    3    3    0  501 -0.45945416075E+02 -0.11911332414E+02 -0.56856472800E+02  0.74080510915E+02  0.15500000000E+01 0.  1.
<mgrwt>
<rscale>  2 0.12499099E+03</rscale>
<asrwt>0</asrwt>
<pdfrwt beam="1">  1       21 0.16059192E-02 0.12499099E+03</pdfrwt>
<pdfrwt beam="2">  1       21 0.57563476E-01 0.12499099E+03</pdfrwt>
<totfact> 0.49090862E+06</totfact>
</mgrwt>
</event>
<event>
 5    0  0.1447610E+000  0.1250002E+03  0.7546771E-02  0.1235069E+00
         21   -1    0    0  503  502  0.00000000000E+00  0.00000000000E+00  0.71282769056E+02  0.71282769056E+02  0.00000000000E+00 0.  1.
         21   -1    0    0  502  503 -0.00000000000E+00 -0.00000000000E+00 -0.54799513087E+02  0.54799513087E+02  0.00000000000E+00 0.  1.
         25    2    1    2    0    0  0.00000000000E+00  0.00000000000E+00  0.16483255969E+02  0.12608228214E+03  0.12500017657E+03 0.  0.
          4    1    3    3  501    0  0.12635623299E+02 -0.22341044796E+02 -0.49217093246E+02  0.55529325822E+02  0.15500000000E+01 0. -1.
         -4    1    3    3    0  501 -0.12635623299E+02  0.22341044796E+02  0.65700349214E+02  0.70552956321E+02  0.15500000000E+01 0. -1.
<mgrwt>
<rscale>  2 0.12500018E+03</rscale>
<asrwt>0</asrwt>
<pdfrwt beam="1">  1       21 0.10966580E-01 0.12500018E+03</pdfrwt>
<pdfrwt beam="2">  1       21 0.84306943E-02 0.12500018E+03</pdfrwt>
<totfact> 0.73894369E+06</totfact>
</mgrwt>
</event>
<event>
 5    0  0.1360759E+000  0.1250062E+03  0.7546771E-02  0.1235060E+00
         21   -1    0    0  503  502  0.00000000000E+00  0.00000000000E+00  0.10907033529E+03  0.10907033529E+03  0.00000000000E+00 0.  1.
         21   -1    0    0  502  503 -0.00000000000E+00 -0.00000000000E+00 -0.35817626691E+02  0.35817626691E+02  0.00000000000E+00 0.  1.
         25    2    1    2    0    0  0.00000000000E+00  0.00000000000E+00  0.73252708602E+02  0.14488796198E+03  0.12500624869E+03 0.  0.
          4    1    3    3  501    0 -0.24345910855E+02 -0.98264017910E+01  0.10234492839E+03  0.10567009234E+03  0.15500000000E+01 0.  1.
         -4    1    3    3    0  501  0.24345910855E+02  0.98264017910E+01 -0.29092219788E+02  0.39217869647E+02  0.15500000000E+01 0.  1.
<mgrwt>
<rscale>  2 0.12500625E+03</rscale>
<asrwt>0</asrwt>
<pdfrwt beam="1">  1       21 0.16780052E-01 0.12500625E+03</pdfrwt>
<pdfrwt beam="2">  1       21 0.55104041E-02 0.12500625E+03</pdfrwt>
<totfact> 0.71396077E+06</totfact>
</mgrwt>
</event>
<event>
 5    0  0.1222151E+000  0.1249953E+03  0.7546771E-02  0.1235077E+00
         21   -1    0    0  503  502  0.00000000000E+00  0.00000000000E+00  0.66193109129E+03  0.66193109129E+03  0.00000000000E+00 0. -1.
         21   -1    0    0  502  503 -0.00000000000E+00 -0.00000000000E+00 -0.59008475943E+01  0.59008475943E+01  0.00000000000E+00 0. -1.
         25    2    1    2    0    0  0.00000000000E+00  0.00000000000E+00  0.65603024369E+03  0.66783193888E+03  0.12499527171E+03 0.  0.
          4    1    3    3  501    0  0.26583164504E+02  0.15598329346E+02  0.37647671663E+02  0.48679792472E+02  0.15500000000E+01 0. -1.
         -4    1    3    3    0  501 -0.26583164504E+02 -0.15598329346E+02  0.61838257203E+03  0.61915214641E+03  0.15500000000E+01 0. -1.
<mgrwt>
<rscale>  2 0.12499527E+03</rscale>
<asrwt>0</asrwt>
<pdfrwt beam="1">  1       21 0.10183549E+00 0.12499527E+03</pdfrwt>
<pdfrwt beam="2">  1       21 0.90782323E-03 0.12499527E+03</pdfrwt>
<totfact> 0.34191589E+06</totfact>
</mgrwt>
</event>
<event>
 5    0  0.1397762E+000  0.1250000E+03  0.7546771E-02  0.1235069E+00
         21   -1    0    0  503  502  0.00000000000E+00  0.00000000000E+00  0.18995444498E+02  0.18995444498E+02  0.00000000000E+00 0. -1.
         21   -1    0    0  502  503 -0.00000000000E+00 -0.00000000000E+00 -0.20564143550E+03  0.20564143550E+03  0.00000000000E+00 0. -1.
         25    2    1    2    0    0  0.00000000000E+00  0.00000000000E+00 -0.18664599100E+03  0.22463687999E+03  0.12500000759E+03 0.  0.
          4    1    3    3  501    0 -0.49848628333E+02  0.28802978305E+01 -0.25826202903E+02  0.56236795061E+02  0.15500000000E+01 0. -1.
         -4    1    3    3    0  501  0.49848628333E+02 -0.28802978305E+01 -0.16081978810E+03  0.16840008493E+03  0.15500000000E+01 0. -1.
<mgrwt>
<rscale>  2 0.12500001E+03</rscale>
<asrwt>0</asrwt>
<pdfrwt beam="1">  1       21 0.29223761E-02 0.12500001E+03</pdfrwt>
<pdfrwt beam="2">  1       21 0.31637144E-01 0.12500001E+03</pdfrwt>
<totfact> 0.62351692E+06</totfact>
</mgrwt>
</event>
<event>
 5    0  0.1403835E+000  0.1249966E+03  0.7546771E-02  0.1235075E+00
         21   -1    0    0  503  502  0.00000000000E+00  0.00000000000E+00  0.27086436636E+03  0.27086436636E+03  0.00000000000E+00 0. -1.
         21   -1    0    0  502  503 -0.00000000000E+00 -0.00000000000E+00 -0.14420650412E+02  0.14420650412E+02  0.00000000000E+00 0. -1.
         25    2    1    2    0    0  0.00000000000E+00  0.00000000000E+00  0.25644371594E+03  0.28528501677E+03  0.12499664533E+03 0.  0.
          4    1    3    3  501    0 -0.29372058702E+02 -0.18988277298E+02  0.24638379487E+03  0.24885869360E+03  0.15500000000E+01 0. -1.
         -4    1    3    3    0  501  0.29372058702E+02  0.18988277298E+02  0.10059921073E+02  0.36426323163E+02  0.15500000000E+01 0. -1.
<mgrwt>
<rscale>  2 0.12499665E+03</rscale>
<asrwt>0</asrwt>
<pdfrwt beam="1">  1       21 0.41671437E-01 0.12499665E+03</pdfrwt>
<pdfrwt beam="2">  1       21 0.22185618E-02 0.12499665E+03</pdfrwt>
<totfact> 0.56706441E+06</totfact>
</mgrwt>
</event>
<event>
 5    0  0.1471425E+000  0.1249900E+03  0.7546771E-02  0.1235085E+00
         21   -1    0    0  503  502  0.00000000000E+00  0.00000000000E+00  0.38137517812E+03  0.38137517812E+03  0.00000000000E+00 0. -1.
         21   -1    0    0  502  503 -0.00000000000E+00 -0.00000000000E+00 -0.10240907349E+02  0.10240907349E+02  0.00000000000E+00 0. -1.
         25    2    1    2    0    0  0.00000000000E+00  0.00000000000E+00  0.37113427077E+03  0.39161608547E+03  0.12499004543E+03 0.  0.
          4    1    3    3  501    0  0.57354000170E+02 -0.23803499481E+02  0.16405576400E+03  0.17542173219E+03  0.15500000000E+01 0.  1.
         -4    1    3    3    0  501 -0.57354000170E+02  0.23803499481E+02  0.20707850678E+03  0.21619435328E+03  0.15500000000E+01 0.  1.
<mgrwt>
<rscale>  2 0.12499005E+03</rscale>
<asrwt>0</asrwt>
<pdfrwt beam="1">  1       21 0.58673093E-01 0.12499005E+03</pdfrwt>
<pdfrwt beam="2">  1       21 0.15755245E-02 0.12499005E+03</pdfrwt>
<totfact> 0.48614567E+06</totfact>
</mgrwt>
</event>
<event>
 5    0  0.1603858E+000  0.1249943E+03  0.7546771E-02  0.1235078E+00
         21   -1    0    0  503  502  0.00000000000E+00  0.00000000000E+00  0.49913093240E+02  0.49913093240E+02  0.00000000000E+00 0. -1.
         21   -1    0    0  502  503 -0.00000000000E+00 -0.00000000000E+00 -0.78253936740E+02  0.78253936740E+02  0.00000000000E+00 0. -1.
         25    2    1    2    0    0  0.00000000000E+00  0.00000000000E+00 -0.28340843501E+02  0.12816702998E+03  0.12499433653E+03 0.  0.
          4    1    3    3  501    0  0.50338917957E+02  0.36603946683E+02 -0.85881600852E+01  0.62849141343E+02  0.15500000000E+01 0. -1.
         -4    1    3    3    0  501 -0.50338917957E+02 -0.36603946683E+02 -0.19752683416E+02  0.65317888637E+02  0.15500000000E+01 0. -1.
<mgrwt>
<rscale>  2 0.12499434E+03</rscale>
<asrwt>0</asrwt>
<pdfrwt beam="1">  1       21 0.76789375E-02 0.12499434E+03</pdfrwt>
<pdfrwt beam="2">  1       21 0.12039067E-01 0.12499434E+03</pdfrwt>
<totfact> 0.73621652E+06</totfact>
</mgrwt>
</event>
<event>
 5    0  0.1480633E+000  0.1250052E+03  0.7546771E-02  0.1235061E+00
         21   -1    0    0  503  502  0.00000000000E+00  0.00000000000E+00  0.42339804597E+02  0.42339804597E+02  0.00000000000E+00 0. -1.
         21   -1    0    0  502  503 -0.00000000000E+00 -0.00000000000E+00 -0.92267147428E+02  0.92267147428E+02  0.00000000000E+00 0. -1.
         25    2    1    2    0    0  0.00000000000E+00  0.00000000000E+00 -0.49927342831E+02  0.13460695202E+03  0.12500516778E+03 0.  0.
          4    1    3    3  501    0 -0.34337723009E+01 -0.32062053133E+02 -0.82594742739E+02  0.88679535810E+02  0.15500000000E+01 0.  1.
         -4    1    3    3    0  501  0.34337723009E+01  0.32062053133E+02  0.32667399908E+02  0.45927416214E+02  0.15500000000E+01 0.  1.
<mgrwt>
<rscale>  2 0.12500517E+03</rscale>
<asrwt>0</asrwt>
<pdfrwt beam="1">  1       21 0.65138162E-02 0.12500517E+03</pdfrwt>
<pdfrwt beam="2">  1       21 0.14194946E-01 0.12500517E+03</pdfrwt>
<totfact> 0.72738968E+06</totfact>
</mgrwt>
</event>
<event>
 5    0  0.1360432E+000  0.1250042E+03  0.7546771E-02  0.1235063E+00
         21   -1    0    0  503  502  0.00000000000E+00  0.00000000000E+00  0.16663560242E+02  0.16663560242E+02  0.00000000000E+00 0.  1.
         21   -1    0    0  502  503 -0.00000000000E+00 -0.00000000000E+00 -0.23443434137E+03  0.23443434137E+03  0.00000000000E+00 0.  1.
         25    2    1    2    0    0  0.00000000000E+00  0.00000000000E+00 -0.21777078112E+03  0.25109790161E+03  0.12500417225E+03 0.  0.
          4    1    3    3  501    0 -0.24215599508E+02 -0.22009594797E+02 -0.21580666987E+03  0.21827903880E+03  0.15500000000E+01 0.  1.
         -4    1    3    3    0  501  0.24215599508E+02  0.22009594797E+02 -0.19641112571E+01  0.32818862803E+02  0.15500000000E+01 0.  1.
<mgrwt>
<rscale>  2 0.12500417E+03</rscale>
<asrwt>0</asrwt>
<pdfrwt beam="1">  1       21 0.25636249E-02 0.12500417E+03</pdfrwt>
<pdfrwt beam="2">  1       21 0.36066818E-01 0.12500417E+03</pdfrwt>
<totfact> 0.59768693E+06</totfact>
</mgrwt>
</event>
<event>
 5    0  0.1544166E+000  0.1250025E+03  0.7546771E-02  0.1235065E+00
         21   -1    0    0  503  502  0.00000000000E+00  0.00000000000E+00  0.10757747974E+03  0.10757747974E+03  0.00000000000E+00 0. -1.
         21   -1    0    0  502  503 -0.00000000000E+00 -0.00000000000E+00 -0.36312485373E+02  0.36312485373E+02  0.00000000000E+00 0. -1.
         25    2    1    2    0    0  0.00000000000E+00  0.00000000000E+00  0.71264994364E+02  0.14388996511E+03  0.12500249052E+03 0.  0.
          4    1    3    3  501    0 -0.44103482037E+02  0.32138320660E+02  0.70660929899E+02  0.89293663252E+02  0.15500000000E+01 0.  1.
         -4    1    3    3    0  501  0.44103482037E+02 -0.32138320660E+02  0.60406446530E+00  0.54596301858E+02  0.15500000000E+01 0.  1.
<mgrwt>
<rscale>  2 0.12500249E+03</rscale>
<asrwt>0</asrwt>
<pdfrwt beam="1">  1       21 0.16550381E-01 0.12500249E+03</pdfrwt>
<pdfrwt beam="2">  1       21 0.55865363E-02 0.12500249E+03</pdfrwt>
<totfact> 0.71530923E+06</totfact>
</mgrwt>
</event>
<event>
 5    0  0.1570117E+000  0.1250008E+03  0.7546771E-02  0.1235068E+00
         21   -1    0    0  503  502  0.00000000000E+00  0.00000000000E+00  0.11000788978E+03  0.11000788978E+03  0.00000000000E+00 0. -1.
         21   -1    0    0  502  503 -0.00000000000E+00 -0.00000000000E+00 -0.35509273455E+02  0.35509273455E+02  0.00000000000E+00 0. -1.
         25    2    1    2    0    0  0.00000000000E+00  0.00000000000E+00  0.74498616325E+02  0.14551716323E+03  0.12500080384E+03 0.  0.
          4    1    3    3  501    0 -0.91090437280E+01 -0.58202815814E+02  0.13015399470E+02  0.60351848105E+02  0.15500000000E+01 0.  1.
         -4    1    3    3    0  501  0.91090437280E+01  0.58202815814E+02  0.61483216855E+02  0.85165315130E+02  0.15500000000E+01 0.  1.
<mgrwt>
<rscale>  2 0.12500080E+03</rscale>
<asrwt>0</asrwt>
<pdfrwt beam="1">  1       21 0.16924291E-01 0.12500080E+03</pdfrwt>
<pdfrwt beam="2">  1       21 0.54629652E-02 0.12500080E+03</pdfrwt>
<totfact> 0.71325520E+06</totfact>
</mgrwt>
</event>
<event>
 5    0  0.1564969E+000  0.1249902E+03  0.7546771E-02  0.1235085E+00
         21   -1    0    0  503  502  0.00000000000E+00  0.00000000000E+00  0.64648015960E+02  0.64648015960E+02  0.00000000000E+00 0. -1.
         21   -1    0    0  502  503 -0.00000000000E+00 -0.00000000000E+00 -0.60413852432E+02  0.60413852432E+02  0.00000000000E+00 0. -1.
         25    2    1    2    0    0  0.00000000000E+00  0.00000000000E+00  0.42341635283E+01  0.12506186839E+03  0.12499017075E+03 0.  0.
          4    1    3    3  501    0 -0.57788874953E+02 -0.20801394078E+02 -0.93341820871E+01  0.62143233897E+02  0.15500000000E+01 0.  1.
         -4    1    3    3    0  501  0.57788874953E+02  0.20801394078E+02  0.13568345615E+02  0.62918634495E+02  0.15500000000E+01 0.  1.
<mgrwt>
<rscale>  2 0.12499017E+03</rscale>
<asrwt>0</asrwt>
<pdfrwt beam="1">  1       21 0.99458487E-02 0.12499017E+03</pdfrwt>
<pdfrwt beam="2">  1       21 0.92944388E-02 0.12499017E+03</pdfrwt>
<totfact> 0.74053833E+06</totfact>
</mgrwt>
</event>
<event>
 5    0  0.1489867E+000  0.1249983E+03  0.7546771E-02  0.1235072E+00
         21   -1    0    0  503  502  0.00000000000E+00  0.00000000000E+00  0.11640724956E+02  0.11640724956E+02  0.00000000000E+00 0. -1.
         21   -1    0    0  502  503 -0.00000000000E+00 -0.00000000000E+00 -0.33555849064E+03  0.33555849064E+03  0.00000000000E+00 0. -1.
         25    2    1    2    0    0  0.00000000000E+00  0.00000000000E+00 -0.32391776568E+03  0.34719921559E+03  0.12499830553E+03 0.  0.
          4    1    3    3  501    0  0.14970669089E+02  0.58948344222E+02 -0.12221706573E+03  0.13652267897E+03  0.15500000000E+01 0.  1.
         -4    1    3    3    0  501 -0.14970669089E+02 -0.58948344222E+02 -0.20170069995E+03  0.21067653662E+03  0.15500000000E+01 0.  1.
<mgrwt>
<rscale>  2 0.12499831E+03</rscale>
<asrwt>0</asrwt>
<pdfrwt beam="1">  1       21 0.17908809E-02 0.12499831E+03</pdfrwt>
<pdfrwt beam="2">  1       21 0.51624381E-01 0.12499831E+03</pdfrwt>
<totfact> 0.51748142E+06</totfact>
</mgrwt>
</event>
<event>
 5    0  0.1509334E+000  0.1250012E+03  0.7546771E-02  0.1235067E+00
         21   -1    0    0  503  502  0.00000000000E+00  0.00000000000E+00  0.28703390321E+02  0.28703390321E+02  0.00000000000E+00 0.  1.
         21   -1    0    0  502  503 -0.00000000000E+00 -0.00000000000E+00 -0.13609275119E+03  0.13609275119E+03  0.00000000000E+00 0.  1.
         25    2    1    2    0    0  0.00000000000E+00  0.00000000000E+00 -0.10738936087E+03  0.16479614151E+03  0.12500117371E+03 0.  0.
          4    1    3    3  501    0  0.58054629722E+02 -0.10079011281E+02 -0.81096032008E+02  0.10025415407E+03  0.15500000000E+01 0.  1.
         -4    1    3    3    0  501 -0.58054629722E+02  0.10079011281E+02 -0.26293328861E+02  0.64541987443E+02  0.15500000000E+01 0.  1.
<mgrwt>
<rscale>  2 0.12500117E+03</rscale>
<asrwt>0</asrwt>
<pdfrwt beam="1">  1       21 0.44159063E-02 0.12500117E+03</pdfrwt>
<pdfrwt beam="2">  1       21 0.20937346E-01 0.12500117E+03</pdfrwt>
<totfact> 0.68936101E+06</totfact>
</mgrwt>
</event>
<event>
 5    0  0.1566477E+000  0.1250013E+03  0.7546771E-02  0.1235067E+00
         21   -1    0    0  503  502  0.00000000000E+00  0.00000000000E+00  0.74115255833E+02  0.74115255833E+02  0.00000000000E+00 0. -1.
         21   -1    0    0  502  503 -0.00000000000E+00 -0.00000000000E+00 -0.52706172507E+02  0.52706172507E+02  0.00000000000E+00 0. -1.
         25    2    1    2    0    0  0.00000000000E+00  0.00000000000E+00  0.21409083326E+02  0.12682142834E+03  0.12500130334E+03 0.  0.
          4    1    3    3  501    0  0.36423984806E+02 -0.49752050177E+02  0.46020002692E+00  0.61681337939E+02  0.15500000000E+01 0.  1.
         -4    1    3    3    0  501 -0.36423984806E+02  0.49752050177E+02  0.20948883299E+02  0.65140090401E+02  0.15500000000E+01 0.  1.
<mgrwt>
<rscale>  2 0.12500130E+03</rscale>
<asrwt>0</asrwt>
<pdfrwt beam="1">  1       21 0.11402347E-01 0.12500130E+03</pdfrwt>
<pdfrwt beam="2">  1       21 0.81086419E-02 0.12500130E+03</pdfrwt>
<totfact> 0.73791011E+06</totfact>
</mgrwt>
</event>
<event>
 5    0  0.1222151E+000  0.1250097E+03  0.7546771E-02  0.1235054E+00
         21   -1    0    0  503  502  0.00000000000E+00  0.00000000000E+00  0.10283157099E+04  0.10283157099E+04  0.00000000000E+00 0.  1.
         21   -1    0    0  502  503 -0.00000000000E+00 -0.00000000000E+00 -0.37992784402E+01  0.37992784402E+01  0.00000000000E+00 0.  1.
         25    2    1    2    0    0  0.00000000000E+00  0.00000000000E+00  0.10245164315E+04  0.10321149884E+04  0.12500972292E+03 0.  0.
          4    1    3    3  501    0  0.19646948898E+02 -0.18161540541E+02  0.97847195261E+03  0.97883890846E+03  0.15500000000E+01 0.  1.
         -4    1    3    3    0  501 -0.19646948898E+02  0.18161540541E+02  0.46044478862E+02  0.53276079900E+02  0.15500000000E+01 0.  1.
<mgrwt>
<rscale>  2 0.12500972E+03</rscale>
<asrwt>0</asrwt>
<pdfrwt beam="1">  1       21 0.15820220E+00 0.12500972E+03</pdfrwt>
<pdfrwt beam="2">  1       21 0.58450519E-03 0.12500972E+03</pdfrwt>
<totfact> 0.22822101E+06</totfact>
</mgrwt>
</event>
<event>
 5    0  0.1463611E+000  0.1250048E+03  0.7546771E-02  0.1235062E+00
         21   -1    0    0  503  502  0.00000000000E+00  0.00000000000E+00  0.45782941085E+02  0.45782941085E+02  0.00000000000E+00 0.  1.
         21   -1    0    0  502  503 -0.00000000000E+00 -0.00000000000E+00 -0.85327661131E+02  0.85327661131E+02  0.00000000000E+00 0.  1.
         25    2    1    2    0    0  0.00000000000E+00  0.00000000000E+00 -0.39544720046E+02  0.13111060222E+03  0.12500482043E+03 0.  0.
          4    1    3    3  501    0 -0.27310529026E+02 -0.27433160902E+02 -0.71216069797E+02  0.81071415493E+02  0.15500000000E+01 0. -1.
         -4    1    3    3    0  501  0.27310529026E+02  0.27433160902E+02  0.31671349751E+02  0.50039186722E+02  0.15500000000E+01 0. -1.
<mgrwt>
<rscale>  2 0.12500482E+03</rscale>
<asrwt>0</asrwt>
<pdfrwt beam="1">  1       21 0.70435294E-02 0.12500482E+03</pdfrwt>
<pdfrwt beam="2">  1       21 0.13127332E-01 0.12500482E+03</pdfrwt>
<totfact> 0.73206767E+06</totfact>
</mgrwt>
</event>
<event>
 5    0  0.1469614E+000  0.1250073E+03  0.7546771E-02  0.1235058E+00
         21   -1    0    0  503  502  0.00000000000E+00  0.00000000000E+00  0.74534946277E+02  0.74534946277E+02  0.00000000000E+00 0.  1.
         21   -1    0    0  502  503 -0.00000000000E+00 -0.00000000000E+00 -0.52414446480E+02  0.52414446480E+02  0.00000000000E+00 0.  1.
         25    2    1    2    0    0  0.00000000000E+00  0.00000000000E+00  0.22120499797E+02  0.12694939276E+03  0.12500732703E+03 0.  0.
          4    1    3    3  501    0 -0.50842261077E+02  0.19409214114E+02  0.42239878362E+02  0.68907640563E+02  0.15500000000E+01 0.  1.
         -4    1    3    3    0  501  0.50842261077E+02 -0.19409214114E+02 -0.20119378565E+02  0.58041752194E+02  0.15500000000E+01 0.  1.
<mgrwt>
<rscale>  2 0.12500733E+03</rscale>
<asrwt>0</asrwt>
<pdfrwt beam="1">  1       21 0.11466915E-01 0.12500733E+03</pdfrwt>
<pdfrwt beam="2">  1       21 0.80637610E-02 0.12500733E+03</pdfrwt>
<totfact> 0.73762231E+06</totfact>
</mgrwt>
</event>
<event>
 5    0  0.1388913E+000  0.1250008E+03  0.7546771E-02  0.1235068E+00
         21   -1    0    0  503  502  0.00000000000E+00  0.00000000000E+00  0.10304880598E+02  0.10304880598E+02  0.00000000000E+00 0.  1.
         21   -1    0    0  502  503 -0.00000000000E+00 -0.00000000000E+00 -0.37907258291E+03  0.37907258291E+03  0.00000000000E+00 0.  1.
         25    2    1    2    0    0  0.00000000000E+00  0.00000000000E+00 -0.36876770231E+03  0.38937746350E+03  0.12500076328E+03 0.  0.
          4    1    3    3  501    0  0.37201948535E+02 -0.49197220481E+02 -0.15330499007E+03  0.16525487575E+03  0.15500000000E+01 0. -1.
         -4    1    3    3    0  501 -0.37201948535E+02  0.49197220481E+02 -0.21546271224E+03  0.22412258775E+03  0.15500000000E+01 0. -1.
<mgrwt>
<rscale>  2 0.12500076E+03</rscale>
<asrwt>0</asrwt>
<pdfrwt beam="1">  1       21 0.15853663E-02 0.12500076E+03</pdfrwt>
<pdfrwt beam="2">  1       21 0.58318859E-01 0.12500076E+03</pdfrwt>
<totfact> 0.48753075E+06</totfact>
</mgrwt>
</event>
<event>
 5    0  0.1222151E+000  0.1250023E+03  0.7546771E-02  0.1235066E+00
         21   -1    0    0  503  502  0.00000000000E+00  0.00000000000E+00  0.16106225247E+04  0.16106225247E+04  0.00000000000E+00 0. -1.
         21   -1    0    0  502  503 -0.00000000000E+00 -0.00000000000E+00 -0.24253919330E+01  0.24253919330E+01  0.00000000000E+00 0. -1.
         25    2    1    2    0    0  0.00000000000E+00  0.00000000000E+00  0.16081971328E+04  0.16130479167E+04  0.12500225404E+03 0.  0.
          4    1    3    3  501    0 -0.24110464973E+02  0.28636241295E+02  0.14496466191E+04  0.14501307084E+04  0.15500000000E+01 0. -1.
         -4    1    3    3    0  501  0.24110464973E+02 -0.28636241295E+02  0.15855051371E+03  0.16291720822E+03  0.15500000000E+01 0. -1.
<mgrwt>
<rscale>  2 0.12500225E+03</rscale>
<asrwt>0</asrwt>
<pdfrwt beam="1">  1       21 0.24778723E+00 0.12500225E+03</pdfrwt>
<pdfrwt beam="2">  1       21 0.37313851E-03 0.12500225E+03</pdfrwt>
<totfact> 0.12396798E+06</totfact>
</mgrwt>
</event>
<event>
 5    0  0.1279673E+000  0.1250139E+03  0.7546771E-02  0.1235048E+00
         21   -1    0    0  503  502  0.00000000000E+00  0.00000000000E+00  0.37624590042E+03  0.37624590042E+03  0.00000000000E+00 0.  1.
         21   -1    0    0  502  503 -0.00000000000E+00 -0.00000000000E+00 -0.10384486999E+02  0.10384486999E+02  0.00000000000E+00 0.  1.
         25    2    1    2    0    0  0.00000000000E+00  0.00000000000E+00  0.36586141342E+03  0.38663038742E+03  0.12501392980E+03 0.  0.
          4    1    3    3  501    0 -0.14633118780E+02 -0.22818487364E+02  0.35705557959E+03  0.35808644340E+03  0.15500000000E+01 0. -1.
         -4    1    3    3    0  501  0.14633118780E+02  0.22818487364E+02  0.88058338351E+01  0.28543944022E+02  0.15500000000E+01 0. -1.
<mgrwt>
<rscale>  2 0.12501393E+03</rscale>
<asrwt>0</asrwt>
<pdfrwt beam="1">  1       21 0.57883974E-01 0.12501393E+03</pdfrwt>
<pdfrwt beam="2">  1       21 0.15976137E-02 0.12501393E+03</pdfrwt>
<totfact> 0.48923930E+06</totfact>
</mgrwt>
</event>
<event>
 5    0  0.1330057E+000  0.1250002E+03  0.7546771E-02  0.1235069E+00
         21   -1    0    0  503  502  0.00000000000E+00  0.00000000000E+00  0.45629399998E+03  0.45629399998E+03  0.00000000000E+00 0. -1.
         21   -1    0    0  502  503 -0.00000000000E+00 -0.00000000000E+00 -0.85608518855E+01  0.85608518855E+01  0.00000000000E+00 0. -1.
         25    2    1    2    0    0  0.00000000000E+00  0.00000000000E+00  0.44773314810E+03  0.46485485187E+03  0.12500024560E+03 0.  0.
          4    1    3    3  501    0 -0.27712840692E+02  0.46378272434E+02  0.10715703513E+03  0.12001657540E+03  0.15500000000E+01 0.  1.
         -4    1    3    3    0  501  0.27712840692E+02 -0.46378272434E+02  0.34057611296E+03  0.34483827646E+03  0.15500000000E+01 0.  1.
<mgrwt>
<rscale>  2 0.12500025E+03</rscale>
<asrwt>0</asrwt>
<pdfrwt beam="1">  1       21 0.70199058E-01 0.12500025E+03</pdfrwt>
<pdfrwt beam="2">  1       21 0.13170545E-02 0.12500025E+03</pdfrwt>
<totfact> 0.44016264E+06</totfact>
</mgrwt>
</event>
<event>
 5    0  0.1308428E+000  0.1249980E+03  0.7546771E-02  0.1235072E+00
         21   -1    0    0  503  502  0.00000000000E+00  0.00000000000E+00  0.68000651821E+01  0.68000651821E+01  0.00000000000E+00 0.  1.
         21   -1    0    0  502  503 -0.00000000000E+00 -0.00000000000E+00 -0.57442423279E+03  0.57442423279E+03  0.00000000000E+00 0.  1.
         25    2    1    2    0    0  0.00000000000E+00  0.00000000000E+00 -0.56762416761E+03  0.58122429798E+03  0.12499795559E+03 0.  0.
          4    1    3    3  501    0  0.15406369918E+02 -0.54467669106E+02 -0.16082002113E+03  0.17049799092E+03  0.15500000000E+01 0. -1.
         -4    1    3    3    0  501 -0.15406369918E+02  0.54467669106E+02 -0.40680414649E+03  0.41072630706E+03  0.15500000000E+01 0. -1.
<mgrwt>
<rscale>  2 0.12499796E+03</rscale>
<asrwt>0</asrwt>
<pdfrwt beam="1">  1       21 0.10461637E-02 0.12499796E+03</pdfrwt>
<pdfrwt beam="2">  1       21 0.88372976E-01 0.12499796E+03</pdfrwt>
<totfact> 0.37957664E+06</totfact>
</mgrwt>
</event>
<event>
 5    0  0.1370292E+000  0.1249966E+03  0.7546771E-02  0.1235075E+00
         21   -1    0    0  503  502  0.00000000000E+00  0.00000000000E+00  0.40073401810E+03  0.40073401810E+03  0.00000000000E+00 0. -1.
         21   -1    0    0  502  503 -0.00000000000E+00 -0.00000000000E+00 -0.97472118950E+01  0.97472118950E+01  0.00000000000E+00 0. -1.
         25    2    1    2    0    0  0.00000000000E+00  0.00000000000E+00  0.39098680620E+03  0.41048122999E+03  0.12499663016E+03 0.  0.
          4    1    3    3  501    0 -0.61757408331E+02 -0.94366850461E+01  0.19805483192E+03  0.20768039737E+03  0.15500000000E+01 0.  1.
         -4    1    3    3    0  501  0.61757408331E+02  0.94366850461E+01  0.19293197429E+03  0.20280083262E+03  0.15500000000E+01 0.  1.
<mgrwt>
<rscale>  2 0.12499663E+03</rscale>
<asrwt>0</asrwt>
<pdfrwt beam="1">  1       21 0.61651375E-01 0.12499663E+03</pdfrwt>
<pdfrwt beam="2">  1       21 0.14995714E-02 0.12499663E+03</pdfrwt>
<totfact> 0.47357817E+06</totfact>
</mgrwt>
</event>
<event>
 5    0  0.1438152E+000  0.1249995E+03  0.7546771E-02  0.1235070E+00
         21   -1    0    0  503  502  0.00000000000E+00  0.00000000000E+00  0.22883788803E+02  0.22883788803E+02  0.00000000000E+00 0. -1.
         21   -1    0    0  502  503 -0.00000000000E+00 -0.00000000000E+00 -0.17069818560E+03  0.17069818560E+03  0.00000000000E+00 0. -1.
         25    2    1    2    0    0  0.00000000000E+00  0.00000000000E+00 -0.14781439679E+03  0.19358197440E+03  0.12499953965E+03 0.  0.
          4    1    3    3  501    0  0.29355810201E+02 -0.56084992940E+01 -0.15888060329E+03  0.16167457270E+03  0.15500000000E+01 0. -1.
         -4    1    3    3    0  501 -0.29355810201E+02  0.56084992940E+01  0.11066206496E+02  0.31907401697E+02  0.15500000000E+01 0. -1.
<mgrwt>
<rscale>  2 0.12499954E+03</rscale>
<asrwt>0</asrwt>
<pdfrwt beam="1">  1       21 0.35205827E-02 0.12499954E+03</pdfrwt>
<pdfrwt beam="2">  1       21 0.26261260E-01 0.12499954E+03</pdfrwt>
<totfact> 0.65627321E+06</totfact>
</mgrwt>
</event>
<event>
 5    0  0.1528742E+000  0.1250064E+03  0.7546771E-02  0.1235059E+00
         21   -1    0    0  503  502  0.00000000000E+00  0.00000000000E+00  0.58310571851E+02  0.58310571851E+02  0.00000000000E+00 0.  1.
         21   -1    0    0  502  503 -0.00000000000E+00 -0.00000000000E+00 -0.66997314935E+02  0.66997314935E+02  0.00000000000E+00 0.  1.
         25    2    1    2    0    0  0.00000000000E+00  0.00000000000E+00 -0.86867430838E+01  0.12530788679E+03  0.12500642778E+03 0.  0.
          4    1    3    3  501    0  0.46084209920E+02 -0.24589883919E+02  0.30029734840E+02  0.60271089833E+02  0.15500000000E+01 0.  1.
         -4    1    3    3    0  501 -0.46084209920E+02  0.24589883919E+02 -0.38716477924E+02  0.65036796953E+02  0.15500000000E+01 0.  1.
<mgrwt>
<rscale>  2 0.12500643E+03</rscale>
<asrwt>0</asrwt>
<pdfrwt beam="1">  1       21 0.89708572E-02 0.12500643E+03</pdfrwt>
<pdfrwt beam="2">  1       21 0.10307279E-01 0.12500643E+03</pdfrwt>
<totfact> 0.73989848E+06</totfact>
</mgrwt>
</event>
<event>
 5    0  0.1240592E+000  0.1250002E+03  0.7546771E-02  0.1235069E+00
         21   -1    0    0  503  502  0.00000000000E+00  0.00000000000E+00  0.82609149033E+03  0.82609149033E+03  0.00000000000E+00 0. -1.
         21   -1    0    0  502  503 -0.00000000000E+00 -0.00000000000E+00 -0.47286074417E+01  0.47286074417E+01  0.00000000000E+00 0. -1.
         25    2    1    2    0    0  0.00000000000E+00  0.00000000000E+00  0.82136288288E+03  0.83082009777E+03  0.12500019790E+03 0.  0.
          4    1    3    3  501    0  0.50469374744E+02 -0.35190852161E+02  0.33838786850E+03  0.34393939279E+03  0.15500000000E+01 0.  1.
         -4    1    3    3    0  501 -0.50469374744E+02  0.35190852161E+02  0.48297501438E+03  0.48688070498E+03  0.15500000000E+01 0.  1.
<mgrwt>
<rscale>  2 0.12500020E+03</rscale>
<asrwt>0</asrwt>
<pdfrwt beam="1">  1       21 0.12709088E+00 0.12500020E+03</pdfrwt>
<pdfrwt beam="2">  1       21 0.72747872E-03 0.12500020E+03</pdfrwt>
<totfact> 0.28366700E+06</totfact>
</mgrwt>
</event>
<event>
 5    0  0.1276007E+000  0.1250008E+03  0.7546771E-02  0.1235068E+00
         21   -1    0    0  503  502  0.00000000000E+00  0.00000000000E+00  0.61327062335E+01  0.61327062335E+01  0.00000000000E+00 0.  1.
         21   -1    0    0  502  503 -0.00000000000E+00 -0.00000000000E+00 -0.63696212933E+03  0.63696212933E+03  0.00000000000E+00 0.  1.
         25    2    1    2    0    0  0.00000000000E+00  0.00000000000E+00 -0.63082942310E+03  0.64309483557E+03  0.12500082593E+03 0.  0.
          4    1    3    3  501    0  0.52962079412E+02 -0.25186638344E+02 -0.42630119528E+03  0.43031902143E+03  0.15500000000E+01 0. -1.
         -4    1    3    3    0  501 -0.52962079412E+02  0.25186638344E+02 -0.20452822782E+03  0.21277581414E+03  0.15500000000E+01 0. -1.
<mgrwt>
<rscale>  2 0.12500083E+03</rscale>
<asrwt>0</asrwt>
<pdfrwt beam="1">  1       21 0.94349400E-03 0.12500083E+03</pdfrwt>
<pdfrwt beam="2">  1       21 0.97994097E-01 0.12500083E+03</pdfrwt>
<totfact> 0.35212653E+06</totfact>
</mgrwt>
</event>
<event>
 5    0  0.1367518E+000  0.1250020E+03  0.7546771E-02  0.1235066E+00
         21   -1    0    0  503  502  0.00000000000E+00  0.00000000000E+00  0.80525030877E+01  0.80525030877E+01  0.00000000000E+00 0. -1.
         21   -1    0    0  502  503 -0.00000000000E+00 -0.00000000000E+00 -0.48511322582E+03  0.48511322582E+03  0.00000000000E+00 0. -1.
         25    2    1    2    0    0  0.00000000000E+00  0.00000000000E+00 -0.47706072274E+03  0.49316572891E+03  0.12500201197E+03 0.  0.
          4    1    3    3  501    0 -0.50079082737E+02 -0.37347968952E+02 -0.24283040095E+03  0.25074248032E+03  0.15500000000E+01 0. -1.
         -4    1    3    3    0  501  0.50079082737E+02  0.37347968952E+02 -0.23423032179E+03  0.24242324859E+03  0.15500000000E+01 0. -1.
<mgrwt>
<rscale>  2 0.12500201E+03</rscale>
<asrwt>0</asrwt>
<pdfrwt beam="1">  1       21 0.12388468E-02 0.12500201E+03</pdfrwt>
<pdfrwt beam="2">  1       21 0.74632793E-01 0.12500201E+03</pdfrwt>
<totfact> 0.42415028E+06</totfact>
</mgrwt>
</event>
<event>
 5    0  0.1361563E+000  0.1250047E+03  0.7546771E-02  0.1235062E+00
         21   -1    0    0  503  502  0.00000000000E+00  0.00000000000E+00  0.10614936652E+02  0.10614936652E+02  0.00000000000E+00 0. -1.
         21   -1    0    0  502  503 -0.00000000000E+00 -0.00000000000E+00 -0.36802310339E+03  0.36802310339E+03  0.00000000000E+00 0. -1.
         25    2    1    2    0    0  0.00000000000E+00  0.00000000000E+00 -0.35740816673E+03  0.37863804004E+03  0.12500467078E+03 0.  0.
          4    1    3    3  501    0  0.91359328928E+00 -0.55300664168E+02 -0.90647329777E+02  0.10619952451E+03  0.15500000000E+01 0. -1.
         -4    1    3    3    0  501 -0.91359328928E+00  0.55300664168E+02 -0.26676083696E+03  0.27243851553E+03  0.15500000000E+01 0. -1.
<mgrwt>
<rscale>  2 0.12500467E+03</rscale>
<asrwt>0</asrwt>
<pdfrwt beam="1">  1       21 0.16330673E-02 0.12500467E+03</pdfrwt>
<pdfrwt beam="2">  1       21 0.56618935E-01 0.12500467E+03</pdfrwt>
<totfact> 0.49484733E+06</totfact>
</mgrwt>
</event>
<event>
 5    0  0.1534194E+000  0.1249981E+03  0.7546771E-02  0.1235072E+00
         21   -1    0    0  503  502  0.00000000000E+00  0.00000000000E+00  0.33081532102E+02  0.33081532102E+02  0.00000000000E+00 0.  1.
         21   -1    0    0  502  503 -0.00000000000E+00 -0.00000000000E+00 -0.11807591109E+03  0.11807591109E+03  0.00000000000E+00 0.  1.
         25    2    1    2    0    0  0.00000000000E+00  0.00000000000E+00 -0.84994378990E+02  0.15115744319E+03  0.12499811268E+03 0.  0.
          4    1    3    3  501    0  0.10693349719E+02 -0.49810425021E+02  0.12429649603E+01  0.50984052711E+02  0.15500000000E+01 0.  1.
         -4    1    3    3    0  501 -0.10693349719E+02  0.49810425021E+02 -0.86237343951E+02  0.10017339048E+03  0.15500000000E+01 0.  1.
<mgrwt>
<rscale>  2 0.12499811E+03</rscale>
<asrwt>0</asrwt>
<pdfrwt beam="1">  1       21 0.50894666E-02 0.12499811E+03</pdfrwt>
<pdfrwt beam="2">  1       21 0.18165524E-01 0.12499811E+03</pdfrwt>
<totfact> 0.70617499E+06</totfact>
</mgrwt>
</event>
<event>
 5    0  0.1577590E+000  0.1249990E+03  0.7546771E-02  0.1235071E+00
         21   -1    0    0  503  502  0.00000000000E+00  0.00000000000E+00  0.24943910931E+02  0.24943910931E+02  0.00000000000E+00 0.  1.
         21   -1    0    0  502  503 -0.00000000000E+00 -0.00000000000E+00 -0.15659888985E+03  0.15659888985E+03  0.00000000000E+00 0.  1.
         25    2    1    2    0    0  0.00000000000E+00  0.00000000000E+00 -0.13165497892E+03  0.18154280078E+03  0.12499902016E+03 0.  0.
          4    1    3    3  501    0 -0.11888158435E+02  0.61183771132E+02 -0.59496143156E+02  0.86179903175E+02  0.15500000000E+01 0. -1.
         -4    1    3    3    0  501  0.11888158435E+02 -0.61183771132E+02 -0.72158835760E+02  0.95362897602E+02  0.15500000000E+01 0. -1.
<mgrwt>
<rscale>  2 0.12499902E+03</rscale>
<asrwt>0</asrwt>
<pdfrwt beam="1">  1       21 0.38375249E-02 0.12499902E+03</pdfrwt>
<pdfrwt beam="2">  1       21 0.24092136E-01 0.12499902E+03</pdfrwt>
<totfact> 0.66976655E+06</totfact>
</mgrwt>
</event>
<event>
 5    0  0.1544411E+000  0.1250006E+03  0.7546771E-02  0.1235068E+00
         21   -1    0    0  503  502  0.00000000000E+00  0.00000000000E+00  0.69291754086E+02  0.69291754086E+02  0.00000000000E+00 0. -1.
         21   -1    0    0  502  503 -0.00000000000E+00 -0.00000000000E+00 -0.56374457656E+02  0.56374457656E+02  0.00000000000E+00 0. -1.
         25    2    1    2    0    0  0.00000000000E+00  0.00000000000E+00  0.12917296430E+02  0.12566621174E+03  0.12500056090E+03 0.  0.
          4    1    3    3  501    0 -0.44411882485E+02 -0.30288819246E+02 -0.25555153319E+02  0.59542390264E+02  0.15500000000E+01 0. -1.
         -4    1    3    3    0  501  0.44411882485E+02  0.30288819246E+02  0.38472449749E+02  0.66123821478E+02  0.15500000000E+01 0. -1.
<mgrwt>
<rscale>  2 0.12500056E+03</rscale>
<asrwt>0</asrwt>
<pdfrwt beam="1">  1       21 0.10660270E-01 0.12500056E+03</pdfrwt>
<pdfrwt beam="2">  1       21 0.86729935E-02 0.12500056E+03</pdfrwt>
<totfact> 0.73951173E+06</totfact>
</mgrwt>
</event>
<event>
 5    0  0.1526105E+000  0.1250058E+03  0.7546771E-02  0.1235060E+00
         21   -1    0    0  503  502  0.00000000000E+00  0.00000000000E+00  0.65428510911E+02  0.65428510911E+02  0.00000000000E+00 0. -1.
         21   -1    0    0  502  503 -0.00000000000E+00 -0.00000000000E+00 -0.59708094462E+02  0.59708094462E+02  0.00000000000E+00 0. -1.
         25    2    1    2    0    0  0.00000000000E+00  0.00000000000E+00  0.57204164491E+01  0.12513660537E+03  0.12500578723E+03 0.  0.
          4    1    3    3  501    0  0.96664267610E+01 -0.58712930265E+02  0.21947443562E+02  0.63440844615E+02  0.15500000000E+01 0. -1.
         -4    1    3    3    0  501 -0.96664267610E+01  0.58712930265E+02 -0.16227027113E+02  0.61695760758E+02  0.15500000000E+01 0. -1.
<mgrwt>
<rscale>  2 0.12500579E+03</rscale>
<asrwt>0</asrwt>
<pdfrwt beam="1">  1       21 0.10065925E-01 0.12500579E+03</pdfrwt>
<pdfrwt beam="2">  1       21 0.91858607E-02 0.12500579E+03</pdfrwt>
<totfact> 0.74014181E+06</totfact>
</mgrwt>
</event>
<event>
 5    0  0.1509895E+000  0.1249918E+03  0.7546771E-02  0.1235082E+00
         21   -1    0    0  503  502  0.00000000000E+00  0.00000000000E+00  0.34450975779E+02  0.34450975779E+02  0.00000000000E+00 0. -1.
         21   -1    0    0  502  503 -0.00000000000E+00 -0.00000000000E+00 -0.11337080429E+03  0.11337080429E+03  0.00000000000E+00 0. -1.
         25    2    1    2    0    0  0.00000000000E+00  0.00000000000E+00 -0.78919828507E+02  0.14782178006E+03  0.12499175705E+03 0.  0.
          4    1    3    3  501    0 -0.27949159339E+02  0.53376960303E+02 -0.19916539346E+02  0.63476975656E+02  0.15500000000E+01 0. -1.
         -4    1    3    3    0  501  0.27949159339E+02 -0.53376960303E+02 -0.59003289161E+02  0.84344804408E+02  0.15500000000E+01 0. -1.
<mgrwt>
<rscale>  2 0.12499176E+03</rscale>
<asrwt>0</asrwt>
<pdfrwt beam="1">  1       21 0.53001502E-02 0.12499176E+03</pdfrwt>
<pdfrwt beam="2">  1       21 0.17441662E-01 0.12499176E+03</pdfrwt>
<totfact> 0.71048819E+06</totfact>
</mgrwt>
</event>
<event>
 5    0  0.1525647E+000  0.1250021E+03  0.7546771E-02  0.1235066E+00
         21   -1    0    0  503  502  0.00000000000E+00  0.00000000000E+00  0.80369255115E+02  0.80369255115E+02  0.00000000000E+00 0. -1.
         21   -1    0    0  502  503 -0.00000000000E+00 -0.00000000000E+00 -0.48605394916E+02  0.48605394916E+02  0.00000000000E+00 0. -1.
         25    2    1    2    0    0  0.00000000000E+00  0.00000000000E+00  0.31763860199E+02  0.12897465003E+03  0.12500207013E+03 0.  0.
          4    1    3    3  501    0  0.44848601385E+02  0.23570174460E+02  0.53609357761E+02  0.73778831041E+02  0.15500000000E+01 0.  1.
         -4    1    3    3    0  501 -0.44848601385E+02 -0.23570174460E+02 -0.21845497562E+02  0.55195818990E+02  0.15500000000E+01 0.  1.
<mgrwt>
<rscale>  2 0.12500207E+03</rscale>
<asrwt>0</asrwt>
<pdfrwt beam="1">  1       21 0.12364501E-01 0.12500207E+03</pdfrwt>
<pdfrwt beam="2">  1       21 0.74777531E-02 0.12500207E+03</pdfrwt>
<totfact> 0.73498401E+06</totfact>
</mgrwt>
</event>
<event>
 5    0  0.1222151E+000  0.1249964E+03  0.7546771E-02  0.1235075E+00
         21   -1    0    0  503  502  0.00000000000E+00  0.00000000000E+00  0.16886186215E+01  0.16886186215E+01  0.00000000000E+00 0. -1.
         21   -1    0    0  502  503 -0.00000000000E+00 -0.00000000000E+00 -0.23131483961E+04  0.23131483961E+04  0.00000000000E+00 0. -1.
         25    2    1    2    0    0  0.00000000000E+00  0.00000000000E+00 -0.23114597775E+04  0.23148370148E+04  0.12499640724E+03 0.  0.
          4    1    3    3  501    0  0.46586924419E+02  0.28570474008E+02 -0.59492758104E+03  0.59743438359E+03  0.15500000000E+01 0. -1.
         -4    1    3    3    0  501 -0.46586924419E+02 -0.28570474008E+02 -0.17165321965E+04  0.17174026312E+04  0.15500000000E+01 0. -1.
<mgrwt>
<rscale>  2 0.12499641E+03</rscale>
<asrwt>0</asrwt>
<pdfrwt beam="1">  1       21 0.25978725E-03 0.12499641E+03</pdfrwt>
<pdfrwt beam="2">  1       21 0.35586929E+00 0.12499641E+03</pdfrwt>
<totfact> 0.52657116E+05</totfact>
</mgrwt>
</event>
<event>
 5    0  0.1483453E+000  0.1250012E+03  0.7546771E-02  0.1235067E+00
         21   -1    0    0  503  502  0.00000000000E+00  0.00000000000E+00  0.28650663895E+02  0.28650663895E+02  0.00000000000E+00 0. -1.
         21   -1    0    0  502  503 -0.00000000000E+00 -0.00000000000E+00 -0.13634326535E+03  0.13634326535E+03  0.00000000000E+00 0. -1.
         25    2    1    2    0    0  0.00000000000E+00  0.00000000000E+00 -0.10769260145E+03  0.16499392924E+03  0.12500120111E+03 0.  0.
          4    1    3    3  501    0  0.51227098941E+02 -0.31906152728E+01 -0.68163277588E+01  0.51800198029E+02  0.15500000000E+01 0.  1.
         -4    1    3    3    0  501 -0.51227098941E+02  0.31906152728E+01 -0.10087627369E+03  0.11319373121E+03  0.15500000000E+01 0.  1.
<mgrwt>
<rscale>  2 0.12500120E+03</rscale>
<asrwt>0</asrwt>
<pdfrwt beam="1">  1       21 0.44077946E-02 0.12500120E+03</pdfrwt>
<pdfrwt beam="2">  1       21 0.20975886E-01 0.12500120E+03</pdfrwt>
<totfact> 0.68912279E+06</totfact>
</mgrwt>
</event>
<event>
 5    0  0.1547370E+000  0.1249989E+03  0.7546771E-02  0.1235071E+00
         21   -1    0    0  503  502  0.00000000000E+00  0.00000000000E+00  0.12779748422E+03  0.12779748422E+03  0.00000000000E+00 0. -1.
         21   -1    0    0  502  503 -0.00000000000E+00 -0.00000000000E+00 -0.30565395388E+02  0.30565395388E+02  0.00000000000E+00 0. -1.
         25    2    1    2    0    0  0.00000000000E+00  0.00000000000E+00  0.97232088830E+02  0.15836287961E+03  0.12499889015E+03 0.  0.
          4    1    3    3  501    0 -0.25844257224E+01 -0.61800115477E+02  0.37438111624E+02  0.72318381005E+02  0.15500000000E+01 0.  1.
         -4    1    3    3    0  501  0.25844257224E+01  0.61800115477E+02  0.59793977206E+02  0.86044498600E+02  0.15500000000E+01 0.  1.
<mgrwt>
<rscale>  2 0.12499889E+03</rscale>
<asrwt>0</asrwt>
<pdfrwt beam="1">  1       21 0.19661151E-01 0.12499889E+03</pdfrwt>
<pdfrwt beam="2">  1       21 0.47023686E-02 0.12499889E+03</pdfrwt>
<totfact> 0.69722057E+06</totfact>
</mgrwt>
</event>
<event>
 4    0  0.1502227E+000  0.1252190E+03  0.7546771E-02  0.1234727E+00
         21   -1    0    0  503  502  0.00000000000E+00  0.00000000000E+00  0.13130560931E+03  0.13130560931E+03  0.00000000000E+00 0.  1.
         21   -1    0    0  502  503 -0.00000000000E+00 -0.00000000000E+00 -0.29853622625E+02  0.29853622625E+02  0.00000000000E+00 0.  1.
          4    1    1    2  501    0  0.42789434257E+02  0.36942882620E+02  0.16147703883E+02  0.58812099954E+02  0.15500000000E+01 0.  1.
         -4    1    1    2    0  501 -0.42789434257E+02 -0.36942882620E+02  0.85304282801E+02  0.10234713198E+03  0.15500000000E+01 0.  1.
<mgrwt>
<rscale>  2 0.12521898E+03</rscale>
<asrwt>0</asrwt>
<pdfrwt beam="1">  1       21 0.20200863E-01 0.12521898E+03</pdfrwt>
<pdfrwt beam="2">  1       21 0.45928651E-02 0.12521898E+03</pdfrwt>
<totfact> 0.68993294E+06</totfact>
</mgrwt>
</event>
<event>
 5    0  0.1353385E+000  0.1250005E+03  0.7546771E-02  0.1235069E+00
         21   -1    0    0  503  502  0.00000000000E+00  0.00000000000E+00  0.98071847355E+01  0.98071847355E+01  0.00000000000E+00 0. -1.
         21   -1    0    0  502  503 -0.00000000000E+00 -0.00000000000E+00 -0.39830806048E+03  0.39830806048E+03  0.00000000000E+00 0. -1.
         25    2    1    2    0    0  0.00000000000E+00  0.00000000000E+00 -0.38850087575E+03  0.40811524522E+03  0.12500049169E+03 0.  0.
          4    1    3    3  501    0  0.58140953439E+02  0.17531285270E+02 -0.24225257483E+03  0.24975273561E+03  0.15500000000E+01 0. -1.
         -4    1    3    3    0  501 -0.58140953439E+02 -0.17531285270E+02 -0.14624830091E+03  0.15836250961E+03  0.15500000000E+01 0. -1.
<mgrwt>
<rscale>  2 0.12500049E+03</rscale>
<asrwt>0</asrwt>
<pdfrwt beam="1">  1       21 0.15087982E-02 0.12500049E+03</pdfrwt>
<pdfrwt beam="2">  1       21 0.61278142E-01 0.12500049E+03</pdfrwt>
<totfact> 0.47507118E+06</totfact>
</mgrwt>
</event>
<event>
 5    0  0.1334698E+000  0.1250027E+03  0.7546771E-02  0.1235065E+00
         21   -1    0    0  503  502  0.00000000000E+00  0.00000000000E+00  0.11095843179E+02  0.11095843179E+02  0.00000000000E+00 0.  1.
         21   -1    0    0  502  503 -0.00000000000E+00 -0.00000000000E+00 -0.35206142747E+03  0.35206142747E+03  0.00000000000E+00 0.  1.
         25    2    1    2    0    0  0.00000000000E+00  0.00000000000E+00 -0.34096558429E+03  0.36315727065E+03  0.12500269419E+03 0.  0.
          4    1    3    3  501    0  0.58596538826E+02 -0.14790338864E+02 -0.21657455980E+03  0.22485384350E+03  0.15500000000E+01 0. -1.
         -4    1    3    3    0  501 -0.58596538826E+02  0.14790338864E+02 -0.12439102449E+03  0.13830342714E+03  0.15500000000E+01 0. -1.
<mgrwt>
<rscale>  2 0.12500269E+03</rscale>
<asrwt>0</asrwt>
<pdfrwt beam="1">  1       21 0.17070528E-02 0.12500269E+03</pdfrwt>
<pdfrwt beam="2">  1       21 0.54163297E-01 0.12500269E+03</pdfrwt>
<totfact> 0.50577757E+06</totfact>
</mgrwt>
</event>
<event>
 4    0  0.1403652E+000  0.1253597E+03  0.7546771E-02  0.1234508E+00
         21   -1    0    0  503  502  0.00000000000E+00  0.00000000000E+00  0.15423508545E+02  0.15423508545E+02  0.00000000000E+00 0.  1.
         21   -1    0    0  502  503 -0.00000000000E+00 -0.00000000000E+00 -0.25472567181E+03  0.25472567181E+03  0.00000000000E+00 0.  1.
          4    1    1    2  501    0 -0.38107181123E+02 -0.92722671236E+01 -0.22496449389E+03  0.22836277762E+03  0.15500000000E+01 0.  1.
         -4    1    1    2    0  501  0.38107181123E+02  0.92722671236E+01 -0.14337669380E+02  0.41786402741E+02  0.15500000000E+01 0.  1.
<mgrwt>
<rscale>  2 0.12535970E+03</rscale>
<asrwt>0</asrwt>
<pdfrwt beam="1">  1       21 0.23728474E-02 0.12535970E+03</pdfrwt>
<pdfrwt beam="2">  1       21 0.39188566E-01 0.12535970E+03</pdfrwt>
<totfact> 0.57508919E+06</totfact>
</mgrwt>
</event>
<event>
 5    0  0.1537834E+000  0.1249645E+03  0.7546771E-02  0.1235125E+00
         21   -1    0    0  503  502  0.00000000000E+00  0.00000000000E+00  0.11793775832E+03  0.11793775832E+03  0.00000000000E+00 0. -1.
         21   -1    0    0  502  503 -0.00000000000E+00 -0.00000000000E+00 -0.33102499987E+02  0.33102499987E+02  0.00000000000E+00 0. -1.
         25    2    1    2    0    0  0.00000000000E+00  0.00000000000E+00  0.84835258338E+02  0.15104025831E+03  0.12496454927E+03 0.  0.
          4    1    3    3  501    0 -0.37411447360E+02  0.26433109322E+01  0.10279075494E+03  0.10943009315E+03  0.15500000000E+01 0.  1.
         -4    1    3    3    0  501  0.37411447360E+02 -0.26433109322E+01 -0.17955496603E+02  0.41610165158E+02  0.15500000000E+01 0.  1.
<mgrwt>
<rscale>  2 0.12496455E+03</rscale>
<asrwt>0</asrwt>
<pdfrwt beam="1">  1       21 0.18144270E-01 0.12496455E+03</pdfrwt>
<pdfrwt beam="2">  1       21 0.50926924E-02 0.12496455E+03</pdfrwt>
<totfact> 0.70692536E+06</totfact>
</mgrwt>
</event>
<event>
 5    0  0.1597594E+000  0.1250022E+03  0.7546771E-02  0.1235066E+00
         21   -1    0    0  503  502  0.00000000000E+00  0.00000000000E+00  0.28780459401E+02  0.28780459401E+02  0.00000000000E+00 0. -1.
         21   -1    0    0  502  503 -0.00000000000E+00 -0.00000000000E+00 -0.13573052771E+03  0.13573052771E+03  0.00000000000E+00 0. -1.
         25    2    1    2    0    0  0.00000000000E+00  0.00000000000E+00 -0.10695006831E+03  0.16451098712E+03  0.12500219106E+03 0.  0.
          4    1    3    3  501    0 -0.29765276187E+02 -0.54061330827E+02 -0.40621635613E+02  0.73899383875E+02  0.15500000000E+01 0. -1.
         -4    1    3    3    0  501  0.29765276187E+02  0.54061330827E+02 -0.66328432701E+02  0.90611603240E+02  0.15500000000E+01 0. -1.
<mgrwt>
<rscale>  2 0.12500219E+03</rscale>
<asrwt>0</asrwt>
<pdfrwt beam="1">  1       21 0.44277630E-02 0.12500219E+03</pdfrwt>
<pdfrwt beam="2">  1       21 0.20881620E-01 0.12500219E+03</pdfrwt>
<totfact> 0.68968620E+06</totfact>
</mgrwt>
</event>
<event>
 5    0  0.1222151E+000  0.1249979E+03  0.7546771E-02  0.1235073E+00
         21   -1    0    0  503  502  0.00000000000E+00  0.00000000000E+00  0.14042451057E+04  0.14042451057E+04  0.00000000000E+00 0. -1.
         21   -1    0    0  502  503 -0.00000000000E+00 -0.00000000000E+00 -0.27816515741E+01  0.27816515741E+01  0.00000000000E+00 0. -1.
         25    2    1    2    0    0  0.00000000000E+00  0.00000000000E+00  0.14014634541E+04  0.14070267573E+04  0.12499792972E+03 0.  0.
          4    1    3    3  501    0  0.11981993074E+02  0.28700447931E+02  0.13107034129E+04  0.13110732714E+04  0.15500000000E+01 0.  1.
         -4    1    3    3    0  501 -0.11981993074E+02 -0.28700447931E+02  0.90760041200E+02  0.95953485857E+02  0.15500000000E+01 0.  1.
<mgrwt>
<rscale>  2 0.12499793E+03</rscale>
<asrwt>0</asrwt>
<pdfrwt beam="1">  1       21 0.21603714E+00 0.12499793E+03</pdfrwt>
<pdfrwt beam="2">  1       21 0.42794752E-03 0.12499793E+03</pdfrwt>
<totfact> 0.15431661E+06</totfact>
</mgrwt>
</event>
<event>
 5    0  0.1553214E+000  0.1250023E+03  0.7546771E-02  0.1235066E+00
         21   -1    0    0  503  502  0.00000000000E+00  0.00000000000E+00  0.74574648572E+02  0.74574648572E+02  0.00000000000E+00 0.  1.
         21   -1    0    0  502  503 -0.00000000000E+00 -0.00000000000E+00 -0.52382311633E+02  0.52382311633E+02  0.00000000000E+00 0.  1.
         25    2    1    2    0    0  0.00000000000E+00  0.00000000000E+00  0.22192336939E+02  0.12695696020E+03  0.12500227968E+03 0.  0.
          4    1    3    3  501    0  0.55729598550E+02  0.14577849266E+02  0.35675597828E+02  0.67775014748E+02  0.15500000000E+01 0. -1.
         -4    1    3    3    0  501 -0.55729598550E+02 -0.14577849266E+02 -0.13483260889E+02  0.59181945456E+02  0.15500000000E+01 0. -1.
<mgrwt>
<rscale>  2 0.12500228E+03</rscale>
<asrwt>0</asrwt>
<pdfrwt beam="1">  1       21 0.11473023E-01 0.12500228E+03</pdfrwt>
<pdfrwt beam="2">  1       21 0.80588172E-02 0.12500228E+03</pdfrwt>
<totfact> 0.73770704E+06</totfact>
</mgrwt>
</event>
<event>
 5    0  0.1551217E+000  0.1250011E+03  0.7546771E-02  0.1235067E+00
         21   -1    0    0  503  502  0.00000000000E+00  0.00000000000E+00  0.22961037672E+03  0.22961037672E+03  0.00000000000E+00 0.  1.
         21   -1    0    0  502  503 -0.00000000000E+00 -0.00000000000E+00 -0.17012828080E+02  0.17012828080E+02  0.00000000000E+00 0.  1.
         25    2    1    2    0    0  0.00000000000E+00  0.00000000000E+00  0.21259754864E+03  0.24662320480E+03  0.12500114983E+03 0.  0.
          4    1    3    3  501    0 -0.59343917865E+02 -0.15209038035E+02  0.13053529182E+03  0.14420430069E+03  0.15500000000E+01 0. -1.
         -4    1    3    3    0  501  0.59343917865E+02  0.15209038035E+02  0.82062256812E+02  0.10241890411E+03  0.15500000000E+01 0. -1.
<mgrwt>
<rscale>  2 0.12500115E+03</rscale>
<asrwt>0</asrwt>
<pdfrwt beam="1">  1       21 0.35324671E-01 0.12500115E+03</pdfrwt>
<pdfrwt beam="2">  1       21 0.26173583E-02 0.12500115E+03</pdfrwt>
<totfact> 0.60195830E+06</totfact>
</mgrwt>
</event>
<event>
 5    0  0.1276051E+000  0.1250001E+03  0.7546771E-02  0.1235069E+00
         21   -1    0    0  503  502  0.00000000000E+00  0.00000000000E+00  0.48258279306E+03  0.48258279306E+03  0.00000000000E+00 0.  1.
         21   -1    0    0  502  503 -0.00000000000E+00 -0.00000000000E+00 -0.80944844487E+01  0.80944844487E+01  0.00000000000E+00 0.  1.
         25    2    1    2    0    0  0.00000000000E+00  0.00000000000E+00  0.47448830861E+03  0.49067727751E+03  0.12500014262E+03 0.  0.
          4    1    3    3  501    0 -0.40944520571E+02 -0.20472461313E+02  0.70320303428E+02  0.83922124682E+02  0.15500000000E+01 0.  1.
         -4    1    3    3    0  501  0.40944520571E+02  0.20472461313E+02  0.40416800519E+03  0.40675515283E+03  0.15500000000E+01 0.  1.
<mgrwt>
<rscale>  2 0.12500014E+03</rscale>
<asrwt>0</asrwt>
<pdfrwt beam="1">  1       21 0.74243484E-01 0.12500014E+03</pdfrwt>
<pdfrwt beam="2">  1       21 0.12453057E-02 0.12500014E+03</pdfrwt>
<totfact> 0.42554074E+06</totfact>
</mgrwt>
</event>
<event>
 5    0  0.1503441E+000  0.1250004E+03  0.7546771E-02  0.1235069E+00
         21   -1    0    0  503  502  0.00000000000E+00  0.00000000000E+00  0.95348340518E+02  0.95348340518E+02  0.00000000000E+00 0.  1.
         21   -1    0    0  502  503 -0.00000000000E+00 -0.00000000000E+00 -0.40968439611E+02  0.40968439611E+02  0.00000000000E+00 0.  1.
         25    2    1    2    0    0  0.00000000000E+00  0.00000000000E+00  0.54379900907E+02  0.13631678013E+03  0.12500036369E+03 0.  0.
          4    1    3    3  501    0 -0.26355784766E+02  0.53355970084E+02  0.64302000213E+01  0.59876847834E+02  0.15500000000E+01 0. -1.
         -4    1    3    3    0  501  0.26355784766E+02 -0.53355970084E+02  0.47949700886E+02  0.76439932295E+02  0.15500000000E+01 0. -1.
<mgrwt>
<rscale>  2 0.12500036E+03</rscale>
<asrwt>0</asrwt>
<pdfrwt beam="1">  1       21 0.14668975E-01 0.12500036E+03</pdfrwt>
<pdfrwt beam="2">  1       21 0.63028369E-02 0.12500036E+03</pdfrwt>
<totfact> 0.72521915E+06</totfact>
</mgrwt>
</event>
<event>
 5    0  0.1317321E+000  0.1250049E+03  0.7546771E-02  0.1235062E+00
         21   -1    0    0  503  502  0.00000000000E+00  0.00000000000E+00  0.57807687988E+03  0.57807687988E+03  0.00000000000E+00 0.  1.
         21   -1    0    0  502  503 -0.00000000000E+00 -0.00000000000E+00 -0.67578461071E+01  0.67578461071E+01  0.00000000000E+00 0.  1.
         25    2    1    2    0    0  0.00000000000E+00  0.00000000000E+00  0.57131903377E+03  0.58483472598E+03  0.12500487338E+03 0.  0.
          4    1    3    3  501    0 -0.13266842423E+02  0.60561306390E+02  0.24927803947E+03  0.25687667157E+03  0.15500000000E+01 0.  1.
         -4    1    3    3    0  501  0.13266842423E+02 -0.60561306390E+02  0.32204099430E+03  0.32795805441E+03  0.15500000000E+01 0.  1.
<mgrwt>
<rscale>  2 0.12500487E+03</rscale>
<asrwt>0</asrwt>
<pdfrwt beam="1">  1       21 0.88934866E-01 0.12500487E+03</pdfrwt>
<pdfrwt beam="2">  1       21 0.10396691E-02 0.12500487E+03</pdfrwt>
<totfact> 0.37783002E+06</totfact>
</mgrwt>
</event>
<event>
 5    0  0.1222151E+000  0.1249956E+03  0.7546771E-02  0.1235076E+00
         21   -1    0    0  503  502  0.00000000000E+00  0.00000000000E+00  0.96375038446E+03  0.96375038446E+03  0.00000000000E+00 0. -1.
         21   -1    0    0  502  503 -0.00000000000E+00 -0.00000000000E+00 -0.40528914107E+01  0.40528914107E+01  0.00000000000E+00 0. -1.
         25    2    1    2    0    0  0.00000000000E+00  0.00000000000E+00  0.95969749305E+03  0.96780327587E+03  0.12499561041E+03 0.  0.
          4    1    3    3  501    0 -0.11906252819E+00 -0.62016936927E+02  0.42115801544E+03  0.42570246782E+03  0.15500000000E+01 0. -1.
         -4    1    3    3    0  501  0.11906252819E+00  0.62016936927E+02  0.53853947761E+03  0.54210080805E+03  0.15500000000E+01 0. -1.
<mgrwt>
<rscale>  2 0.12499561E+03</rscale>
<asrwt>0</asrwt>
<pdfrwt beam="1">  1       21 0.14826911E+00 0.12499561E+03</pdfrwt>
<pdfrwt beam="2">  1       21 0.62352252E-03 0.12499561E+03</pdfrwt>
<totfact> 0.24443414E+06</totfact>
</mgrwt>
</event>
<event>
 5    0  0.1222151E+000  0.1249961E+03  0.7546771E-02  0.1235075E+00
         21   -1    0    0  503  502  0.00000000000E+00  0.00000000000E+00  0.37804406800E+02  0.37804406800E+02  0.00000000000E+00 0. -1.
         21   -1    0    0  502  503 -0.00000000000E+00 -0.00000000000E+00 -0.10332143030E+03  0.10332143030E+03  0.00000000000E+00 0. -1.
         25    2    1    2    0    0  0.00000000000E+00  0.00000000000E+00 -0.65517023495E+02  0.14112583710E+03  0.12499608605E+03 0.  0.
          4    1    3    3  501    0 -0.20418370832E+02  0.44365337131E+01 -0.99238001164E+02  0.10142571702E+03  0.15500000000E+01 0. -1.
         -4    1    3    3    0  501  0.20418370832E+02 -0.44365337131E+01  0.33720977668E+02  0.39700120072E+02  0.15500000000E+01 0. -1.
<mgrwt>
<rscale>  2 0.12499609E+03</rscale>
<asrwt>0</asrwt>
<pdfrwt beam="1">  1       21 0.58160626E-02 0.12499609E+03</pdfrwt>
<pdfrwt beam="2">  1       21 0.15895605E-01 0.12499609E+03</pdfrwt>
<totfact> 0.71899840E+06</totfact>
</mgrwt>
</event>
<event>
 5    0  0.1473567E+000  0.1250020E+03  0.7546771E-02  0.1235066E+00
         21   -1    0    0  503  502  0.00000000000E+00  0.00000000000E+00  0.25940927005E+02  0.25940927005E+02  0.00000000000E+00 0.  1.
         21   -1    0    0  502  503 -0.00000000000E+00 -0.00000000000E+00 -0.15058739579E+03  0.15058739579E+03  0.00000000000E+00 0.  1.
         25    2    1    2    0    0  0.00000000000E+00  0.00000000000E+00 -0.12464646879E+03  0.17652832280E+03  0.12500202626E+03 0.  0.
          4    1    3    3  501    0  0.13676967973E+02 -0.44316290740E+02 -0.12145024941E+03  0.13001368643E+03  0.15500000000E+01 0. -1.
         -4    1    3    3    0  501 -0.13676967973E+02  0.44316290740E+02 -0.31962193768E+01  0.46514636365E+02  0.15500000000E+01 0. -1.
<mgrwt>
<rscale>  2 0.12500203E+03</rscale>
<asrwt>0</asrwt>
<pdfrwt beam="1">  1       21 0.39909120E-02 0.12500203E+03</pdfrwt>
<pdfrwt beam="2">  1       21 0.23167291E-01 0.12500203E+03</pdfrwt>
<totfact> 0.67548573E+06</totfact>
</mgrwt>
</event>
<event>
 5    0  0.1504840E+000  0.1249880E+03  0.7546771E-02  0.1235088E+00
         21   -1    0    0  503  502  0.00000000000E+00  0.00000000000E+00  0.29787586714E+03  0.29787586714E+03  0.00000000000E+00 0.  1.
         21   -1    0    0  502  503 -0.00000000000E+00 -0.00000000000E+00 -0.13111158495E+02  0.13111158495E+02  0.00000000000E+00 0.  1.
         25    2    1    2    0    0  0.00000000000E+00  0.00000000000E+00  0.28476470864E+03  0.31098702564E+03  0.12498796272E+03 0.  0.
          4    1    3    3  501    0  0.84872276636E+01  0.60206101908E+02  0.17811872972E+03  0.18821660957E+03  0.15500000000E+01 0.  1.
         -4    1    3    3    0  501 -0.84872276636E+01 -0.60206101908E+02  0.10664597892E+03  0.12277041607E+03  0.15500000000E+01 0.  1.
<mgrwt>
<rscale>  2 0.12498796E+03</rscale>
<asrwt>0</asrwt>
<pdfrwt beam="1">  1       21 0.45827051E-01 0.12498796E+03</pdfrwt>
<pdfrwt beam="2">  1       21 0.20171015E-02 0.12498796E+03</pdfrwt>
<totfact> 0.54571786E+06</totfact>
</mgrwt>
</event>
<event>
 5    0  0.1395003E+000  0.1249992E+03  0.7546771E-02  0.1235071E+00
         21   -1    0    0  503  502  0.00000000000E+00  0.00000000000E+00  0.20326471326E+02  0.20326471326E+02  0.00000000000E+00 0.  1.
         21   -1    0    0  502  503 -0.00000000000E+00 -0.00000000000E+00 -0.19217296675E+03  0.19217296675E+03  0.00000000000E+00 0.  1.
         25    2    1    2    0    0  0.00000000000E+00  0.00000000000E+00 -0.17184649542E+03  0.21249943808E+03  0.12499917277E+03 0.  0.
          4    1    3    3  501    0  0.16794194886E+02 -0.38908370439E+02 -0.16397354651E+03  0.16936833449E+03  0.15500000000E+01 0. -1.
         -4    1    3    3    0  501 -0.16794194886E+02  0.38908370439E+02 -0.78729489139E+01  0.43131103588E+02  0.15500000000E+01 0. -1.
<mgrwt>
<rscale>  2 0.12499917E+03</rscale>
<asrwt>0</asrwt>
<pdfrwt beam="1">  1       21 0.31271494E-02 0.12499917E+03</pdfrwt>
<pdfrwt beam="2">  1       21 0.29565072E-01 0.12499917E+03</pdfrwt>
<totfact> 0.63598852E+06</totfact>
</mgrwt>
</event>
<event>
 4    0  0.1374154E+000  0.1252143E+03  0.7546771E-02  0.1234735E+00
         21   -1    0    0  503  502  0.00000000000E+00  0.00000000000E+00  0.12964509551E+02  0.12964509551E+02  0.00000000000E+00 0.  1.
         21   -1    0    0  502  503 -0.00000000000E+00 -0.00000000000E+00 -0.30233734675E+03  0.30233734675E+03  0.00000000000E+00 0.  1.
          4    1    1    2  501    0 -0.56336676300E+01  0.47934442772E+02 -0.24502570776E+03  0.24973876147E+03  0.15500000000E+01 0.  1.
         -4    1    1    2    0  501  0.56336676300E+01 -0.47934442772E+02 -0.44347129439E+02  0.65563094835E+02  0.15500000000E+01 0.  1.
<mgrwt>
<rscale>  2 0.12521430E+03</rscale>
<asrwt>0</asrwt>
<pdfrwt beam="1">  1       21 0.19945403E-02 0.12521430E+03</pdfrwt>
<pdfrwt beam="2">  1       21 0.46513430E-01 0.12521430E+03</pdfrwt>
<totfact> 0.53917235E+06</totfact>
</mgrwt>
</event>
<event>
 5    0  0.1222151E+000  0.1249998E+03  0.7546771E-02  0.1235070E+00
         21   -1    0    0  503  502  0.00000000000E+00  0.00000000000E+00  0.18729682088E+01  0.18729682088E+01  0.00000000000E+00 0. -1.
         21   -1    0    0  502  503 -0.00000000000E+00 -0.00000000000E+00 -0.20855853447E+04  0.20855853447E+04  0.00000000000E+00 0. -1.
         25    2    1    2    0    0  0.00000000000E+00  0.00000000000E+00 -0.20837123765E+04  0.20874583129E+04  0.12499976076E+03 0.  0.
          4    1    3    3  501    0  0.39528779809E+02 -0.31969817774E+02 -0.43530096322E+03  0.43826239259E+03  0.15500000000E+01 0.  1.
         -4    1    3    3    0  501 -0.39528779809E+02  0.31969817774E+02 -0.16484114132E+04  0.16491959203E+04  0.15500000000E+01 0.  1.
<mgrwt>
<rscale>  2 0.12499976E+03</rscale>
<asrwt>0</asrwt>
<pdfrwt beam="1">  1       21 0.28814958E-03 0.12499976E+03</pdfrwt>
<pdfrwt beam="2">  1       21 0.32085859E+00 0.12499976E+03</pdfrwt>
<totfact> 0.71264748E+05</totfact>
</mgrwt>
</event>
<event>
 5    0  0.1591699E+000  0.1249994E+03  0.7546771E-02  0.1235070E+00
         21   -1    0    0  503  502  0.00000000000E+00  0.00000000000E+00  0.68109953520E+02  0.68109953520E+02  0.00000000000E+00 0. -1.
         21   -1    0    0  502  503 -0.00000000000E+00 -0.00000000000E+00 -0.57351589019E+02  0.57351589019E+02  0.00000000000E+00 0. -1.
         25    2    1    2    0    0  0.00000000000E+00  0.00000000000E+00  0.10758364500E+02  0.12546154254E+03  0.12499942500E+03 0.  0.
          4    1    3    3  501    0 -0.57581640178E+02  0.57648483192E+01  0.29023283227E+02  0.64758259944E+02  0.15500000000E+01 0. -1.
         -4    1    3    3    0  501  0.57581640178E+02 -0.57648483192E+01 -0.18264918727E+02  0.60703282595E+02  0.15500000000E+01 0. -1.
<mgrwt>
<rscale>  2 0.12499942E+03</rscale>
<asrwt>0</asrwt>
<pdfrwt beam="1">  1       21 0.10478454E-01 0.12499942E+03</pdfrwt>
<pdfrwt beam="2">  1       21 0.88233214E-02 0.12499942E+03</pdfrwt>
<totfact> 0.73981862E+06</totfact>
</mgrwt>
</event>
<event>
 5    0  0.1415774E+000  0.1250018E+03  0.7546771E-02  0.1235066E+00
         21   -1    0    0  503  502  0.00000000000E+00  0.00000000000E+00  0.71993516992E+02  0.71993516992E+02  0.00000000000E+00 0.  1.
         21   -1    0    0  502  503 -0.00000000000E+00 -0.00000000000E+00 -0.54259930589E+02  0.54259930589E+02  0.00000000000E+00 0.  1.
         25    2    1    2    0    0  0.00000000000E+00  0.00000000000E+00  0.17733586404E+02  0.12625344758E+03  0.12500181174E+03 0.  0.
          4    1    3    3  501    0  0.43052845539E+02 -0.10464613686E+02  0.53363624750E+02  0.69376758321E+02  0.15500000000E+01 0. -1.
         -4    1    3    3    0  501 -0.43052845539E+02  0.10464613686E+02 -0.35630038347E+02  0.56876689260E+02  0.15500000000E+01 0. -1.
<mgrwt>
<rscale>  2 0.12500181E+03</rscale>
<asrwt>0</asrwt>
<pdfrwt beam="1">  1       21 0.11075926E-01 0.12500181E+03</pdfrwt>
<pdfrwt beam="2">  1       21 0.83476816E-02 0.12500181E+03</pdfrwt>
<totfact> 0.73867753E+06</totfact>
</mgrwt>
</event>
<event>
 5    0  0.1398828E+000  0.1250008E+03  0.7546771E-02  0.1235068E+00
         21   -1    0    0  503  502  0.00000000000E+00  0.00000000000E+00  0.14463092162E+02  0.14463092162E+02  0.00000000000E+00 0. -1.
         21   -1    0    0  502  503 -0.00000000000E+00 -0.00000000000E+00 -0.27008750113E+03  0.27008750113E+03  0.00000000000E+00 0. -1.
         25    2    1    2    0    0  0.00000000000E+00  0.00000000000E+00 -0.25562440897E+03  0.28455059329E+03  0.12500080673E+03 0.  0.
          4    1    3    3  501    0  0.24275921035E+02 -0.26075968807E+02 -0.24465603593E+03  0.24724128884E+03  0.15500000000E+01 0.  1.
         -4    1    3    3    0  501 -0.24275921035E+02  0.26075968807E+02 -0.10968373037E+02  0.37309304448E+02  0.15500000000E+01 0.  1.
<mgrwt>
<rscale>  2 0.12500081E+03</rscale>
<asrwt>0</asrwt>
<pdfrwt beam="1">  1       21 0.22250913E-02 0.12500081E+03</pdfrwt>
<pdfrwt beam="2">  1       21 0.41551920E-01 0.12500081E+03</pdfrwt>
<totfact> 0.56763876E+06</totfact>
</mgrwt>
</event>
<event>
 5    0  0.1278449E+000  0.1249884E+03  0.7546771E-02  0.1235087E+00
         21   -1    0    0  503  502  0.00000000000E+00  0.00000000000E+00  0.84404469902E+01  0.84404469902E+01  0.00000000000E+00 0. -1.
         21   -1    0    0  502  503 -0.00000000000E+00 -0.00000000000E+00 -0.46271543502E+03  0.46271543502E+03  0.00000000000E+00 0. -1.
         25    2    1    2    0    0  0.00000000000E+00  0.00000000000E+00 -0.45427498803E+03  0.47115588201E+03  0.12498840108E+03 0.  0.
          4    1    3    3  501    0 -0.25330796916E+02  0.48103015903E+00 -0.44240893319E+03  0.44313648837E+03  0.15500000000E+01 0. -1.
         -4    1    3    3    0  501  0.25330796916E+02 -0.48103015903E+00 -0.11866054844E+02  0.28019393640E+02  0.15500000000E+01 0. -1.
<mgrwt>
<rscale>  2 0.12498840E+03</rscale>
<asrwt>0</asrwt>
<pdfrwt beam="1">  1       21 0.12985303E-02 0.12498840E+03</pdfrwt>
<pdfrwt beam="2">  1       21 0.71186991E-01 0.12498840E+03</pdfrwt>
<totfact> 0.43665447E+06</totfact>
</mgrwt>
</event>
<event>
 5    0  0.1222151E+000  0.1250031E+03  0.7546771E-02  0.1235065E+00
         21   -1    0    0  503  502  0.00000000000E+00  0.00000000000E+00  0.21443065204E+04  0.21443065204E+04  0.00000000000E+00 0.  1.
         21   -1    0    0  502  503 -0.00000000000E+00 -0.00000000000E+00 -0.18217736604E+01  0.18217736604E+01  0.00000000000E+00 0.  1.
         25    2    1    2    0    0  0.00000000000E+00  0.00000000000E+00  0.21424847468E+04  0.21461282941E+04  0.12500305818E+03 0.  0.
          4    1    3    3  501    0  0.28933157734E+02 -0.50497080034E+02  0.68088552501E+03  0.68337001937E+03  0.15500000000E+01 0. -1.
         -4    1    3    3    0  501 -0.28933157734E+02  0.50497080034E+02  0.14615992218E+04  0.14627582747E+04  0.15500000000E+01 0. -1.
<mgrwt>
<rscale>  2 0.12500306E+03</rscale>
<asrwt>0</asrwt>
<pdfrwt beam="1">  1       21 0.32989129E+00 0.12500306E+03</pdfrwt>
<pdfrwt beam="2">  1       21 0.28027459E-03 0.12500306E+03</pdfrwt>
<totfact> 0.66085790E+05</totfact>
</mgrwt>
</event>
<event>
 5    0  0.1549055E+000  0.1250006E+03  0.7546771E-02  0.1235068E+00
         21   -1    0    0  503  502  0.00000000000E+00  0.00000000000E+00  0.36029031035E+02  0.36029031035E+02  0.00000000000E+00 0.  1.
         21   -1    0    0  502  503 -0.00000000000E+00 -0.00000000000E+00 -0.10842058429E+03  0.10842058429E+03  0.00000000000E+00 0.  1.
         25    2    1    2    0    0  0.00000000000E+00  0.00000000000E+00 -0.72391553252E+02  0.14444961532E+03  0.12500061754E+03 0.  0.
          4    1    3    3  501    0 -0.51569147002E+02  0.96381632165E+01 -0.75411288166E+02  0.91877831905E+02  0.15500000000E+01 0.  1.
         -4    1    3    3    0  501  0.51569147002E+02 -0.96381632165E+01  0.30197349147E+01  0.52571783417E+02  0.15500000000E+01 0.  1.
<mgrwt>
<rscale>  2 0.12500062E+03</rscale>
<asrwt>0</asrwt>
<pdfrwt beam="1">  1       21 0.55429279E-02 0.12500062E+03</pdfrwt>
<pdfrwt beam="2">  1       21 0.16680090E-01 0.12500062E+03</pdfrwt>
<totfact> 0.71462485E+06</totfact>
</mgrwt>
</event>
<event>
 5    0  0.1222151E+000  0.1249960E+03  0.7546771E-02  0.1235075E+00
         21   -1    0    0  503  502  0.00000000000E+00  0.00000000000E+00  0.18161068248E+01  0.18161068248E+01  0.00000000000E+00 0. -1.
         21   -1    0    0  502  503 -0.00000000000E+00 -0.00000000000E+00 -0.21507555502E+04  0.21507555502E+04  0.00000000000E+00 0. -1.
         25    2    1    2    0    0  0.00000000000E+00  0.00000000000E+00 -0.21489394434E+04  0.21525716570E+04  0.12499602927E+03 0.  0.
          4    1    3    3  501    0 -0.32744344278E+02 -0.51659189220E+02 -0.12941557540E+04  0.12956011663E+04  0.15500000000E+01 0.  1.
         -4    1    3    3    0  501  0.32744344278E+02  0.51659189220E+02 -0.85478368940E+03  0.85697049078E+03  0.15500000000E+01 0.  1.
<mgrwt>
<rscale>  2 0.12499603E+03</rscale>
<asrwt>0</asrwt>
<pdfrwt beam="1">  1       21 0.27940115E-03 0.12499603E+03</pdfrwt>
<pdfrwt beam="2">  1       21 0.33088536E+00 0.12499603E+03</pdfrwt>
<totfact> 0.65544471E+05</totfact>
</mgrwt>
</event>
<event>
 5    0  0.1500346E+000  0.1250022E+03  0.7546771E-02  0.1235066E+00
         21   -1    0    0  503  502  0.00000000000E+00  0.00000000000E+00  0.21942701043E+02  0.21942701043E+02  0.00000000000E+00 0.  1.
         21   -1    0    0  502  503 -0.00000000000E+00 -0.00000000000E+00 -0.17802661685E+03  0.17802661685E+03  0.00000000000E+00 0.  1.
         25    2    1    2    0    0  0.00000000000E+00  0.00000000000E+00 -0.15608391581E+03  0.19996931789E+03  0.12500215728E+03 0.  0.
          4    1    3    3  501    0 -0.34836770583E+02  0.51830587768E+02 -0.74853754652E+02  0.97496140942E+02  0.15500000000E+01 0. -1.
         -4    1    3    3    0  501  0.34836770583E+02 -0.51830587768E+02 -0.81230161156E+02  0.10247317695E+03  0.15500000000E+01 0. -1.
<mgrwt>
<rscale>  2 0.12500216E+03</rscale>
<asrwt>0</asrwt>
<pdfrwt beam="1">  1       21 0.33758000E-02 0.12500216E+03</pdfrwt>
<pdfrwt beam="2">  1       21 0.27388711E-01 0.12500216E+03</pdfrwt>
<totfact> 0.64927030E+06</totfact>
</mgrwt>
</event>
<event>
 5    0  0.1542593E+000  0.1249977E+03  0.7546771E-02  0.1235073E+00
         21   -1    0    0  503  502  0.00000000000E+00  0.00000000000E+00  0.23311384923E+02  0.23311384923E+02  0.00000000000E+00 0.  1.
         21   -1    0    0  502  503 -0.00000000000E+00 -0.00000000000E+00 -0.16756227954E+03  0.16756227954E+03  0.00000000000E+00 0.  1.
         25    2    1    2    0    0  0.00000000000E+00  0.00000000000E+00 -0.14425089462E+03  0.19087366446E+03  0.12499774073E+03 0.  0.
          4    1    3    3  501    0  0.11550400822E+02 -0.57418493700E+02 -0.10535030083E+03  0.12054618850E+03  0.15500000000E+01 0. -1.
         -4    1    3    3    0  501 -0.11550400822E+02  0.57418493700E+02 -0.38900593792E+02  0.70327475962E+02  0.15500000000E+01 0. -1.
<mgrwt>
<rscale>  2 0.12499774E+03</rscale>
<asrwt>0</asrwt>
<pdfrwt beam="1">  1       21 0.35863668E-02 0.12499774E+03</pdfrwt>
<pdfrwt beam="2">  1       21 0.25778813E-01 0.12499774E+03</pdfrwt>
<totfact> 0.65929270E+06</totfact>
</mgrwt>
</event>
<event>
 5    0  0.1222151E+000  0.1249971E+03  0.7546771E-02  0.1235074E+00
         21   -1    0    0  503  502  0.00000000000E+00  0.00000000000E+00  0.59418530714E+01  0.59418530714E+01  0.00000000000E+00 0.  1.
         21   -1    0    0  502  503 -0.00000000000E+00 -0.00000000000E+00 -0.65738264684E+03  0.65738264684E+03  0.00000000000E+00 0.  1.
         25    2    1    2    0    0  0.00000000000E+00  0.00000000000E+00 -0.65144079377E+03  0.66332449991E+03  0.12499713755E+03 0.  0.
          4    1    3    3  501    0 -0.18135765651E+02 -0.28927082190E+02 -0.48042300548E+02  0.58958860418E+02  0.15500000000E+01 0.  1.
         -4    1    3    3    0  501  0.18135765651E+02  0.28927082190E+02 -0.60339849322E+03  0.60436563950E+03  0.15500000000E+01 0.  1.
<mgrwt>
<rscale>  2 0.12499714E+03</rscale>
<asrwt>0</asrwt>
<pdfrwt beam="1">  1       21 0.91413182E-03 0.12499714E+03</pdfrwt>
<pdfrwt beam="2">  1       21 0.10113573E+00 0.12499714E+03</pdfrwt>
<totfact> 0.34374991E+06</totfact>
</mgrwt>
</event>
<event>
 5    0  0.1600139E+000  0.1249930E+03  0.7546771E-02  0.1235080E+00
         21   -1    0    0  503  502  0.00000000000E+00  0.00000000000E+00  0.10387225671E+03  0.10387225671E+03  0.00000000000E+00 0. -1.
         21   -1    0    0  502  503 -0.00000000000E+00 -0.00000000000E+00 -0.37602055090E+02  0.37602055090E+02  0.00000000000E+00 0. -1.
         25    2    1    2    0    0  0.00000000000E+00  0.00000000000E+00  0.66270201621E+02  0.14147431180E+03  0.12499296491E+03 0.  0.
          4    1    3    3  501    0 -0.95247630732E+01 -0.59741285785E+02  0.50803167261E+02  0.79013332056E+02  0.15500000000E+01 0.  1.
         -4    1    3    3    0  501  0.95247630732E+01  0.59741285785E+02  0.15467034360E+02  0.62460979745E+02  0.15500000000E+01 0.  1.
<mgrwt>
<rscale>  2 0.12499296E+03</rscale>
<asrwt>0</asrwt>
<pdfrwt beam="1">  1       21 0.15980347E-01 0.12499296E+03</pdfrwt>
<pdfrwt beam="2">  1       21 0.57849316E-02 0.12499296E+03</pdfrwt>
<totfact> 0.71860298E+06</totfact>
</mgrwt>
</event>
<event>
 5    0  0.1222151E+000  0.1249987E+03  0.7546771E-02  0.1235071E+00
         21   -1    0    0  503  502  0.00000000000E+00  0.00000000000E+00  0.35249659720E+01  0.35249659720E+01  0.00000000000E+00 0.  1.
         21   -1    0    0  502  503 -0.00000000000E+00 -0.00000000000E+00 -0.11081432825E+04  0.11081432825E+04  0.00000000000E+00 0.  1.
         25    2    1    2    0    0  0.00000000000E+00  0.00000000000E+00 -0.11046183165E+04  0.11116682485E+04  0.12499867780E+03 0.  0.
          4    1    3    3  501    0 -0.14018185475E+02 -0.57170254356E+02 -0.73860865443E+03  0.74095215392E+03  0.15500000000E+01 0.  1.
         -4    1    3    3    0  501  0.14018185475E+02  0.57170254356E+02 -0.36600966210E+03  0.37071609455E+03  0.15500000000E+01 0.  1.
<mgrwt>
<rscale>  2 0.12499868E+03</rscale>
<asrwt>0</asrwt>
<pdfrwt beam="1">  1       21 0.54230242E-03 0.12499868E+03</pdfrwt>
<pdfrwt beam="2">  1       21 0.17048359E+00 0.12499868E+03</pdfrwt>
<totfact> 0.20994448E+06</totfact>
</mgrwt>
</event>
<event>
 5    0  0.1509419E+000  0.1249950E+03  0.7546771E-02  0.1235077E+00
         21   -1    0    0  503  502  0.00000000000E+00  0.00000000000E+00  0.11833922479E+02  0.11833922479E+02  0.00000000000E+00 0. -1.
         21   -1    0    0  502  503 -0.00000000000E+00 -0.00000000000E+00 -0.33006262638E+03  0.33006262638E+03  0.00000000000E+00 0. -1.
         25    2    1    2    0    0  0.00000000000E+00  0.00000000000E+00 -0.31822870390E+03  0.34189654886E+03  0.12499496844E+03 0.  0.
          4    1    3    3  501    0  0.46367703747E+02  0.41558209341E+02 -0.14503779007E+03  0.15784616487E+03  0.15500000000E+01 0.  1.
         -4    1    3    3    0  501 -0.46367703747E+02 -0.41558209341E+02 -0.17319091383E+03  0.18405038399E+03  0.15500000000E+01 0.  1.
<mgrwt>
<rscale>  2 0.12499497E+03</rscale>
<asrwt>0</asrwt>
<pdfrwt beam="1">  1       21 0.18206038E-02 0.12499497E+03</pdfrwt>
<pdfrwt beam="2">  1       21 0.50778856E-01 0.12499497E+03</pdfrwt>
<totfact> 0.52149099E+06</totfact>
</mgrwt>
</event>
<event>
 4    0  0.1318947E+000  0.1244818E+03  0.7546771E-02  0.1235881E+00
         21   -1    0    0  503  502  0.00000000000E+00  0.00000000000E+00  0.34627458152E+01  0.34627458152E+01  0.00000000000E+00 0.  1.
         21   -1    0    0  502  503 -0.00000000000E+00 -0.00000000000E+00 -0.11187443761E+04  0.11187443761E+04  0.00000000000E+00 0.  1.
          4    1    1    2  501    0  0.32570019624E+02  0.41432234576E+02 -0.85583113806E+03  0.85745365800E+03  0.15500000000E+01 0. -1.
         -4    1    1    2    0  501 -0.32570019624E+02 -0.41432234576E+02 -0.25945049218E+03  0.26475346387E+03  0.15500000000E+01 0. -1.
<mgrwt>
<rscale>  2 0.12448176E+03</rscale>
<asrwt>0</asrwt>
<pdfrwt beam="1">  1       21 0.53272927E-03 0.12448176E+03</pdfrwt>
<pdfrwt beam="2">  1       21 0.17211480E+00 0.12448176E+03</pdfrwt>
<totfact> 0.21032821E+06</totfact>
</mgrwt>
</event>
<event>
 5    0  0.1472343E+000  0.1250020E+03  0.7546771E-02  0.1235066E+00
         21   -1    0    0  503  502  0.00000000000E+00  0.00000000000E+00  0.13075777857E+03  0.13075777857E+03  0.00000000000E+00 0. -1.
         21   -1    0    0  502  503 -0.00000000000E+00 -0.00000000000E+00 -0.29874902214E+02  0.29874902214E+02  0.00000000000E+00 0. -1.
         25    2    1    2    0    0  0.00000000000E+00  0.00000000000E+00  0.10088287636E+03  0.16063268078E+03  0.12500201356E+03 0.  0.
          4    1    3    3  501    0  0.47530465078E+02 -0.13776679431E+02  0.14237220172E+01  0.49531520177E+02  0.15500000000E+01 0. -1.
         -4    1    3    3    0  501 -0.47530465078E+02  0.13776679431E+02  0.99459154339E+02  0.11110116061E+03  0.15500000000E+01 0. -1.
<mgrwt>
<rscale>  2 0.12500201E+03</rscale>
<asrwt>0</asrwt>
<pdfrwt beam="1">  1       21 0.20116581E-01 0.12500201E+03</pdfrwt>
<pdfrwt beam="2">  1       21 0.45961389E-02 0.12500201E+03</pdfrwt>
<totfact> 0.69438717E+06</totfact>
</mgrwt>
</event>
<event>
 5    0  0.1628133E+000  0.1249972E+03  0.7546771E-02  0.1235074E+00
         21   -1    0    0  503  502  0.00000000000E+00  0.00000000000E+00  0.79788385685E+02  0.79788385685E+02  0.00000000000E+00 0.  1.
         21   -1    0    0  502  503 -0.00000000000E+00 -0.00000000000E+00 -0.48955461058E+02  0.48955461058E+02  0.00000000000E+00 0.  1.
         25    2    1    2    0    0  0.00000000000E+00  0.00000000000E+00  0.30832924627E+02  0.12874384674E+03  0.12499723530E+03 0.  0.
          4    1    3    3  501    0  0.58693306110E+02  0.12090688282E+02  0.33626493300E+02  0.68733052288E+02  0.15500000000E+01 0. -1.
         -4    1    3    3    0  501 -0.58693306110E+02 -0.12090688282E+02 -0.27935686726E+01  0.60010794455E+02  0.15500000000E+01 0. -1.
<mgrwt>
<rscale>  2 0.12499724E+03</rscale>
<asrwt>0</asrwt>
<pdfrwt beam="1">  1       21 0.12275136E-01 0.12499724E+03</pdfrwt>
<pdfrwt beam="2">  1       21 0.75316094E-02 0.12499724E+03</pdfrwt>
<totfact> 0.73538496E+06</totfact>
</mgrwt>
</event>
<event>
 5    0  0.1379410E+000  0.1249896E+03  0.7546771E-02  0.1235086E+00
         21   -1    0    0  503  502  0.00000000000E+00  0.00000000000E+00  0.33522232210E+03  0.33522232210E+03  0.00000000000E+00 0.  1.
         21   -1    0    0  502  503 -0.00000000000E+00 -0.00000000000E+00 -0.11650772256E+02  0.11650772256E+02  0.00000000000E+00 0.  1.
         25    2    1    2    0    0  0.00000000000E+00  0.00000000000E+00  0.32357154984E+03  0.34687309435E+03  0.12498958244E+03 0.  0.
          4    1    3    3  501    0  0.61106112095E+02 -0.66956091106E+01  0.13083143851E+03  0.14456159905E+03  0.15500000000E+01 0.  1.
         -4    1    3    3    0  501 -0.61106112095E+02  0.66956091106E+01  0.19274011133E+03  0.20231149531E+03  0.15500000000E+01 0.  1.
<mgrwt>
<rscale>  2 0.12498958E+03</rscale>
<asrwt>0</asrwt>
<pdfrwt beam="1">  1       21 0.51572658E-01 0.12498958E+03</pdfrwt>
<pdfrwt beam="2">  1       21 0.17924268E-02 0.12498958E+03</pdfrwt>
<totfact> 0.51783712E+06</totfact>
</mgrwt>
</event>
<event>
 5    0  0.1600319E+000  0.1249981E+03  0.7546771E-02  0.1235072E+00
         21   -1    0    0  503  502  0.00000000000E+00  0.00000000000E+00  0.22531350087E+02  0.22531350087E+02  0.00000000000E+00 0.  1.
         21   -1    0    0  502  503 -0.00000000000E+00 -0.00000000000E+00 -0.17336433927E+03  0.17336433927E+03  0.00000000000E+00 0.  1.
         25    2    1    2    0    0  0.00000000000E+00  0.00000000000E+00 -0.15083298918E+03  0.19589568935E+03  0.12499812192E+03 0.  0.
          4    1    3    3  501    0  0.34546532671E+02  0.50609853197E+02 -0.94540694102E+02  0.11267282504E+03  0.15500000000E+01 0.  1.
         -4    1    3    3    0  501 -0.34546532671E+02 -0.50609853197E+02 -0.56292295077E+02  0.83222864318E+02  0.15500000000E+01 0.  1.
<mgrwt>
<rscale>  2 0.12499812E+03</rscale>
<asrwt>0</asrwt>
<pdfrwt beam="1">  1       21 0.34663616E-02 0.12499812E+03</pdfrwt>
<pdfrwt beam="2">  1       21 0.26671436E-01 0.12499812E+03</pdfrwt>
<totfact> 0.65376235E+06</totfact>
</mgrwt>
</event>
<event>
 5    0  0.1554596E+000  0.1250013E+03  0.7546771E-02  0.1235067E+00
         21   -1    0    0  503  502  0.00000000000E+00  0.00000000000E+00  0.86276978146E+02  0.86276978146E+02  0.00000000000E+00 0.  1.
         21   -1    0    0  502  503 -0.00000000000E+00 -0.00000000000E+00 -0.45276662181E+02  0.45276662181E+02  0.00000000000E+00 0.  1.
         25    2    1    2    0    0  0.00000000000E+00  0.00000000000E+00  0.41000315965E+02  0.13155364033E+03  0.12500133749E+03 0.  0.
          4    1    3    3  501    0 -0.21959220042E+02 -0.53231696964E+02  0.46022325887E+02  0.73731118848E+02  0.15500000000E+01 0.  1.
         -4    1    3    3    0  501  0.21959220042E+02  0.53231696964E+02 -0.50220099223E+01  0.57822521479E+02  0.15500000000E+01 0.  1.
<mgrwt>
<rscale>  2 0.12500134E+03</rscale>
<asrwt>0</asrwt>
<pdfrwt beam="1">  1       21 0.13273381E-01 0.12500134E+03</pdfrwt>
<pdfrwt beam="2">  1       21 0.69656404E-02 0.12500134E+03</pdfrwt>
<totfact> 0.73153665E+06</totfact>
</mgrwt>
</event>
<event>
 5    0  0.1463280E+000  0.1249990E+03  0.7546771E-02  0.1235071E+00
         21   -1    0    0  503  502  0.00000000000E+00  0.00000000000E+00  0.27957424418E+03  0.27957424418E+03  0.00000000000E+00 0. -1.
         21   -1    0    0  502  503 -0.00000000000E+00 -0.00000000000E+00 -0.13971914242E+02  0.13971914242E+02  0.00000000000E+00 0. -1.
         25    2    1    2    0    0  0.00000000000E+00  0.00000000000E+00  0.26560232993E+03  0.29354615842E+03  0.12499899782E+03 0.  0.
          4    1    3    3  501    0 -0.37066643811E+02  0.16851454748E+02  0.24409289112E+03  0.24747050250E+03  0.15500000000E+01 0.  1.
         -4    1    3    3    0  501  0.37066643811E+02 -0.16851454748E+02  0.21509438813E+02  0.46075655921E+02  0.15500000000E+01 0.  1.
<mgrwt>
<rscale>  2 0.12499900E+03</rscale>
<asrwt>0</asrwt>
<pdfrwt beam="1">  1       21 0.43011418E-01 0.12499900E+03</pdfrwt>
<pdfrwt beam="2">  1       21 0.21495255E-02 0.12499900E+03</pdfrwt>
<totfact> 0.55998226E+06</totfact>
</mgrwt>
</event>
<event>
 5    0  0.1486735E+000  0.1249981E+03  0.7546771E-02  0.1235072E+00
         21   -1    0    0  503  502  0.00000000000E+00  0.00000000000E+00  0.27254581259E+03  0.27254581259E+03  0.00000000000E+00 0.  1.
         21   -1    0    0  502  503 -0.00000000000E+00 -0.00000000000E+00 -0.14332018383E+02  0.14332018383E+02  0.00000000000E+00 0.  1.
         25    2    1    2    0    0  0.00000000000E+00  0.00000000000E+00  0.25821379421E+03  0.28687783098E+03  0.12499810553E+03 0.  0.
          4    1    3    3  501    0  0.45588375826E+02 -0.41493494987E+02  0.10573345716E+03  0.12240088480E+03  0.15500000000E+01 0. -1.
         -4    1    3    3    0  501 -0.45588375826E+02  0.41493494987E+02  0.15248033705E+03  0.16447694618E+03  0.15500000000E+01 0. -1.
<mgrwt>
<rscale>  2 0.12499811E+03</rscale>
<asrwt>0</asrwt>
<pdfrwt beam="1">  1       21 0.41930121E-01 0.12499811E+03</pdfrwt>
<pdfrwt beam="2">  1       21 0.22049261E-02 0.12499811E+03</pdfrwt>
<totfact> 0.56567314E+06</totfact>
</mgrwt>
</event>
<event>
 5    0  0.1431758E+000  0.1249977E+03  0.7546771E-02  0.1235073E+00
         21   -1    0    0  503  502  0.00000000000E+00  0.00000000000E+00  0.12484547789E+02  0.12484547789E+02  0.00000000000E+00 0. -1.
         21   -1    0    0  502  503 -0.00000000000E+00 -0.00000000000E+00 -0.31287546861E+03  0.31287546861E+03  0.00000000000E+00 0. -1.
         25    2    1    2    0    0  0.00000000000E+00  0.00000000000E+00 -0.30039092082E+03  0.32536001640E+03  0.12499773982E+03 0.  0.
          4    1    3    3  501    0 -0.10091110022E+02  0.31646490022E+02 -0.28793865421E+03  0.28985237953E+03  0.15500000000E+01 0.  1.
         -4    1    3    3    0  501  0.10091110022E+02 -0.31646490022E+02 -0.12452266614E+02  0.35507636869E+02  0.15500000000E+01 0.  1.
<mgrwt>
<rscale>  2 0.12499774E+03</rscale>
<asrwt>0</asrwt>
<pdfrwt beam="1">  1       21 0.19206999E-02 0.12499774E+03</pdfrwt>
<pdfrwt beam="2">  1       21 0.48134681E-01 0.12499774E+03</pdfrwt>
<totfact> 0.53414334E+06</totfact>
</mgrwt>
</event>
<event>
 5    0  0.1238449E+000  0.1249950E+03  0.7546771E-02  0.1235077E+00
         21   -1    0    0  503  502  0.00000000000E+00  0.00000000000E+00  0.55031674618E+01  0.55031674618E+01  0.00000000000E+00 0.  1.
         21   -1    0    0  502  503 -0.00000000000E+00 -0.00000000000E+00 -0.70976160260E+03  0.70976160260E+03  0.00000000000E+00 0.  1.
         25    2    1    2    0    0  0.00000000000E+00  0.00000000000E+00 -0.70425843513E+03  0.71526477006E+03  0.12499499121E+03 0.  0.
          4    1    3    3  501    0  0.44736413875E+02 -0.43571376143E+02 -0.34108803509E+03  0.34676110180E+03  0.15500000000E+01 0. -1.
         -4    1    3    3    0  501 -0.44736413875E+02  0.43571376143E+02 -0.36317040005E+03  0.36850366825E+03  0.15500000000E+01 0. -1.
<mgrwt>
<rscale>  2 0.12499499E+03</rscale>
<asrwt>0</asrwt>
<pdfrwt beam="1">  1       21 0.84664211E-03 0.12499499E+03</pdfrwt>
<pdfrwt beam="2">  1       21 0.10919397E+00 0.12499499E+03</pdfrwt>
<totfact> 0.32333925E+06</totfact>
</mgrwt>
</event>
<event>
 5    0  0.1473730E+000  0.1250036E+03  0.7546771E-02  0.1235064E+00
         21   -1    0    0  503  502  0.00000000000E+00  0.00000000000E+00  0.20483748268E+02  0.20483748268E+02  0.00000000000E+00 0. -1.
         21   -1    0    0  502  503 -0.00000000000E+00 -0.00000000000E+00 -0.19071098265E+03  0.19071098265E+03  0.00000000000E+00 0. -1.
         25    2    1    2    0    0  0.00000000000E+00  0.00000000000E+00 -0.17022723438E+03  0.21119473092E+03  0.12500361212E+03 0.  0.
          4    1    3    3  501    0 -0.96112304520E+01 -0.54091604841E+02 -0.34829905980E+02  0.65067674890E+02  0.15500000000E+01 0. -1.
         -4    1    3    3    0  501  0.96112304520E+01  0.54091604841E+02 -0.13539732840E+03  0.14612705603E+03  0.15500000000E+01 0. -1.
<mgrwt>
<rscale>  2 0.12500361E+03</rscale>
<asrwt>0</asrwt>
<pdfrwt beam="1">  1       21 0.31513458E-02 0.12500361E+03</pdfrwt>
<pdfrwt beam="2">  1       21 0.29340152E-01 0.12500361E+03</pdfrwt>
<totfact> 0.63728232E+06</totfact>
</mgrwt>
</event>
<event>
 5    0  0.1222151E+000  0.1250016E+03  0.7546771E-02  0.1235067E+00
         21   -1    0    0  503  502  0.00000000000E+00  0.00000000000E+00  0.28375382248E+01  0.28375382248E+01  0.00000000000E+00 0.  1.
         21   -1    0    0  502  503 -0.00000000000E+00 -0.00000000000E+00 -0.13766683162E+04  0.13766683162E+04  0.00000000000E+00 0.  1.
         25    2    1    2    0    0  0.00000000000E+00  0.00000000000E+00 -0.13738307780E+04  0.13795058544E+04  0.12500158351E+03 0.  0.
          4    1    3    3  501    0  0.39017998267E+02 -0.25374830758E+01 -0.12247506845E+04  0.12253756505E+04  0.15500000000E+01 0. -1.
         -4    1    3    3    0  501 -0.39017998267E+02  0.25374830758E+01 -0.14908009341E+03  0.15413020392E+03  0.15500000000E+01 0. -1.
<mgrwt>
<rscale>  2 0.12500158E+03</rscale>
<asrwt>0</asrwt>
<pdfrwt beam="1">  1       21 0.43654373E-03 0.12500158E+03</pdfrwt>
<pdfrwt beam="2">  1       21 0.21179542E+00 0.12500158E+03</pdfrwt>
<totfact> 0.15881077E+06</totfact>
</mgrwt>
</event>
<event>
 5    0  0.1222151E+000  0.1250054E+03  0.7546771E-02  0.1235061E+00
         21   -1    0    0  503  502  0.00000000000E+00  0.00000000000E+00  0.43621414519E+01  0.43621414519E+01  0.00000000000E+00 0. -1.
         21   -1    0    0  502  503 -0.00000000000E+00 -0.00000000000E+00 -0.89556688206E+03  0.89556688206E+03  0.00000000000E+00 0. -1.
         25    2    1    2    0    0  0.00000000000E+00  0.00000000000E+00 -0.89120474061E+03  0.89992902351E+03  0.12500543059E+03 0.  0.
          4    1    3    3  501    0  0.28810703223E+02  0.23696125457E+02 -0.80646600946E+03  0.80732979005E+03  0.15500000000E+01 0. -1.
         -4    1    3    3    0  501 -0.28810703223E+02 -0.23696125457E+02 -0.84738731149E+02  0.92599233466E+02  0.15500000000E+01 0. -1.
<mgrwt>
<rscale>  2 0.12500543E+03</rscale>
<asrwt>0</asrwt>
<pdfrwt beam="1">  1       21 0.67109842E-03 0.12500543E+03</pdfrwt>
<pdfrwt beam="2">  1       21 0.13777957E+00 0.12500543E+03</pdfrwt>
<totfact> 0.26297607E+06</totfact>
</mgrwt>
</event>
<event>
 5    0  0.1474590E+000  0.1250049E+03  0.7546771E-02  0.1235062E+00
         21   -1    0    0  503  502  0.00000000000E+00  0.00000000000E+00  0.13106677426E+03  0.13106677426E+03  0.00000000000E+00 0.  1.
         21   -1    0    0  502  503 -0.00000000000E+00 -0.00000000000E+00 -0.29805848110E+02  0.29805848110E+02  0.00000000000E+00 0.  1.
         25    2    1    2    0    0  0.00000000000E+00  0.00000000000E+00  0.10126092615E+03  0.16087262237E+03  0.12500490176E+03 0.  0.
          4    1    3    3  501    0  0.59155900284E+02  0.16644971398E+02  0.36088817117E+02  0.71283103413E+02  0.15500000000E+01 0.  1.
         -4    1    3    3    0  501 -0.59155900284E+02 -0.16644971398E+02  0.65172109034E+02  0.89589518959E+02  0.15500000000E+01 0.  1.
<mgrwt>
<rscale>  2 0.12500490E+03</rscale>
<asrwt>0</asrwt>
<pdfrwt beam="1">  1       21 0.20164119E-01 0.12500490E+03</pdfrwt>
<pdfrwt beam="2">  1       21 0.45855152E-02 0.12500490E+03</pdfrwt>
<totfact> 0.69404379E+06</totfact>
</mgrwt>
</event>
<event>
 5    0  0.1628017E+000  0.1249979E+03  0.7546771E-02  0.1235073E+00
         21   -1    0    0  503  502  0.00000000000E+00  0.00000000000E+00  0.88305436609E+02  0.88305436609E+02  0.00000000000E+00 0. -1.
         21   -1    0    0  502  503 -0.00000000000E+00 -0.00000000000E+00 -0.44234178708E+02  0.44234178708E+02  0.00000000000E+00 0. -1.
         25    2    1    2    0    0  0.00000000000E+00  0.00000000000E+00  0.44071257901E+02  0.13253961532E+03  0.12499789540E+03 0.  0.
          4    1    3    3  501    0 -0.86318047202E+01  0.53276696091E+02 -0.11340529368E+02  0.55171772723E+02  0.15500000000E+01 0.  1.
         -4    1    3    3    0  501  0.86318047202E+01 -0.53276696091E+02  0.55411787269E+02  0.77367842593E+02  0.15500000000E+01 0.  1.
<mgrwt>
<rscale>  2 0.12499790E+03</rscale>
<asrwt>0</asrwt>
<pdfrwt beam="1">  1       21 0.13585452E-01 0.12499790E+03</pdfrwt>
<pdfrwt beam="2">  1       21 0.68052583E-02 0.12499790E+03</pdfrwt>
<totfact> 0.73027858E+06</totfact>
</mgrwt>
</event>
<event>
 5    0  0.1222151E+000  0.1249979E+03  0.7546771E-02  0.1235073E+00
         21   -1    0    0  503  502  0.00000000000E+00  0.00000000000E+00  0.13324541535E+04  0.13324541535E+04  0.00000000000E+00 0.  1.
         21   -1    0    0  502  503 -0.00000000000E+00 -0.00000000000E+00 -0.29315235149E+01  0.29315235149E+01  0.00000000000E+00 0.  1.
         25    2    1    2    0    0  0.00000000000E+00  0.00000000000E+00  0.13295226300E+04  0.13353856770E+04  0.12499793092E+03 0.  0.
          4    1    3    3  501    0 -0.70659894267E+01 -0.40364129549E+02  0.11686362237E+04  0.11693554707E+04  0.15500000000E+01 0. -1.
         -4    1    3    3    0  501  0.70659894267E+01  0.40364129549E+02  0.16088640632E+03  0.16603020628E+03  0.15500000000E+01 0. -1.
<mgrwt>
<rscale>  2 0.12499793E+03</rscale>
<asrwt>0</asrwt>
<pdfrwt beam="1">  1       21 0.20499246E+00 0.12499793E+03</pdfrwt>
<pdfrwt beam="2">  1       21 0.45100468E-03 0.12499793E+03</pdfrwt>
<totfact> 0.16629624E+06</totfact>
</mgrwt>
</event>
<event>
 5    0  0.1521760E+000  0.1250039E+03  0.7546771E-02  0.1235063E+00
         21   -1    0    0  503  502  0.00000000000E+00  0.00000000000E+00  0.44482641170E+02  0.44482641170E+02  0.00000000000E+00 0. -1.
         21   -1    0    0  502  503 -0.00000000000E+00 -0.00000000000E+00 -0.87820611945E+02  0.87820611945E+02  0.00000000000E+00 0. -1.
         25    2    1    2    0    0  0.00000000000E+00  0.00000000000E+00 -0.43337970775E+02  0.13230325312E+03  0.12500388424E+03 0.  0.
          4    1    3    3  501    0 -0.28531103392E+02 -0.14557621734E+02  0.35112026495E+02  0.47552130509E+02  0.15500000000E+01 0.  1.
         -4    1    3    3    0  501  0.28531103392E+02  0.14557621734E+02 -0.78449997271E+02  0.84751122606E+02  0.15500000000E+01 0.  1.
<mgrwt>
<rscale>  2 0.12500388E+03</rscale>
<asrwt>0</asrwt>
<pdfrwt beam="1">  1       21 0.68434832E-02 0.12500388E+03</pdfrwt>
<pdfrwt beam="2">  1       21 0.13510863E-01 0.12500388E+03</pdfrwt>
<totfact> 0.73048342E+06</totfact>
</mgrwt>
</event>
<event>
 5    0  0.1509496E+000  0.1249961E+03  0.7546771E-02  0.1235075E+00
         21   -1    0    0  503  502  0.00000000000E+00  0.00000000000E+00  0.22087061610E+03  0.22087061610E+03  0.00000000000E+00 0.  1.
         21   -1    0    0  502  503 -0.00000000000E+00 -0.00000000000E+00 -0.17684575854E+02  0.17684575854E+02  0.00000000000E+00 0.  1.
         25    2    1    2    0    0  0.00000000000E+00  0.00000000000E+00  0.20318604025E+03  0.23855519195E+03  0.12499605057E+03 0.  0.
          4    1    3    3  501    0  0.30214588247E+02  0.53121529050E+02  0.76798468755E+02  0.98159184464E+02  0.15500000000E+01 0.  1.
         -4    1    3    3    0  501 -0.30214588247E+02 -0.53121529050E+02  0.12638757149E+03  0.14039600749E+03  0.15500000000E+01 0.  1.
<mgrwt>
<rscale>  2 0.12499605E+03</rscale>
<asrwt>0</asrwt>
<pdfrwt beam="1">  1       21 0.33980093E-01 0.12499605E+03</pdfrwt>
<pdfrwt beam="2">  1       21 0.27207041E-02 0.12499605E+03</pdfrwt>
<totfact> 0.60978831E+06</totfact>
</mgrwt>
</event>
<event>
 5    0  0.1520783E+000  0.1250001E+03  0.7546771E-02  0.1235069E+00
         21   -1    0    0  503  502  0.00000000000E+00  0.00000000000E+00  0.21810722346E+02  0.21810722346E+02  0.00000000000E+00 0. -1.
         21   -1    0    0  502  503 -0.00000000000E+00 -0.00000000000E+00 -0.17909806817E+03  0.17909806817E+03  0.00000000000E+00 0. -1.
         25    2    1    2    0    0  0.00000000000E+00  0.00000000000E+00 -0.15728734582E+03  0.20090879051E+03  0.12500013180E+03 0.  0.
          4    1    3    3  501    0  0.28523020371E+02  0.55466477896E+02 -0.84606374428E+02  0.10512247122E+03  0.15500000000E+01 0.  1.
         -4    1    3    3    0  501 -0.28523020371E+02 -0.55466477896E+02 -0.72680971391E+02  0.95786319293E+02  0.15500000000E+01 0.  1.
<mgrwt>
<rscale>  2 0.12500013E+03</rscale>
<asrwt>0</asrwt>
<pdfrwt beam="1">  1       21 0.33554957E-02 0.12500013E+03</pdfrwt>
<pdfrwt beam="2">  1       21 0.27553549E-01 0.12500013E+03</pdfrwt>
<totfact> 0.64828695E+06</totfact>
</mgrwt>
</event>
<event>
 5    0  0.1237686E+000  0.1250295E+03  0.7546771E-02  0.1235023E+00
         21   -1    0    0  503  502  0.00000000000E+00  0.00000000000E+00  0.60109203569E+03  0.60109203569E+03  0.00000000000E+00 0. -1.
         21   -1    0    0  502  503 -0.00000000000E+00 -0.00000000000E+00 -0.65016555885E+01  0.65016555885E+01  0.00000000000E+00 0. -1.
         25    2    1    2    0    0  0.00000000000E+00  0.00000000000E+00  0.59459038010E+03  0.60759369127E+03  0.12502949081E+03 0.  0.
          4    1    3    3  501    0 -0.74119465883E+01 -0.61404416536E+02  0.25376129119E+03  0.26119462997E+03  0.15500000000E+01 0. -1.
         -4    1    3    3    0  501  0.74119465883E+01  0.61404416536E+02  0.34082908891E+03  0.34639906130E+03  0.15500000000E+01 0. -1.
<mgrwt>
<rscale>  2 0.12502949E+03</rscale>
<asrwt>0</asrwt>
<pdfrwt beam="1">  1       21 0.92475654E-01 0.12502949E+03</pdfrwt>
<pdfrwt beam="2">  1       21 0.10002552E-02 0.12502949E+03</pdfrwt>
<totfact> 0.36724561E+06</totfact>
</mgrwt>
</event>
<event>
 5    0  0.1549673E+000  0.1249996E+03  0.7546771E-02  0.1235070E+00
         21   -1    0    0  503  502  0.00000000000E+00  0.00000000000E+00  0.71576501409E+02  0.71576501409E+02  0.00000000000E+00 0.  1.
         21   -1    0    0  502  503 -0.00000000000E+00 -0.00000000000E+00 -0.54574107395E+02  0.54574107395E+02  0.00000000000E+00 0.  1.
         25    2    1    2    0    0  0.00000000000E+00  0.00000000000E+00  0.17002394013E+02  0.12615060880E+03  0.12499957880E+03 0.  0.
          4    1    3    3  501    0 -0.47402695105E+02 -0.11781274858E+02 -0.30819184398E+02  0.57775761072E+02  0.15500000000E+01 0.  1.
         -4    1    3    3    0  501  0.47402695105E+02  0.11781274858E+02  0.47821578412E+02  0.68374847731E+02  0.15500000000E+01 0.  1.
<mgrwt>
<rscale>  2 0.12499958E+03</rscale>
<asrwt>0</asrwt>
<pdfrwt beam="1">  1       21 0.11011769E-01 0.12499958E+03</pdfrwt>
<pdfrwt beam="2">  1       21 0.83960165E-02 0.12499958E+03</pdfrwt>
<totfact> 0.73886094E+06</totfact>
</mgrwt>
</event>
<event>
 5    0  0.1473833E+000  0.1250036E+03  0.7546771E-02  0.1235064E+00
         21   -1    0    0  503  502  0.00000000000E+00  0.00000000000E+00  0.35837351690E+02  0.35837351690E+02  0.00000000000E+00 0. -1.
         21   -1    0    0  502  503 -0.00000000000E+00 -0.00000000000E+00 -0.10900560898E+03  0.10900560898E+03  0.00000000000E+00 0. -1.
         25    2    1    2    0    0  0.00000000000E+00  0.00000000000E+00 -0.73168257293E+02  0.14484296067E+03  0.12500355747E+03 0.  0.
          4    1    3    3  501    0 -0.37993921957E+02  0.25236470627E+01 -0.93986088149E+02  0.10141841137E+03  0.15500000000E+01 0. -1.
         -4    1    3    3    0  501  0.37993921957E+02 -0.25236470627E+01  0.20817830856E+02  0.43424549298E+02  0.15500000000E+01 0. -1.
<mgrwt>
<rscale>  2 0.12500356E+03</rscale>
<asrwt>0</asrwt>
<pdfrwt beam="1">  1       21 0.55134389E-02 0.12500356E+03</pdfrwt>
<pdfrwt beam="2">  1       21 0.16770093E-01 0.12500356E+03</pdfrwt>
<totfact> 0.71406732E+06</totfact>
</mgrwt>
</event>
<event>
 5    0  0.1426832E+000  0.1249764E+03  0.7546771E-02  0.1235106E+00
         21   -1    0    0  503  502  0.00000000000E+00  0.00000000000E+00  0.11584131924E+02  0.11584131924E+02  0.00000000000E+00 0.  1.
         21   -1    0    0  502  503 -0.00000000000E+00 -0.00000000000E+00 -0.33707982821E+03  0.33707982821E+03  0.00000000000E+00 0.  1.
         25    2    1    2    0    0  0.00000000000E+00  0.00000000000E+00 -0.32549569628E+03  0.34866396013E+03  0.12497643296E+03 0.  0.
          4    1    3    3  501    0 -0.32231829370E+01 -0.60933240165E+02 -0.12540922596E+03  0.13947446046E+03  0.15500000000E+01 0. -1.
         -4    1    3    3    0  501  0.32231829370E+01  0.60933240165E+02 -0.20008647032E+03  0.20918949967E+03  0.15500000000E+01 0. -1.
<mgrwt>
<rscale>  2 0.12497643E+03</rscale>
<asrwt>0</asrwt>
<pdfrwt beam="1">  1       21 0.17821745E-02 0.12497643E+03</pdfrwt>
<pdfrwt beam="2">  1       21 0.51858424E-01 0.12497643E+03</pdfrwt>
<totfact> 0.51667757E+06</totfact>
</mgrwt>
</event>
<event>
 5    0  0.1611894E+000  0.1249994E+03  0.7546771E-02  0.1235070E+00
         21   -1    0    0  503  502  0.00000000000E+00  0.00000000000E+00  0.22237098893E+02  0.22237098893E+02  0.00000000000E+00 0. -1.
         21   -1    0    0  502  503 -0.00000000000E+00 -0.00000000000E+00 -0.17566207535E+03  0.17566207535E+03  0.00000000000E+00 0. -1.
         25    2    1    2    0    0  0.00000000000E+00  0.00000000000E+00 -0.15342497646E+03  0.19789917424E+03  0.12499943906E+03 0.  0.
          4    1    3    3  501    0 -0.53642213447E+02 -0.32008814333E+02 -0.78813546662E+02  0.10057847133E+03  0.15500000000E+01 0. -1.
         -4    1    3    3    0  501  0.53642213447E+02  0.32008814333E+02 -0.74611429797E+02  0.97320702910E+02  0.15500000000E+01 0. -1.
<mgrwt>
<rscale>  2 0.12499944E+03</rscale>
<asrwt>0</asrwt>
<pdfrwt beam="1">  1       21 0.34210922E-02 0.12499944E+03</pdfrwt>
<pdfrwt beam="2">  1       21 0.27024934E-01 0.12499944E+03</pdfrwt>
<totfact> 0.65156031E+06</totfact>
</mgrwt>
</event>
<event>
 5    0  0.1432329E+000  0.1249995E+03  0.7546771E-02  0.1235070E+00
         21   -1    0    0  503  502  0.00000000000E+00  0.00000000000E+00  0.37051289927E+03  0.37051289927E+03  0.00000000000E+00 0. -1.
         21   -1    0    0  502  503 -0.00000000000E+00 -0.00000000000E+00 -0.10542725423E+02  0.10542725423E+02  0.00000000000E+00 0. -1.
         25    2    1    2    0    0  0.00000000000E+00  0.00000000000E+00  0.35997017385E+03  0.38105562469E+03  0.12499945220E+03 0.  0.
          4    1    3    3  501    0 -0.50121901405E+02 -0.10678370697E+02  0.71023246157E+02  0.87595300079E+02  0.15500000000E+01 0. -1.
         -4    1    3    3    0  501  0.50121901405E+02  0.10678370697E+02  0.28894692769E+03  0.29346032462E+03  0.15500000000E+01 0. -1.
<mgrwt>
<rscale>  2 0.12499945E+03</rscale>
<asrwt>0</asrwt>
<pdfrwt beam="1">  1       21 0.57001974E-01 0.12499945E+03</pdfrwt>
<pdfrwt beam="2">  1       21 0.16219580E-02 0.12499945E+03</pdfrwt>
<totfact> 0.49324215E+06</totfact>
</mgrwt>
</event>
<event>
 5    0  0.1458068E+000  0.1250054E+03  0.7546771E-02  0.1235061E+00
         21   -1    0    0  503  502  0.00000000000E+00  0.00000000000E+00  0.35503194167E+02  0.35503194167E+02  0.00000000000E+00 0.  1.
         21   -1    0    0  502  503 -0.00000000000E+00 -0.00000000000E+00 -0.11003480582E+03  0.11003480582E+03  0.00000000000E+00 0.  1.
         25    2    1    2    0    0  0.00000000000E+00  0.00000000000E+00 -0.74531611649E+02  0.14553799998E+03  0.12500539310E+03 0.  0.
          4    1    3    3  501    0 -0.36402770687E+02 -0.37874908732E+02  0.21216778031E+01  0.52598236110E+02  0.15500000000E+01 0. -1.
         -4    1    3    3    0  501  0.36402770687E+02  0.37874908732E+02 -0.76653289452E+02  0.92939763874E+02  0.15500000000E+01 0. -1.
<mgrwt>
<rscale>  2 0.12500539E+03</rscale>
<asrwt>0</asrwt>
<pdfrwt beam="1">  1       21 0.54620299E-02 0.12500539E+03</pdfrwt>
<pdfrwt beam="2">  1       21 0.16928432E-01 0.12500539E+03</pdfrwt>
<totfact> 0.71314524E+06</totfact>
</mgrwt>
</event>
<event>
 5    0  0.1469399E+000  0.1250000E+03  0.7546771E-02  0.1235069E+00
         21   -1    0    0  503  502  0.00000000000E+00  0.00000000000E+00  0.11482591274E+03  0.11482591274E+03  0.00000000000E+00 0.  1.
         21   -1    0    0  502  503 -0.00000000000E+00 -0.00000000000E+00 -0.34018894988E+02  0.34018894988E+02  0.00000000000E+00 0.  1.
         25    2    1    2    0    0  0.00000000000E+00  0.00000000000E+00  0.80807017750E+02  0.14884480773E+03  0.12500001068E+03 0.  0.
          4    1    3    3  501    0 -0.17175862486E+02  0.45680136716E+02 -0.60538186663E+01  0.49200979289E+02  0.15500000000E+01 0. -1.
         -4    1    3    3    0  501  0.17175862486E+02 -0.45680136716E+02  0.86860836417E+02  0.99643828437E+02  0.15500000000E+01 0. -1.
<mgrwt>
<rscale>  2 0.12500001E+03</rscale>
<asrwt>0</asrwt>
<pdfrwt beam="1">  1       21 0.17665525E-01 0.12500001E+03</pdfrwt>
<pdfrwt beam="2">  1       21 0.52336762E-02 0.12500001E+03</pdfrwt>
<totfact> 0.70904598E+06</totfact>
</mgrwt>
</event>
<event>
 5    0  0.1222151E+000  0.1249981E+03  0.7546771E-02  0.1235072E+00
         21   -1    0    0  503  502  0.00000000000E+00  0.00000000000E+00  0.35775154515E+01  0.35775154515E+01  0.00000000000E+00 0. -1.
         21   -1    0    0  502  503 -0.00000000000E+00 -0.00000000000E+00 -0.10918552804E+04  0.10918552804E+04  0.00000000000E+00 0. -1.
         25    2    1    2    0    0  0.00000000000E+00  0.00000000000E+00 -0.10882777650E+04  0.10954327959E+04  0.12499806617E+03 0.  0.
          4    1    3    3  501    0 -0.42464985506E+01  0.58135058467E+02 -0.34700489482E+03  0.35187002899E+03  0.15500000000E+01 0. -1.
         -4    1    3    3    0  501  0.42464985506E+01 -0.58135058467E+02 -0.74127287015E+03  0.74356276688E+03  0.15500000000E+01 0. -1.
<mgrwt>
<rscale>  2 0.12499807E+03</rscale>
<asrwt>0</asrwt>
<pdfrwt beam="1">  1       21 0.55038661E-03 0.12499807E+03</pdfrwt>
<pdfrwt beam="2">  1       21 0.16797785E+00 0.12499807E+03</pdfrwt>
<totfact> 0.21354269E+06</totfact>
</mgrwt>
</event>
<event>
 5    0  0.1587031E+000  0.1249879E+03  0.7546771E-02  0.1235088E+00
         21   -1    0    0  503  502  0.00000000000E+00  0.00000000000E+00  0.39430327956E+02  0.39430327956E+02  0.00000000000E+00 0.  1.
         21   -1    0    0  502  503 -0.00000000000E+00 -0.00000000000E+00 -0.99047979461E+02  0.99047979461E+02  0.00000000000E+00 0.  1.
         25    2    1    2    0    0  0.00000000000E+00  0.00000000000E+00 -0.59617651505E+02  0.13847830742E+03  0.12498790843E+03 0.  0.
          4    1    3    3  501    0 -0.55939339534E+02  0.21735275714E+02 -0.10572216723E+02  0.60957412874E+02  0.15500000000E+01 0.  1.
         -4    1    3    3    0  501  0.55939339534E+02 -0.21735275714E+02 -0.49045434783E+02  0.77520894544E+02  0.15500000000E+01 0.  1.
<mgrwt>
<rscale>  2 0.12498791E+03</rscale>
<asrwt>0</asrwt>
<pdfrwt beam="1">  1       21 0.60662043E-02 0.12498791E+03</pdfrwt>
<pdfrwt beam="2">  1       21 0.15238151E-01 0.12498791E+03</pdfrwt>
<totfact> 0.72260850E+06</totfact>
</mgrwt>
</event>
<event>
 5    0  0.1222151E+000  0.1249711E+03  0.7546771E-02  0.1235115E+00
         21   -1    0    0  503  502  0.00000000000E+00  0.00000000000E+00  0.65980094809E+01  0.65980094809E+01  0.00000000000E+00 0.  1.
         21   -1    0    0  502  503 -0.00000000000E+00 -0.00000000000E+00 -0.59176043996E+03  0.59176043996E+03  0.00000000000E+00 0.  1.
         25    2    1    2    0    0  0.00000000000E+00  0.00000000000E+00 -0.58516243048E+03  0.59835844944E+03  0.12497105254E+03 0.  0.
          4    1    3    3  501    0 -0.47707872780E+02 -0.15802534247E+02 -0.11495585543E+03  0.12547116167E+03  0.15500000000E+01 0. -1.
         -4    1    3    3    0  501  0.47707872780E+02  0.15802534247E+02 -0.47020657505E+03  0.47288728777E+03  0.15500000000E+01 0. -1.
<mgrwt>
<rscale>  2 0.12497105E+03</rscale>
<asrwt>0</asrwt>
<pdfrwt beam="1">  1       21 0.10150781E-02 0.12497105E+03</pdfrwt>
<pdfrwt beam="2">  1       21 0.91040091E-01 0.12497105E+03</pdfrwt>
<totfact> 0.37193703E+06</totfact>
</mgrwt>
</event>
<event>
 5    0  0.1531560E+000  0.1250036E+03  0.7546771E-02  0.1235064E+00
         21   -1    0    0  503  502  0.00000000000E+00  0.00000000000E+00  0.14044825438E+03  0.14044825438E+03  0.00000000000E+00 0. -1.
         21   -1    0    0  502  503 -0.00000000000E+00 -0.00000000000E+00 -0.27814344574E+02  0.27814344574E+02  0.00000000000E+00 0. -1.
         25    2    1    2    0    0  0.00000000000E+00  0.00000000000E+00  0.11263390980E+03  0.16826259895E+03  0.12500361822E+03 0.  0.
          4    1    3    3  501    0  0.16617394088E+02 -0.52303363979E+02  0.96525558284E+02  0.11104668195E+03  0.15500000000E+01 0.  1.
         -4    1    3    3    0  501 -0.16617394088E+02  0.52303363979E+02  0.16108351518E+02  0.57215917002E+02  0.15500000000E+01 0.  1.
<mgrwt>
<rscale>  2 0.12500362E+03</rscale>
<asrwt>0</asrwt>
<pdfrwt beam="1">  1       21 0.21607423E-01 0.12500362E+03</pdfrwt>
<pdfrwt beam="2">  1       21 0.42791300E-02 0.12500362E+03</pdfrwt>
<totfact> 0.68517427E+06</totfact>
</mgrwt>
</event>
<event>
 5    0  0.1413891E+000  0.1249965E+03  0.7546771E-02  0.1235075E+00
         21   -1    0    0  503  502  0.00000000000E+00  0.00000000000E+00  0.10816717375E+02  0.10816717375E+02  0.00000000000E+00 0.  1.
         21   -1    0    0  502  503 -0.00000000000E+00 -0.00000000000E+00 -0.36111068367E+03  0.36111068367E+03  0.00000000000E+00 0.  1.
         25    2    1    2    0    0  0.00000000000E+00  0.00000000000E+00 -0.35029396630E+03  0.37192740105E+03  0.12499651525E+03 0.  0.
          4    1    3    3  501    0  0.46245196323E+02 -0.33337332542E+02 -0.25121945267E+03  0.25761135810E+03  0.15500000000E+01 0.  1.
         -4    1    3    3    0  501 -0.46245196323E+02  0.33337332542E+02 -0.99074513629E+02  0.11431604295E+03  0.15500000000E+01 0.  1.
<mgrwt>
<rscale>  2 0.12499652E+03</rscale>
<asrwt>0</asrwt>
<pdfrwt beam="1">  1       21 0.16641103E-02 0.12499652E+03</pdfrwt>
<pdfrwt beam="2">  1       21 0.55555492E-01 0.12499652E+03</pdfrwt>
<totfact> 0.49963047E+06</totfact>
</mgrwt>
</event>
<event>
 5    0  0.1419996E+000  0.1249999E+03  0.7546771E-02  0.1235069E+00
         21   -1    0    0  503  502  0.00000000000E+00  0.00000000000E+00  0.19054421391E+03  0.19054421391E+03  0.00000000000E+00 0. -1.
         21   -1    0    0  502  503 -0.00000000000E+00 -0.00000000000E+00 -0.20500463446E+02  0.20500463446E+02  0.00000000000E+00 0. -1.
         25    2    1    2    0    0  0.00000000000E+00  0.00000000000E+00  0.17004375047E+03  0.21104467736E+03  0.12499991508E+03 0.  0.
          4    1    3    3  501    0  0.33511354022E+02  0.27602940858E+02  0.91600901793E+01  0.44398681788E+02  0.15500000000E+01 0. -1.
         -4    1    3    3    0  501 -0.33511354022E+02 -0.27602940858E+02  0.16088366029E+03  0.16664599557E+03  0.15500000000E+01 0. -1.
<mgrwt>
<rscale>  2 0.12499992E+03</rscale>
<asrwt>0</asrwt>
<pdfrwt beam="1">  1       21 0.29314493E-01 0.12499992E+03</pdfrwt>
<pdfrwt beam="2">  1       21 0.31539176E-02 0.12499992E+03</pdfrwt>
<totfact> 0.63749929E+06</totfact>
</mgrwt>
</event>
<event>
 5    0  0.1593667E+000  0.1249962E+03  0.7546771E-02  0.1235075E+00
         21   -1    0    0  503  502  0.00000000000E+00  0.00000000000E+00  0.26750434122E+03  0.26750434122E+03  0.00000000000E+00 0.  1.
         21   -1    0    0  502  503 -0.00000000000E+00 -0.00000000000E+00 -0.14601675907E+02  0.14601675907E+02  0.00000000000E+00 0.  1.
         25    2    1    2    0    0  0.00000000000E+00  0.00000000000E+00  0.25290266531E+03  0.28210601713E+03  0.12499618705E+03 0.  0.
          4    1    3    3  501    0 -0.37613911398E+02 -0.18638268271E+01  0.13937082799E+02  0.40186128925E+02  0.15500000000E+01 0. -1.
         -4    1    3    3    0  501  0.37613911398E+02  0.18638268271E+01  0.23896558252E+03  0.24191988820E+03  0.15500000000E+01 0. -1.
<mgrwt>
<rscale>  2 0.12499619E+03</rscale>
<asrwt>0</asrwt>
<pdfrwt beam="1">  1       21 0.41154510E-01 0.12499619E+03</pdfrwt>
<pdfrwt beam="2">  1       21 0.22464119E-02 0.12499619E+03</pdfrwt>
<totfact> 0.56982276E+06</totfact>
</mgrwt>
</event>
<event>
 5    0  0.1222151E+000  0.1249962E+03  0.7546771E-02  0.1235075E+00
         21   -1    0    0  503  502  0.00000000000E+00  0.00000000000E+00  0.53509143998E+01  0.53509143998E+01  0.00000000000E+00 0.  1.
         21   -1    0    0  502  503 -0.00000000000E+00 -0.00000000000E+00 -0.72997046836E+03  0.72997046836E+03  0.00000000000E+00 0.  1.
         25    2    1    2    0    0  0.00000000000E+00  0.00000000000E+00 -0.72461955396E+03  0.73532138276E+03  0.12499615179E+03 0.  0.
          4    1    3    3  501    0  0.20908889977E+02 -0.41787410100E+02 -0.11831823089E+03  0.12722018544E+03  0.15500000000E+01 0.  1.
         -4    1    3    3    0  501 -0.20908889977E+02  0.41787410100E+02 -0.60630132307E+03  0.60810119732E+03  0.15500000000E+01 0.  1.
<mgrwt>
<rscale>  2 0.12499615E+03</rscale>
<asrwt>0</asrwt>
<pdfrwt beam="1">  1       21 0.82321693E-03 0.12499615E+03</pdfrwt>
<pdfrwt beam="2">  1       21 0.11230324E+00 0.12499615E+03</pdfrwt>
<totfact> 0.31594983E+06</totfact>
</mgrwt>
</event>
<event>
 5    0  0.1353654E+000  0.1249961E+03  0.7546771E-02  0.1235075E+00
         21   -1    0    0  503  502  0.00000000000E+00  0.00000000000E+00  0.72023162754E+01  0.72023162754E+01  0.00000000000E+00 0. -1.
         21   -1    0    0  502  503 -0.00000000000E+00 -0.00000000000E+00 -0.54232670222E+03  0.54232670222E+03  0.00000000000E+00 0. -1.
         25    2    1    2    0    0  0.00000000000E+00  0.00000000000E+00 -0.53512438594E+03  0.54952901849E+03  0.12499613488E+03 0.  0.
          4    1    3    3  501    0  0.64950261176E+01  0.55248790552E+02 -0.39260712160E+03  0.39653167421E+03  0.15500000000E+01 0.  1.
         -4    1    3    3    0  501 -0.64950261176E+01 -0.55248790552E+02 -0.14251726434E+03  0.15299734428E+03  0.15500000000E+01 0.  1.
<mgrwt>
<rscale>  2 0.12499613E+03</rscale>
<asrwt>0</asrwt>
<pdfrwt beam="1">  1       21 0.11080482E-02 0.12499613E+03</pdfrwt>
<pdfrwt beam="2">  1       21 0.83434915E-01 0.12499613E+03</pdfrwt>
<totfact> 0.39483140E+06</totfact>
</mgrwt>
</event>
<event>
 5    0  0.1427516E+000  0.1250037E+03  0.7546771E-02  0.1235063E+00
         21   -1    0    0  503  502  0.00000000000E+00  0.00000000000E+00  0.19003431048E+03  0.19003431048E+03  0.00000000000E+00 0. -1.
         21   -1    0    0  502  503 -0.00000000000E+00 -0.00000000000E+00 -0.20556722379E+02  0.20556722379E+02  0.00000000000E+00 0. -1.
         25    2    1    2    0    0  0.00000000000E+00  0.00000000000E+00  0.16947758810E+03  0.21059103286E+03  0.12500372095E+03 0.  0.
          4    1    3    3  501    0 -0.58776135420E+02 -0.55601697481E+01  0.50273619698E+02  0.77558938363E+02  0.15500000000E+01 0.  1.
         -4    1    3    3    0  501  0.58776135420E+02  0.55601697481E+01  0.11920396840E+03  0.13303209449E+03  0.15500000000E+01 0.  1.
<mgrwt>
<rscale>  2 0.12500372E+03</rscale>
<asrwt>0</asrwt>
<pdfrwt beam="1">  1       21 0.29236046E-01 0.12500372E+03</pdfrwt>
<pdfrwt beam="2">  1       21 0.31625728E-02 0.12500372E+03</pdfrwt>
<totfact> 0.63791403E+06</totfact>
</mgrwt>
</event>
<event>
 5    0  0.1422399E+000  0.1250116E+03  0.7546771E-02  0.1235051E+00
         21   -1    0    0  503  502  0.00000000000E+00  0.00000000000E+00  0.35262359365E+03  0.35262359365E+03  0.00000000000E+00 0.  1.
         21   -1    0    0  502  503 -0.00000000000E+00 -0.00000000000E+00 -0.11079740048E+02  0.11079740048E+02  0.00000000000E+00 0.  1.
         25    2    1    2    0    0  0.00000000000E+00  0.00000000000E+00  0.34154385360E+03  0.36370333369E+03  0.12501164349E+03 0.  0.
          4    1    3    3  501    0 -0.24375292641E+02  0.55677331127E+02  0.21297816112E+03  0.22148638718E+03  0.15500000000E+01 0.  1.
         -4    1    3    3    0  501  0.24375292641E+02 -0.55677331127E+02  0.12856569248E+03  0.14221694652E+03  0.15500000000E+01 0.  1.
<mgrwt>
<rscale>  2 0.12501164E+03</rscale>
<asrwt>0</asrwt>
<pdfrwt beam="1">  1       21 0.54249775E-01 0.12501164E+03</pdfrwt>
<pdfrwt beam="2">  1       21 0.17045757E-02 0.12501164E+03</pdfrwt>
<totfact> 0.50527327E+06</totfact>
</mgrwt>
</event>
<event>
 5    0  0.1222151E+000  0.1250009E+03  0.7546771E-02  0.1235068E+00
         21   -1    0    0  503  502  0.00000000000E+00  0.00000000000E+00  0.62992977427E+03  0.62992977427E+03  0.00000000000E+00 0. -1.
         21   -1    0    0  502  503 -0.00000000000E+00 -0.00000000000E+00 -0.62011731527E+01  0.62011731527E+01  0.00000000000E+00 0. -1.
         25    2    1    2    0    0  0.00000000000E+00  0.00000000000E+00  0.62372860111E+03  0.63613094742E+03  0.12500085767E+03 0.  0.
          4    1    3    3  501    0 -0.31404778912E+02  0.62704156361E+01  0.58488984664E+03  0.58576796895E+03  0.15500000000E+01 0. -1.
         -4    1    3    3    0  501  0.31404778912E+02 -0.62704156361E+01  0.38838754475E+02  0.50362978465E+02  0.15500000000E+01 0. -1.
<mgrwt>
<rscale>  2 0.12500086E+03</rscale>
<asrwt>0</asrwt>
<pdfrwt beam="1">  1       21 0.96912222E-01 0.12500086E+03</pdfrwt>
<pdfrwt beam="2">  1       21 0.95402714E-03 0.12500086E+03</pdfrwt>
<totfact> 0.35507255E+06</totfact>
</mgrwt>
</event>
<event>
 5    0  0.1391564E+000  0.1249890E+03  0.7546771E-02  0.1235087E+00
         21   -1    0    0  503  502  0.00000000000E+00  0.00000000000E+00  0.12242291015E+02  0.12242291015E+02  0.00000000000E+00 0.  1.
         21   -1    0    0  502  503 -0.00000000000E+00 -0.00000000000E+00 -0.31902195173E+03  0.31902195173E+03  0.00000000000E+00 0.  1.
         25    2    1    2    0    0  0.00000000000E+00  0.00000000000E+00 -0.30677966071E+03  0.33126424274E+03  0.12498895268E+03 0.  0.
          4    1    3    3  501    0  0.24735911802E+01 -0.34990172928E+02 -0.29040863293E+03  0.29252351604E+03  0.15500000000E+01 0. -1.
         -4    1    3    3    0  501 -0.24735911802E+01  0.34990172928E+02 -0.16371027780E+02  0.38740726703E+02  0.15500000000E+01 0. -1.
<mgrwt>
<rscale>  2 0.12498895E+03</rscale>
<asrwt>0</asrwt>
<pdfrwt beam="1">  1       21 0.18834294E-02 0.12498895E+03</pdfrwt>
<pdfrwt beam="2">  1       21 0.49080299E-01 0.12498895E+03</pdfrwt>
<totfact> 0.52967280E+06</totfact>
</mgrwt>
</event>
<event>
 5    0  0.1557205E+000  0.1250187E+03  0.7546771E-02  0.1235040E+00
         21   -1    0    0  503  502  0.00000000000E+00  0.00000000000E+00  0.92349930371E+02  0.92349930371E+02  0.00000000000E+00 0.  1.
         21   -1    0    0  502  503 -0.00000000000E+00 -0.00000000000E+00 -0.42311019846E+02  0.42311019846E+02  0.00000000000E+00 0.  1.
         25    2    1    2    0    0  0.00000000000E+00  0.00000000000E+00  0.50038910525E+02  0.13466095022E+03  0.12501871439E+03 0.  0.
          4    1    3    3  501    0  0.38312613092E+02  0.41616594111E+02  0.53623599491E+02  0.77959541749E+02  0.15500000000E+01 0. -1.
         -4    1    3    3    0  501 -0.38312613092E+02 -0.41616594111E+02 -0.35846889658E+01  0.56701408468E+02  0.15500000000E+01 0. -1.
<mgrwt>
<rscale>  2 0.12501871E+03</rscale>
<asrwt>0</asrwt>
<pdfrwt beam="1">  1       21 0.14207682E-01 0.12501871E+03</pdfrwt>
<pdfrwt beam="2">  1       21 0.65093877E-02 0.12501871E+03</pdfrwt>
<totfact> 0.72706684E+06</totfact>
</mgrwt>
</event>
<event>
 5    0  0.1222151E+000  0.1250016E+03  0.7546771E-02  0.1235067E+00
         21   -1    0    0  503  502  0.00000000000E+00  0.00000000000E+00  0.35285353746E+04  0.35285353746E+04  0.00000000000E+00 0. -1.
         21   -1    0    0  502  503 -0.00000000000E+00 -0.00000000000E+00 -0.11070737873E+01  0.11070737873E+01  0.00000000000E+00 0. -1.
         25    2    1    2    0    0  0.00000000000E+00  0.00000000000E+00  0.35274283008E+04  0.35296424484E+04  0.12500158432E+03 0.  0.
          4    1    3    3  501    0 -0.43837944436E+02  0.43960894877E+02  0.19626199214E+04  0.19636022214E+04  0.15500000000E+01 0. -1.
         -4    1    3    3    0  501  0.43837944436E+02 -0.43960894877E+02  0.15648083794E+04  0.15660402270E+04  0.15500000000E+01 0. -1.
<mgrwt>
<rscale>  2 0.12500158E+03</rscale>
<asrwt>0</asrwt>
<pdfrwt beam="1">  1       21 0.54284259E+00 0.12500158E+03</pdfrwt>
<pdfrwt beam="2">  1       21 0.17032187E-03 0.12500158E+03</pdfrwt>
<totfact> 0.59574659E+04</totfact>
</mgrwt>
</event>
<event>
 5    0  0.1622653E+000  0.1249997E+03  0.7546771E-02  0.1235070E+00
         21   -1    0    0  503  502  0.00000000000E+00  0.00000000000E+00  0.42886039870E+02  0.42886039870E+02  0.00000000000E+00 0.  1.
         21   -1    0    0  502  503 -0.00000000000E+00 -0.00000000000E+00 -0.91084027254E+02  0.91084027254E+02  0.00000000000E+00 0.  1.
         25    2    1    2    0    0  0.00000000000E+00  0.00000000000E+00 -0.48197987384E+02  0.13397006712E+03  0.12499973159E+03 0.  0.
          4    1    3    3  501    0  0.46245559531E+02 -0.41700364975E+02 -0.29591034118E+02  0.68960887578E+02  0.15500000000E+01 0. -1.
         -4    1    3    3    0  501 -0.46245559531E+02  0.41700364975E+02 -0.18606953266E+02  0.65009179546E+02  0.15500000000E+01 0. -1.
<mgrwt>
<rscale>  2 0.12499973E+03</rscale>
<asrwt>0</asrwt>
<pdfrwt beam="1">  1       21 0.65978523E-02 0.12499973E+03</pdfrwt>
<pdfrwt beam="2">  1       21 0.14012927E-01 0.12499973E+03</pdfrwt>
<totfact> 0.72833632E+06</totfact>
</mgrwt>
</event>
<event>
 5    0  0.1512354E+000  0.1250023E+03  0.7546771E-02  0.1235066E+00
         21   -1    0    0  503  502  0.00000000000E+00  0.00000000000E+00  0.22572793164E+02  0.22572793164E+02  0.00000000000E+00 0. -1.
         21   -1    0    0  502  503 -0.00000000000E+00 -0.00000000000E+00 -0.17305750791E+03  0.17305750791E+03  0.00000000000E+00 0. -1.
         25    2    1    2    0    0  0.00000000000E+00  0.00000000000E+00 -0.15048471475E+03  0.19563030107E+03  0.12500226128E+03 0.  0.
          4    1    3    3  501    0 -0.26940929553E+02  0.55115197996E+02 -0.93792237562E+02  0.11208427661E+03  0.15500000000E+01 0. -1.
         -4    1    3    3    0  501  0.26940929553E+02 -0.55115197996E+02 -0.56692477184E+02  0.83546024469E+02  0.15500000000E+01 0. -1.
<mgrwt>
<rscale>  2 0.12500226E+03</rscale>
<asrwt>0</asrwt>
<pdfrwt beam="1">  1       21 0.34727373E-02 0.12500226E+03</pdfrwt>
<pdfrwt beam="2">  1       21 0.26624233E-01 0.12500226E+03</pdfrwt>
<totfact> 0.65398357E+06</totfact>
</mgrwt>
</event>
<event>
 5    0  0.1519806E+000  0.1250007E+03  0.7546771E-02  0.1235068E+00
         21   -1    0    0  503  502  0.00000000000E+00  0.00000000000E+00  0.18004576719E+02  0.18004576719E+02  0.00000000000E+00 0. -1.
         21   -1    0    0  502  503 -0.00000000000E+00 -0.00000000000E+00 -0.21696112128E+03  0.21696112128E+03  0.00000000000E+00 0. -1.
         25    2    1    2    0    0  0.00000000000E+00  0.00000000000E+00 -0.19895654456E+03  0.23496569800E+03  0.12500069045E+03 0.  0.
          4    1    3    3  501    0 -0.20172572775E+02 -0.54885910204E+02 -0.58103404071E+02  0.82448795600E+02  0.15500000000E+01 0.  1.
         -4    1    3    3    0  501  0.20172572775E+02  0.54885910204E+02 -0.14085314049E+03  0.15251690240E+03  0.15500000000E+01 0.  1.
<mgrwt>
<rscale>  2 0.12500069E+03</rscale>
<asrwt>0</asrwt>
<pdfrwt beam="1">  1       21 0.27699348E-02 0.12500069E+03</pdfrwt>
<pdfrwt beam="2">  1       21 0.33378635E-01 0.12500069E+03</pdfrwt>
<totfact> 0.61322181E+06</totfact>
</mgrwt>
</event>
<event>
 5    0  0.1577732E+000  0.1250129E+03  0.7546771E-02  0.1235049E+00
         21   -1    0    0  503  502  0.00000000000E+00  0.00000000000E+00  0.74360495350E+02  0.74360495350E+02  0.00000000000E+00 0.  1.
         21   -1    0    0  502  503 -0.00000000000E+00 -0.00000000000E+00 -0.52542118843E+02  0.52542118843E+02  0.00000000000E+00 0.  1.
         25    2    1    2    0    0  0.00000000000E+00  0.00000000000E+00  0.21818376507E+02  0.12690261419E+03  0.12501292707E+03 0.  0.
          4    1    3    3  501    0 -0.50450960846E+02 -0.29221349249E+02 -0.11913290627E+02  0.59527436496E+02  0.15500000000E+01 0.  1.
         -4    1    3    3    0  501  0.50450960846E+02  0.29221349249E+02  0.33731667134E+02  0.67375177698E+02  0.15500000000E+01 0.  1.
<mgrwt>
<rscale>  2 0.12501293E+03</rscale>
<asrwt>0</asrwt>
<pdfrwt beam="1">  1       21 0.11440076E-01 0.12501293E+03</pdfrwt>
<pdfrwt beam="2">  1       21 0.80834029E-02 0.12501293E+03</pdfrwt>
<totfact> 0.73758059E+06</totfact>
</mgrwt>
</event>
<event>
 5    0  0.1501927E+000  0.1249999E+03  0.7546771E-02  0.1235069E+00
         21   -1    0    0  503  502  0.00000000000E+00  0.00000000000E+00  0.13222898775E+03  0.13222898775E+03  0.00000000000E+00 0. -1.
         21   -1    0    0  502  503 -0.00000000000E+00 -0.00000000000E+00 -0.29541509956E+02  0.29541509956E+02  0.00000000000E+00 0. -1.
         25    2    1    2    0    0  0.00000000000E+00  0.00000000000E+00  0.10268747779E+03  0.16177049770E+03  0.12499990333E+03 0.  0.
          4    1    3    3  501    0  0.55482453186E+02  0.12835360860E+02  0.18076086852E+02  0.59767855205E+02  0.15500000000E+01 0. -1.
         -4    1    3    3    0  501 -0.55482453186E+02 -0.12835360860E+02  0.84611390939E+02  0.10200264250E+03  0.15500000000E+01 0. -1.
<mgrwt>
<rscale>  2 0.12499990E+03</rscale>
<asrwt>0</asrwt>
<pdfrwt beam="1">  1       21 0.20342921E-01 0.12499990E+03</pdfrwt>
<pdfrwt beam="2">  1       21 0.45448478E-02 0.12499990E+03</pdfrwt>
<totfact> 0.69303975E+06</totfact>
</mgrwt>
</event>
<event>
 5    0  0.1514753E+000  0.1250015E+03  0.7546771E-02  0.1235067E+00
         21   -1    0    0  503  502  0.00000000000E+00  0.00000000000E+00  0.32117839791E+02  0.32117839791E+02  0.00000000000E+00 0. -1.
         21   -1    0    0  502  503 -0.00000000000E+00 -0.00000000000E+00 -0.12162542706E+03  0.12162542706E+03  0.00000000000E+00 0. -1.
         25    2    1    2    0    0  0.00000000000E+00  0.00000000000E+00 -0.89507587273E+02  0.15374326685E+03  0.12500153569E+03 0.  0.
          4    1    3    3  501    0 -0.49259860391E+02 -0.17467562938E+02 -0.86865128246E+02  0.10138837510E+03  0.15500000000E+01 0. -1.
         -4    1    3    3    0  501  0.49259860391E+02  0.17467562938E+02 -0.26424590273E+01  0.52354891752E+02  0.15500000000E+01 0. -1.
<mgrwt>
<rscale>  2 0.12500154E+03</rscale>
<asrwt>0</asrwt>
<pdfrwt beam="1">  1       21 0.49412060E-02 0.12500154E+03</pdfrwt>
<pdfrwt beam="2">  1       21 0.18711604E-01 0.12500154E+03</pdfrwt>
<totfact> 0.70289337E+06</totfact>
</mgrwt>
</event>
<event>
 5    0  0.1457514E+000  0.1249909E+03  0.7546771E-02  0.1235083E+00
         21   -1    0    0  503  502  0.00000000000E+00  0.00000000000E+00  0.34440691150E+02  0.34440691150E+02  0.00000000000E+00 0.  1.
         21   -1    0    0  502  503 -0.00000000000E+00 -0.00000000000E+00 -0.11340318155E+03  0.11340318155E+03  0.00000000000E+00 0.  1.
         25    2    1    2    0    0  0.00000000000E+00  0.00000000000E+00 -0.78962490399E+02  0.14784387270E+03  0.12499094289E+03 0.  0.
          4    1    3    3  501    0 -0.43215273265E+02 -0.39247252716E+02 -0.65807660272E+02  0.87982710459E+02  0.15500000000E+01 0.  1.
         -4    1    3    3    0  501  0.43215273265E+02  0.39247252716E+02 -0.13154830127E+02  0.59861162241E+02  0.15500000000E+01 0.  1.
<mgrwt>
<rscale>  2 0.12499094E+03</rscale>
<asrwt>0</asrwt>
<pdfrwt beam="1">  1       21 0.52985679E-02 0.12499094E+03</pdfrwt>
<pdfrwt beam="2">  1       21 0.17446643E-01 0.12499094E+03</pdfrwt>
<totfact> 0.71047494E+06</totfact>
</mgrwt>
</event>
<event>
 5    0  0.1397292E+000  0.1250011E+03  0.7546771E-02  0.1235068E+00
         21   -1    0    0  503  502  0.00000000000E+00  0.00000000000E+00  0.27198952703E+03  0.27198952703E+03  0.00000000000E+00 0.  1.
         21   -1    0    0  502  503 -0.00000000000E+00 -0.00000000000E+00 -0.14362025205E+02  0.14362025205E+02  0.00000000000E+00 0.  1.
         25    2    1    2    0    0  0.00000000000E+00  0.00000000000E+00  0.25762750182E+03  0.28635155223E+03  0.12500112708E+03 0.  0.
          4    1    3    3  501    0  0.23062722973E+02  0.16233058589E+02  0.10927817097E+01  0.28266553627E+02  0.15500000000E+01 0. -1.
         -4    1    3    3    0  501 -0.23062722973E+02 -0.16233058589E+02  0.25653472011E+03  0.25808499860E+03  0.15500000000E+01 0. -1.
<mgrwt>
<rscale>  2 0.12500113E+03</rscale>
<asrwt>0</asrwt>
<pdfrwt beam="1">  1       21 0.41844539E-01 0.12500113E+03</pdfrwt>
<pdfrwt beam="2">  1       21 0.22095425E-02 0.12500113E+03</pdfrwt>
<totfact> 0.56608233E+06</totfact>
</mgrwt>
</event>
<event>
 5    0  0.1478082E+000  0.1249975E+03  0.7546771E-02  0.1235073E+00
         21   -1    0    0  503  502  0.00000000000E+00  0.00000000000E+00  0.53536112363E+02  0.53536112363E+02  0.00000000000E+00 0.  1.
         21   -1    0    0  502  503 -0.00000000000E+00 -0.00000000000E+00 -0.72961905216E+02  0.72961905216E+02  0.00000000000E+00 0.  1.
         25    2    1    2    0    0  0.00000000000E+00  0.00000000000E+00 -0.19425792853E+02  0.12649801758E+03  0.12499754807E+03 0.  0.
          4    1    3    3  501    0  0.42586671668E+02 -0.22533675869E+01 -0.55922731717E+02  0.70345267729E+02  0.15500000000E+01 0. -1.
         -4    1    3    3    0  501 -0.42586671668E+02  0.22533675869E+01  0.36496938864E+02  0.56152749850E+02  0.15500000000E+01 0. -1.
<mgrwt>
<rscale>  2 0.12499755E+03</rscale>
<asrwt>0</asrwt>
<pdfrwt beam="1">  1       21 0.82363250E-02 0.12499755E+03</pdfrwt>
<pdfrwt beam="2">  1       21 0.11224908E-01 0.12499755E+03</pdfrwt>
<totfact> 0.73842265E+06</totfact>
</mgrwt>
</event>
<event>
 5    0  0.1370931E+000  0.1250000E+03  0.7546771E-02  0.1235069E+00
         21   -1    0    0  503  502  0.00000000000E+00  0.00000000000E+00  0.39110211181E+03  0.39110211181E+03  0.00000000000E+00 0.  1.
         21   -1    0    0  502  503 -0.00000000000E+00 -0.00000000000E+00 -0.99877939300E+01  0.99877939300E+01  0.00000000000E+00 0.  1.
         25    2    1    2    0    0  0.00000000000E+00  0.00000000000E+00  0.38111431788E+03  0.40108990574E+03  0.12499995677E+03 0.  0.
          4    1    3    3  501    0 -0.51979876790E+02  0.27948834302E+01  0.30143810336E+03  0.30590366396E+03  0.15500000000E+01 0.  1.
         -4    1    3    3    0  501  0.51979876790E+02 -0.27948834302E+01  0.79676214514E+02  0.95186241778E+02  0.15500000000E+01 0.  1.
<mgrwt>
<rscale>  2 0.12499996E+03</rscale>
<asrwt>0</asrwt>
<pdfrwt beam="1">  1       21 0.60169544E-01 0.12499996E+03</pdfrwt>
<pdfrwt beam="2">  1       21 0.15365840E-02 0.12499996E+03</pdfrwt>
<totfact> 0.47969199E+06</totfact>
</mgrwt>
</event>
<event>
 5    0  0.1436583E+000  0.1249902E+03  0.7546771E-02  0.1235085E+00
         21   -1    0    0  503  502  0.00000000000E+00  0.00000000000E+00  0.36381933952E+03  0.36381933952E+03  0.00000000000E+00 0. -1.
         21   -1    0    0  502  503 -0.00000000000E+00 -0.00000000000E+00 -0.10735103071E+02  0.10735103071E+02  0.00000000000E+00 0. -1.
         25    2    1    2    0    0  0.00000000000E+00  0.00000000000E+00  0.35308423645E+03  0.37455444259E+03  0.12499020936E+03 0.  0.
          4    1    3    3  501    0  0.40351483960E+02  0.31577174836E+02  0.69418999334E+02  0.86294612792E+02  0.15500000000E+01 0.  1.
         -4    1    3    3    0  501 -0.40351483960E+02 -0.31577174836E+02  0.28366523712E+03  0.28825982980E+03  0.15500000000E+01 0.  1.
<mgrwt>
<rscale>  2 0.12499021E+03</rscale>
<asrwt>0</asrwt>
<pdfrwt beam="1">  1       21 0.55972197E-01 0.12499021E+03</pdfrwt>
<pdfrwt beam="2">  1       21 0.16515546E-02 0.12499021E+03</pdfrwt>
<totfact> 0.49786785E+06</totfact>
</mgrwt>
</event>
<event>
 5    0  0.1252308E+000  0.1249988E+03  0.7546771E-02  0.1235071E+00
         21   -1    0    0  503  502  0.00000000000E+00  0.00000000000E+00  0.65761208894E+03  0.65761208894E+03  0.00000000000E+00 0.  1.
         21   -1    0    0  502  503 -0.00000000000E+00 -0.00000000000E+00 -0.59399424874E+01  0.59399424874E+01  0.00000000000E+00 0.  1.
         25    2    1    2    0    0  0.00000000000E+00  0.00000000000E+00  0.65167214646E+03  0.66355203143E+03  0.12499884779E+03 0.  0.
          4    1    3    3  501    0 -0.59307690958E+02  0.13720824155E+02  0.25111817361E+03  0.25839582590E+03  0.15500000000E+01 0.  1.
         -4    1    3    3    0  501  0.59307690958E+02 -0.13720824155E+02  0.40055397284E+03  0.40515620554E+03  0.15500000000E+01 0.  1.
<mgrwt>
<rscale>  2 0.12499885E+03</rscale>
<asrwt>0</asrwt>
<pdfrwt beam="1">  1       21 0.10117103E+00 0.12499885E+03</pdfrwt>
<pdfrwt beam="2">  1       21 0.91383783E-03 0.12499885E+03</pdfrwt>
<totfact> 0.34364159E+06</totfact>
</mgrwt>
</event>
<event>
 5    0  0.1277904E+000  0.1250045E+03  0.7546771E-02  0.1235062E+00
         21   -1    0    0  503  502  0.00000000000E+00  0.00000000000E+00  0.85745743878E+01  0.85745743878E+01  0.00000000000E+00 0.  1.
         21   -1    0    0  502  503 -0.00000000000E+00 -0.00000000000E+00 -0.45559448727E+03  0.45559448727E+03  0.00000000000E+00 0.  1.
         25    2    1    2    0    0  0.00000000000E+00  0.00000000000E+00 -0.44701991289E+03  0.46416906166E+03  0.12500446107E+03 0.  0.
          4    1    3    3  501    0 -0.26872215565E+02  0.44767242166E+02 -0.96069975896E+02  0.10935293644E+03  0.15500000000E+01 0.  1.
         -4    1    3    3    0  501  0.26872215565E+02 -0.44767242166E+02 -0.35094993699E+03  0.35481612522E+03  0.15500000000E+01 0.  1.
<mgrwt>
<rscale>  2 0.12500446E+03</rscale>
<asrwt>0</asrwt>
<pdfrwt beam="1">  1       21 0.13191653E-02 0.12500446E+03</pdfrwt>
<pdfrwt beam="2">  1       21 0.70091457E-01 0.12500446E+03</pdfrwt>
<totfact> 0.44051488E+06</totfact>
</mgrwt>
</event>
<event>
 5    0  0.1416341E+000  0.1250025E+03  0.7546771E-02  0.1235065E+00
         21   -1    0    0  503  502  0.00000000000E+00  0.00000000000E+00  0.12845686554E+03  0.12845686554E+03  0.00000000000E+00 0. -1.
         21   -1    0    0  502  503 -0.00000000000E+00 -0.00000000000E+00 -0.30410261992E+02  0.30410261992E+02  0.00000000000E+00 0. -1.
         25    2    1    2    0    0  0.00000000000E+00  0.00000000000E+00  0.98046603545E+02  0.15886712753E+03  0.12500251095E+03 0.  0.
          4    1    3    3  501    0  0.32281350315E+02 -0.33896356828E+02 -0.35770188333E+01  0.46970694568E+02  0.15500000000E+01 0. -1.
         -4    1    3    3    0  501 -0.32281350315E+02  0.33896356828E+02  0.10162362238E+03  0.11189643296E+03  0.15500000000E+01 0. -1.
<mgrwt>
<rscale>  2 0.12500251E+03</rscale>
<asrwt>0</asrwt>
<pdfrwt beam="1">  1       21 0.19762594E-01 0.12500251E+03</pdfrwt>
<pdfrwt beam="2">  1       21 0.46785019E-02 0.12500251E+03</pdfrwt>
<totfact> 0.69653739E+06</totfact>
</mgrwt>
</event>
<event>
 5    0  0.1530033E+000  0.1249993E+03  0.7546771E-02  0.1235070E+00
         21   -1    0    0  503  502  0.00000000000E+00  0.00000000000E+00  0.35189176285E+02  0.35189176285E+02  0.00000000000E+00 0. -1.
         21   -1    0    0  502  503 -0.00000000000E+00 -0.00000000000E+00 -0.11100596987E+03  0.11100596987E+03  0.00000000000E+00 0. -1.
         25    2    1    2    0    0  0.00000000000E+00  0.00000000000E+00 -0.75816793584E+02  0.14619514615E+03  0.12499933828E+03 0.  0.
          4    1    3    3  501    0 -0.12177822616E+02 -0.34322513413E+02  0.21469143824E+02  0.42304384255E+02  0.15500000000E+01 0. -1.
         -4    1    3    3    0  501  0.12177822616E+02  0.34322513413E+02 -0.97285937407E+02  0.10389076190E+03  0.15500000000E+01 0. -1.
<mgrwt>
<rscale>  2 0.12499934E+03</rscale>
<asrwt>0</asrwt>
<pdfrwt beam="1">  1       21 0.54137195E-02 0.12499934E+03</pdfrwt>
<pdfrwt beam="2">  1       21 0.17077841E-01 0.12499934E+03</pdfrwt>
<totfact> 0.71241699E+06</totfact>
</mgrwt>
</event>
<event>
 5    0  0.1488542E+000  0.1249525E+03  0.7546771E-02  0.1235144E+00
         21   -1    0    0  503  502  0.00000000000E+00  0.00000000000E+00  0.17467613357E+03  0.17467613357E+03  0.00000000000E+00 0.  1.
         21   -1    0    0  502  503 -0.00000000000E+00 -0.00000000000E+00 -0.22345810914E+02  0.22345810914E+02  0.00000000000E+00 0.  1.
         25    2    1    2    0    0  0.00000000000E+00  0.00000000000E+00  0.15233032266E+03  0.19702194448E+03  0.12495246859E+03 0.  0.
          4    1    3    3  501    0 -0.20641439491E+02 -0.52773696243E+02  0.11757601079E+03  0.13052836034E+03  0.15500000000E+01 0.  1.
         -4    1    3    3    0  501  0.20641439491E+02  0.52773696243E+02  0.34754311867E+02  0.66493584147E+02  0.15500000000E+01 0.  1.
<mgrwt>
<rscale>  2 0.12495247E+03</rscale>
<asrwt>0</asrwt>
<pdfrwt beam="1">  1       21 0.26873250E-01 0.12495247E+03</pdfrwt>
<pdfrwt beam="2">  1       21 0.34378172E-02 0.12495247E+03</pdfrwt>
<totfact> 0.65329011E+06</totfact>
</mgrwt>
</event>
<event>
 5    0  0.1222151E+000  0.1250017E+03  0.7546771E-02  0.1235067E+00
         21   -1    0    0  503  502  0.00000000000E+00  0.00000000000E+00  0.63818285705E+03  0.63818285705E+03  0.00000000000E+00 0.  1.
         21   -1    0    0  502  503 -0.00000000000E+00 -0.00000000000E+00 -0.61210659788E+01  0.61210659788E+01  0.00000000000E+00 0.  1.
         25    2    1    2    0    0  0.00000000000E+00  0.00000000000E+00  0.63206179108E+03  0.64430392303E+03  0.12500174998E+03 0.  0.
          4    1    3    3  501    0  0.43274360590E+02 -0.15718374414E+02  0.98310658447E+02  0.10856852971E+03  0.15500000000E+01 0. -1.
         -4    1    3    3    0  501 -0.43274360590E+02  0.15718374414E+02  0.53375113263E+03  0.53573539332E+03  0.15500000000E+01 0. -1.
<mgrwt>
<rscale>  2 0.12500175E+03</rscale>
<asrwt>0</asrwt>
<pdfrwt beam="1">  1       21 0.98181926E-01 0.12500175E+03</pdfrwt>
<pdfrwt beam="2">  1       21 0.94170296E-03 0.12500175E+03</pdfrwt>
<totfact> 0.35161030E+06</totfact>
</mgrwt>
</event>
<event>
 5    0  0.1518408E+000  0.1249984E+03  0.7546771E-02  0.1235072E+00
         21   -1    0    0  503  502  0.00000000000E+00  0.00000000000E+00  0.14999454382E+02  0.14999454382E+02  0.00000000000E+00 0.  1.
         21   -1    0    0  502  503 -0.00000000000E+00 -0.00000000000E+00 -0.26041944210E+03  0.26041944210E+03  0.00000000000E+00 0.  1.
         25    2    1    2    0    0  0.00000000000E+00  0.00000000000E+00 -0.24541998772E+03  0.27541889649E+03  0.12499839266E+03 0.  0.
          4    1    3    3  501    0 -0.39201931245E+02 -0.48484211157E+02 -0.11383146877E+03  0.12979798121E+03  0.15500000000E+01 0.  1.
         -4    1    3    3    0  501  0.39201931245E+02  0.48484211157E+02 -0.13158851895E+03  0.14562091527E+03  0.15500000000E+01 0.  1.
<mgrwt>
<rscale>  2 0.12499839E+03</rscale>
<asrwt>0</asrwt>
<pdfrwt beam="1">  1       21 0.23076088E-02 0.12499839E+03</pdfrwt>
<pdfrwt beam="2">  1       21 0.40064523E-01 0.12499839E+03</pdfrwt>
<totfact> 0.57565224E+06</totfact>
</mgrwt>
</event>
<event>
 5    0  0.1222151E+000  0.1250018E+03  0.7546771E-02  0.1235067E+00
         21   -1    0    0  503  502  0.00000000000E+00  0.00000000000E+00  0.14811504756E+04  0.14811504756E+04  0.00000000000E+00 0.  1.
         21   -1    0    0  502  503 -0.00000000000E+00 -0.00000000000E+00 -0.26373828721E+01  0.26373828721E+01  0.00000000000E+00 0.  1.
         25    2    1    2    0    0  0.00000000000E+00  0.00000000000E+00  0.14785130928E+04  0.14837878585E+04  0.12500177432E+03 0.  0.
          4    1    3    3  501    0  0.26371774333E+01 -0.23262206595E+02  0.51620836530E+02  0.56702717964E+02  0.15500000000E+01 0.  1.
         -4    1    3    3    0  501 -0.26371774333E+01  0.23262206595E+02  0.14268922562E+04  0.14270851405E+04  0.15500000000E+01 0.  1.
<mgrwt>
<rscale>  2 0.12500177E+03</rscale>
<asrwt>0</asrwt>
<pdfrwt beam="1">  1       21 0.22786864E+00 0.12500177E+03</pdfrwt>
<pdfrwt beam="2">  1       21 0.40575239E-03 0.12500177E+03</pdfrwt>
<totfact> 0.14234729E+06</totfact>
</mgrwt>
</event>
<event>
 5    0  0.1485355E+000  0.1250012E+03  0.7546771E-02  0.1235067E+00
         21   -1    0    0  503  502  0.00000000000E+00  0.00000000000E+00  0.14945302982E+02  0.14945302982E+02  0.00000000000E+00 0. -1.
         21   -1    0    0  502  503 -0.00000000000E+00 -0.00000000000E+00 -0.26137485119E+03  0.26137485119E+03  0.00000000000E+00 0. -1.
         25    2    1    2    0    0  0.00000000000E+00  0.00000000000E+00 -0.24642954821E+03  0.27632015417E+03  0.12500122148E+03 0.  0.
          4    1    3    3  501    0 -0.18558094098E+02 -0.43061699370E+02 -0.31932306275E+02  0.56751982284E+02  0.15500000000E+01 0.  1.
         -4    1    3    3    0  501  0.18558094098E+02  0.43061699370E+02 -0.21449724193E+03  0.21956817189E+03  0.15500000000E+01 0.  1.
<mgrwt>
<rscale>  2 0.12500122E+03</rscale>
<asrwt>0</asrwt>
<pdfrwt beam="1">  1       21 0.22992774E-02 0.12500122E+03</pdfrwt>
<pdfrwt beam="2">  1       21 0.40211515E-01 0.12500122E+03</pdfrwt>
<totfact> 0.57481554E+06</totfact>
</mgrwt>
</event>
<event>
 4    0  0.1427832E+000  0.1251159E+03  0.7546771E-02  0.1234888E+00
         21   -1    0    0  503  502  0.00000000000E+00  0.00000000000E+00  0.19177272181E+03  0.19177272181E+03  0.00000000000E+00 0.  1.
         21   -1    0    0  502  503 -0.00000000000E+00 -0.00000000000E+00 -0.20406941708E+02  0.20406941708E+02  0.00000000000E+00 0.  1.
          4    1    1    2  501    0 -0.33476693703E+02  0.17008838419E+02  0.17049485804E+03  0.17458776797E+03  0.15500000000E+01 0.  1.
         -4    1    1    2    0  501  0.33476693703E+02 -0.17008838419E+02  0.87092205903E+00  0.37591895548E+02  0.15500000000E+01 0.  1.
<mgrwt>
<rscale>  2 0.12511586E+03</rscale>
<asrwt>0</asrwt>
<pdfrwt beam="1">  1       21 0.29503494E-01 0.12511586E+03</pdfrwt>
<pdfrwt beam="2">  1       21 0.31395296E-02 0.12511586E+03</pdfrwt>
<totfact> 0.63444839E+06</totfact>
</mgrwt>
</event>
<event>
 5    0  0.1262767E+000  0.1250075E+03  0.7546771E-02  0.1235058E+00
         21   -1    0    0  503  502  0.00000000000E+00  0.00000000000E+00  0.46548416179E+03  0.46548416179E+03  0.00000000000E+00 0. -1.
         21   -1    0    0  502  503 -0.00000000000E+00 -0.00000000000E+00 -0.83928122642E+01  0.83928122642E+01  0.00000000000E+00 0. -1.
         25    2    1    2    0    0  0.00000000000E+00  0.00000000000E+00  0.45709134953E+03  0.47387697406E+03  0.12500753868E+03 0.  0.
          4    1    3    3  501    0 -0.36776688368E+02 -0.41072482885E+02  0.11706526718E+03  0.12940692770E+03  0.15500000000E+01 0. -1.
         -4    1    3    3    0  501  0.36776688368E+02  0.41072482885E+02  0.34002608235E+03  0.34447004636E+03  0.15500000000E+01 0. -1.
<mgrwt>
<rscale>  2 0.12500754E+03</rscale>
<asrwt>0</asrwt>
<pdfrwt beam="1">  1       21 0.71612928E-01 0.12500754E+03</pdfrwt>
<pdfrwt beam="2">  1       21 0.12912023E-02 0.12500754E+03</pdfrwt>
<totfact> 0.43488996E+06</totfact>
</mgrwt>
</event>
<event>
 5    0  0.1222151E+000  0.1250099E+03  0.7546771E-02  0.1235054E+00
         21   -1    0    0  503  502  0.00000000000E+00  0.00000000000E+00  0.38426879750E+01  0.38426879750E+01  0.00000000000E+00 0.  1.
         21   -1    0    0  502  503 -0.00000000000E+00 -0.00000000000E+00 -0.10167012553E+04  0.10167012553E+04  0.00000000000E+00 0.  1.
         25    2    1    2    0    0  0.00000000000E+00  0.00000000000E+00 -0.10128585674E+04  0.10205439433E+04  0.12500985062E+03 0.  0.
          4    1    3    3  501    0  0.39932008928E+02  0.47440186768E+02 -0.44354936828E+03  0.44786558392E+03  0.15500000000E+01 0.  1.
         -4    1    3    3    0  501 -0.39932008928E+02 -0.47440186768E+02 -0.56930919908E+03  0.57267835939E+03  0.15500000000E+01 0.  1.
<mgrwt>
<rscale>  2 0.12500985E+03</rscale>
<asrwt>0</asrwt>
<pdfrwt beam="1">  1       21 0.59118252E-03 0.12500985E+03</pdfrwt>
<pdfrwt beam="2">  1       21 0.15641564E+00 0.12500985E+03</pdfrwt>
<totfact> 0.23104420E+06</totfact>
</mgrwt>
</event>
<event>
 5    0  0.1515039E+000  0.1250175E+03  0.7546771E-02  0.1235042E+00
         21   -1    0    0  503  502  0.00000000000E+00  0.00000000000E+00  0.57061105113E+02  0.57061105113E+02  0.00000000000E+00 0. -1.
         21   -1    0    0  502  503 -0.00000000000E+00 -0.00000000000E+00 -0.68476434775E+02  0.68476434775E+02  0.00000000000E+00 0. -1.
         25    2    1    2    0    0  0.00000000000E+00  0.00000000000E+00 -0.11415329662E+02  0.12553753989E+03  0.12501745546E+03 0.  0.
          4    1    3    3  501    0  0.27331644260E+02 -0.12796819708E+02  0.49238899891E+02  0.57772390768E+02  0.15500000000E+01 0. -1.
         -4    1    3    3    0  501 -0.27331644260E+02  0.12796819708E+02 -0.60654229553E+02  0.67765149120E+02  0.15500000000E+01 0. -1.
<mgrwt>
<rscale>  2 0.12501746E+03</rscale>
<asrwt>0</asrwt>
<pdfrwt beam="1">  1       21 0.87786316E-02 0.12501746E+03</pdfrwt>
<pdfrwt beam="2">  1       21 0.10534836E-01 0.12501746E+03</pdfrwt>
<totfact> 0.73937245E+06</totfact>
</mgrwt>
</event>
<event>
 5    0  0.1613167E+000  0.1250153E+03  0.7546771E-02  0.1235045E+00
         21   -1    0    0  503  502  0.00000000000E+00  0.00000000000E+00  0.24894220419E+02  0.24894220419E+02  0.00000000000E+00 0. -1.
         21   -1    0    0  502  503 -0.00000000000E+00 -0.00000000000E+00 -0.15695240027E+03  0.15695240027E+03  0.00000000000E+00 0. -1.
         25    2    1    2    0    0  0.00000000000E+00  0.00000000000E+00 -0.13205817985E+03  0.18184662069E+03  0.12501532143E+03 0.  0.
          4    1    3    3  501    0 -0.36884325587E+02 -0.50142269128E+02 -0.58048080028E+02  0.85127449876E+02  0.15500000000E+01 0.  1.
         -4    1    3    3    0  501  0.36884325587E+02  0.50142269128E+02 -0.74010099826E+02  0.96719170817E+02  0.15500000000E+01 0.  1.
<mgrwt>
<rscale>  2 0.12501532E+03</rscale>
<asrwt>0</asrwt>
<pdfrwt beam="1">  1       21 0.38298800E-02 0.12501532E+03</pdfrwt>
<pdfrwt beam="2">  1       21 0.24146523E-01 0.12501532E+03</pdfrwt>
<totfact> 0.66914324E+06</totfact>
</mgrwt>
</event>
<event>
 5    0  0.1638209E+000  0.1249973E+03  0.7546771E-02  0.1235073E+00
         21   -1    0    0  503  502  0.00000000000E+00  0.00000000000E+00  0.10565239038E+03  0.10565239038E+03  0.00000000000E+00 0. -1.
         21   -1    0    0  502  503 -0.00000000000E+00 -0.00000000000E+00 -0.36971072044E+02  0.36971072044E+02  0.00000000000E+00 0. -1.
         25    2    1    2    0    0  0.00000000000E+00  0.00000000000E+00  0.68681318333E+02  0.14262346242E+03  0.12499731415E+03 0.  0.
          4    1    3    3  501    0 -0.32330876231E+02  0.53449628304E+02  0.32928699756E+02  0.70631792355E+02  0.15500000000E+01 0.  1.
         -4    1    3    3    0  501  0.32330876231E+02 -0.53449628304E+02  0.35752618576E+02  0.71991670065E+02  0.15500000000E+01 0.  1.
<mgrwt>
<rscale>  2 0.12499731E+03</rscale>
<asrwt>0</asrwt>
<pdfrwt beam="1">  1       21 0.16254214E-01 0.12499731E+03</pdfrwt>
<pdfrwt beam="2">  1       21 0.56878573E-02 0.12499731E+03</pdfrwt>
<totfact> 0.71703550E+06</totfact>
</mgrwt>
</event>
<event>
 5    0  0.1368568E+000  0.1249889E+03  0.7546771E-02  0.1235087E+00
         21   -1    0    0  503  502  0.00000000000E+00  0.00000000000E+00  0.11855532918E+02  0.11855532918E+02  0.00000000000E+00 0. -1.
         21   -1    0    0  502  503 -0.00000000000E+00 -0.00000000000E+00 -0.32942881669E+03  0.32942881669E+03  0.00000000000E+00 0. -1.
         25    2    1    2    0    0  0.00000000000E+00  0.00000000000E+00 -0.31757328377E+03  0.34128434961E+03  0.12498886639E+03 0.  0.
          4    1    3    3  501    0  0.22697971026E+02 -0.42752516196E+02 -0.50933733367E+02  0.70282453176E+02  0.15500000000E+01 0. -1.
         -4    1    3    3    0  501 -0.22697971026E+02  0.42752516196E+02 -0.26663955040E+03  0.27100189643E+03  0.15500000000E+01 0. -1.
<mgrwt>
<rscale>  2 0.12498887E+03</rscale>
<asrwt>0</asrwt>
<pdfrwt beam="1">  1       21 0.18239281E-02 0.12498887E+03</pdfrwt>
<pdfrwt beam="2">  1       21 0.50681358E-01 0.12498887E+03</pdfrwt>
<totfact> 0.52203183E+06</totfact>
</mgrwt>
</event>
<event>
 5    0  0.1578230E+000  0.1249852E+03  0.7546771E-02  0.1235092E+00
         21   -1    0    0  503  502  0.00000000000E+00  0.00000000000E+00  0.61588170039E+02  0.61588170039E+02  0.00000000000E+00 0.  1.
         21   -1    0    0  502  503 -0.00000000000E+00 -0.00000000000E+00 -0.63410351237E+02  0.63410351237E+02  0.00000000000E+00 0.  1.
         25    2    1    2    0    0  0.00000000000E+00  0.00000000000E+00 -0.18221811979E+01  0.12499852128E+03  0.12498523904E+03 0.  0.
          4    1    3    3  501    0  0.17551749868E+02  0.58600859567E+02  0.11770963936E+02  0.62314386441E+02  0.15500000000E+01 0.  1.
         -4    1    3    3    0  501 -0.17551749868E+02 -0.58600859567E+02 -0.13593145133E+02  0.62684134836E+02  0.15500000000E+01 0.  1.
<mgrwt>
<rscale>  2 0.12498524E+03</rscale>
<asrwt>0</asrwt>
<pdfrwt beam="1">  1       21 0.94751031E-02 0.12498524E+03</pdfrwt>
<pdfrwt beam="2">  1       21 0.97554386E-02 0.12498524E+03</pdfrwt>
<totfact> 0.74071732E+06</totfact>
</mgrwt>
</event>
<event>
 5    0  0.1312093E+000  0.1249989E+03  0.7546771E-02  0.1235071E+00
         21   -1    0    0  503  502  0.00000000000E+00  0.00000000000E+00  0.85654253673E+01  0.85654253673E+01  0.00000000000E+00 0.  1.
         21   -1    0    0  502  503 -0.00000000000E+00 -0.00000000000E+00 -0.45604067843E+03  0.45604067843E+03  0.00000000000E+00 0.  1.
         25    2    1    2    0    0  0.00000000000E+00  0.00000000000E+00 -0.44747525306E+03  0.46460610379E+03  0.12499891832E+03 0.  0.
          4    1    3    3  501    0 -0.44667064589E+02 -0.10695727651E+02 -0.66296468482E+02  0.80667028470E+02  0.15500000000E+01 0. -1.
         -4    1    3    3    0  501  0.44667064589E+02  0.10695727651E+02 -0.38117878458E+03  0.38393907532E+03  0.15500000000E+01 0. -1.
<mgrwt>
<rscale>  2 0.12499892E+03</rscale>
<asrwt>0</asrwt>
<pdfrwt beam="1">  1       21 0.13177571E-02 0.12499892E+03</pdfrwt>
<pdfrwt beam="2">  1       21 0.70160138E-01 0.12499892E+03</pdfrwt>
<totfact> 0.44032153E+06</totfact>
</mgrwt>
</event>
<event>
 5    0  0.1247404E+000  0.1250000E+03  0.7546771E-02  0.1235069E+00
         21   -1    0    0  503  502  0.00000000000E+00  0.00000000000E+00  0.40343447640E+03  0.40343447640E+03  0.00000000000E+00 0. -1.
         21   -1    0    0  502  503 -0.00000000000E+00 -0.00000000000E+00 -0.96824850895E+01  0.96824850895E+01  0.00000000000E+00 0. -1.
         25    2    1    2    0    0  0.00000000000E+00  0.00000000000E+00  0.39375199131E+03  0.41311696149E+03  0.12499997284E+03 0.  0.
          4    1    3    3  501    0  0.20270761000E+02 -0.40093156612E+00  0.39219693515E+03  0.39272369796E+03  0.15500000000E+01 0. -1.
         -4    1    3    3    0  501 -0.20270761000E+02  0.40093156612E+00  0.15550561570E+01  0.20393263527E+02  0.15500000000E+01 0. -1.
<mgrwt>
<rscale>  2 0.12499997E+03</rscale>
<asrwt>0</asrwt>
<pdfrwt beam="1">  1       21 0.62066830E-01 0.12499997E+03</pdfrwt>
<pdfrwt beam="2">  1       21 0.14896134E-02 0.12499997E+03</pdfrwt>
<totfact> 0.47183353E+06</totfact>
</mgrwt>
</event>
<event>
 5    0  0.1244031E+000  0.1250053E+03  0.7546771E-02  0.1235061E+00
         21   -1    0    0  503  502  0.00000000000E+00  0.00000000000E+00  0.63356641849E+03  0.63356641849E+03  0.00000000000E+00 0.  1.
         21   -1    0    0  502  503 -0.00000000000E+00 -0.00000000000E+00 -0.61660203123E+01  0.61660203123E+01  0.00000000000E+00 0.  1.
         25    2    1    2    0    0  0.00000000000E+00  0.00000000000E+00  0.62740039818E+03  0.63973243881E+03  0.12500533438E+03 0.  0.
          4    1    3    3  501    0  0.41476856554E+02 -0.46563718225E+02  0.33395947959E+03  0.33973496434E+03  0.15500000000E+01 0. -1.
         -4    1    3    3    0  501 -0.41476856554E+02  0.46563718225E+02  0.29344091859E+03  0.29999747447E+03  0.15500000000E+01 0. -1.
<mgrwt>
<rscale>  2 0.12500533E+03</rscale>
<asrwt>0</asrwt>
<pdfrwt beam="1">  1       21 0.97471705E-01 0.12500533E+03</pdfrwt>
<pdfrwt beam="2">  1       21 0.94861901E-03 0.12500533E+03</pdfrwt>
<totfact> 0.35350526E+06</totfact>
</mgrwt>
</event>
<event>
 5    0  0.1440713E+000  0.1250023E+03  0.7546771E-02  0.1235066E+00
         21   -1    0    0  503  502  0.00000000000E+00  0.00000000000E+00  0.13190737852E+02  0.13190737852E+02  0.00000000000E+00 0.  1.
         21   -1    0    0  502  503 -0.00000000000E+00 -0.00000000000E+00 -0.29614665838E+03  0.29614665838E+03  0.00000000000E+00 0.  1.
         25    2    1    2    0    0  0.00000000000E+00  0.00000000000E+00 -0.28295592053E+03  0.30933739624E+03  0.12500228696E+03 0.  0.
          4    1    3    3  501    0 -0.42273237850E+02 -0.46007567259E+02 -0.14275798796E+03  0.15583956016E+03  0.15500000000E+01 0. -1.
         -4    1    3    3    0  501  0.42273237850E+02  0.46007567259E+02 -0.14019793257E+03  0.15349783607E+03  0.15500000000E+01 0. -1.
<mgrwt>
<rscale>  2 0.12500229E+03</rscale>
<asrwt>0</asrwt>
<pdfrwt beam="1">  1       21 0.20293446E-02 0.12500229E+03</pdfrwt>
<pdfrwt beam="2">  1       21 0.45561017E-01 0.12500229E+03</pdfrwt>
<totfact> 0.54685880E+06</totfact>
</mgrwt>
</event>
<event>
 5    0  0.1516907E+000  0.1249990E+03  0.7546771E-02  0.1235071E+00
         21   -1    0    0  503  502  0.00000000000E+00  0.00000000000E+00  0.77006622108E+02  0.77006622108E+02  0.00000000000E+00 0. -1.
         21   -1    0    0  502  503 -0.00000000000E+00 -0.00000000000E+00 -0.50725324105E+02  0.50725324105E+02  0.00000000000E+00 0. -1.
         25    2    1    2    0    0  0.00000000000E+00  0.00000000000E+00  0.26281298003E+02  0.12773194621E+03  0.12499897383E+03 0.  0.
          4    1    3    3  501    0 -0.20346875206E+02 -0.48977231804E+02  0.46893401794E+02  0.70810720923E+02  0.15500000000E+01 0. -1.
         -4    1    3    3    0  501  0.20346875206E+02  0.48977231804E+02 -0.20612103791E+02  0.56921225290E+02  0.15500000000E+01 0. -1.
<mgrwt>
<rscale>  2 0.12499897E+03</rscale>
<asrwt>0</asrwt>
<pdfrwt beam="1">  1       21 0.11847173E-01 0.12499897E+03</pdfrwt>
<pdfrwt beam="2">  1       21 0.78038961E-02 0.12499897E+03</pdfrwt>
<totfact> 0.73671732E+06</totfact>
</mgrwt>
</event>
<event>
 5    0  0.1440728E+000  0.1249909E+03  0.7546771E-02  0.1235084E+00
         21   -1    0    0  503  502  0.00000000000E+00  0.00000000000E+00  0.10084158965E+03  0.10084158965E+03  0.00000000000E+00 0. -1.
         21   -1    0    0  502  503 -0.00000000000E+00 -0.00000000000E+00 -0.38730830542E+02  0.38730830542E+02  0.00000000000E+00 0. -1.
         25    2    1    2    0    0  0.00000000000E+00  0.00000000000E+00  0.62110759106E+02  0.13957242019E+03  0.12499085599E+03 0.  0.
          4    1    3    3  501    0  0.62276153781E+02  0.46706370615E+01  0.33034687611E+02  0.70667016818E+02  0.15500000000E+01 0. -1.
         -4    1    3    3    0  501 -0.62276153781E+02 -0.46706370615E+01  0.29076071494E+02  0.68905403372E+02  0.15500000000E+01 0. -1.
<mgrwt>
<rscale>  2 0.12499086E+03</rscale>
<asrwt>0</asrwt>
<pdfrwt beam="1">  1       21 0.15514091E-01 0.12499086E+03</pdfrwt>
<pdfrwt beam="2">  1       21 0.59585894E-02 0.12499086E+03</pdfrwt>
<totfact> 0.72111976E+06</totfact>
</mgrwt>
</event>
<event>
 5    0  0.1421626E+000  0.1250124E+03  0.7546771E-02  0.1235050E+00
         21   -1    0    0  503  502  0.00000000000E+00  0.00000000000E+00  0.16668951884E+02  0.16668951884E+02  0.00000000000E+00 0.  1.
         21   -1    0    0  502  503 -0.00000000000E+00 -0.00000000000E+00 -0.23438944220E+03  0.23438944220E+03  0.00000000000E+00 0.  1.
         25    2    1    2    0    0  0.00000000000E+00  0.00000000000E+00 -0.21772049031E+03  0.25105839408E+03  0.12501242073E+03 0.  0.
          4    1    3    3  501    0 -0.18525950972E+02  0.17922119125E+02  0.54560660874E+01  0.26392884845E+02  0.15500000000E+01 0.  1.
         -4    1    3    3    0  501  0.18525950972E+02 -0.17922119125E+02 -0.22317655640E+03  0.22466550923E+03  0.15500000000E+01 0.  1.
<mgrwt>
<rscale>  2 0.12501242E+03</rscale>
<asrwt>0</asrwt>
<pdfrwt beam="1">  1       21 0.25644542E-02 0.12501242E+03</pdfrwt>
<pdfrwt beam="2">  1       21 0.36059914E-01 0.12501242E+03</pdfrwt>
<totfact> 0.59759974E+06</totfact>
</mgrwt>
</event>
<event>
 5    0  0.1374258E+000  0.1250044E+03  0.7546771E-02  0.1235062E+00
         21   -1    0    0  503  502  0.00000000000E+00  0.00000000000E+00  0.13696198755E+02  0.13696198755E+02  0.00000000000E+00 0.  1.
         21   -1    0    0  502  503 -0.00000000000E+00 -0.00000000000E+00 -0.28522688213E+03  0.28522688213E+03  0.00000000000E+00 0.  1.
         25    2    1    2    0    0  0.00000000000E+00  0.00000000000E+00 -0.27153068338E+03  0.29892308089E+03  0.12500438501E+03 0.  0.
          4    1    3    3  501    0  0.33072152622E+02  0.19510785576E+02 -0.25363690871E+03  0.25653171733E+03  0.15500000000E+01 0. -1.
         -4    1    3    3    0  501 -0.33072152622E+02 -0.19510785576E+02 -0.17893774664E+02  0.42391363561E+02  0.15500000000E+01 0. -1.
<mgrwt>
<rscale>  2 0.12500439E+03</rscale>
<asrwt>0</asrwt>
<pdfrwt beam="1">  1       21 0.21071075E-02 0.12500439E+03</pdfrwt>
<pdfrwt beam="2">  1       21 0.43881060E-01 0.12500439E+03</pdfrwt>
<totfact> 0.55539668E+06</totfact>
</mgrwt>
</event>
<event>
 5    0  0.1597895E+000  0.1249945E+03  0.7546771E-02  0.1235078E+00
         21   -1    0    0  503  502  0.00000000000E+00  0.00000000000E+00  0.28850009036E+02  0.28850009036E+02  0.00000000000E+00 0.  1.
         21   -1    0    0  502  503 -0.00000000000E+00 -0.00000000000E+00 -0.13538675916E+03  0.13538675916E+03  0.00000000000E+00 0.  1.
         25    2    1    2    0    0  0.00000000000E+00  0.00000000000E+00 -0.10653675012E+03  0.16423676819E+03  0.12499454748E+03 0.  0.
          4    1    3    3  501    0 -0.13397255275E+02 -0.60967195326E+02 -0.56750066328E+02  0.84376880027E+02  0.15500000000E+01 0. -1.
         -4    1    3    3    0  501  0.13397255275E+02  0.60967195326E+02 -0.49786683796E+02  0.79859888168E+02  0.15500000000E+01 0. -1.
<mgrwt>
<rscale>  2 0.12499455E+03</rscale>
<asrwt>0</asrwt>
<pdfrwt beam="1">  1       21 0.44384629E-02 0.12499455E+03</pdfrwt>
<pdfrwt beam="2">  1       21 0.20828733E-01 0.12499455E+03</pdfrwt>
<totfact> 0.69015041E+06</totfact>
</mgrwt>
</event>
<event>
 5    0  0.1222151E+000  0.1249797E+03  0.7546771E-02  0.1235101E+00
         21   -1    0    0  503  502  0.00000000000E+00  0.00000000000E+00  0.58061447729E+01  0.58061447729E+01  0.00000000000E+00 0. -1.
         21   -1    0    0  502  503 -0.00000000000E+00 -0.00000000000E+00 -0.67256031117E+03  0.67256031117E+03  0.00000000000E+00 0. -1.
         25    2    1    2    0    0  0.00000000000E+00  0.00000000000E+00 -0.66675416639E+03  0.67836645594E+03  0.12497971892E+03 0.  0.
          4    1    3    3  501    0 -0.18314859029E+02  0.15042359675E+02 -0.19647964357E+02  0.30824529992E+02  0.15500000000E+01 0. -1.
         -4    1    3    3    0  501  0.18314859029E+02 -0.15042359675E+02 -0.64710620204E+03  0.64754192595E+03  0.15500000000E+01 0. -1.
<mgrwt>
<rscale>  2 0.12497972E+03</rscale>
<asrwt>0</asrwt>
<pdfrwt beam="1">  1       21 0.89325338E-03 0.12497972E+03</pdfrwt>
<pdfrwt beam="2">  1       21 0.10347078E+00 0.12497972E+03</pdfrwt>
<totfact> 0.33777988E+06</totfact>
</mgrwt>
</event>
<event>
 5    0  0.1443143E+000  0.1250057E+03  0.7546771E-02  0.1235060E+00
         21   -1    0    0  503  502  0.00000000000E+00  0.00000000000E+00  0.32593633868E+02  0.32593633868E+02  0.00000000000E+00 0.  1.
         21   -1    0    0  502  503 -0.00000000000E+00 -0.00000000000E+00 -0.11985786643E+03  0.11985786643E+03  0.00000000000E+00 0.  1.
         25    2    1    2    0    0  0.00000000000E+00  0.00000000000E+00 -0.87264232562E+02  0.15245150030E+03  0.12500565451E+03 0.  0.
          4    1    3    3  501    0 -0.42335011662E+02  0.17250418361E+02 -0.95579665653E+02  0.10596086604E+03  0.15500000000E+01 0.  1.
         -4    1    3    3    0  501  0.42335011662E+02 -0.17250418361E+02  0.83154330903E+01  0.46490634256E+02  0.15500000000E+01 0.  1.
<mgrwt>
<rscale>  2 0.12500565E+03</rscale>
<asrwt>0</asrwt>
<pdfrwt beam="1">  1       21 0.50144052E-02 0.12500565E+03</pdfrwt>
<pdfrwt beam="2">  1       21 0.18439672E-01 0.12500565E+03</pdfrwt>
<totfact> 0.70442452E+06</totfact>
</mgrwt>
</event>
<event>
 5    0  0.1344061E+000  0.1250034E+03  0.7546771E-02  0.1235064E+00
         21   -1    0    0  503  502  0.00000000000E+00  0.00000000000E+00  0.16941402728E+02  0.16941402728E+02  0.00000000000E+00 0. -1.
         21   -1    0    0  502  503 -0.00000000000E+00 -0.00000000000E+00 -0.23058662323E+03  0.23058662323E+03  0.00000000000E+00 0. -1.
         25    2    1    2    0    0  0.00000000000E+00  0.00000000000E+00 -0.21364522050E+03  0.24752802596E+03  0.12500337352E+03 0.  0.
          4    1    3    3  501    0 -0.16636615588E+02  0.23939733252E+02  0.26106370628E+01  0.29310505493E+02  0.15500000000E+01 0. -1.
         -4    1    3    3    0  501  0.16636615588E+02 -0.23939733252E+02 -0.21625585757E+03  0.21821752047E+03  0.15500000000E+01 0. -1.
<mgrwt>
<rscale>  2 0.12500337E+03</rscale>
<asrwt>0</asrwt>
<pdfrwt beam="1">  1       21 0.26063697E-02 0.12500337E+03</pdfrwt>
<pdfrwt beam="2">  1       21 0.35474865E-01 0.12500337E+03</pdfrwt>
<totfact> 0.60106593E+06</totfact>
</mgrwt>
</event>
<event>
 5    0  0.1494075E+000  0.1250021E+03  0.7546771E-02  0.1235066E+00
         21   -1    0    0  503  502  0.00000000000E+00  0.00000000000E+00  0.40195999323E+02  0.40195999323E+02  0.00000000000E+00 0. -1.
         21   -1    0    0  502  503 -0.00000000000E+00 -0.00000000000E+00 -0.97183268650E+02  0.97183268650E+02  0.00000000000E+00 0. -1.
         25    2    1    2    0    0  0.00000000000E+00  0.00000000000E+00 -0.56987269327E+02  0.13737926797E+03  0.12500205760E+03 0.  0.
          4    1    3    3  501    0  0.37273076545E+02 -0.10426788913E+02  0.25413925471E+02  0.46327856307E+02  0.15500000000E+01 0. -1.
         -4    1    3    3    0  501 -0.37273076545E+02  0.10426788913E+02 -0.82401194798E+02  0.91051411666E+02  0.15500000000E+01 0. -1.
<mgrwt>
<rscale>  2 0.12500206E+03</rscale>
<asrwt>0</asrwt>
<pdfrwt beam="1">  1       21 0.61839999E-02 0.12500206E+03</pdfrwt>
<pdfrwt beam="2">  1       21 0.14951272E-01 0.12500206E+03</pdfrwt>
<totfact> 0.72379149E+06</totfact>
</mgrwt>
</event>
<event>
 5    0  0.1393204E+000  0.1250006E+03  0.7546771E-02  0.1235068E+00
         21   -1    0    0  503  502  0.00000000000E+00  0.00000000000E+00  0.11592972956E+02  0.11592972956E+02  0.00000000000E+00 0.  1.
         21   -1    0    0  502  503 -0.00000000000E+00 -0.00000000000E+00 -0.33695285808E+03  0.33695285808E+03  0.00000000000E+00 0.  1.
         25    2    1    2    0    0  0.00000000000E+00  0.00000000000E+00 -0.32535988512E+03  0.34854583103E+03  0.12500056593E+03 0.  0.
          4    1    3    3  501    0 -0.51425509103E+02 -0.28721003775E+02 -0.22079581133E+03  0.22852280377E+03  0.15500000000E+01 0. -1.
         -4    1    3    3    0  501  0.51425509103E+02  0.28721003775E+02 -0.10456407380E+03  0.12002302726E+03  0.15500000000E+01 0. -1.
<mgrwt>
<rscale>  2 0.12500057E+03</rscale>
<asrwt>0</asrwt>
<pdfrwt beam="1">  1       21 0.17835342E-02 0.12500057E+03</pdfrwt>
<pdfrwt beam="2">  1       21 0.51838904E-01 0.12500057E+03</pdfrwt>
<totfact> 0.51645272E+06</totfact>
</mgrwt>
</event>
<event>
 5    0  0.1563123E+000  0.1250095E+03  0.7546771E-02  0.1235054E+00
         21   -1    0    0  503  502  0.00000000000E+00  0.00000000000E+00  0.54577393022E+02  0.54577393022E+02  0.00000000000E+00 0.  1.
         21   -1    0    0  502  503 -0.00000000000E+00 -0.00000000000E+00 -0.71583594039E+02  0.71583594039E+02  0.00000000000E+00 0.  1.
         25    2    1    2    0    0  0.00000000000E+00  0.00000000000E+00 -0.17006201017E+02  0.12616098706E+03  0.12500953477E+03 0.  0.
          4    1    3    3  501    0 -0.45008742305E+02 -0.42578229624E+02 -0.16686483359E+02  0.64183594077E+02  0.15500000000E+01 0.  1.
         -4    1    3    3    0  501  0.45008742305E+02  0.42578229624E+02 -0.31971765824E+00  0.61977392984E+02  0.15500000000E+01 0.  1.
<mgrwt>
<rscale>  2 0.12500953E+03</rscale>
<asrwt>0</asrwt>
<pdfrwt beam="1">  1       21 0.83965221E-02 0.12500953E+03</pdfrwt>
<pdfrwt beam="2">  1       21 0.11012861E-01 0.12500953E+03</pdfrwt>
<totfact> 0.73865901E+06</totfact>
</mgrwt>
</event>
<event>
 5    0  0.1681105E+000  0.1250200E+03  0.7546771E-02  0.1235038E+00
         21   -1    0    0  503  502  0.00000000000E+00  0.00000000000E+00  0.55164387898E+02  0.55164387898E+02  0.00000000000E+00 0.  1.
         21   -1    0    0  502  503 -0.00000000000E+00 -0.00000000000E+00 -0.70833783234E+02  0.70833783234E+02  0.00000000000E+00 0.  1.
         25    2    1    2    0    0  0.00000000000E+00  0.00000000000E+00 -0.15669395336E+02  0.12599817113E+03  0.12502003511E+03 0.  0.
          4    1    3    3  501    0  0.23457948165E+02 -0.57413937725E+02 -0.12868541958E+00  0.62040749811E+02  0.15500000000E+01 0. -1.
         -4    1    3    3    0  501 -0.23457948165E+02  0.57413937725E+02 -0.15540709916E+02  0.63957421320E+02  0.15500000000E+01 0. -1.
<mgrwt>
<rscale>  2 0.12502004E+03</rscale>
<asrwt>0</asrwt>
<pdfrwt beam="1">  1       21 0.84868289E-02 0.12502004E+03</pdfrwt>
<pdfrwt beam="2">  1       21 0.10897505E-01 0.12502004E+03</pdfrwt>
<totfact> 0.73868527E+06</totfact>
</mgrwt>
</event>
<event>
 4    0  0.1435054E+000  0.1253158E+03  0.7546771E-02  0.1234577E+00
         21   -1    0    0  503  502  0.00000000000E+00  0.00000000000E+00  0.13078321528E+02  0.13078321528E+02  0.00000000000E+00 0.  1.
         21   -1    0    0  502  503 -0.00000000000E+00 -0.00000000000E+00 -0.30019249244E+03  0.30019249244E+03  0.00000000000E+00 0.  1.
          4    1    1    2  501    0  0.20662223617E+01 -0.60025741570E+02 -0.99101021123E+02  0.11589121543E+03  0.15500000000E+01 0. -1.
         -4    1    1    2    0  501 -0.20662223617E+01  0.60025741570E+02 -0.18801314979E+03  0.19737959854E+03  0.15500000000E+01 0. -1.
<mgrwt>
<rscale>  2 0.12531582E+03</rscale>
<asrwt>0</asrwt>
<pdfrwt beam="1">  1       21 0.20120496E-02 0.12531582E+03</pdfrwt>
<pdfrwt beam="2">  1       21 0.46183457E-01 0.12531582E+03</pdfrwt>
<totfact> 0.53942113E+06</totfact>
</mgrwt>
</event>
<event>
 5    0  0.1405922E+000  0.1249997E+03  0.7546771E-02  0.1235070E+00
         21   -1    0    0  503  502  0.00000000000E+00  0.00000000000E+00  0.41401995951E+03  0.41401995951E+03  0.00000000000E+00 0.  1.
         21   -1    0    0  502  503 -0.00000000000E+00 -0.00000000000E+00 -0.94348838660E+01  0.94348838660E+01  0.00000000000E+00 0.  1.
         25    2    1    2    0    0  0.00000000000E+00  0.00000000000E+00  0.40458507564E+03  0.42345484337E+03  0.12499968378E+03 0.  0.
          4    1    3    3  501    0 -0.23881471259E+02  0.51553391468E+02  0.29035513810E+03  0.29586582357E+03  0.15500000000E+01 0.  1.
         -4    1    3    3    0  501  0.23881471259E+02 -0.51553391468E+02  0.11422993755E+03  0.12758901980E+03  0.15500000000E+01 0.  1.
<mgrwt>
<rscale>  2 0.12499968E+03</rscale>
<asrwt>0</asrwt>
<pdfrwt beam="1">  1       21 0.63695364E-01 0.12499968E+03</pdfrwt>
<pdfrwt beam="2">  1       21 0.14515209E-02 0.12499968E+03</pdfrwt>
<totfact> 0.46523930E+06</totfact>
</mgrwt>
</event>
<event>
 5    0  0.1255347E+000  0.1249992E+03  0.7546771E-02  0.1235071E+00
         21   -1    0    0  503  502  0.00000000000E+00  0.00000000000E+00  0.75024621846E+01  0.75024621846E+01  0.00000000000E+00 0. -1.
         21   -1    0    0  502  503 -0.00000000000E+00 -0.00000000000E+00 -0.52065560270E+03  0.52065560270E+03  0.00000000000E+00 0. -1.
         25    2    1    2    0    0  0.00000000000E+00  0.00000000000E+00 -0.51315314051E+03  0.52815806488E+03  0.12499918352E+03 0.  0.
          4    1    3    3  501    0  0.12186823943E+02  0.25493763587E+02 -0.21119506121E+02  0.35311282877E+02  0.15500000000E+01 0. -1.
         -4    1    3    3    0  501 -0.12186823943E+02 -0.25493763587E+02 -0.49203363439E+03  0.49284678200E+03  0.15500000000E+01 0. -1.
<mgrwt>
<rscale>  2 0.12499918E+03</rscale>
<asrwt>0</asrwt>
<pdfrwt beam="1">  1       21 0.11542250E-02 0.12499918E+03</pdfrwt>
<pdfrwt beam="2">  1       21 0.80100860E-01 0.12499918E+03</pdfrwt>
<totfact> 0.40557865E+06</totfact>
</mgrwt>
</event>
<event>
 5    0  0.1505614E+000  0.1250036E+03  0.7546771E-02  0.1235064E+00
         21   -1    0    0  503  502  0.00000000000E+00  0.00000000000E+00  0.76471351964E+02  0.76471351964E+02  0.00000000000E+00 0.  1.
         21   -1    0    0  502  503 -0.00000000000E+00 -0.00000000000E+00 -0.51084165520E+02  0.51084165520E+02  0.00000000000E+00 0.  1.
         25    2    1    2    0    0  0.00000000000E+00  0.00000000000E+00  0.25387186444E+02  0.12755551748E+03  0.12500360317E+03 0.  0.
          4    1    3    3  501    0  0.38824052847E+02  0.35346519991E+02  0.47258237060E+02  0.70657108807E+02  0.15500000000E+01 0. -1.
         -4    1    3    3    0  501 -0.38824052847E+02 -0.35346519991E+02 -0.21871050616E+02  0.56898408677E+02  0.15500000000E+01 0. -1.
<mgrwt>
<rscale>  2 0.12500360E+03</rscale>
<asrwt>0</asrwt>
<pdfrwt beam="1">  1       21 0.11764823E-01 0.12500360E+03</pdfrwt>
<pdfrwt beam="2">  1       21 0.78591023E-02 0.12500360E+03</pdfrwt>
<totfact> 0.73686915E+06</totfact>
</mgrwt>
</event>
<event>
 5    0  0.1222151E+000  0.1250032E+03  0.7546771E-02  0.1235064E+00
         21   -1    0    0  503  502  0.00000000000E+00  0.00000000000E+00  0.51505127206E+01  0.51505127206E+01  0.00000000000E+00 0.  1.
         21   -1    0    0  502  503 -0.00000000000E+00 -0.00000000000E+00 -0.75845829496E+03  0.75845829496E+03  0.00000000000E+00 0.  1.
         25    2    1    2    0    0  0.00000000000E+00  0.00000000000E+00 -0.75330778224E+03  0.76360880768E+03  0.12500318550E+03 0.  0.
          4    1    3    3  501    0  0.22572149739E+02  0.38159895909E+02 -0.10770618037E+03  0.11648477750E+03  0.15500000000E+01 0. -1.
         -4    1    3    3    0  501 -0.22572149739E+02 -0.38159895909E+02 -0.64560160187E+03  0.64712403018E+03  0.15500000000E+01 0. -1.
<mgrwt>
<rscale>  2 0.12500319E+03</rscale>
<asrwt>0</asrwt>
<pdfrwt beam="1">  1       21 0.79238653E-03 0.12500319E+03</pdfrwt>
<pdfrwt beam="2">  1       21 0.11668590E+00 0.12500319E+03</pdfrwt>
<totfact> 0.30593485E+06</totfact>
</mgrwt>
</event>
<event>
 5    0  0.1362040E+000  0.1250034E+03  0.7546771E-02  0.1235064E+00
         21   -1    0    0  503  502  0.00000000000E+00  0.00000000000E+00  0.11090129300E+02  0.11090129300E+02  0.00000000000E+00 0.  1.
         21   -1    0    0  502  503 -0.00000000000E+00 -0.00000000000E+00 -0.35224695785E+03  0.35224695785E+03  0.00000000000E+00 0.  1.
         25    2    1    2    0    0  0.00000000000E+00  0.00000000000E+00 -0.34115682855E+03  0.36333708715E+03  0.12500342888E+03 0.  0.
          4    1    3    3  501    0  0.58560803349E+02 -0.16706508834E+02 -0.12992870505E+03  0.14350033457E+03  0.15500000000E+01 0. -1.
         -4    1    3    3    0  501 -0.58560803349E+02  0.16706508834E+02 -0.21122812350E+03  0.21983675258E+03  0.15500000000E+01 0. -1.
<mgrwt>
<rscale>  2 0.12500343E+03</rscale>
<asrwt>0</asrwt>
<pdfrwt beam="1">  1       21 0.17061738E-02 0.12500343E+03</pdfrwt>
<pdfrwt beam="2">  1       21 0.54191838E-01 0.12500343E+03</pdfrwt>
<totfact> 0.50563943E+06</totfact>
</mgrwt>
</event>
<event>
 5    0  0.1222151E+000  0.1250110E+03  0.7546771E-02  0.1235052E+00
         21   -1    0    0  503  502  0.00000000000E+00  0.00000000000E+00  0.14354467206E+04  0.14354467206E+04  0.00000000000E+00 0. -1.
         21   -1    0    0  502  503 -0.00000000000E+00 -0.00000000000E+00 -0.27217577675E+01  0.27217577675E+01  0.00000000000E+00 0. -1.
         25    2    1    2    0    0  0.00000000000E+00  0.00000000000E+00  0.14327249629E+04  0.14381684784E+04  0.12501101170E+03 0.  0.
          4    1    3    3  501    0  0.16792291695E+02 -0.59283103809E+02  0.59676813110E+03  0.59994255747E+03  0.15500000000E+01 0.  1.
         -4    1    3    3    0  501 -0.16792291695E+02  0.59283103809E+02  0.83595683177E+03  0.83822592094E+03  0.15500000000E+01 0.  1.
<mgrwt>
<rscale>  2 0.12501101E+03</rscale>
<asrwt>0</asrwt>
<pdfrwt beam="1">  1       21 0.22083735E+00 0.12501101E+03</pdfrwt>
<pdfrwt beam="2">  1       21 0.41873311E-03 0.12501101E+03</pdfrwt>
<totfact> 0.14931066E+06</totfact>
</mgrwt>
</event>
<event>
 5    0  0.1408433E+000  0.1250087E+03  0.7546771E-02  0.1235056E+00
         21   -1    0    0  503  502  0.00000000000E+00  0.00000000000E+00  0.75626355209E+02  0.75626355209E+02  0.00000000000E+00 0.  1.
         21   -1    0    0  502  503 -0.00000000000E+00 -0.00000000000E+00 -0.51659184263E+02  0.51659184263E+02  0.00000000000E+00 0.  1.
         25    2    1    2    0    0  0.00000000000E+00  0.00000000000E+00  0.23967170945E+02  0.12728553947E+03  0.12500873280E+03 0.  0.
          4    1    3    3  501    0  0.29417848809E+02 -0.32297836801E+02 -0.33504833159E+02  0.55077549288E+02  0.15500000000E+01 0.  1.
         -4    1    3    3    0  501 -0.29417848809E+02  0.32297836801E+02  0.57472004105E+02  0.72207990184E+02  0.15500000000E+01 0.  1.
<mgrwt>
<rscale>  2 0.12500873E+03</rscale>
<asrwt>0</asrwt>
<pdfrwt beam="1">  1       21 0.11634824E-01 0.12500873E+03</pdfrwt>
<pdfrwt beam="2">  1       21 0.79475668E-02 0.12500873E+03</pdfrwt>
<totfact> 0.73713881E+06</totfact>
</mgrwt>
</event>
<event>
 5    0  0.1222151E+000  0.1250459E+03  0.7546771E-02  0.1234998E+00
         21   -1    0    0  503  502  0.00000000000E+00  0.00000000000E+00  0.55811149394E+01  0.55811149394E+01  0.00000000000E+00 0. -1.
         21   -1    0    0  502  503 -0.00000000000E+00 -0.00000000000E+00 -0.70041907543E+03  0.70041907543E+03  0.00000000000E+00 0. -1.
         25    2    1    2    0    0  0.00000000000E+00  0.00000000000E+00 -0.69483796049E+03  0.70600019037E+03  0.12504590142E+03 0.  0.
          4    1    3    3  501    0  0.47107708512E+01  0.22810441089E+02 -0.19944954441E+02  0.30703603898E+02  0.15500000000E+01 0. -1.
         -4    1    3    3    0  501 -0.47107708512E+01 -0.22810441089E+02 -0.67489300605E+03  0.67529658647E+03  0.15500000000E+01 0. -1.
<mgrwt>
<rscale>  2 0.12504590E+03</rscale>
<asrwt>0</asrwt>
<pdfrwt beam="1">  1       21 0.85863324E-03 0.12504590E+03</pdfrwt>
<pdfrwt beam="2">  1       21 0.10775676E+00 0.12504590E+03</pdfrwt>
<totfact> 0.32642941E+06</totfact>
</mgrwt>
</event>
<event>
 5    0  0.1222151E+000  0.1250308E+03  0.7546771E-02  0.1235021E+00
         21   -1    0    0  503  502  0.00000000000E+00  0.00000000000E+00  0.56172050556E+01  0.56172050556E+01  0.00000000000E+00 0. -1.
         21   -1    0    0  502  503 -0.00000000000E+00 -0.00000000000E+00 -0.69575100094E+03  0.69575100094E+03  0.00000000000E+00 0. -1.
         25    2    1    2    0    0  0.00000000000E+00  0.00000000000E+00 -0.69013379588E+03  0.70136820599E+03  0.12503081284E+03 0.  0.
          4    1    3    3  501    0  0.20372430216E+02  0.59068170266E+02 -0.35235693112E+03  0.35785736552E+03  0.15500000000E+01 0. -1.
         -4    1    3    3    0  501 -0.20372430216E+02 -0.59068170266E+02 -0.33777686476E+03  0.34351084047E+03  0.15500000000E+01 0. -1.
<mgrwt>
<rscale>  2 0.12503081E+03</rscale>
<asrwt>0</asrwt>
<pdfrwt beam="1">  1       21 0.86418475E-03 0.12503081E+03</pdfrwt>
<pdfrwt beam="2">  1       21 0.10703870E+00 0.12503081E+03</pdfrwt>
<totfact> 0.32832351E+06</totfact>
</mgrwt>
</event>
<event>
 5    0  0.1222151E+000  0.1250049E+03  0.7546771E-02  0.1235062E+00
         21   -1    0    0  503  502  0.00000000000E+00  0.00000000000E+00  0.84433750236E+03  0.84433750236E+03  0.00000000000E+00 0.  1.
         21   -1    0    0  502  503 -0.00000000000E+00 -0.00000000000E+00 -0.46267701356E+01  0.46267701356E+01  0.00000000000E+00 0.  1.
         25    2    1    2    0    0  0.00000000000E+00  0.00000000000E+00  0.83971073223E+03  0.84896427250E+03  0.12500488855E+03 0.  0.
          4    1    3    3  501    0 -0.88953741780E+01  0.39523586613E+02  0.96785689025E+02  0.10493385383E+03  0.15500000000E+01 0.  1.
         -4    1    3    3    0  501  0.88953741780E+01 -0.39523586613E+02  0.74292504320E+03  0.74403041866E+03  0.15500000000E+01 0.  1.
<mgrwt>
<rscale>  2 0.12500489E+03</rscale>
<asrwt>0</asrwt>
<pdfrwt beam="1">  1       21 0.12989795E+00 0.12500489E+03</pdfrwt>
<pdfrwt beam="2">  1       21 0.71181146E-03 0.12500489E+03</pdfrwt>
<totfact> 0.27800046E+06</totfact>
</mgrwt>
</event>
<event>
 5    0  0.1572611E+000  0.1250009E+03  0.7546771E-02  0.1235068E+00
         21   -1    0    0  503  502  0.00000000000E+00  0.00000000000E+00  0.11525551222E+03  0.11525551222E+03  0.00000000000E+00 0. -1.
         21   -1    0    0  502  503 -0.00000000000E+00 -0.00000000000E+00 -0.33892550042E+02  0.33892550042E+02  0.00000000000E+00 0. -1.
         25    2    1    2    0    0  0.00000000000E+00  0.00000000000E+00  0.81362962175E+02  0.14914806226E+03  0.12500085144E+03 0.  0.
          4    1    3    3  501    0  0.45373201587E+02 -0.35480616819E+02  0.11790368510E+02  0.58813407329E+02  0.15500000000E+01 0.  1.
         -4    1    3    3    0  501 -0.45373201587E+02  0.35480616819E+02  0.69572593664E+02  0.90334654930E+02  0.15500000000E+01 0.  1.
<mgrwt>
<rscale>  2 0.12500085E+03</rscale>
<asrwt>0</asrwt>
<pdfrwt beam="1">  1       21 0.17731617E-01 0.12500085E+03</pdfrwt>
<pdfrwt beam="2">  1       21 0.52142385E-02 0.12500085E+03</pdfrwt>
<totfact> 0.70864848E+06</totfact>
</mgrwt>
</event>
<event>
 5    0  0.1381659E+000  0.1250002E+03  0.7546771E-02  0.1235069E+00
         21   -1    0    0  503  502  0.00000000000E+00  0.00000000000E+00  0.30708107789E+03  0.30708107789E+03  0.00000000000E+00 0. -1.
         21   -1    0    0  502  503 -0.00000000000E+00 -0.00000000000E+00 -0.12720625731E+02  0.12720625731E+02  0.00000000000E+00 0. -1.
         25    2    1    2    0    0  0.00000000000E+00  0.00000000000E+00  0.29436045216E+03  0.31980170363E+03  0.12500021537E+03 0.  0.
          4    1    3    3  501    0  0.56583655855E+02  0.78230858669E+01  0.21195145664E+03  0.21951932319E+03  0.15500000000E+01 0. -1.
         -4    1    3    3    0  501 -0.56583655855E+02 -0.78230858669E+01  0.82408995526E+02  0.10028238044E+03  0.15500000000E+01 0. -1.
<mgrwt>
<rscale>  2 0.12500022E+03</rscale>
<asrwt>0</asrwt>
<pdfrwt beam="1">  1       21 0.47243237E-01 0.12500022E+03</pdfrwt>
<pdfrwt beam="2">  1       21 0.19570196E-02 0.12500022E+03</pdfrwt>
<totfact> 0.53848772E+06</totfact>
</mgrwt>
</event>
<event>
 5    0  0.1378584E+000  0.1249955E+03  0.7546771E-02  0.1235076E+00
         21   -1    0    0  503  502  0.00000000000E+00  0.00000000000E+00  0.16070904157E+03  0.16070904157E+03  0.00000000000E+00 0.  1.
         21   -1    0    0  502  503 -0.00000000000E+00 -0.00000000000E+00 -0.24304582821E+02  0.24304582821E+02  0.00000000000E+00 0.  1.
         25    2    1    2    0    0  0.00000000000E+00  0.00000000000E+00  0.13640445874E+03  0.18501362439E+03  0.12499545929E+03 0.  0.
          4    1    3    3  501    0  0.27803800722E+02 -0.62640174914E+01 -0.14093681651E+02  0.31832744339E+02  0.15500000000E+01 0. -1.
         -4    1    3    3    0  501 -0.27803800722E+02  0.62640174914E+01  0.15049814039E+03  0.15318088005E+03  0.15500000000E+01 0. -1.
<mgrwt>
<rscale>  2 0.12499546E+03</rscale>
<asrwt>0</asrwt>
<pdfrwt beam="1">  1       21 0.24724467E-01 0.12499546E+03</pdfrwt>
<pdfrwt beam="2">  1       21 0.37391667E-02 0.12499546E+03</pdfrwt>
<totfact> 0.66588657E+06</totfact>
</mgrwt>
</event>
<event>
 5    0  0.1500841E+000  0.1250047E+03  0.7546771E-02  0.1235062E+00
         21   -1    0    0  503  502  0.00000000000E+00  0.00000000000E+00  0.30796157862E+02  0.30796157862E+02  0.00000000000E+00 0.  1.
         21   -1    0    0  502  503 -0.00000000000E+00 -0.00000000000E+00 -0.12685166377E+03  0.12685166377E+03  0.00000000000E+00 0.  1.
         25    2    1    2    0    0  0.00000000000E+00  0.00000000000E+00 -0.96055505903E+02  0.15764782163E+03  0.12500470171E+03 0.  0.
          4    1    3    3  501    0 -0.57680992960E+02  0.24944770071E+01 -0.78158644108E+02  0.97182794327E+02  0.15500000000E+01 0. -1.
         -4    1    3    3    0  501  0.57680992960E+02 -0.24944770071E+01 -0.17896861795E+02  0.60465027301E+02  0.15500000000E+01 0. -1.
<mgrwt>
<rscale>  2 0.12500470E+03</rscale>
<asrwt>0</asrwt>
<pdfrwt beam="1">  1       21 0.47378703E-02 0.12500470E+03</pdfrwt>
<pdfrwt beam="2">  1       21 0.19515641E-01 0.12500470E+03</pdfrwt>
<totfact> 0.69799708E+06</totfact>
</mgrwt>
</event>
<event>
 5    0  0.1630435E+000  0.1250030E+03  0.7546771E-02  0.1235065E+00
         21   -1    0    0  503  502  0.00000000000E+00  0.00000000000E+00  0.42128675319E+02  0.42128675319E+02  0.00000000000E+00 0. -1.
         21   -1    0    0  502  503 -0.00000000000E+00 -0.00000000000E+00 -0.92726341008E+02  0.92726341008E+02  0.00000000000E+00 0. -1.
         25    2    1    2    0    0  0.00000000000E+00  0.00000000000E+00 -0.50597665689E+02  0.13485501633E+03  0.12500300658E+03 0.  0.
          4    1    3    3  501    0  0.49110610651E+02 -0.36258527410E+02 -0.39671882145E+02  0.72820283035E+02  0.15500000000E+01 0.  1.
         -4    1    3    3    0  501 -0.49110610651E+02  0.36258527410E+02 -0.10925783545E+02  0.62034733291E+02  0.15500000000E+01 0.  1.
<mgrwt>
<rscale>  2 0.12500301E+03</rscale>
<asrwt>0</asrwt>
<pdfrwt beam="1">  1       21 0.64813348E-02 0.12500301E+03</pdfrwt>
<pdfrwt beam="2">  1       21 0.14265591E-01 0.12500301E+03</pdfrwt>
<totfact> 0.72710098E+06</totfact>
</mgrwt>
</event>
<event>
 5    0  0.1568903E+000  0.1250032E+03  0.7546771E-02  0.1235064E+00
         21   -1    0    0  503  502  0.00000000000E+00  0.00000000000E+00  0.29515768611E+02  0.29515768611E+02  0.00000000000E+00 0.  1.
         21   -1    0    0  502  503 -0.00000000000E+00 -0.00000000000E+00 -0.13235128852E+03  0.13235128852E+03  0.00000000000E+00 0.  1.
         25    2    1    2    0    0  0.00000000000E+00  0.00000000000E+00 -0.10283551991E+03  0.16186705713E+03  0.12500320007E+03 0.  0.
          4    1    3    3  501    0 -0.10040828508E+02 -0.61249482745E+02 -0.60731178907E+02  0.86850422942E+02  0.15500000000E+01 0. -1.
         -4    1    3    3    0  501  0.10040828508E+02  0.61249482745E+02 -0.42104340998E+02  0.75016634185E+02  0.15500000000E+01 0. -1.
<mgrwt>
<rscale>  2 0.12500320E+03</rscale>
<asrwt>0</asrwt>
<pdfrwt beam="1">  1       21 0.45408875E-02 0.12500320E+03</pdfrwt>
<pdfrwt beam="2">  1       21 0.20361737E-01 0.12500320E+03</pdfrwt>
<totfact> 0.69286442E+06</totfact>
</mgrwt>
</event>
<event>
 5    0  0.1622694E+000  0.1249983E+03  0.7546771E-02  0.1235072E+00
         21   -1    0    0  503  502  0.00000000000E+00  0.00000000000E+00  0.37618285682E+02  0.37618285682E+02  0.00000000000E+00 0. -1.
         21   -1    0    0  502  503 -0.00000000000E+00 -0.00000000000E+00 -0.10383634559E+03  0.10383634559E+03  0.00000000000E+00 0. -1.
         25    2    1    2    0    0  0.00000000000E+00  0.00000000000E+00 -0.66218059910E+02  0.14145463127E+03  0.12499832499E+03 0.  0.
          4    1    3    3  501    0  0.53944835950E+02  0.31510038031E+02 -0.32087410424E+02  0.70249072806E+02  0.15500000000E+01 0.  1.
         -4    1    3    3    0  501 -0.53944835950E+02 -0.31510038031E+02 -0.34130649486E+02  0.71205558468E+02  0.15500000000E+01 0.  1.
<mgrwt>
<rscale>  2 0.12499832E+03</rscale>
<asrwt>0</asrwt>
<pdfrwt beam="1">  1       21 0.57874287E-02 0.12499832E+03</pdfrwt>
<pdfrwt beam="2">  1       21 0.15974822E-01 0.12499832E+03</pdfrwt>
<totfact> 0.71853040E+06</totfact>
</mgrwt>
</event>
<event>
 5    0  0.1244840E+000  0.1249960E+03  0.7546771E-02  0.1235076E+00
         21   -1    0    0  503  502  0.00000000000E+00  0.00000000000E+00  0.66839083011E+03  0.66839083011E+03  0.00000000000E+00 0. -1.
         21   -1    0    0  502  503 -0.00000000000E+00 -0.00000000000E+00 -0.58438837605E+01  0.58438837605E+01  0.00000000000E+00 0. -1.
         25    2    1    2    0    0  0.00000000000E+00  0.00000000000E+00  0.66254694635E+03  0.67423471387E+03  0.12499597302E+03 0.  0.
          4    1    3    3  501    0  0.47162557233E+02 -0.33300973811E+02  0.46009243005E+03  0.46370325463E+03  0.15500000000E+01 0. -1.
         -4    1    3    3    0  501 -0.47162557233E+02  0.33300973811E+02  0.20245451629E+03  0.21053145924E+03  0.15500000000E+01 0. -1.
<mgrwt>
<rscale>  2 0.12499597E+03</rscale>
<asrwt>0</asrwt>
<pdfrwt beam="1">  1       21 0.10282930E+00 0.12499597E+03</pdfrwt>
<pdfrwt beam="2">  1       21 0.89905957E-03 0.12499597E+03</pdfrwt>
<totfact> 0.33930745E+06</totfact>
</mgrwt>
</event>
<event>
 5    0  0.1572694E+000  0.1249999E+03  0.7546771E-02  0.1235069E+00
         21   -1    0    0  503  502  0.00000000000E+00  0.00000000000E+00  0.94021964295E+02  0.94021964295E+02  0.00000000000E+00 0.  1.
         21   -1    0    0  502  503 -0.00000000000E+00 -0.00000000000E+00 -0.41546069591E+02  0.41546069591E+02  0.00000000000E+00 0.  1.
         25    2    1    2    0    0  0.00000000000E+00  0.00000000000E+00  0.52475894703E+02  0.13556803389E+03  0.12499988915E+03 0.  0.
          4    1    3    3  501    0  0.72542103401E+01  0.54716084959E+02  0.57994332782E+02  0.80076330184E+02  0.15500000000E+01 0.  1.
         -4    1    3    3    0  501 -0.72542103401E+01 -0.54716084959E+02 -0.55184380786E+01  0.55491703702E+02  0.15500000000E+01 0.  1.
<mgrwt>
<rscale>  2 0.12499989E+03</rscale>
<asrwt>0</asrwt>
<pdfrwt beam="1">  1       21 0.14464918E-01 0.12499989E+03</pdfrwt>
<pdfrwt beam="2">  1       21 0.63917030E-02 0.12499989E+03</pdfrwt>
<totfact> 0.72621553E+06</totfact>
</mgrwt>
</event>
<event>
 5    0  0.1222151E+000  0.1249978E+03  0.7546771E-02  0.1235073E+00
         21   -1    0    0  503  502  0.00000000000E+00  0.00000000000E+00  0.90779348763E+02  0.90779348763E+02  0.00000000000E+00 0.  1.
         21   -1    0    0  502  503 -0.00000000000E+00 -0.00000000000E+00 -0.43028648848E+02  0.43028648848E+02  0.00000000000E+00 0.  1.
         25    2    1    2    0    0  0.00000000000E+00  0.00000000000E+00  0.47750699915E+02  0.13380799761E+03  0.12499780351E+03 0.  0.
          4    1    3    3  501    0 -0.14167604720E+02  0.18510553820E+02  0.85929646439E+02  0.89048684793E+02  0.15500000000E+01 0.  1.
         -4    1    3    3    0  501  0.14167604720E+02 -0.18510553820E+02 -0.38178946524E+02  0.44759312818E+02  0.15500000000E+01 0.  1.
<mgrwt>
<rscale>  2 0.12499780E+03</rscale>
<asrwt>0</asrwt>
<pdfrwt beam="1">  1       21 0.13966054E-01 0.12499780E+03</pdfrwt>
<pdfrwt beam="2">  1       21 0.66197921E-02 0.12499780E+03</pdfrwt>
<totfact> 0.72858774E+06</totfact>
</mgrwt>
</event>
<event>
 5    0  0.1570597E+000  0.1250021E+03  0.7546771E-02  0.1235066E+00
         21   -1    0    0  503  502  0.00000000000E+00  0.00000000000E+00  0.44873353634E+02  0.44873353634E+02  0.00000000000E+00 0. -1.
         21   -1    0    0  502  503 -0.00000000000E+00 -0.00000000000E+00 -0.87053484294E+02  0.87053484294E+02  0.00000000000E+00 0. -1.
         25    2    1    2    0    0  0.00000000000E+00  0.00000000000E+00 -0.42180130660E+02  0.13192683793E+03  0.12500210855E+03 0.  0.
          4    1    3    3  501    0 -0.25630147789E+02  0.56967342681E+02 -0.19675409072E+02  0.65511119896E+02  0.15500000000E+01 0.  1.
         -4    1    3    3    0  501  0.25630147789E+02 -0.56967342681E+02 -0.22504721588E+02  0.66415718031E+02  0.15500000000E+01 0.  1.
<mgrwt>
<rscale>  2 0.12500211E+03</rscale>
<asrwt>0</asrwt>
<pdfrwt beam="1">  1       21 0.69035928E-02 0.12500211E+03</pdfrwt>
<pdfrwt beam="2">  1       21 0.13392844E-01 0.12500211E+03</pdfrwt>
<totfact> 0.73102111E+06</totfact>
</mgrwt>
</event>
<event>
 5    0  0.1441157E+000  0.1249797E+03  0.7546771E-02  0.1235101E+00
         21   -1    0    0  503  502  0.00000000000E+00  0.00000000000E+00  0.30132935524E+03  0.30132935524E+03  0.00000000000E+00 0.  1.
         21   -1    0    0  502  503 -0.00000000000E+00 -0.00000000000E+00 -0.12959187832E+02  0.12959187832E+02  0.00000000000E+00 0.  1.
         25    2    1    2    0    0  0.00000000000E+00  0.00000000000E+00  0.28837016741E+03  0.31428854308E+03  0.12497973778E+03 0.  0.
          4    1    3    3  501    0 -0.41713171593E+02 -0.27097911870E+02  0.49146926827E+02  0.69943608919E+02  0.15500000000E+01 0.  1.
         -4    1    3    3    0  501  0.41713171593E+02  0.27097911870E+02  0.23922324059E+03  0.24434493416E+03  0.15500000000E+01 0.  1.
<mgrwt>
<rscale>  2 0.12497974E+03</rscale>
<asrwt>0</asrwt>
<pdfrwt beam="1">  1       21 0.46358357E-01 0.12497974E+03</pdfrwt>
<pdfrwt beam="2">  1       21 0.19937214E-02 0.12497974E+03</pdfrwt>
<totfact> 0.54316691E+06</totfact>
</mgrwt>
</event>
<event>
 5    0  0.1542293E+000  0.1250029E+03  0.7546771E-02  0.1235065E+00
         21   -1    0    0  503  502  0.00000000000E+00  0.00000000000E+00  0.86241838668E+02  0.86241838668E+02  0.00000000000E+00 0. -1.
         21   -1    0    0  502  503 -0.00000000000E+00 -0.00000000000E+00 -0.45296247200E+02  0.45296247200E+02  0.00000000000E+00 0. -1.
         25    2    1    2    0    0  0.00000000000E+00  0.00000000000E+00  0.40945591467E+02  0.13153808587E+03  0.12500290626E+03 0.  0.
          4    1    3    3  501    0 -0.27592315633E+02 -0.44937770346E+02 -0.14794922706E+02  0.54790795974E+02  0.15500000000E+01 0.  1.
         -4    1    3    3    0  501  0.27592315633E+02  0.44937770346E+02  0.55740514173E+02  0.76747289893E+02  0.15500000000E+01 0.  1.
<mgrwt>
<rscale>  2 0.12500291E+03</rscale>
<asrwt>0</asrwt>
<pdfrwt beam="1">  1       21 0.13267975E-01 0.12500291E+03</pdfrwt>
<pdfrwt beam="2">  1       21 0.69686534E-02 0.12500291E+03</pdfrwt>
<totfact> 0.73152828E+06</totfact>
</mgrwt>
</event>
<event>
 4    0  0.1433387E+000  0.1254131E+03  0.7546771E-02  0.1234425E+00
         21   -1    0    0  503  502  0.00000000000E+00  0.00000000000E+00  0.55905302209E+02  0.55905302209E+02  0.00000000000E+00 0. -1.
         21   -1    0    0  502  503 -0.00000000000E+00 -0.00000000000E+00 -0.70335249256E+02  0.70335249256E+02  0.00000000000E+00 0. -1.
          4    1    1    2  501    0 -0.21550935338E+02  0.50163301924E+00  0.52037777715E+02  0.56347380233E+02  0.15500000000E+01 0. -1.
         -4    1    1    2    0  501  0.21550935338E+02 -0.50163301924E+00 -0.66467724763E+02  0.69893171231E+02  0.15500000000E+01 0. -1.
<mgrwt>
<rscale>  2 0.12541313E+03</rscale>
<asrwt>0</asrwt>
<pdfrwt beam="1">  1       21 0.86008158E-02 0.12541313E+03</pdfrwt>
<pdfrwt beam="2">  1       21 0.10820808E-01 0.12541313E+03</pdfrwt>
<totfact> 0.73099565E+06</totfact>
</mgrwt>
</event>
<event>
 5    0  0.1404479E+000  0.1249980E+03  0.7546771E-02  0.1235072E+00
         21   -1    0    0  503  502  0.00000000000E+00  0.00000000000E+00  0.12178465419E+02  0.12178465419E+02  0.00000000000E+00 0.  1.
         21   -1    0    0  502  503 -0.00000000000E+00 -0.00000000000E+00 -0.32074054314E+03  0.32074054314E+03  0.00000000000E+00 0.  1.
         25    2    1    2    0    0  0.00000000000E+00  0.00000000000E+00 -0.30856207772E+03  0.33291900856E+03  0.12499804180E+03 0.  0.
          4    1    3    3  501    0  0.13018293015E+02  0.52676814194E+02 -0.71784489215E+02  0.89998544980E+02  0.15500000000E+01 0.  1.
         -4    1    3    3    0  501 -0.13018293015E+02 -0.52676814194E+02 -0.23677758851E+03  0.24292046358E+03  0.15500000000E+01 0.  1.
<mgrwt>
<rscale>  2 0.12499804E+03</rscale>
<asrwt>0</asrwt>
<pdfrwt beam="1">  1       21 0.18736102E-02 0.12499804E+03</pdfrwt>
<pdfrwt beam="2">  1       21 0.49344695E-01 0.12499804E+03</pdfrwt>
<totfact> 0.52827793E+06</totfact>
</mgrwt>
</event>
<event>
 5    0  0.1383924E+000  0.1250029E+03  0.7546771E-02  0.1235065E+00
         21   -1    0    0  503  502  0.00000000000E+00  0.00000000000E+00  0.98258810981E+01  0.98258810981E+01  0.00000000000E+00 0.  1.
         21   -1    0    0  502  503 -0.00000000000E+00 -0.00000000000E+00 -0.39756578919E+03  0.39756578919E+03  0.00000000000E+00 0.  1.
         25    2    1    2    0    0  0.00000000000E+00  0.00000000000E+00 -0.38773990809E+03  0.40739167028E+03  0.12500294674E+03 0.  0.
          4    1    3    3  501    0 -0.54798286839E+02  0.18305842710E+02 -0.11632936519E+03  0.12989564975E+03  0.15500000000E+01 0. -1.
         -4    1    3    3    0  501  0.54798286839E+02 -0.18305842710E+02 -0.27141054289E+03  0.27749602053E+03  0.15500000000E+01 0. -1.
<mgrwt>
<rscale>  2 0.12500295E+03</rscale>
<asrwt>0</asrwt>
<pdfrwt beam="1">  1       21 0.15116740E-02 0.12500295E+03</pdfrwt>
<pdfrwt beam="2">  1       21 0.61163969E-01 0.12500295E+03</pdfrwt>
<totfact> 0.47551401E+06</totfact>
</mgrwt>
</event>
<event>
 5    0  0.1496638E+000  0.1250053E+03  0.7546771E-02  0.1235061E+00
         21   -1    0    0  503  502  0.00000000000E+00  0.00000000000E+00  0.32534042921E+02  0.32534042921E+02  0.00000000000E+00 0.  1.
         21   -1    0    0  502  503 -0.00000000000E+00 -0.00000000000E+00 -0.12007669039E+03  0.12007669039E+03  0.00000000000E+00 0.  1.
         25    2    1    2    0    0  0.00000000000E+00  0.00000000000E+00 -0.87542647470E+02  0.15261073331E+03  0.12500528307E+03 0.  0.
          4    1    3    3  501    0 -0.40974384776E+01  0.47674471363E+02 -0.92825980187E+02  0.10444476684E+03  0.15500000000E+01 0.  1.
         -4    1    3    3    0  501  0.40974384776E+01 -0.47674471363E+02  0.52833327175E+01  0.48165966474E+02  0.15500000000E+01 0.  1.
<mgrwt>
<rscale>  2 0.12500528E+03</rscale>
<asrwt>0</asrwt>
<pdfrwt beam="1">  1       21 0.50052373E-02 0.12500528E+03</pdfrwt>
<pdfrwt beam="2">  1       21 0.18473337E-01 0.12500528E+03</pdfrwt>
<totfact> 0.70423297E+06</totfact>
</mgrwt>
</event>
<event>
 5    0  0.1598638E+000  0.1249973E+03  0.7546771E-02  0.1235073E+00
         21   -1    0    0  503  502  0.00000000000E+00  0.00000000000E+00  0.15005994018E+03  0.15005994018E+03  0.00000000000E+00 0. -1.
         21   -1    0    0  502  503 -0.00000000000E+00 -0.00000000000E+00 -0.26030151455E+02  0.26030151455E+02  0.00000000000E+00 0. -1.
         25    2    1    2    0    0  0.00000000000E+00  0.00000000000E+00  0.12402978873E+03  0.17609009164E+03  0.12499732750E+03 0.  0.
          4    1    3    3  501    0 -0.30079678192E+02 -0.21391619757E+02  0.13303175653E+03  0.13806606818E+03  0.15500000000E+01 0.  1.
         -4    1    3    3    0  501  0.30079678192E+02  0.21391619757E+02 -0.90019678024E+01  0.38024023462E+02  0.15500000000E+01 0.  1.
<mgrwt>
<rscale>  2 0.12499733E+03</rscale>
<asrwt>0</asrwt>
<pdfrwt beam="1">  1       21 0.23086144E-01 0.12499733E+03</pdfrwt>
<pdfrwt beam="2">  1       21 0.40046388E-02 0.12499733E+03</pdfrwt>
<totfact> 0.67607508E+06</totfact>
</mgrwt>
</event>
<event>
 5    0  0.1518212E+000  0.1249997E+03  0.7546771E-02  0.1235070E+00
         21   -1    0    0  503  502  0.00000000000E+00  0.00000000000E+00  0.18527303921E+02  0.18527303921E+02  0.00000000000E+00 0. -1.
         21   -1    0    0  502  503 -0.00000000000E+00 -0.00000000000E+00 -0.21083651792E+03  0.21083651792E+03  0.00000000000E+00 0. -1.
         25    2    1    2    0    0  0.00000000000E+00  0.00000000000E+00 -0.19230921399E+03  0.22936382184E+03  0.12499971592E+03 0.  0.
          4    1    3    3  501    0  0.55362367418E+02  0.79260357847E+01 -0.14726994319E+03  0.15753936790E+03  0.15500000000E+01 0. -1.
         -4    1    3    3    0  501 -0.55362367418E+02 -0.79260357847E+01 -0.45039270803E+02  0.71824453941E+02  0.15500000000E+01 0. -1.
<mgrwt>
<rscale>  2 0.12499972E+03</rscale>
<asrwt>0</asrwt>
<pdfrwt beam="1">  1       21 0.28503542E-02 0.12499972E+03</pdfrwt>
<pdfrwt beam="2">  1       21 0.32436390E-01 0.12499972E+03</pdfrwt>
<totfact> 0.61877789E+06</totfact>
</mgrwt>
</event>
<event>
 5    0  0.1222151E+000  0.1249999E+03  0.7546771E-02  0.1235069E+00
         21   -1    0    0  503  502  0.00000000000E+00  0.00000000000E+00  0.25243163235E+01  0.25243163235E+01  0.00000000000E+00 0.  1.
         21   -1    0    0  502  503 -0.00000000000E+00 -0.00000000000E+00 -0.15474473320E+04  0.15474473320E+04  0.00000000000E+00 0.  1.
         25    2    1    2    0    0  0.00000000000E+00  0.00000000000E+00 -0.15449230157E+04  0.15499716483E+04  0.12499994496E+03 0.  0.
          4    1    3    3  501    0 -0.13765661233E+02 -0.55357460066E+02 -0.45635171414E+03  0.45990567654E+03  0.15500000000E+01 0.  1.
         -4    1    3    3    0  501  0.13765661233E+02  0.55357460066E+02 -0.10885713015E+04  0.10900659718E+04  0.15500000000E+01 0.  1.
<mgrwt>
<rscale>  2 0.12499994E+03</rscale>
<asrwt>0</asrwt>
<pdfrwt beam="1">  1       21 0.38835547E-03 0.12499994E+03</pdfrwt>
<pdfrwt beam="2">  1       21 0.23806936E+00 0.12499994E+03</pdfrwt>
<totfact> 0.13267819E+06</totfact>
</mgrwt>
</event>
<event>
 5    0  0.1466874E+000  0.1250051E+03  0.7546771E-02  0.1235061E+00
         21   -1    0    0  503  502  0.00000000000E+00  0.00000000000E+00  0.22582116792E+02  0.22582116792E+02  0.00000000000E+00 0. -1.
         21   -1    0    0  502  503 -0.00000000000E+00 -0.00000000000E+00 -0.17299397565E+03  0.17299397565E+03  0.00000000000E+00 0. -1.
         25    2    1    2    0    0  0.00000000000E+00  0.00000000000E+00 -0.15041185886E+03  0.19557609244E+03  0.12500512249E+03 0.  0.
          4    1    3    3  501    0  0.53720501080E+02 -0.25059595584E+01 -0.12497703242E+03  0.13606554745E+03  0.15500000000E+01 0.  1.
         -4    1    3    3    0  501 -0.53720501080E+02  0.25059595584E+01 -0.25434826436E+02  0.59510544993E+02  0.15500000000E+01 0.  1.
<mgrwt>
<rscale>  2 0.12500512E+03</rscale>
<asrwt>0</asrwt>
<pdfrwt beam="1">  1       21 0.34741720E-02 0.12500512E+03</pdfrwt>
<pdfrwt beam="2">  1       21 0.26614456E-01 0.12500512E+03</pdfrwt>
<totfact> 0.65399541E+06</totfact>
</mgrwt>
</event>
<event>
 5    0  0.1279055E+000  0.1249941E+03  0.7546771E-02  0.1235079E+00
         21   -1    0    0  503  502  0.00000000000E+00  0.00000000000E+00  0.58516816296E+01  0.58516816296E+01  0.00000000000E+00 0. -1.
         21   -1    0    0  502  503 -0.00000000000E+00 -0.00000000000E+00 -0.66747976644E+03  0.66747976644E+03  0.00000000000E+00 0. -1.
         25    2    1    2    0    0  0.00000000000E+00  0.00000000000E+00 -0.66162808482E+03  0.67333144807E+03  0.12499406526E+03 0.  0.
          4    1    3    3  501    0  0.16207468686E+01 -0.61538926592E+02 -0.27334549058E+03  0.28019604927E+03  0.15500000000E+01 0. -1.
         -4    1    3    3    0  501 -0.16207468686E+01  0.61538926592E+02 -0.38828259424E+03  0.39313539881E+03  0.15500000000E+01 0. -1.
<mgrwt>
<rscale>  2 0.12499407E+03</rscale>
<asrwt>0</asrwt>
<pdfrwt beam="1">  1       21 0.90025907E-03 0.12499407E+03</pdfrwt>
<pdfrwt beam="2">  1       21 0.10268915E+00 0.12499407E+03</pdfrwt>
<totfact> 0.33968882E+06</totfact>
</mgrwt>
</event>
<event>
 5    0  0.1507662E+000  0.1250195E+03  0.7546771E-02  0.1235039E+00
         21   -1    0    0  503  502  0.00000000000E+00  0.00000000000E+00  0.43676745309E+02  0.43676745309E+02  0.00000000000E+00 0. -1.
         21   -1    0    0  502  503 -0.00000000000E+00 -0.00000000000E+00 -0.89463387101E+02  0.89463387101E+02  0.00000000000E+00 0. -1.
         25    2    1    2    0    0  0.00000000000E+00  0.00000000000E+00 -0.45786641793E+02  0.13314013241E+03  0.12501951164E+03 0.  0.
          4    1    3    3  501    0 -0.65592446234E+01 -0.19601595115E+02  0.39910315408E+02  0.44972013487E+02  0.15500000000E+01 0.  1.
         -4    1    3    3    0  501  0.65592446234E+01  0.19601595115E+02 -0.85696957201E+02  0.88168118924E+02  0.15500000000E+01 0.  1.
<mgrwt>
<rscale>  2 0.12501951E+03</rscale>
<asrwt>0</asrwt>
<pdfrwt beam="1">  1       21 0.67194994E-02 0.12501951E+03</pdfrwt>
<pdfrwt beam="2">  1       21 0.13763598E-01 0.12501951E+03</pdfrwt>
<totfact> 0.72907397E+06</totfact>
</mgrwt>
</event>
<event>
 5    0  0.1534584E+000  0.1250068E+03  0.7546771E-02  0.1235059E+00
         21   -1    0    0  503  502  0.00000000000E+00  0.00000000000E+00  0.67191207288E+02  0.67191207288E+02  0.00000000000E+00 0.  1.
         21   -1    0    0  502  503 -0.00000000000E+00 -0.00000000000E+00 -0.58142637442E+02  0.58142637442E+02  0.00000000000E+00 0.  1.
         25    2    1    2    0    0  0.00000000000E+00  0.00000000000E+00  0.90485698459E+01  0.12533384473E+03  0.12500678389E+03 0.  0.
          4    1    3    3  501    0  0.18681026655E+02 -0.59139869210E+02 -0.30960357892E+01  0.62116767662E+02  0.15500000000E+01 0. -1.
         -4    1    3    3    0  501 -0.18681026655E+02  0.59139869210E+02  0.12144605635E+02  0.63217077069E+02  0.15500000000E+01 0. -1.
<mgrwt>
<rscale>  2 0.12500678E+03</rscale>
<asrwt>0</asrwt>
<pdfrwt beam="1">  1       21 0.10337109E-01 0.12500678E+03</pdfrwt>
<pdfrwt beam="2">  1       21 0.89450211E-02 0.12500678E+03</pdfrwt>
<totfact> 0.73985671E+06</totfact>
</mgrwt>
</event>
<event>
 5    0  0.1222151E+000  0.1249969E+03  0.7546771E-02  0.1235074E+00
         21   -1    0    0  503  502  0.00000000000E+00  0.00000000000E+00  0.23516729435E+04  0.23516729435E+04  0.00000000000E+00 0. -1.
         21   -1    0    0  502  503 -0.00000000000E+00 -0.00000000000E+00 -0.16609702914E+01  0.16609702914E+01  0.00000000000E+00 0. -1.
         25    2    1    2    0    0  0.00000000000E+00  0.00000000000E+00  0.23500119732E+04  0.23533339138E+04  0.12499694227E+03 0.  0.
          4    1    3    3  501    0  0.87538119895E+01  0.55985909458E+02  0.16704869925E+04  0.16714485472E+04  0.15500000000E+01 0. -1.
         -4    1    3    3    0  501 -0.87538119895E+01 -0.55985909458E+02  0.67952498072E+03  0.68188536661E+03  0.15500000000E+01 0. -1.
<mgrwt>
<rscale>  2 0.12499694E+03</rscale>
<asrwt>0</asrwt>
<pdfrwt beam="1">  1       21 0.36179317E+00 0.12499694E+03</pdfrwt>
<pdfrwt beam="2">  1       21 0.25553577E-03 0.12499694E+03</pdfrwt>
<totfact> 0.49878229E+05</totfact>
</mgrwt>
</event>
<event>
 5    0  0.1341780E+000  0.1250103E+03  0.7546771E-02  0.1235053E+00
         21   -1    0    0  503  502  0.00000000000E+00  0.00000000000E+00  0.80201973474E+01  0.80201973474E+01  0.00000000000E+00 0. -1.
         21   -1    0    0  502  503 -0.00000000000E+00 -0.00000000000E+00 -0.48713214709E+03  0.48713214709E+03  0.00000000000E+00 0. -1.
         25    2    1    2    0    0  0.00000000000E+00  0.00000000000E+00 -0.47911194974E+03  0.49515234443E+03  0.12501033484E+03 0.  0.
          4    1    3    3  501    0 -0.18577084865E+02 -0.43903812525E+02 -0.39956032516E+03  0.40239720275E+03  0.15500000000E+01 0.  1.
         -4    1    3    3    0  501  0.18577084865E+02  0.43903812525E+02 -0.79551624580E+02  0.92755141688E+02  0.15500000000E+01 0.  1.
<mgrwt>
<rscale>  2 0.12501033E+03</rscale>
<asrwt>0</asrwt>
<pdfrwt beam="1">  1       21 0.12338767E-02 0.12501033E+03</pdfrwt>
<pdfrwt beam="2">  1       21 0.74943397E-01 0.12501033E+03</pdfrwt>
<totfact> 0.42297312E+06</totfact>
</mgrwt>
</event>
<event>
 5    0  0.1394677E+000  0.1249945E+03  0.7546771E-02  0.1235078E+00
         21   -1    0    0  503  502  0.00000000000E+00  0.00000000000E+00  0.35327692827E+03  0.35327692827E+03  0.00000000000E+00 0.  1.
         21   -1    0    0  502  503 -0.00000000000E+00 -0.00000000000E+00 -0.11056208320E+02  0.11056208320E+02  0.00000000000E+00 0.  1.
         25    2    1    2    0    0  0.00000000000E+00  0.00000000000E+00  0.34222071995E+03  0.36433313659E+03  0.12499445290E+03 0.  0.
          4    1    3    3  501    0  0.12797021379E+02  0.34816324686E+02  0.24569505161E+02  0.44519695694E+02  0.15500000000E+01 0.  1.
         -4    1    3    3    0  501 -0.12797021379E+02 -0.34816324686E+02  0.31765121479E+03  0.31981344090E+03  0.15500000000E+01 0.  1.
<mgrwt>
<rscale>  2 0.12499445E+03</rscale>
<asrwt>0</asrwt>
<pdfrwt beam="1">  1       21 0.54350288E-01 0.12499445E+03</pdfrwt>
<pdfrwt beam="2">  1       21 0.17009554E-02 0.12499445E+03</pdfrwt>
<totfact> 0.50504015E+06</totfact>
</mgrwt>
</event>
<event>
 5    0  0.1222151E+000  0.1250028E+03  0.7546771E-02  0.1235065E+00
         21   -1    0    0  503  502  0.00000000000E+00  0.00000000000E+00  0.65536347110E+01  0.65536347110E+01  0.00000000000E+00 0.  1.
         21   -1    0    0  502  503 -0.00000000000E+00 -0.00000000000E+00 -0.59607016824E+03  0.59607016824E+03  0.00000000000E+00 0.  1.
         25    2    1    2    0    0  0.00000000000E+00  0.00000000000E+00 -0.58951653353E+03  0.60262380296E+03  0.12500281828E+03 0.  0.
          4    1    3    3  501    0  0.96561264498E+01  0.20002095603E+02 -0.13213034994E+02  0.25890372734E+02  0.15500000000E+01 0.  1.
         -4    1    3    3    0  501 -0.96561264498E+01 -0.20002095603E+02 -0.57630349854E+03  0.57673343022E+03  0.15500000000E+01 0.  1.
<mgrwt>
<rscale>  2 0.12500282E+03</rscale>
<asrwt>0</asrwt>
<pdfrwt beam="1">  1       21 0.10082517E-02 0.12500282E+03</pdfrwt>
<pdfrwt beam="2">  1       21 0.91703088E-01 0.12500282E+03</pdfrwt>
<totfact> 0.36971657E+06</totfact>
</mgrwt>
</event>
<event>
 5    0  0.1614773E+000  0.1249959E+03  0.7546771E-02  0.1235076E+00
         21   -1    0    0  503  502  0.00000000000E+00  0.00000000000E+00  0.31044894017E+02  0.31044894017E+02  0.00000000000E+00 0. -1.
         21   -1    0    0  502  503 -0.00000000000E+00 -0.00000000000E+00 -0.12581755699E+03  0.12581755699E+03  0.00000000000E+00 0. -1.
         25    2    1    2    0    0  0.00000000000E+00  0.00000000000E+00 -0.94772662977E+02  0.15686245101E+03  0.12499588349E+03 0.  0.
          4    1    3    3  501    0  0.52255325200E+02  0.23654700306E+02 -0.78468012911E+02  0.97210058165E+02  0.15500000000E+01 0.  1.
         -4    1    3    3    0  501 -0.52255325200E+02 -0.23654700306E+02 -0.16304650066E+02  0.59652392845E+02  0.15500000000E+01 0.  1.
<mgrwt>
<rscale>  2 0.12499588E+03</rscale>
<asrwt>0</asrwt>
<pdfrwt beam="1">  1       21 0.47761375E-02 0.12499588E+03</pdfrwt>
<pdfrwt beam="2">  1       21 0.19356547E-01 0.12499588E+03</pdfrwt>
<totfact> 0.69912235E+06</totfact>
</mgrwt>
</event>
<event>
 5    0  0.1600621E+000  0.1250032E+03  0.7546771E-02  0.1235064E+00
         21   -1    0    0  503  502  0.00000000000E+00  0.00000000000E+00  0.13128120574E+03  0.13128120574E+03  0.00000000000E+00 0. -1.
         21   -1    0    0  502  503 -0.00000000000E+00 -0.00000000000E+00 -0.29756343420E+02  0.29756343420E+02  0.00000000000E+00 0. -1.
         25    2    1    2    0    0  0.00000000000E+00  0.00000000000E+00  0.10152486232E+03  0.16103754916E+03  0.12500317824E+03 0.  0.
          4    1    3    3  501    0 -0.56924265269E+02 -0.12105228329E+02  0.80058487388E+02  0.98988243909E+02  0.15500000000E+01 0.  1.
         -4    1    3    3    0  501  0.56924265269E+02  0.12105228329E+02  0.21466374932E+02  0.62049305250E+02  0.15500000000E+01 0.  1.
<mgrwt>
<rscale>  2 0.12500318E+03</rscale>
<asrwt>0</asrwt>
<pdfrwt beam="1">  1       21 0.20197108E-01 0.12500318E+03</pdfrwt>
<pdfrwt beam="2">  1       21 0.45778991E-02 0.12500318E+03</pdfrwt>
<totfact> 0.69387334E+06</totfact>
</mgrwt>
</event>
<event>
 5    0  0.1446179E+000  0.1250023E+03  0.7546771E-02  0.1235066E+00
         21   -1    0    0  503  502  0.00000000000E+00  0.00000000000E+00  0.14134413279E+02  0.14134413279E+02  0.00000000000E+00 0. -1.
         21   -1    0    0  502  503 -0.00000000000E+00 -0.00000000000E+00 -0.27637482018E+03  0.27637482018E+03  0.00000000000E+00 0. -1.
         25    2    1    2    0    0  0.00000000000E+00  0.00000000000E+00 -0.26224040691E+03  0.29050923346E+03  0.12500233483E+03 0.  0.
          4    1    3    3  501    0 -0.34730822102E+02 -0.49101017429E+02 -0.91758679819E+02  0.10972327802E+03  0.15500000000E+01 0. -1.
         -4    1    3    3    0  501  0.34730822102E+02  0.49101017429E+02 -0.17048172709E+03  0.18078595545E+03  0.15500000000E+01 0. -1.
<mgrwt>
<rscale>  2 0.12500233E+03</rscale>
<asrwt>0</asrwt>
<pdfrwt beam="1">  1       21 0.21745252E-02 0.12500233E+03</pdfrwt>
<pdfrwt beam="2">  1       21 0.42519202E-01 0.12500233E+03</pdfrwt>
<totfact> 0.56250931E+06</totfact>
</mgrwt>
</event>
<event>
 5    0  0.1412463E+000  0.1249906E+03  0.7546771E-02  0.1235084E+00
         21   -1    0    0  503  502  0.00000000000E+00  0.00000000000E+00  0.10240913320E+02  0.10240913320E+02  0.00000000000E+00 0.  1.
         21   -1    0    0  502  503 -0.00000000000E+00 -0.00000000000E+00 -0.38137854027E+03  0.38137854027E+03  0.00000000000E+00 0.  1.
         25    2    1    2    0    0  0.00000000000E+00  0.00000000000E+00 -0.37113762695E+03  0.39161945359E+03  0.12499063282E+03 0.  0.
          4    1    3    3  501    0  0.58069998480E+02  0.19863248171E+02 -0.14895084801E+03  0.16110689301E+03  0.15500000000E+01 0.  1.
         -4    1    3    3    0  501 -0.58069998480E+02 -0.19863248171E+02 -0.22218677894E+03  0.23051256059E+03  0.15500000000E+01 0.  1.
<mgrwt>
<rscale>  2 0.12499063E+03</rscale>
<asrwt>0</asrwt>
<pdfrwt beam="1">  1       21 0.15755250E-02 0.12499063E+03</pdfrwt>
<pdfrwt beam="2">  1       21 0.58673627E-01 0.12499063E+03</pdfrwt>
<totfact> 0.48613618E+06</totfact>
</mgrwt>
</event>
<event>
 5    0  0.1269199E+000  0.1249851E+03  0.7546771E-02  0.1235093E+00
         21   -1    0    0  503  502  0.00000000000E+00  0.00000000000E+00  0.67939194496E+03  0.67939194496E+03  0.00000000000E+00 0. -1.
         21   -1    0    0  502  503 -0.00000000000E+00 -0.00000000000E+00 -0.57482574870E+01  0.57482574870E+01  0.00000000000E+00 0. -1.
         25    2    1    2    0    0  0.00000000000E+00  0.00000000000E+00  0.67364368747E+03  0.68514020245E+03  0.12498511646E+03 0.  0.
          4    1    3    3  501    0 -0.45014540063E+02 -0.43266875594E+02  0.32508266085E+03  0.33102789947E+03  0.15500000000E+01 0. -1.
         -4    1    3    3    0  501  0.45014540063E+02  0.43266875594E+02  0.34856102663E+03  0.35411230298E+03  0.15500000000E+01 0. -1.
<mgrwt>
<rscale>  2 0.12498512E+03</rscale>
<asrwt>0</asrwt>
<pdfrwt beam="1">  1       21 0.10452177E+00 0.12498512E+03</pdfrwt>
<pdfrwt beam="2">  1       21 0.88434785E-03 0.12498512E+03</pdfrwt>
<totfact> 0.33503330E+06</totfact>
</mgrwt>
</event>
<event>
 5    0  0.1332417E+000  0.1250069E+03  0.7546771E-02  0.1235059E+00
         21   -1    0    0  503  502  0.00000000000E+00  0.00000000000E+00  0.37330608820E+03  0.37330608820E+03  0.00000000000E+00 0. -1.
         21   -1    0    0  502  503 -0.00000000000E+00 -0.00000000000E+00 -0.10465083045E+02  0.10465083045E+02  0.00000000000E+00 0. -1.
         25    2    1    2    0    0  0.00000000000E+00  0.00000000000E+00  0.36284100516E+03  0.38377117125E+03  0.12500686724E+03 0.  0.
          4    1    3    3  501    0 -0.29169125594E+02 -0.33462819537E+02  0.31641952206E+03  0.31952200960E+03  0.15500000000E+01 0.  1.
         -4    1    3    3    0  501  0.29169125594E+02  0.33462819537E+02  0.46421483097E+02  0.64249161646E+02  0.15500000000E+01 0.  1.
<mgrwt>
<rscale>  2 0.12500687E+03</rscale>
<asrwt>0</asrwt>
<pdfrwt beam="1">  1       21 0.57431696E-01 0.12500687E+03</pdfrwt>
<pdfrwt beam="2">  1       21 0.16100131E-02 0.12500687E+03</pdfrwt>
<totfact> 0.49128319E+06</totfact>
</mgrwt>
</event>
<event>
 5    0  0.1485736E+000  0.1249982E+03  0.7546771E-02  0.1235072E+00
         21   -1    0    0  503  502  0.00000000000E+00  0.00000000000E+00  0.12741348154E+02  0.12741348154E+02  0.00000000000E+00 0.  1.
         21   -1    0    0  502  503 -0.00000000000E+00 -0.00000000000E+00 -0.30657189827E+03  0.30657189827E+03  0.00000000000E+00 0.  1.
         25    2    1    2    0    0  0.00000000000E+00  0.00000000000E+00 -0.29383055011E+03  0.31931324642E+03  0.12499822863E+03 0.  0.
          4    1    3    3  501    0  0.48105494117E+02 -0.39529926464E+02 -0.13364562972E+03  0.14744595787E+03  0.15500000000E+01 0. -1.
         -4    1    3    3    0  501 -0.48105494117E+02  0.39529926464E+02 -0.16018492040E+03  0.17186728855E+03  0.15500000000E+01 0. -1.
<mgrwt>
<rscale>  2 0.12499823E+03</rscale>
<asrwt>0</asrwt>
<pdfrwt beam="1">  1       21 0.19602075E-02 0.12499823E+03</pdfrwt>
<pdfrwt beam="2">  1       21 0.47164905E-01 0.12499823E+03</pdfrwt>
<totfact> 0.53890205E+06</totfact>
</mgrwt>
</event>
<event>
 5    0  0.1222151E+000  0.1250288E+03  0.7546771E-02  0.1235024E+00
         21   -1    0    0  503  502  0.00000000000E+00  0.00000000000E+00  0.63594824477E+03  0.63594824477E+03  0.00000000000E+00 0.  1.
         21   -1    0    0  502  503 -0.00000000000E+00 -0.00000000000E+00 -0.61452348550E+01  0.61452348550E+01  0.00000000000E+00 0.  1.
         25    2    1    2    0    0  0.00000000000E+00  0.00000000000E+00  0.62980300992E+03  0.64209347963E+03  0.12502881779E+03 0.  0.
          4    1    3    3  501    0  0.23641623829E+02  0.20939872279E+02  0.59185290802E+03  0.59269694774E+03  0.15500000000E+01 0.  1.
         -4    1    3    3    0  501 -0.23641623829E+02 -0.20939872279E+02  0.37950101891E+02  0.49396531881E+02  0.15500000000E+01 0.  1.
<mgrwt>
<rscale>  2 0.12502882E+03</rscale>
<asrwt>0</asrwt>
<pdfrwt beam="1">  1       21 0.97838140E-01 0.12502882E+03</pdfrwt>
<pdfrwt beam="2">  1       21 0.94542125E-03 0.12502882E+03</pdfrwt>
<totfact> 0.35230328E+06</totfact>
</mgrwt>
</event>
<event>
 5    0  0.1511437E+000  0.1249946E+03  0.7546771E-02  0.1235078E+00
         21   -1    0    0  503  502  0.00000000000E+00  0.00000000000E+00  0.22467337097E+02  0.22467337097E+02  0.00000000000E+00 0. -1.
         21   -1    0    0  502  503 -0.00000000000E+00 -0.00000000000E+00 -0.17384850225E+03  0.17384850225E+03  0.00000000000E+00 0. -1.
         25    2    1    2    0    0  0.00000000000E+00  0.00000000000E+00 -0.15138116515E+03  0.19631583934E+03  0.12499460635E+03 0.  0.
          4    1    3    3  501    0 -0.14123073483E+02  0.35694606759E+02  0.17310317697E+01  0.38457315654E+02  0.15500000000E+01 0.  1.
         -4    1    3    3    0  501  0.14123073483E+02 -0.35694606759E+02 -0.15311219692E+03  0.15785852369E+03  0.15500000000E+01 0.  1.
<mgrwt>
<rscale>  2 0.12499461E+03</rscale>
<asrwt>0</asrwt>
<pdfrwt beam="1">  1       21 0.34565134E-02 0.12499461E+03</pdfrwt>
<pdfrwt beam="2">  1       21 0.26745924E-01 0.12499461E+03</pdfrwt>
<totfact> 0.65336220E+06</totfact>
</mgrwt>
</event>
<event>
 5    0  0.1362599E+000  0.1249770E+03  0.7546771E-02  0.1235105E+00
         21   -1    0    0  503  502  0.00000000000E+00  0.00000000000E+00  0.27847660526E+03  0.27847660526E+03  0.00000000000E+00 0. -1.
         21   -1    0    0  502  503 -0.00000000000E+00 -0.00000000000E+00 -0.14022056876E+02  0.14022056876E+02  0.00000000000E+00 0. -1.
         25    2    1    2    0    0  0.00000000000E+00  0.00000000000E+00  0.26445454839E+03  0.29249866214E+03  0.12497703465E+03 0.  0.
          4    1    3    3  501    0  0.24458579986E+02 -0.37873521041E+02  0.23342941178E+03  0.23774843536E+03  0.15500000000E+01 0. -1.
         -4    1    3    3    0  501 -0.24458579986E+02  0.37873521041E+02  0.31025136603E+02  0.54750226778E+02  0.15500000000E+01 0. -1.
<mgrwt>
<rscale>  2 0.12497703E+03</rscale>
<asrwt>0</asrwt>
<pdfrwt beam="1">  1       21 0.42842550E-01 0.12497703E+03</pdfrwt>
<pdfrwt beam="2">  1       21 0.21572397E-02 0.12497703E+03</pdfrwt>
<totfact> 0.56117773E+06</totfact>
</mgrwt>
</event>
<event>
 5    0  0.1449593E+000  0.1250034E+03  0.7546771E-02  0.1235064E+00
         21   -1    0    0  503  502  0.00000000000E+00  0.00000000000E+00  0.21672001707E+02  0.21672001707E+02  0.00000000000E+00 0.  1.
         21   -1    0    0  502  503 -0.00000000000E+00 -0.00000000000E+00 -0.18025374979E+03  0.18025374979E+03  0.00000000000E+00 0.  1.
         25    2    1    2    0    0  0.00000000000E+00  0.00000000000E+00 -0.15858174808E+03  0.20192575150E+03  0.12500335313E+03 0.  0.
          4    1    3    3  501    0 -0.48776528028E+02  0.13895396700E+02 -0.20339534021E+02  0.54665627959E+02  0.15500000000E+01 0.  1.
         -4    1    3    3    0  501  0.48776528028E+02 -0.13895396700E+02 -0.13824221406E+03  0.14726012354E+03  0.15500000000E+01 0.  1.
<mgrwt>
<rscale>  2 0.12500335E+03</rscale>
<asrwt>0</asrwt>
<pdfrwt beam="1">  1       21 0.33341542E-02 0.12500335E+03</pdfrwt>
<pdfrwt beam="2">  1       21 0.27731346E-01 0.12500335E+03</pdfrwt>
<totfact> 0.64713687E+06</totfact>
</mgrwt>
</event>
<event>
 5    0  0.1610437E+000  0.1250179E+03  0.7546771E-02  0.1235041E+00
         21   -1    0    0  503  502  0.00000000000E+00  0.00000000000E+00  0.28122778097E+02  0.28122778097E+02  0.00000000000E+00 0.  1.
         21   -1    0    0  502  503 -0.00000000000E+00 -0.00000000000E+00 -0.13893961724E+03  0.13893961724E+03  0.00000000000E+00 0.  1.
         25    2    1    2    0    0  0.00000000000E+00  0.00000000000E+00 -0.11081683915E+03  0.16706239534E+03  0.12501788711E+03 0.  0.
          4    1    3    3  501    0  0.30838211955E+02  0.46790998405E+02 -0.18458292525E+02  0.59021215772E+02  0.15500000000E+01 0. -1.
         -4    1    3    3    0  501 -0.30838211955E+02 -0.46790998405E+02 -0.92358546622E+02  0.10804117957E+03  0.15500000000E+01 0. -1.
<mgrwt>
<rscale>  2 0.12501789E+03</rscale>
<asrwt>0</asrwt>
<pdfrwt beam="1">  1       21 0.43265812E-02 0.12501789E+03</pdfrwt>
<pdfrwt beam="2">  1       21 0.21375326E-01 0.12501789E+03</pdfrwt>
<totfact> 0.68635483E+06</totfact>
</mgrwt>
</event>
<event>
 5    0  0.1550046E+000  0.1250120E+03  0.7546771E-02  0.1235051E+00
         21   -1    0    0  503  502  0.00000000000E+00  0.00000000000E+00  0.13329137986E+03  0.13329137986E+03  0.00000000000E+00 0. -1.
         21   -1    0    0  502  503 -0.00000000000E+00 -0.00000000000E+00 -0.29311730058E+02  0.29311730058E+02  0.00000000000E+00 0. -1.
         25    2    1    2    0    0  0.00000000000E+00  0.00000000000E+00  0.10397964980E+03  0.16260310991E+03  0.12501201455E+03 0.  0.
          4    1    3    3  501    0  0.39759150311E+02  0.33702574817E+02  0.96820495530E+02  0.10996937954E+03  0.15500000000E+01 0.  1.
         -4    1    3    3    0  501 -0.39759150311E+02 -0.33702574817E+02  0.71591542679E+01  0.52633730369E+02  0.15500000000E+01 0.  1.
<mgrwt>
<rscale>  2 0.12501201E+03</rscale>
<asrwt>0</asrwt>
<pdfrwt beam="1">  1       21 0.20506366E-01 0.12501201E+03</pdfrwt>
<pdfrwt beam="2">  1       21 0.45094970E-02 0.12501201E+03</pdfrwt>
<totfact> 0.69181686E+06</totfact>
</mgrwt>
</event>
<event>
 5    0  0.1467716E+000  0.1249971E+03  0.7546771E-02  0.1235074E+00
         21   -1    0    0  503  502  0.00000000000E+00  0.00000000000E+00  0.24678047513E+02  0.24678047513E+02  0.00000000000E+00 0.  1.
         21   -1    0    0  502  503 -0.00000000000E+00 -0.00000000000E+00 -0.15828113156E+03  0.15828113156E+03  0.00000000000E+00 0.  1.
         25    2    1    2    0    0  0.00000000000E+00  0.00000000000E+00 -0.13360308405E+03  0.18295917907E+03  0.12499710853E+03 0.  0.
          4    1    3    3  501    0  0.12985884090E+02 -0.26564799209E+02 -0.14736323927E+03  0.15030851117E+03  0.15500000000E+01 0. -1.
         -4    1    3    3    0  501 -0.12985884090E+02  0.26564799209E+02  0.13760155222E+02  0.32650667901E+02  0.15500000000E+01 0. -1.
<mgrwt>
<rscale>  2 0.12499711E+03</rscale>
<asrwt>0</asrwt>
<pdfrwt beam="1">  1       21 0.37966226E-02 0.12499711E+03</pdfrwt>
<pdfrwt beam="2">  1       21 0.24350944E-01 0.12499711E+03</pdfrwt>
<totfact> 0.66818578E+06</totfact>
</mgrwt>
</event>
<event>
 5    0  0.1402867E+000  0.1250028E+03  0.7546771E-02  0.1235065E+00
         21   -1    0    0  503  502  0.00000000000E+00  0.00000000000E+00  0.36631710805E+02  0.36631710805E+02  0.00000000000E+00 0.  1.
         21   -1    0    0  502  503 -0.00000000000E+00 -0.00000000000E+00 -0.10664047400E+03  0.10664047400E+03  0.00000000000E+00 0.  1.
         25    2    1    2    0    0  0.00000000000E+00  0.00000000000E+00 -0.70008763199E+02  0.14327218481E+03  0.12500276803E+03 0.  0.
          4    1    3    3  501    0 -0.24957457512E+02  0.93438839922E+01  0.29769313365E+02  0.39984964321E+02  0.15500000000E+01 0.  1.
         -4    1    3    3    0  501  0.24957457512E+02 -0.93438839922E+01 -0.99778076564E+02  0.10328722049E+03  0.15500000000E+01 0.  1.
<mgrwt>
<rscale>  2 0.12500277E+03</rscale>
<asrwt>0</asrwt>
<pdfrwt beam="1">  1       21 0.56356479E-02 0.12500277E+03</pdfrwt>
<pdfrwt beam="2">  1       21 0.16406226E-01 0.12500277E+03</pdfrwt>
<totfact> 0.71609908E+06</totfact>
</mgrwt>
</event>
<event>
 5    0  0.1222151E+000  0.1250047E+03  0.7546771E-02  0.1235062E+00
         21   -1    0    0  503  502  0.00000000000E+00  0.00000000000E+00  0.14488931709E+02  0.14488931709E+02  0.00000000000E+00 0. -1.
         21   -1    0    0  502  503 -0.00000000000E+00 -0.00000000000E+00 -0.26962266469E+03  0.26962266469E+03  0.00000000000E+00 0. -1.
         25    2    1    2    0    0  0.00000000000E+00  0.00000000000E+00 -0.25513373298E+03  0.28411159640E+03  0.12500470992E+03 0.  0.
          4    1    3    3  501    0 -0.18283512526E+02 -0.10766232417E+02 -0.26114032925E+03  0.26200548210E+03  0.15500000000E+01 0. -1.
         -4    1    3    3    0  501  0.18283512526E+02  0.10766232417E+02  0.60065962651E+01  0.22106114300E+02  0.15500000000E+01 0. -1.
<mgrwt>
<rscale>  2 0.12500471E+03</rscale>
<asrwt>0</asrwt>
<pdfrwt beam="1">  1       21 0.22290665E-02 0.12500471E+03</pdfrwt>
<pdfrwt beam="2">  1       21 0.41480408E-01 0.12500471E+03</pdfrwt>
<totfact> 0.56796235E+06</totfact>
</mgrwt>
</event>
<event>
 5    0  0.1561250E+000  0.1249933E+03  0.7546771E-02  0.1235080E+00
         21   -1    0    0  503  502  0.00000000000E+00  0.00000000000E+00  0.54537799669E+02  0.54537799669E+02  0.00000000000E+00 0.  1.
         21   -1    0    0  502  503 -0.00000000000E+00 -0.00000000000E+00 -0.71616941482E+02  0.71616941482E+02  0.00000000000E+00 0.  1.
         25    2    1    2    0    0  0.00000000000E+00  0.00000000000E+00 -0.17079141813E+02  0.12615474115E+03  0.12499328634E+03 0.  0.
          4    1    3    3  501    0 -0.29597212563E+02 -0.53036532505E+02  0.62443760520E+01  0.61075883161E+02  0.15500000000E+01 0. -1.
         -4    1    3    3    0  501  0.29597212563E+02  0.53036532505E+02 -0.23323517865E+02  0.65078857990E+02  0.15500000000E+01 0. -1.
<mgrwt>
<rscale>  2 0.12499329E+03</rscale>
<asrwt>0</asrwt>
<pdfrwt beam="1">  1       21 0.83904308E-02 0.12499329E+03</pdfrwt>
<pdfrwt beam="2">  1       21 0.11017991E-01 0.12499329E+03</pdfrwt>
<totfact> 0.73897389E+06</totfact>
</mgrwt>
</event>
<event>
 5    0  0.1222151E+000  0.1250006E+03  0.7546771E-02  0.1235068E+00
         21   -1    0    0  503  502  0.00000000000E+00  0.00000000000E+00  0.72943050429E+03  0.72943050429E+03  0.00000000000E+00 0.  1.
         21   -1    0    0  502  503 -0.00000000000E+00 -0.00000000000E+00 -0.53552547427E+01  0.53552547427E+01  0.00000000000E+00 0.  1.
         25    2    1    2    0    0  0.00000000000E+00  0.00000000000E+00  0.72407524955E+03  0.73478575903E+03  0.12500057868E+03 0.  0.
          4    1    3    3  501    0  0.22346596964E+02 -0.28643870879E+01  0.19465298502E+02  0.29814014407E+02  0.15500000000E+01 0. -1.
         -4    1    3    3    0  501 -0.22346596964E+02  0.28643870879E+01  0.70460995105E+03  0.70497174463E+03  0.15500000000E+01 0. -1.
<mgrwt>
<rscale>  2 0.12500058E+03</rscale>
<asrwt>0</asrwt>
<pdfrwt beam="1">  1       21 0.11222000E+00 0.12500058E+03</pdfrwt>
<pdfrwt beam="2">  1       21 0.82388592E-03 0.12500058E+03</pdfrwt>
<totfact> 0.31610910E+06</totfact>
</mgrwt>
</event>
<event>
 5    0  0.1222151E+000  0.1250022E+03  0.7546771E-02  0.1235066E+00
         21   -1    0    0  503  502  0.00000000000E+00  0.00000000000E+00  0.12653169864E+04  0.12653169864E+04  0.00000000000E+00 0. -1.
         21   -1    0    0  502  503 -0.00000000000E+00 -0.00000000000E+00 -0.30872820690E+01  0.30872820690E+01  0.00000000000E+00 0. -1.
         25    2    1    2    0    0  0.00000000000E+00  0.00000000000E+00  0.12622297043E+04  0.12684042684E+04  0.12500224708E+03 0.  0.
          4    1    3    3  501    0 -0.61145557440E+02  0.12507569082E+02  0.66116360246E+03  0.66410460787E+03  0.15500000000E+01 0. -1.
         -4    1    3    3    0  501  0.61145557440E+02 -0.12507569082E+02  0.60106610185E+03  0.60429966057E+03  0.15500000000E+01 0. -1.
<mgrwt>
<rscale>  2 0.12500225E+03</rscale>
<asrwt>0</asrwt>
<pdfrwt beam="1">  1       21 0.19466374E+00 0.12500225E+03</pdfrwt>
<pdfrwt beam="2">  1       21 0.47496748E-03 0.12500225E+03</pdfrwt>
<totfact> 0.17828417E+06</totfact>
</mgrwt>
</event>
<event>
 5    0  0.1450453E+000  0.1249951E+03  0.7546771E-02  0.1235077E+00
         21   -1    0    0  503  502  0.00000000000E+00  0.00000000000E+00  0.12393140815E+03  0.12393140815E+03  0.00000000000E+00 0. -1.
         21   -1    0    0  502  503 -0.00000000000E+00 -0.00000000000E+00 -0.31516998027E+02  0.31516998027E+02  0.00000000000E+00 0. -1.
         25    2    1    2    0    0  0.00000000000E+00  0.00000000000E+00  0.92414410119E+02  0.15544840617E+03  0.12499513504E+03 0.  0.
          4    1    3    3  501    0  0.34835541044E+02 -0.16521112720E+01  0.11067623911E+03  0.11605118179E+03  0.15500000000E+01 0. -1.
         -4    1    3    3    0  501 -0.34835541044E+02  0.16521112720E+01 -0.18261828986E+02  0.39397224387E+02  0.15500000000E+01 0. -1.
<mgrwt>
<rscale>  2 0.12499514E+03</rscale>
<asrwt>0</asrwt>
<pdfrwt beam="1">  1       21 0.19066370E-01 0.12499514E+03</pdfrwt>
<pdfrwt beam="2">  1       21 0.48487690E-02 0.12499514E+03</pdfrwt>
<totfact> 0.70088643E+06</totfact>
</mgrwt>
</event>
<event>
 5    0  0.1222151E+000  0.1250029E+03  0.7546771E-02  0.1235065E+00
         21   -1    0    0  503  502  0.00000000000E+00  0.00000000000E+00  0.13756053905E+04  0.13756053905E+04  0.00000000000E+00 0. -1.
         21   -1    0    0  502  503 -0.00000000000E+00 -0.00000000000E+00 -0.28397918526E+01  0.28397918526E+01  0.00000000000E+00 0. -1.
         25    2    1    2    0    0  0.00000000000E+00  0.00000000000E+00  0.13727655986E+04  0.13784451824E+04  0.12500292765E+03 0.  0.
          4    1    3    3  501    0 -0.24802270003E+02  0.52217202916E+02  0.42490741852E+03  0.42882456283E+03  0.15500000000E+01 0. -1.
         -4    1    3    3    0  501  0.24802270003E+02 -0.52217202916E+02  0.94785818013E+03  0.94962061952E+03  0.15500000000E+01 0. -1.
<mgrwt>
<rscale>  2 0.12500293E+03</rscale>
<asrwt>0</asrwt>
<pdfrwt beam="1">  1       21 0.21163107E+00 0.12500293E+03</pdfrwt>
<pdfrwt beam="2">  1       21 0.43689215E-03 0.12500293E+03</pdfrwt>
<totfact> 0.15898262E+06</totfact>
</mgrwt>
</event>
<event>
 5    0  0.1486217E+000  0.1250080E+03  0.7546771E-02  0.1235057E+00
         21   -1    0    0  503  502  0.00000000000E+00  0.00000000000E+00  0.10945665055E+03  0.10945665055E+03  0.00000000000E+00 0.  1.
         21   -1    0    0  502  503 -0.00000000000E+00 -0.00000000000E+00 -0.35692218661E+02  0.35692218661E+02  0.00000000000E+00 0.  1.
         25    2    1    2    0    0  0.00000000000E+00  0.00000000000E+00  0.73764431887E+02  0.14514886921E+03  0.12500801103E+03 0.  0.
          4    1    3    3  501    0  0.60167066628E+02 -0.55825708739E+01  0.55354817470E+02  0.81962182263E+02  0.15500000000E+01 0.  1.
         -4    1    3    3    0  501 -0.60167066628E+02  0.55825708739E+01  0.18409614417E+02  0.63186686946E+02  0.15500000000E+01 0.  1.
<mgrwt>
<rscale>  2 0.12500801E+03</rscale>
<asrwt>0</asrwt>
<pdfrwt beam="1">  1       21 0.16839485E-01 0.12500801E+03</pdfrwt>
<pdfrwt beam="2">  1       21 0.54911106E-02 0.12500801E+03</pdfrwt>
<totfact> 0.71359493E+06</totfact>
</mgrwt>
</event>
<event>
 5    0  0.1537263E+000  0.1250170E+03  0.7546771E-02  0.1235043E+00
         21   -1    0    0  503  502  0.00000000000E+00  0.00000000000E+00  0.63436115371E+02  0.63436115371E+02  0.00000000000E+00 0. -1.
         21   -1    0    0  502  503 -0.00000000000E+00 -0.00000000000E+00 -0.61594436725E+02  0.61594436725E+02  0.00000000000E+00 0. -1.
         25    2    1    2    0    0  0.00000000000E+00  0.00000000000E+00  0.18416786460E+01  0.12503055210E+03  0.12501698755E+03 0.  0.
          4    1    3    3  501    0  0.53051576557E+02  0.11611715852E+02  0.31837096457E+02  0.62970667227E+02  0.15500000000E+01 0. -1.
         -4    1    3    3    0  501 -0.53051576557E+02 -0.11611715852E+02 -0.29995417811E+02  0.62059884868E+02  0.15500000000E+01 0. -1.
<mgrwt>
<rscale>  2 0.12501699E+03</rscale>
<asrwt>0</asrwt>
<pdfrwt beam="1">  1       21 0.97594024E-02 0.12501699E+03</pdfrwt>
<pdfrwt beam="2">  1       21 0.94760672E-02 0.12501699E+03</pdfrwt>
<totfact> 0.74007307E+06</totfact>
</mgrwt>
</event>
<event>
 5    0  0.1222151E+000  0.1249969E+03  0.7546771E-02  0.1235074E+00
         21   -1    0    0  503  502  0.00000000000E+00  0.00000000000E+00  0.14142608956E+04  0.14142608956E+04  0.00000000000E+00 0.  1.
         21   -1    0    0  502  503 -0.00000000000E+00 -0.00000000000E+00 -0.27619044427E+01  0.27619044427E+01  0.00000000000E+00 0.  1.
         25    2    1    2    0    0  0.00000000000E+00  0.00000000000E+00  0.14114989911E+04  0.14170228000E+04  0.12499685517E+03 0.  0.
          4    1    3    3  501    0  0.21244481667E+02 -0.58169927596E+02  0.79963192549E+03  0.80202785939E+03  0.15500000000E+01 0.  1.
         -4    1    3    3    0  501 -0.21244481667E+02  0.58169927596E+02  0.61186706565E+03  0.61499494063E+03  0.15500000000E+01 0.  1.
<mgrwt>
<rscale>  2 0.12499686E+03</rscale>
<asrwt>0</asrwt>
<pdfrwt beam="1">  1       21 0.21757802E+00 0.12499686E+03</pdfrwt>
<pdfrwt beam="2">  1       21 0.42490951E-03 0.12499686E+03</pdfrwt>
<totfact> 0.15271291E+06</totfact>
</mgrwt>
</event>
<event>
 5    0  0.1549991E+000  0.1250009E+03  0.7546771E-02  0.1235068E+00
         21   -1    0    0  503  502  0.00000000000E+00  0.00000000000E+00  0.48039277214E+02  0.48039277214E+02  0.00000000000E+00 0.  1.
         21   -1    0    0  502  503 -0.00000000000E+00 -0.00000000000E+00 -0.81314866856E+02  0.81314866856E+02  0.00000000000E+00 0.  1.
         25    2    1    2    0    0  0.00000000000E+00  0.00000000000E+00 -0.33275589642E+02  0.12935414407E+03  0.12500091888E+03 0.  0.
          4    1    3    3  501    0  0.39048053459E+02 -0.18084992177E+02  0.30239773943E+02  0.52618094313E+02  0.15500000000E+01 0. -1.
         -4    1    3    3    0  501 -0.39048053459E+02  0.18084992177E+02 -0.63515363585E+02  0.76736049757E+02  0.15500000000E+01 0. -1.
<mgrwt>
<rscale>  2 0.12500092E+03</rscale>
<asrwt>0</asrwt>
<pdfrwt beam="1">  1       21 0.73906582E-02 0.12500092E+03</pdfrwt>
<pdfrwt beam="2">  1       21 0.12509979E-01 0.12500092E+03</pdfrwt>
<totfact> 0.73449639E+06</totfact>
</mgrwt>
</event>
<event>
 5    0  0.1425360E+000  0.1249956E+03  0.7546771E-02  0.1235076E+00
         21   -1    0    0  503  502  0.00000000000E+00  0.00000000000E+00  0.64780955061E+02  0.64780955061E+02  0.00000000000E+00 0.  1.
         21   -1    0    0  502  503 -0.00000000000E+00 -0.00000000000E+00 -0.60295066772E+02  0.60295066772E+02  0.00000000000E+00 0.  1.
         25    2    1    2    0    0  0.00000000000E+00  0.00000000000E+00  0.44858882889E+01  0.12507602183E+03  0.12499555210E+03 0.  0.
          4    1    3    3  501    0 -0.22154534402E+02  0.33815700355E+02 -0.45424311477E+02  0.60828410782E+02  0.15500000000E+01 0. -1.
         -4    1    3    3    0  501  0.22154534402E+02 -0.33815700355E+02  0.49910199766E+02  0.64247611051E+02  0.15500000000E+01 0. -1.
<mgrwt>
<rscale>  2 0.12499555E+03</rscale>
<asrwt>0</asrwt>
<pdfrwt beam="1">  1       21 0.99663008E-02 0.12499555E+03</pdfrwt>
<pdfrwt beam="2">  1       21 0.92761641E-02 0.12499555E+03</pdfrwt>
<totfact> 0.74041733E+06</totfact>
</mgrwt>
</event>
<event>
 5    0  0.1222151E+000  0.1249992E+03  0.7546771E-02  0.1235071E+00
         21   -1    0    0  503  502  0.00000000000E+00  0.00000000000E+00  0.64061933773E+03  0.64061933773E+03  0.00000000000E+00 0.  1.
         21   -1    0    0  502  503 -0.00000000000E+00 -0.00000000000E+00 -0.60975351460E+01  0.60975351460E+01  0.00000000000E+00 0.  1.
         25    2    1    2    0    0  0.00000000000E+00  0.00000000000E+00  0.63452180258E+03  0.64671687287E+03  0.12499918283E+03 0.  0.
          4    1    3    3  501    0 -0.25183031654E+02  0.81212796620E+01  0.61010061064E+03  0.61067609899E+03  0.15500000000E+01 0.  1.
         -4    1    3    3    0  501  0.25183031654E+02 -0.81212796620E+01  0.24421191938E+02  0.36040773886E+02  0.15500000000E+01 0.  1.
<mgrwt>
<rscale>  2 0.12499918E+03</rscale>
<asrwt>0</asrwt>
<pdfrwt beam="1">  1       21 0.98556768E-01 0.12499918E+03</pdfrwt>
<pdfrwt beam="2">  1       21 0.93808284E-03 0.12499918E+03</pdfrwt>
<totfact> 0.35062170E+06</totfact>
</mgrwt>
</event>
<event>
 5    0  0.1222151E+000  0.1249983E+03  0.7546771E-02  0.1235072E+00
         21   -1    0    0  503  502  0.00000000000E+00  0.00000000000E+00  0.74020212288E+03  0.74020212288E+03  0.00000000000E+00 0.  1.
         21   -1    0    0  502  503 -0.00000000000E+00 -0.00000000000E+00 -0.52771338412E+01  0.52771338412E+01  0.00000000000E+00 0.  1.
         25    2    1    2    0    0  0.00000000000E+00  0.00000000000E+00  0.73492498903E+03  0.74547925672E+03  0.12499833074E+03 0.  0.
          4    1    3    3  501    0 -0.31301076284E+02  0.48440472735E+02  0.51078346808E+03  0.51403150734E+03  0.15500000000E+01 0.  1.
         -4    1    3    3    0  501  0.31301076284E+02 -0.48440472735E+02  0.22414152095E+03  0.23144774937E+03  0.15500000000E+01 0.  1.
<mgrwt>
<rscale>  2 0.12499833E+03</rscale>
<asrwt>0</asrwt>
<pdfrwt beam="1">  1       21 0.11387717E+00 0.12499833E+03</pdfrwt>
<pdfrwt beam="2">  1       21 0.81186733E-03 0.12499833E+03</pdfrwt>
<totfact> 0.31229812E+06</totfact>
</mgrwt>
</event>
<event>
 5    0  0.1222151E+000  0.1249919E+03  0.7546771E-02  0.1235082E+00
         21   -1    0    0  503  502  0.00000000000E+00  0.00000000000E+00  0.34100732812E+03  0.34100732812E+03  0.00000000000E+00 0.  1.
         21   -1    0    0  502  503 -0.00000000000E+00 -0.00000000000E+00 -0.11453542590E+02  0.11453542590E+02  0.00000000000E+00 0.  1.
         25    2    1    2    0    0  0.00000000000E+00  0.00000000000E+00  0.32955378553E+03  0.35246087071E+03  0.12499187103E+03 0.  0.
          4    1    3    3  501    0 -0.22707951584E+02  0.26428653011E+01  0.32873492298E+03  0.32953252934E+03  0.15500000000E+01 0. -1.
         -4    1    3    3    0  501  0.22707951584E+02 -0.26428653011E+01  0.81886254349E+00  0.22928341370E+02  0.15500000000E+01 0. -1.
<mgrwt>
<rscale>  2 0.12499187E+03</rscale>
<asrwt>0</asrwt>
<pdfrwt beam="1">  1       21 0.52462658E-01 0.12499187E+03</pdfrwt>
<pdfrwt beam="2">  1       21 0.17620837E-02 0.12499187E+03</pdfrwt>
<totfact> 0.51367663E+06</totfact>
</mgrwt>
</event>
<event>
 5    0  0.1321843E+000  0.1250026E+03  0.7546771E-02  0.1235065E+00
         21   -1    0    0  503  502  0.00000000000E+00  0.00000000000E+00  0.12533880586E+02  0.12533880586E+02  0.00000000000E+00 0. -1.
         21   -1    0    0  502  503 -0.00000000000E+00 -0.00000000000E+00 -0.31166824415E+03  0.31166824415E+03  0.00000000000E+00 0. -1.
         25    2    1    2    0    0  0.00000000000E+00  0.00000000000E+00 -0.29913436357E+03  0.32420212474E+03  0.12500260085E+03 0.  0.
          4    1    3    3  501    0 -0.27101437226E+02  0.34498032273E+01 -0.38278381309E+01  0.27630488356E+02  0.15500000000E+01 0. -1.
         -4    1    3    3    0  501  0.27101437226E+02 -0.34498032273E+01 -0.29530652543E+03  0.29657163638E+03  0.15500000000E+01 0. -1.
<mgrwt>
<rscale>  2 0.12500260E+03</rscale>
<asrwt>0</asrwt>
<pdfrwt beam="1">  1       21 0.19282893E-02 0.12500260E+03</pdfrwt>
<pdfrwt beam="2">  1       21 0.47948961E-01 0.12500260E+03</pdfrwt>
<totfact> 0.53498526E+06</totfact>
</mgrwt>
</event>
<event>
 5    0  0.1614520E+000  0.1250008E+03  0.7546771E-02  0.1235068E+00
         21   -1    0    0  503  502  0.00000000000E+00  0.00000000000E+00  0.29861316178E+03  0.29861316178E+03  0.00000000000E+00 0.  1.
         21   -1    0    0  502  503 -0.00000000000E+00 -0.00000000000E+00 -0.13081480410E+02  0.13081480410E+02  0.00000000000E+00 0.  1.
         25    2    1    2    0    0  0.00000000000E+00  0.00000000000E+00  0.28553168137E+03  0.31169464218E+03  0.12500083561E+03 0.  0.
          4    1    3    3  501    0 -0.59371268241E+02 -0.10162519295E+01  0.94291037814E+02  0.11144138627E+03  0.15500000000E+01 0. -1.
         -4    1    3    3    0  501  0.59371268241E+02  0.10162519295E+01  0.19124064355E+03  0.20025325592E+03  0.15500000000E+01 0. -1.
<mgrwt>
<rscale>  2 0.12500084E+03</rscale>
<asrwt>0</asrwt>
<pdfrwt beam="1">  1       21 0.45940482E-01 0.12500084E+03</pdfrwt>
<pdfrwt beam="2">  1       21 0.20125357E-02 0.12500084E+03</pdfrwt>
<totfact> 0.54496951E+06</totfact>
</mgrwt>
</event>
<event>
 5    0  0.1554967E+000  0.1250112E+03  0.7546771E-02  0.1235052E+00
         21   -1    0    0  503  502  0.00000000000E+00  0.00000000000E+00  0.12722786788E+03  0.12722786788E+03  0.00000000000E+00 0.  1.
         21   -1    0    0  502  503 -0.00000000000E+00 -0.00000000000E+00 -0.30708268973E+02  0.30708268973E+02  0.00000000000E+00 0.  1.
         25    2    1    2    0    0  0.00000000000E+00  0.00000000000E+00  0.96519598910E+02  0.15793613686E+03  0.12501116091E+03 0.  0.
          4    1    3    3  501    0 -0.54110545298E+02  0.13378148236E+02  0.83940264165E+02  0.10077349062E+03  0.15500000000E+01 0. -1.
         -4    1    3    3    0  501  0.54110545298E+02 -0.13378148236E+02  0.12579334745E+02  0.57162646241E+02  0.15500000000E+01 0. -1.
<mgrwt>
<rscale>  2 0.12501116E+03</rscale>
<asrwt>0</asrwt>
<pdfrwt beam="1">  1       21 0.19573518E-01 0.12501116E+03</pdfrwt>
<pdfrwt beam="2">  1       21 0.47243492E-02 0.12501116E+03</pdfrwt>
<totfact> 0.69752762E+06</totfact>
</mgrwt>
</event>
<event>
 5    0  0.1495921E+000  0.1250022E+03  0.7546771E-02  0.1235066E+00
         21   -1    0    0  503  502  0.00000000000E+00  0.00000000000E+00  0.67483935069E+02  0.67483935069E+02  0.00000000000E+00 0.  1.
         21   -1    0    0  502  503 -0.00000000000E+00 -0.00000000000E+00 -0.57886215009E+02  0.57886215009E+02  0.00000000000E+00 0.  1.
         25    2    1    2    0    0  0.00000000000E+00  0.00000000000E+00  0.95977200603E+01  0.12537015008E+03  0.12500223318E+03 0.  0.
          4    1    3    3  501    0 -0.42289482196E+02  0.68028634972E+01 -0.40824674034E+02  0.59192362397E+02  0.15500000000E+01 0. -1.
         -4    1    3    3    0  501  0.42289482196E+02 -0.68028634972E+01  0.50422394094E+02  0.66177787681E+02  0.15500000000E+01 0. -1.
<mgrwt>
<rscale>  2 0.12500223E+03</rscale>
<asrwt>0</asrwt>
<pdfrwt beam="1">  1       21 0.10382144E-01 0.12500223E+03</pdfrwt>
<pdfrwt beam="2">  1       21 0.89055715E-02 0.12500223E+03</pdfrwt>
<totfact> 0.73989379E+06</totfact>
</mgrwt>
</event>
<event>
 5    0  0.1493615E+000  0.1250153E+03  0.7546771E-02  0.1235045E+00
         21   -1    0    0  503  502  0.00000000000E+00  0.00000000000E+00  0.20132641928E+02  0.20132641928E+02  0.00000000000E+00 0. -1.
         21   -1    0    0  502  503 -0.00000000000E+00 -0.00000000000E+00 -0.19407319613E+03  0.19407319613E+03  0.00000000000E+00 0. -1.
         25    2    1    2    0    0  0.00000000000E+00  0.00000000000E+00 -0.17394055420E+03  0.21420583805E+03  0.12501529771E+03 0.  0.
          4    1    3    3  501    0  0.29378797073E+02  0.29994993593E+02 -0.76696002215E+01  0.42708765209E+02  0.15500000000E+01 0.  1.
         -4    1    3    3    0  501 -0.29378797073E+02 -0.29994993593E+02 -0.16627095398E+03  0.17149707285E+03  0.15500000000E+01 0.  1.
<mgrwt>
<rscale>  2 0.12501530E+03</rscale>
<asrwt>0</asrwt>
<pdfrwt beam="1">  1       21 0.30973295E-02 0.12501530E+03</pdfrwt>
<pdfrwt beam="2">  1       21 0.29857415E-01 0.12501530E+03</pdfrwt>
<totfact> 0.63395207E+06</totfact>
</mgrwt>
</event>
<event>
 5    0  0.1222151E+000  0.1250015E+03  0.7546771E-02  0.1235067E+00
         21   -1    0    0  503  502  0.00000000000E+00  0.00000000000E+00  0.30296526246E+01  0.30296526246E+01  0.00000000000E+00 0.  1.
         21   -1    0    0  502  503 -0.00000000000E+00 -0.00000000000E+00 -0.12893708942E+04  0.12893708942E+04  0.00000000000E+00 0.  1.
         25    2    1    2    0    0  0.00000000000E+00  0.00000000000E+00 -0.12863412416E+04  0.12924005469E+04  0.12500153461E+03 0.  0.
          4    1    3    3  501    0 -0.19516777215E+02 -0.58913123071E+02 -0.56841204764E+03  0.57179219920E+03  0.15500000000E+01 0. -1.
         -4    1    3    3    0  501  0.19516777215E+02  0.58913123071E+02 -0.71792919397E+03  0.72060834766E+03  0.15500000000E+01 0. -1.
<mgrwt>
<rscale>  2 0.12500153E+03</rscale>
<asrwt>0</asrwt>
<pdfrwt beam="1">  1       21 0.46610079E-03 0.12500153E+03</pdfrwt>
<pdfrwt beam="2">  1       21 0.19836459E+00 0.12500153E+03</pdfrwt>
<totfact> 0.17388703E+06</totfact>
</mgrwt>
</event>
<event>
 5    0  0.1418512E+000  0.1250218E+03  0.7546771E-02  0.1235035E+00
         21   -1    0    0  503  502  0.00000000000E+00  0.00000000000E+00  0.10020127291E+02  0.10020127291E+02  0.00000000000E+00 0. -1.
         21   -1    0    0  502  503 -0.00000000000E+00 -0.00000000000E+00 -0.38997653312E+03  0.38997653312E+03  0.00000000000E+00 0. -1.
         25    2    1    2    0    0  0.00000000000E+00  0.00000000000E+00 -0.37995640583E+03  0.39999666042E+03  0.12502183013E+03 0.  0.
          4    1    3    3  501    0 -0.51082582486E+02  0.11627897066E+02 -0.29897328191E+03  0.30353264078E+03  0.15500000000E+01 0. -1.
         -4    1    3    3    0  501  0.51082582486E+02 -0.11627897066E+02 -0.80983123928E+02  0.96464019639E+02  0.15500000000E+01 0. -1.
<mgrwt>
<rscale>  2 0.12502183E+03</rscale>
<asrwt>0</asrwt>
<pdfrwt beam="1">  1       21 0.15415582E-02 0.12502183E+03</pdfrwt>
<pdfrwt beam="2">  1       21 0.59996384E-01 0.12502183E+03</pdfrwt>
<totfact> 0.48015371E+06</totfact>
</mgrwt>
</event>
<event>
 5    0  0.1222151E+000  0.1249741E+03  0.7546771E-02  0.1235110E+00
         21   -1    0    0  503  502  0.00000000000E+00  0.00000000000E+00  0.34394708375E+01  0.34394708375E+01  0.00000000000E+00 0.  1.
         21   -1    0    0  502  503 -0.00000000000E+00 -0.00000000000E+00 -0.11352410979E+04  0.11352410979E+04  0.00000000000E+00 0.  1.
         25    2    1    2    0    0  0.00000000000E+00  0.00000000000E+00 -0.11318016270E+04  0.11386805687E+04  0.12497405570E+03 0.  0.
          4    1    3    3  501    0  0.31738486263E+02 -0.44740172910E+02 -0.29359355681E+03  0.29867807700E+03  0.15500000000E+01 0. -1.
         -4    1    3    3    0  501 -0.31738486263E+02  0.44740172910E+02 -0.83820807023E+03  0.84000249171E+03  0.15500000000E+01 0. -1.
<mgrwt>
<rscale>  2 0.12497406E+03</rscale>
<asrwt>0</asrwt>
<pdfrwt beam="1">  1       21 0.52914899E-03 0.12497406E+03</pdfrwt>
<pdfrwt beam="2">  1       21 0.17465260E+00 0.12497406E+03</pdfrwt>
<totfact> 0.20422863E+06</totfact>
</mgrwt>
</event>
<event>
 5    0  0.1222151E+000  0.1250002E+03  0.7546771E-02  0.1235069E+00
         21   -1    0    0  503  502  0.00000000000E+00  0.00000000000E+00  0.49070598220E+01  0.49070598220E+01  0.00000000000E+00 0.  1.
         21   -1    0    0  502  503 -0.00000000000E+00 -0.00000000000E+00 -0.79604900475E+03  0.79604900475E+03  0.00000000000E+00 0.  1.
         25    2    1    2    0    0  0.00000000000E+00  0.00000000000E+00 -0.79114194493E+03  0.80095606457E+03  0.12500016140E+03 0.  0.
          4    1    3    3  501    0  0.56403498064E+02  0.13917996776E+02 -0.24822417331E+03  0.25493667438E+03  0.15500000000E+01 0.  1.
         -4    1    3    3    0  501 -0.56403498064E+02 -0.13917996776E+02 -0.54291777162E+03  0.54601939019E+03  0.15500000000E+01 0.  1.
<mgrwt>
<rscale>  2 0.12500016E+03</rscale>
<asrwt>0</asrwt>
<pdfrwt beam="1">  1       21 0.75493254E-03 0.12500016E+03</pdfrwt>
<pdfrwt beam="2">  1       21 0.12246903E+00 0.12500016E+03</pdfrwt>
<totfact> 0.29331054E+06</totfact>
</mgrwt>
</event>
<event>
 5    0  0.1616490E+000  0.1250012E+03  0.7546771E-02  0.1235067E+00
         21   -1    0    0  503  502  0.00000000000E+00  0.00000000000E+00  0.17178981233E+03  0.17178981233E+03  0.00000000000E+00 0. -1.
         21   -1    0    0  502  503 -0.00000000000E+00 -0.00000000000E+00 -0.22738980583E+02  0.22738980583E+02  0.00000000000E+00 0. -1.
         25    2    1    2    0    0  0.00000000000E+00  0.00000000000E+00  0.14905083175E+03  0.19452879292E+03  0.12500120331E+03 0.  0.
          4    1    3    3  501    0  0.53097970198E+02  0.30494330177E+02  0.93876632896E+02  0.11209158450E+03  0.15500000000E+01 0.  1.
         -4    1    3    3    0  501 -0.53097970198E+02 -0.30494330177E+02  0.55174198853E+02  0.82437208415E+02  0.15500000000E+01 0.  1.
<mgrwt>
<rscale>  2 0.12500120E+03</rscale>
<asrwt>0</asrwt>
<pdfrwt beam="1">  1       21 0.26429201E-01 0.12500120E+03</pdfrwt>
<pdfrwt beam="2">  1       21 0.34983048E-02 0.12500120E+03</pdfrwt>
<totfact> 0.65520635E+06</totfact>
</mgrwt>
</event>
<event>
 5    0  0.1404822E+000  0.1250001E+03  0.7546771E-02  0.1235069E+00
         21   -1    0    0  503  502  0.00000000000E+00  0.00000000000E+00  0.96976382322E+02  0.96976382322E+02  0.00000000000E+00 0.  1.
         21   -1    0    0  502  503 -0.00000000000E+00 -0.00000000000E+00 -0.40280479721E+02  0.40280479721E+02  0.00000000000E+00 0.  1.
         25    2    1    2    0    0  0.00000000000E+00  0.00000000000E+00  0.56695902602E+02  0.13725686204E+03  0.12500008322E+03 0.  0.
          4    1    3    3  501    0  0.27931052585E+02 -0.81027900068E+01  0.89069987211E+02  0.93710533166E+02  0.15500000000E+01 0.  1.
         -4    1    3    3    0  501 -0.27931052585E+02  0.81027900068E+01 -0.32374084609E+02  0.43546328878E+02  0.15500000000E+01 0.  1.
<mgrwt>
<rscale>  2 0.12500008E+03</rscale>
<asrwt>0</asrwt>
<pdfrwt beam="1">  1       21 0.14919443E-01 0.12500008E+03</pdfrwt>
<pdfrwt beam="2">  1       21 0.61969969E-02 0.12500008E+03</pdfrwt>
<totfact> 0.72398852E+06</totfact>
</mgrwt>
</event>
<event>
 5    0  0.1436700E+000  0.1249971E+03  0.7546771E-02  0.1235074E+00
         21   -1    0    0  503  502  0.00000000000E+00  0.00000000000E+00  0.21038749477E+03  0.21038749477E+03  0.00000000000E+00 0.  1.
         21   -1    0    0  502  503 -0.00000000000E+00 -0.00000000000E+00 -0.18566069973E+02  0.18566069973E+02  0.00000000000E+00 0.  1.
         25    2    1    2    0    0  0.00000000000E+00  0.00000000000E+00  0.19182142479E+03  0.22895356474E+03  0.12499710316E+03 0.  0.
          4    1    3    3  501    0  0.20689553058E+02 -0.34715484048E+02  0.86330994227E+01  0.41354024521E+02  0.15500000000E+01 0. -1.
         -4    1    3    3    0  501 -0.20689553058E+02  0.34715484048E+02  0.18318832537E+03  0.18759954022E+03  0.15500000000E+01 0. -1.
<mgrwt>
<rscale>  2 0.12499710E+03</rscale>
<asrwt>0</asrwt>
<pdfrwt beam="1">  1       21 0.32367305E-01 0.12499710E+03</pdfrwt>
<pdfrwt beam="2">  1       21 0.28563186E-02 0.12499710E+03</pdfrwt>
<totfact> 0.61922802E+06</totfact>
</mgrwt>
</event>
<event>
 5    0  0.1618621E+000  0.1249996E+03  0.7546771E-02  0.1235070E+00
         21   -1    0    0  503  502  0.00000000000E+00  0.00000000000E+00  0.64374382447E+02  0.64374382447E+02  0.00000000000E+00 0. -1.
         21   -1    0    0  502  503 -0.00000000000E+00 -0.00000000000E+00 -0.60679773119E+02  0.60679773119E+02  0.00000000000E+00 0. -1.
         25    2    1    2    0    0  0.00000000000E+00  0.00000000000E+00  0.36946093279E+01  0.12505415557E+03  0.12499956674E+03 0.  0.
          4    1    3    3  501    0 -0.22112860377E+02  0.56195925639E+02 -0.14186539714E+02  0.62053372685E+02  0.15500000000E+01 0.  1.
         -4    1    3    3    0  501  0.22112860377E+02 -0.56195925639E+02  0.17881149042E+02  0.63000782881E+02  0.15500000000E+01 0.  1.
<mgrwt>
<rscale>  2 0.12499957E+03</rscale>
<asrwt>0</asrwt>
<pdfrwt beam="1">  1       21 0.99037511E-02 0.12499957E+03</pdfrwt>
<pdfrwt beam="2">  1       21 0.93353497E-02 0.12499957E+03</pdfrwt>
<totfact> 0.74037087E+06</totfact>
</mgrwt>
</event>
<event>
 5    0  0.1525699E+000  0.1250002E+03  0.7546771E-02  0.1235069E+00
         21   -1    0    0  503  502  0.00000000000E+00  0.00000000000E+00  0.84338416502E+02  0.84338416502E+02  0.00000000000E+00 0.  1.
         21   -1    0    0  502  503 -0.00000000000E+00 -0.00000000000E+00 -0.46316500516E+02  0.46316500516E+02  0.00000000000E+00 0.  1.
         25    2    1    2    0    0  0.00000000000E+00  0.00000000000E+00  0.38021915986E+02  0.13065491702E+03  0.12500016498E+03 0.  0.
          4    1    3    3  501    0  0.38007584013E+02  0.41707018869E+02 -0.90319396730E+01  0.57166688724E+02  0.15500000000E+01 0.  1.
         -4    1    3    3    0  501 -0.38007584013E+02 -0.41707018869E+02  0.47053855659E+02  0.73488228294E+02  0.15500000000E+01 0.  1.
<mgrwt>
<rscale>  2 0.12500016E+03</rscale>
<asrwt>0</asrwt>
<pdfrwt beam="1">  1       21 0.12975141E-01 0.12500016E+03</pdfrwt>
<pdfrwt beam="2">  1       21 0.71256155E-02 0.12500016E+03</pdfrwt>
<totfact> 0.73276904E+06</totfact>
</mgrwt>
</event>
<event>
 5    0  0.1497157E+000  0.1249956E+03  0.7546771E-02  0.1235076E+00
         21   -1    0    0  503  502  0.00000000000E+00  0.00000000000E+00  0.24730674526E+02  0.24730674526E+02  0.00000000000E+00 0.  1.
         21   -1    0    0  502  503 -0.00000000000E+00 -0.00000000000E+00 -0.15794049593E+03  0.15794049593E+03  0.00000000000E+00 0.  1.
         25    2    1    2    0    0  0.00000000000E+00  0.00000000000E+00 -0.13320982141E+03  0.18267117046E+03  0.12499559991E+03 0.  0.
          4    1    3    3  501    0  0.40896147633E+02 -0.37314494070E+02 -0.24281544950E+02  0.60471995866E+02  0.15500000000E+01 0.  1.
         -4    1    3    3    0  501 -0.40896147633E+02  0.37314494070E+02 -0.10892827646E+03  0.12219917459E+03  0.15500000000E+01 0.  1.
<mgrwt>
<rscale>  2 0.12499560E+03</rscale>
<asrwt>0</asrwt>
<pdfrwt beam="1">  1       21 0.38047191E-02 0.12499560E+03</pdfrwt>
<pdfrwt beam="2">  1       21 0.24298538E-01 0.12499560E+03</pdfrwt>
<totfact> 0.66853881E+06</totfact>
</mgrwt>
</event>
<event>
 5    0  0.1362530E+000  0.1250010E+03  0.7546771E-02  0.1235068E+00
         21   -1    0    0  503  502  0.00000000000E+00  0.00000000000E+00  0.17687947454E+02  0.17687947454E+02  0.00000000000E+00 0.  1.
         21   -1    0    0  502  503 -0.00000000000E+00 -0.00000000000E+00 -0.22084612992E+03  0.22084612992E+03  0.00000000000E+00 0.  1.
         25    2    1    2    0    0  0.00000000000E+00  0.00000000000E+00 -0.20315818247E+03  0.23853407737E+03  0.12500103586E+03 0.  0.
          4    1    3    3  501    0  0.32956061422E+02 -0.12501588728E+01 -0.31109455271E+00  0.33017634099E+02  0.15500000000E+01 0. -1.
         -4    1    3    3    0  501 -0.32956061422E+02  0.12501588728E+01 -0.20284708791E+03  0.20551644328E+03  0.15500000000E+01 0. -1.
<mgrwt>
<rscale>  2 0.12500104E+03</rscale>
<asrwt>0</asrwt>
<pdfrwt beam="1">  1       21 0.27212226E-02 0.12500104E+03</pdfrwt>
<pdfrwt beam="2">  1       21 0.33976329E-01 0.12500104E+03</pdfrwt>
<totfact> 0.60973211E+06</totfact>
</mgrwt>
</event>
<event>
 5    0  0.1374037E+000  0.1250054E+03  0.7546771E-02  0.1235061E+00
         21   -1    0    0  503  502  0.00000000000E+00  0.00000000000E+00  0.99298747533E+01  0.99298747533E+01  0.00000000000E+00 0. -1.
         21   -1    0    0  502  503 -0.00000000000E+00 -0.00000000000E+00 -0.39341773509E+03  0.39341773509E+03  0.00000000000E+00 0. -1.
         25    2    1    2    0    0  0.00000000000E+00  0.00000000000E+00 -0.38348786034E+03  0.40334760984E+03  0.12500542124E+03 0.  0.
          4    1    3    3  501    0  0.31807568634E+01 -0.60559132067E+02 -0.14316603434E+03  0.15548775379E+03  0.15500000000E+01 0. -1.
         -4    1    3    3    0  501 -0.31807568634E+01  0.60559132067E+02 -0.24032182600E+03  0.24785985605E+03  0.15500000000E+01 0. -1.
<mgrwt>
<rscale>  2 0.12500542E+03</rscale>
<asrwt>0</asrwt>
<pdfrwt beam="1">  1       21 0.15276729E-02 0.12500542E+03</pdfrwt>
<pdfrwt beam="2">  1       21 0.60525811E-01 0.12500542E+03</pdfrwt>
<totfact> 0.47813617E+06</totfact>
</mgrwt>
</event>
<event>
 5    0  0.1515174E+000  0.1250037E+03  0.7546771E-02  0.1235064E+00
         21   -1    0    0  503  502  0.00000000000E+00  0.00000000000E+00  0.15205420270E+03  0.15205420270E+03  0.00000000000E+00 0.  1.
         21   -1    0    0  502  503 -0.00000000000E+00 -0.00000000000E+00 -0.25691366057E+02  0.25691366057E+02  0.00000000000E+00 0.  1.
         25    2    1    2    0    0  0.00000000000E+00  0.00000000000E+00  0.12636283664E+03  0.17774556875E+03  0.12500368286E+03 0.  0.
          4    1    3    3  501    0 -0.50807878759E+01  0.47565410938E+02  0.60244614091E+01  0.48238774429E+02  0.15500000000E+01 0. -1.
         -4    1    3    3    0  501  0.50807878759E+01 -0.47565410938E+02  0.12033837523E+03  0.12950679432E+03  0.15500000000E+01 0. -1.
<mgrwt>
<rscale>  2 0.12500368E+03</rscale>
<asrwt>0</asrwt>
<pdfrwt beam="1">  1       21 0.23392954E-01 0.12500368E+03</pdfrwt>
<pdfrwt beam="2">  1       21 0.39525179E-02 0.12500368E+03</pdfrwt>
<totfact> 0.67404806E+06</totfact>
</mgrwt>
</event>
<event>
 5    0  0.1535327E+000  0.1249942E+03  0.7546771E-02  0.1235078E+00
         21   -1    0    0  503  502  0.00000000000E+00  0.00000000000E+00  0.68087837017E+02  0.68087837017E+02  0.00000000000E+00 0.  1.
         21   -1    0    0  502  503 -0.00000000000E+00 -0.00000000000E+00 -0.57365402514E+02  0.57365402514E+02  0.00000000000E+00 0.  1.
         25    2    1    2    0    0  0.00000000000E+00  0.00000000000E+00  0.10722434503E+02  0.12545323953E+03  0.12499417869E+03 0.  0.
          4    1    3    3  501    0 -0.56070154621E+02 -0.20931328697E+02  0.23357516279E+02  0.64264755714E+02  0.15500000000E+01 0.  1.
         -4    1    3    3    0  501  0.56070154621E+02  0.20931328697E+02 -0.12635081776E+02  0.61188483816E+02  0.15500000000E+01 0.  1.
<mgrwt>
<rscale>  2 0.12499418E+03</rscale>
<asrwt>0</asrwt>
<pdfrwt beam="1">  1       21 0.10475052E-01 0.12499418E+03</pdfrwt>
<pdfrwt beam="2">  1       21 0.88254465E-02 0.12499418E+03</pdfrwt>
<totfact> 0.73992919E+06</totfact>
</mgrwt>
</event>
<event>
 5    0  0.1453689E+000  0.1250006E+03  0.7546771E-02  0.1235068E+00
         21   -1    0    0  503  502  0.00000000000E+00  0.00000000000E+00  0.19201592127E+02  0.19201592127E+02  0.00000000000E+00 0.  1.
         21   -1    0    0  502  503 -0.00000000000E+00 -0.00000000000E+00 -0.20343572832E+03  0.20343572832E+03  0.00000000000E+00 0.  1.
         25    2    1    2    0    0  0.00000000000E+00  0.00000000000E+00 -0.18423413619E+03  0.22263732045E+03  0.12500063807E+03 0.  0.
          4    1    3    3  501    0 -0.33938812159E+02  0.69865223026E+01 -0.18472058271E+03  0.18794879792E+03  0.15500000000E+01 0. -1.
         -4    1    3    3    0  501  0.33938812159E+02 -0.69865223026E+01  0.48644651548E+00  0.34688522523E+02  0.15500000000E+01 0. -1.
<mgrwt>
<rscale>  2 0.12500064E+03</rscale>
<asrwt>0</asrwt>
<pdfrwt beam="1">  1       21 0.29540910E-02 0.12500064E+03</pdfrwt>
<pdfrwt beam="2">  1       21 0.31297805E-01 0.12500064E+03</pdfrwt>
<totfact> 0.62552970E+06</totfact>
</mgrwt>
</event>
<event>
 5    0  0.1430586E+000  0.1249882E+03  0.7546771E-02  0.1235088E+00
         21   -1    0    0  503  502  0.00000000000E+00  0.00000000000E+00  0.17228050621E+03  0.17228050621E+03  0.00000000000E+00 0.  1.
         21   -1    0    0  502  503 -0.00000000000E+00 -0.00000000000E+00 -0.22669506848E+02  0.22669506848E+02  0.00000000000E+00 0.  1.
         25    2    1    2    0    0  0.00000000000E+00  0.00000000000E+00  0.14961099936E+03  0.19495001306E+03  0.12498822529E+03 0.  0.
          4    1    3    3  501    0  0.47105342140E+02 -0.16261381891E+02  0.13357642449E+03  0.14257773136E+03  0.15500000000E+01 0.  1.
         -4    1    3    3    0  501 -0.47105342140E+02  0.16261381891E+02  0.16034574870E+02  0.52372281699E+02  0.15500000000E+01 0.  1.
<mgrwt>
<rscale>  2 0.12498823E+03</rscale>
<asrwt>0</asrwt>
<pdfrwt beam="1">  1       21 0.26504693E-01 0.12498823E+03</pdfrwt>
<pdfrwt beam="2">  1       21 0.34876165E-02 0.12498823E+03</pdfrwt>
<totfact> 0.65496026E+06</totfact>
</mgrwt>
</event>
<event>
 5    0  0.1603165E+000  0.1250061E+03  0.7546771E-02  0.1235060E+00
         21   -1    0    0  503  502  0.00000000000E+00  0.00000000000E+00  0.10946731255E+03  0.10946731255E+03  0.00000000000E+00 0. -1.
         21   -1    0    0  502  503 -0.00000000000E+00 -0.00000000000E+00 -0.35687641565E+02  0.35687641565E+02  0.00000000000E+00 0. -1.
         25    2    1    2    0    0  0.00000000000E+00  0.00000000000E+00  0.73779670982E+02  0.14515495411E+03  0.12500608326E+03 0.  0.
          4    1    3    3  501    0  0.39180521727E+02  0.47067667096E+02  0.51287997933E+02  0.79895805901E+02  0.15500000000E+01 0.  1.
         -4    1    3    3    0  501 -0.39180521727E+02 -0.47067667096E+02  0.22491673049E+02  0.65259148211E+02  0.15500000000E+01 0.  1.
<mgrwt>
<rscale>  2 0.12500608E+03</rscale>
<asrwt>0</asrwt>
<pdfrwt beam="1">  1       21 0.16841125E-01 0.12500608E+03</pdfrwt>
<pdfrwt beam="2">  1       21 0.54904065E-02 0.12500608E+03</pdfrwt>
<totfact> 0.71362218E+06</totfact>
</mgrwt>
</event>
<event>
 5    0  0.1472579E+000  0.1250014E+03  0.7546771E-02  0.1235067E+00
         21   -1    0    0  503  502  0.00000000000E+00  0.00000000000E+00  0.28637272031E+02  0.28637272031E+02  0.00000000000E+00 0. -1.
         21   -1    0    0  502  503 -0.00000000000E+00 -0.00000000000E+00 -0.13640738226E+03  0.13640738226E+03  0.00000000000E+00 0. -1.
         25    2    1    2    0    0  0.00000000000E+00  0.00000000000E+00 -0.10777011022E+03  0.16504465429E+03  0.12500136500E+03 0.  0.
          4    1    3    3  501    0 -0.45603484320E+02  0.17391382173E+02 -0.23782321241E+01  0.48889635344E+02  0.15500000000E+01 0. -1.
         -4    1    3    3    0  501  0.45603484320E+02 -0.17391382173E+02 -0.10539187810E+03  0.11615501894E+03  0.15500000000E+01 0. -1.
<mgrwt>
<rscale>  2 0.12500136E+03</rscale>
<asrwt>0</asrwt>
<pdfrwt beam="1">  1       21 0.44057342E-02 0.12500136E+03</pdfrwt>
<pdfrwt beam="2">  1       21 0.20985751E-01 0.12500136E+03</pdfrwt>
<totfact> 0.68905897E+06</totfact>
</mgrwt>
</event>
<event>
 5    0  0.1501336E+000  0.1250092E+03  0.7546771E-02  0.1235055E+00
         21   -1    0    0  503  502  0.00000000000E+00  0.00000000000E+00  0.26936645637E+02  0.26936645637E+02  0.00000000000E+00 0. -1.
         21   -1    0    0  502  503 -0.00000000000E+00 -0.00000000000E+00 -0.14503745152E+03  0.14503745152E+03  0.00000000000E+00 0. -1.
         25    2    1    2    0    0  0.00000000000E+00  0.00000000000E+00 -0.11810080589E+03  0.17197409716E+03  0.12500915864E+03 0.  0.
          4    1    3    3  501    0 -0.55531508830E+02  0.37564607256E+01 -0.19980739388E+02  0.59156503587E+02  0.15500000000E+01 0. -1.
         -4    1    3    3    0  501  0.55531508830E+02 -0.37564607256E+01 -0.98120066498E+02  0.11281759357E+03  0.15500000000E+01 0. -1.
<mgrwt>
<rscale>  2 0.12500916E+03</rscale>
<asrwt>0</asrwt>
<pdfrwt beam="1">  1       21 0.41440994E-02 0.12500916E+03</pdfrwt>
<pdfrwt beam="2">  1       21 0.22313454E-01 0.12500916E+03</pdfrwt>
<totfact> 0.68068560E+06</totfact>
</mgrwt>
</event>
<event>
 5    0  0.1453851E+000  0.1249991E+03  0.7546771E-02  0.1235071E+00
         21   -1    0    0  503  502  0.00000000000E+00  0.00000000000E+00  0.18234318497E+02  0.18234318497E+02  0.00000000000E+00 0.  1.
         21   -1    0    0  502  503 -0.00000000000E+00 -0.00000000000E+00 -0.21422217056E+03  0.21422217056E+03  0.00000000000E+00 0.  1.
         25    2    1    2    0    0  0.00000000000E+00  0.00000000000E+00 -0.19598785207E+03  0.23245648906E+03  0.12499912459E+03 0.  0.
          4    1    3    3  501    0 -0.58794123537E+02 -0.20133717784E+02 -0.10999953355E+03  0.12635036777E+03  0.15500000000E+01 0.  1.
         -4    1    3    3    0  501  0.58794123537E+02  0.20133717784E+02 -0.85988318515E+02  0.10610612129E+03  0.15500000000E+01 0.  1.
<mgrwt>
<rscale>  2 0.12499912E+03</rscale>
<asrwt>0</asrwt>
<pdfrwt beam="1">  1       21 0.28052799E-02 0.12499912E+03</pdfrwt>
<pdfrwt beam="2">  1       21 0.32957255E-01 0.12499912E+03</pdfrwt>
<totfact> 0.61571723E+06</totfact>
</mgrwt>
</event>
<event>
 5    0  0.1403139E+000  0.1249998E+03  0.7546771E-02  0.1235070E+00
         21   -1    0    0  503  502  0.00000000000E+00  0.00000000000E+00  0.38175617932E+03  0.38175617932E+03  0.00000000000E+00 0. -1.
         21   -1    0    0  502  503 -0.00000000000E+00 -0.00000000000E+00 -0.10232284702E+02  0.10232284702E+02  0.00000000000E+00 0. -1.
         25    2    1    2    0    0  0.00000000000E+00  0.00000000000E+00  0.37152389461E+03  0.39198846402E+03  0.12499980661E+03 0.  0.
          4    1    3    3  501    0  0.56310705636E+02  0.95214773453E+01  0.26523622480E+03  0.27131939029E+03  0.15500000000E+01 0. -1.
         -4    1    3    3    0  501 -0.56310705636E+02 -0.95214773453E+01  0.10628766981E+03  0.12066907373E+03  0.15500000000E+01 0. -1.
<mgrwt>
<rscale>  2 0.12499981E+03</rscale>
<asrwt>0</asrwt>
<pdfrwt beam="1">  1       21 0.58731709E-01 0.12499981E+03</pdfrwt>
<pdfrwt beam="2">  1       21 0.15741979E-02 0.12499981E+03</pdfrwt>
<totfact> 0.48577566E+06</totfact>
</mgrwt>
</event>
<event>
 5    0  0.1585437E+000  0.1249967E+03  0.7546771E-02  0.1235074E+00
         21   -1    0    0  503  502  0.00000000000E+00  0.00000000000E+00  0.85909314189E+02  0.85909314189E+02  0.00000000000E+00 0. -1.
         21   -1    0    0  502  503 -0.00000000000E+00 -0.00000000000E+00 -0.45467032850E+02  0.45467032850E+02  0.00000000000E+00 0. -1.
         25    2    1    2    0    0  0.00000000000E+00  0.00000000000E+00  0.40442281339E+02  0.13137634704E+03  0.12499666572E+03 0.  0.
          4    1    3    3  501    0 -0.25506773553E+02  0.56021747374E+02  0.31473022151E+02  0.69151900185E+02  0.15500000000E+01 0.  1.
         -4    1    3    3    0  501  0.25506773553E+02 -0.56021747374E+02  0.89692591882E+01  0.62224446854E+02  0.15500000000E+01 0.  1.
<mgrwt>
<rscale>  2 0.12499667E+03</rscale>
<asrwt>0</asrwt>
<pdfrwt beam="1">  1       21 0.13216818E-01 0.12499667E+03</pdfrwt>
<pdfrwt beam="2">  1       21 0.69949281E-02 0.12499667E+03</pdfrwt>
<totfact> 0.73186226E+06</totfact>
</mgrwt>
</event>
<event>
 5    0  0.1491971E+000  0.1250024E+03  0.7546771E-02  0.1235065E+00
         21   -1    0    0  503  502  0.00000000000E+00  0.00000000000E+00  0.77839704578E+02  0.77839704578E+02  0.00000000000E+00 0. -1.
         21   -1    0    0  502  503 -0.00000000000E+00 -0.00000000000E+00 -0.50185222019E+02  0.50185222019E+02  0.00000000000E+00 0. -1.
         25    2    1    2    0    0  0.00000000000E+00  0.00000000000E+00  0.27654482560E+02  0.12802492660E+03  0.12500244567E+03 0.  0.
          4    1    3    3  501    0  0.57404880037E+02 -0.89417182912E+01 -0.97227780508E+01  0.58925457071E+02  0.15500000000E+01 0. -1.
         -4    1    3    3    0  501 -0.57404880037E+02  0.89417182912E+01  0.37377260611E+02  0.69099469526E+02  0.15500000000E+01 0. -1.
<mgrwt>
<rscale>  2 0.12500245E+03</rscale>
<asrwt>0</asrwt>
<pdfrwt beam="1">  1       21 0.11975339E-01 0.12500245E+03</pdfrwt>
<pdfrwt beam="2">  1       21 0.77208034E-02 0.12500245E+03</pdfrwt>
<totfact> 0.73625595E+06</totfact>
</mgrwt>
</event>
<event>
 5    0  0.1419022E+000  0.1250008E+03  0.7546771E-02  0.1235068E+00
         21   -1    0    0  503  502  0.00000000000E+00  0.00000000000E+00  0.15482346377E+02  0.15482346377E+02  0.00000000000E+00 0.  1.
         21   -1    0    0  502  503 -0.00000000000E+00 -0.00000000000E+00 -0.25230674692E+03  0.25230674692E+03  0.00000000000E+00 0.  1.
         25    2    1    2    0    0  0.00000000000E+00  0.00000000000E+00 -0.23682440054E+03  0.26778909329E+03  0.12500080718E+03 0.  0.
          4    1    3    3  501    0  0.13302755583E+02  0.53076185776E+02 -0.18303201640E+03  0.19104231555E+03  0.15500000000E+01 0.  1.
         -4    1    3    3    0  501 -0.13302755583E+02 -0.53076185776E+02 -0.53792384135E+02  0.76746777741E+02  0.15500000000E+01 0.  1.
<mgrwt>
<rscale>  2 0.12500081E+03</rscale>
<asrwt>0</asrwt>
<pdfrwt beam="1">  1       21 0.23818995E-02 0.12500081E+03</pdfrwt>
<pdfrwt beam="2">  1       21 0.38816422E-01 0.12500081E+03</pdfrwt>
<totfact> 0.58241449E+06</totfact>
</mgrwt>
</event>
<event>
 5    0  0.1386667E+000  0.1249993E+03  0.7546771E-02  0.1235070E+00
         21   -1    0    0  503  502  0.00000000000E+00  0.00000000000E+00  0.98473733351E+01  0.98473733351E+01  0.00000000000E+00 0.  1.
         21   -1    0    0  502  503 -0.00000000000E+00 -0.00000000000E+00 -0.39667517237E+03  0.39667517237E+03  0.00000000000E+00 0.  1.
         25    2    1    2    0    0  0.00000000000E+00  0.00000000000E+00 -0.38682779903E+03  0.40652254570E+03  0.12499933624E+03 0.  0.
          4    1    3    3  501    0 -0.41630985871E+02 -0.24361645452E+02 -0.64257127218E+02  0.80361742465E+02  0.15500000000E+01 0. -1.
         -4    1    3    3    0  501  0.41630985871E+02  0.24361645452E+02 -0.32257067181E+03  0.32616080324E+03  0.15500000000E+01 0. -1.
<mgrwt>
<rscale>  2 0.12499934E+03</rscale>
<asrwt>0</asrwt>
<pdfrwt beam="1">  1       21 0.15149806E-02 0.12499934E+03</pdfrwt>
<pdfrwt beam="2">  1       21 0.61026948E-01 0.12499934E+03</pdfrwt>
<totfact> 0.47612496E+06</totfact>
</mgrwt>
</event>
<event>
 5    0  0.1356377E+000  0.1250041E+03  0.7546771E-02  0.1235063E+00
         21   -1    0    0  503  502  0.00000000000E+00  0.00000000000E+00  0.12006716405E+02  0.12006716405E+02  0.00000000000E+00 0.  1.
         21   -1    0    0  502  503 -0.00000000000E+00 -0.00000000000E+00 -0.32536032797E+03  0.32536032797E+03  0.00000000000E+00 0.  1.
         25    2    1    2    0    0  0.00000000000E+00  0.00000000000E+00 -0.31335361157E+03  0.33736704438E+03  0.12500414693E+03 0.  0.
          4    1    3    3  501    0 -0.26477422990E+02  0.12131738188E+02 -0.74846686255E+01  0.30110725067E+02  0.15500000000E+01 0.  1.
         -4    1    3    3    0  501  0.26477422990E+02 -0.12131738188E+02 -0.30586894294E+03  0.30725631931E+03  0.15500000000E+01 0.  1.
<mgrwt>
<rscale>  2 0.12500415E+03</rscale>
<asrwt>0</asrwt>
<pdfrwt beam="1">  1       21 0.18471872E-02 0.12500415E+03</pdfrwt>
<pdfrwt beam="2">  1       21 0.50055432E-01 0.12500415E+03</pdfrwt>
<totfact> 0.52479709E+06</totfact>
</mgrwt>
</event>
<event>
 5    0  0.1580733E+000  0.1249986E+03  0.7546771E-02  0.1235072E+00
         21   -1    0    0  503  502  0.00000000000E+00  0.00000000000E+00  0.80854019769E+02  0.80854019769E+02  0.00000000000E+00 0. -1.
         21   -1    0    0  502  503 -0.00000000000E+00 -0.00000000000E+00 -0.48311266288E+02  0.48311266288E+02  0.00000000000E+00 0. -1.
         25    2    1    2    0    0  0.00000000000E+00  0.00000000000E+00  0.32542753481E+02  0.12916528606E+03  0.12499856126E+03 0.  0.
          4    1    3    3  501    0  0.61551169831E+02  0.10715134605E+02  0.16922428337E+02  0.64746673259E+02  0.15500000000E+01 0.  1.
         -4    1    3    3    0  501 -0.61551169831E+02 -0.10715134605E+02  0.15620325144E+02  0.64418612798E+02  0.15500000000E+01 0.  1.
<mgrwt>
<rscale>  2 0.12499856E+03</rscale>
<asrwt>0</asrwt>
<pdfrwt beam="1">  1       21 0.12439080E-01 0.12499856E+03</pdfrwt>
<pdfrwt beam="2">  1       21 0.74325025E-02 0.12499856E+03</pdfrwt>
<totfact> 0.73479391E+06</totfact>
</mgrwt>
</event>
<event>
 5    0  0.1447529E+000  0.1249928E+03  0.7546771E-02  0.1235081E+00
         21   -1    0    0  503  502  0.00000000000E+00  0.00000000000E+00  0.11488453914E+03  0.11488453914E+03  0.00000000000E+00 0.  1.
         21   -1    0    0  502  503 -0.00000000000E+00 -0.00000000000E+00 -0.33997594996E+02  0.33997594996E+02  0.00000000000E+00 0.  1.
         25    2    1    2    0    0  0.00000000000E+00  0.00000000000E+00  0.80886944149E+02  0.14888213414E+03  0.12499276832E+03 0.  0.
          4    1    3    3  501    0  0.39795048347E+02 -0.13234228906E+01  0.97790939977E+02  0.10559766931E+03  0.15500000000E+01 0. -1.
         -4    1    3    3    0  501 -0.39795048347E+02  0.13234228906E+01 -0.16903995828E+02  0.43284464835E+02  0.15500000000E+01 0. -1.
<mgrwt>
<rscale>  2 0.12499277E+03</rscale>
<asrwt>0</asrwt>
<pdfrwt beam="1">  1       21 0.17674544E-01 0.12499277E+03</pdfrwt>
<pdfrwt beam="2">  1       21 0.52303993E-02 0.12499277E+03</pdfrwt>
<totfact> 0.70912963E+06</totfact>
</mgrwt>
</event>
<event>
 5    0  0.1319309E+000  0.1249659E+03  0.7546771E-02  0.1235123E+00
         21   -1    0    0  503  502  0.00000000000E+00  0.00000000000E+00  0.79559441320E+01  0.79559441320E+01  0.00000000000E+00 0.  1.
         21   -1    0    0  502  503 -0.00000000000E+00 -0.00000000000E+00 -0.49071721834E+03  0.49071721834E+03  0.00000000000E+00 0.  1.
         25    2    1    2    0    0  0.00000000000E+00  0.00000000000E+00 -0.48276127421E+03  0.49867316247E+03  0.12496589573E+03 0.  0.
          4    1    3    3  501    0 -0.29889183425E+02 -0.52565087274E+02 -0.30387515375E+03  0.30983699465E+03  0.15500000000E+01 0. -1.
         -4    1    3    3    0  501  0.29889183425E+02  0.52565087274E+02 -0.17888612046E+03  0.18883616783E+03  0.15500000000E+01 0. -1.
<mgrwt>
<rscale>  2 0.12496590E+03</rscale>
<asrwt>0</asrwt>
<pdfrwt beam="1">  1       21 0.12239916E-02 0.12496590E+03</pdfrwt>
<pdfrwt beam="2">  1       21 0.75494946E-01 0.12496590E+03</pdfrwt>
<totfact> 0.42151908E+06</totfact>
</mgrwt>
</event>
<event>
 5    0  0.1525403E+000  0.1249957E+03  0.7546771E-02  0.1235076E+00
         21   -1    0    0  503  502  0.00000000000E+00  0.00000000000E+00  0.14982483561E+02  0.14982483561E+02  0.00000000000E+00 0.  1.
         21   -1    0    0  502  503 -0.00000000000E+00 -0.00000000000E+00 -0.26070300685E+03  0.26070300685E+03  0.00000000000E+00 0.  1.
         25    2    1    2    0    0  0.00000000000E+00  0.00000000000E+00 -0.24572052329E+03  0.27568549041E+03  0.12499565615E+03 0.  0.
          4    1    3    3  501    0  0.90648853422E+01  0.61312778449E+02 -0.10547307536E+03  0.12234541706E+03  0.15500000000E+01 0. -1.
         -4    1    3    3    0  501 -0.90648853422E+01 -0.61312778449E+02 -0.14024744793E+03  0.15334007336E+03  0.15500000000E+01 0. -1.
<mgrwt>
<rscale>  2 0.12499566E+03</rscale>
<asrwt>0</asrwt>
<pdfrwt beam="1">  1       21 0.23049974E-02 0.12499566E+03</pdfrwt>
<pdfrwt beam="2">  1       21 0.40108157E-01 0.12499566E+03</pdfrwt>
<totfact> 0.57545624E+06</totfact>
</mgrwt>
</event>
<event>
 5    0  0.1500436E+000  0.1249994E+03  0.7546771E-02  0.1235070E+00
         21   -1    0    0  503  502  0.00000000000E+00  0.00000000000E+00  0.30213218552E+03  0.30213218552E+03  0.00000000000E+00 0.  1.
         21   -1    0    0  502  503 -0.00000000000E+00 -0.00000000000E+00 -0.12928825652E+02  0.12928825652E+02  0.00000000000E+00 0.  1.
         25    2    1    2    0    0  0.00000000000E+00  0.00000000000E+00  0.28920335986E+03  0.31506101117E+03  0.12499942961E+03 0.  0.
          4    1    3    3  501    0  0.29096332937E+02  0.53316171651E+02  0.10767820184E+03  0.12363740696E+03  0.15500000000E+01 0.  1.
         -4    1    3    3    0  501 -0.29096332937E+02 -0.53316171651E+02  0.18152515803E+03  0.19142360420E+03  0.15500000000E+01 0.  1.
<mgrwt>
<rscale>  2 0.12499943E+03</rscale>
<asrwt>0</asrwt>
<pdfrwt beam="1">  1       21 0.46481869E-01 0.12499943E+03</pdfrwt>
<pdfrwt beam="2">  1       21 0.19890503E-02 0.12499943E+03</pdfrwt>
<totfact> 0.54227846E+06</totfact>
</mgrwt>
</event>
<event>
 5    0  0.1482079E+000  0.1250145E+03  0.7546771E-02  0.1235047E+00
         21   -1    0    0  503  502  0.00000000000E+00  0.00000000000E+00  0.95289892373E+01  0.95289892373E+01  0.00000000000E+00 0. -1.
         21   -1    0    0  502  503 -0.00000000000E+00 -0.00000000000E+00 -0.41002853127E+03  0.41002853127E+03  0.00000000000E+00 0. -1.
         25    2    1    2    0    0  0.00000000000E+00  0.00000000000E+00 -0.40049954203E+03  0.41955752051E+03  0.12501451854E+03 0.  0.
          4    1    3    3  501    0  0.59945492339E+02 -0.16922570067E+02 -0.18349644661E+03  0.19378643876E+03  0.15500000000E+01 0.  1.
         -4    1    3    3    0  501 -0.59945492339E+02  0.16922570067E+02 -0.21700309542E+03  0.22577108175E+03  0.15500000000E+01 0.  1.
<mgrwt>
<rscale>  2 0.12501452E+03</rscale>
<asrwt>0</asrwt>
<pdfrwt beam="1">  1       21 0.14659983E-02 0.12501452E+03</pdfrwt>
<pdfrwt beam="2">  1       21 0.63081313E-01 0.12501452E+03</pdfrwt>
<totfact> 0.46753657E+06</totfact>
</mgrwt>
</event>
<event>
 5    0  0.1542098E+000  0.1250000E+03  0.7546771E-02  0.1235069E+00
         21   -1    0    0  503  502  0.00000000000E+00  0.00000000000E+00  0.57110852281E+02  0.57110852281E+02  0.00000000000E+00 0.  1.
         21   -1    0    0  502  503 -0.00000000000E+00 -0.00000000000E+00 -0.68397704228E+02  0.68397704228E+02  0.00000000000E+00 0.  1.
         25    2    1    2    0    0  0.00000000000E+00  0.00000000000E+00 -0.11286851947E+02  0.12550855651E+03  0.12500001892E+03 0.  0.
          4    1    3    3  501    0 -0.54559207758E+02 -0.28417096706E+02 -0.16624561878E+02  0.63741800210E+02  0.15500000000E+01 0.  1.
         -4    1    3    3    0  501  0.54559207758E+02  0.28417096706E+02  0.53377099310E+01  0.61766756299E+02  0.15500000000E+01 0.  1.
<mgrwt>
<rscale>  2 0.12500002E+03</rscale>
<asrwt>0</asrwt>
<pdfrwt beam="1">  1       21 0.87862850E-02 0.12500002E+03</pdfrwt>
<pdfrwt beam="2">  1       21 0.10522724E-01 0.12500002E+03</pdfrwt>
<totfact> 0.73974165E+06</totfact>
</mgrwt>
</event>
<event>
 5    0  0.1394286E+000  0.1249909E+03  0.7546771E-02  0.1235084E+00
         21   -1    0    0  503  502  0.00000000000E+00  0.00000000000E+00  0.19599925841E+02  0.19599925841E+02  0.00000000000E+00 0.  1.
         21   -1    0    0  502  503 -0.00000000000E+00 -0.00000000000E+00 -0.19927008223E+03  0.19927008223E+03  0.00000000000E+00 0.  1.
         25    2    1    2    0    0  0.00000000000E+00  0.00000000000E+00 -0.17967015639E+03  0.21887000808E+03  0.12499086101E+03 0.  0.
          4    1    3    3  501    0 -0.42512981763E+01 -0.47417135334E+02 -0.16067991436E+03  0.16759145455E+03  0.15500000000E+01 0.  1.
         -4    1    3    3    0  501  0.42512981763E+01  0.47417135334E+02 -0.18990242038E+02  0.51278553530E+02  0.15500000000E+01 0.  1.
<mgrwt>
<rscale>  2 0.12499086E+03</rscale>
<asrwt>0</asrwt>
<pdfrwt beam="1">  1       21 0.30153732E-02 0.12499086E+03</pdfrwt>
<pdfrwt beam="2">  1       21 0.30656936E-01 0.12499086E+03</pdfrwt>
<totfact> 0.62952763E+06</totfact>
</mgrwt>
</event>
<event>
 5    0  0.1565395E+000  0.1249764E+03  0.7546771E-02  0.1235106E+00
         21   -1    0    0  503  502  0.00000000000E+00  0.00000000000E+00  0.14541268535E+03  0.14541268535E+03  0.00000000000E+00 0.  1.
         21   -1    0    0  502  503 -0.00000000000E+00 -0.00000000000E+00 -0.26853037051E+02  0.26853037051E+02  0.00000000000E+00 0.  1.
         25    2    1    2    0    0  0.00000000000E+00  0.00000000000E+00  0.11855964830E+03  0.17226572240E+03  0.12497635340E+03 0.  0.
          4    1    3    3  501    0  0.22913396056E+02 -0.57557119578E+02  0.48207682241E+02  0.78512603192E+02  0.15500000000E+01 0.  1.
         -4    1    3    3    0  501 -0.22913396056E+02  0.57557119578E+02  0.70351966054E+02  0.93753119205E+02  0.15500000000E+01 0.  1.
<mgrwt>
<rscale>  2 0.12497635E+03</rscale>
<asrwt>0</asrwt>
<pdfrwt beam="1">  1       21 0.22371182E-01 0.12497635E+03</pdfrwt>
<pdfrwt beam="2">  1       21 0.41312366E-02 0.12497635E+03</pdfrwt>
<totfact> 0.68090916E+06</totfact>
</mgrwt>
</event>
<event>
 5    0  0.1222151E+000  0.1250043E+03  0.7546771E-02  0.1235063E+00
         21   -1    0    0  503  502  0.00000000000E+00  0.00000000000E+00  0.23495267002E+01  0.23495267002E+01  0.00000000000E+00 0.  1.
         21   -1    0    0  502  503 -0.00000000000E+00 -0.00000000000E+00 -0.16626833767E+04  0.16626833767E+04  0.00000000000E+00 0.  1.
         25    2    1    2    0    0  0.00000000000E+00  0.00000000000E+00 -0.16603338500E+04  0.16650329034E+04  0.12500430373E+03 0.  0.
          4    1    3    3  501    0 -0.57382619817E+02  0.10549056766E+02 -0.11280273111E+04  0.11295362167E+04  0.15500000000E+01 0. -1.
         -4    1    3    3    0  501  0.57382619817E+02 -0.10549056766E+02 -0.53230653888E+03  0.53549668672E+03  0.15500000000E+01 0. -1.
<mgrwt>
<rscale>  2 0.12500430E+03</rscale>
<asrwt>0</asrwt>
<pdfrwt beam="1">  1       21 0.36146514E-03 0.12500430E+03</pdfrwt>
<pdfrwt beam="2">  1       21 0.25579780E+00 0.12500430E+03</pdfrwt>
<totfact> 0.11711845E+06</totfact>
</mgrwt>
</event>
<event>
 5    0  0.1222151E+000  0.1250090E+03  0.7546771E-02  0.1235055E+00
         21   -1    0    0  503  502  0.00000000000E+00  0.00000000000E+00  0.27168802769E+02  0.27168802769E+02  0.00000000000E+00 0. -1.
         21   -1    0    0  502  503 -0.00000000000E+00 -0.00000000000E+00 -0.14379769058E+03  0.14379769058E+03  0.00000000000E+00 0. -1.
         25    2    1    2    0    0  0.00000000000E+00  0.00000000000E+00 -0.11662888781E+03  0.17096649335E+03  0.12500897718E+03 0.  0.
          4    1    3    3  501    0  0.97157600334E+01 -0.20067988291E+02 -0.13814593712E+03  0.13994221160E+03  0.15500000000E+01 0. -1.
         -4    1    3    3    0  501 -0.97157600334E+01  0.20067988291E+02  0.21517049304E+02  0.31024281746E+02  0.15500000000E+01 0. -1.
<mgrwt>
<rscale>  2 0.12500898E+03</rscale>
<asrwt>0</asrwt>
<pdfrwt beam="1">  1       21 0.41798159E-02 0.12500898E+03</pdfrwt>
<pdfrwt beam="2">  1       21 0.22122721E-01 0.12500898E+03</pdfrwt>
<totfact> 0.68187708E+06</totfact>
</mgrwt>
</event>
<event>
 5    0  0.1357962E+000  0.1250038E+03  0.7546771E-02  0.1235063E+00
         21   -1    0    0  503  502  0.00000000000E+00  0.00000000000E+00  0.35070642112E+03  0.35070642112E+03  0.00000000000E+00 0. -1.
         21   -1    0    0  502  503 -0.00000000000E+00 -0.00000000000E+00 -0.11138908951E+02  0.11138908951E+02  0.00000000000E+00 0. -1.
         25    2    1    2    0    0  0.00000000000E+00  0.00000000000E+00  0.33956751216E+03  0.36184533007E+03  0.12500379023E+03 0.  0.
          4    1    3    3  501    0 -0.24694913756E+02  0.54997896685E+02  0.12226548477E+03  0.13632996248E+03  0.15500000000E+01 0. -1.
         -4    1    3    3    0  501  0.24694913756E+02 -0.54997896685E+02  0.21730202740E+03  0.22551536759E+03  0.15500000000E+01 0. -1.
<mgrwt>
<rscale>  2 0.12500379E+03</rscale>
<asrwt>0</asrwt>
<pdfrwt beam="1">  1       21 0.53954826E-01 0.12500379E+03</pdfrwt>
<pdfrwt beam="2">  1       21 0.17136786E-02 0.12500379E+03</pdfrwt>
<totfact> 0.50670538E+06</totfact>
</mgrwt>
</event>
<event>
 5    0  0.1437144E+000  0.1249970E+03  0.7546771E-02  0.1235074E+00
         21   -1    0    0  503  502  0.00000000000E+00  0.00000000000E+00  0.32686914439E+03  0.32686914439E+03  0.00000000000E+00 0.  1.
         21   -1    0    0  502  503 -0.00000000000E+00 -0.00000000000E+00 -0.11949933345E+02  0.11949933345E+02  0.00000000000E+00 0.  1.
         25    2    1    2    0    0  0.00000000000E+00  0.00000000000E+00  0.31491921104E+03  0.33881907773E+03  0.12499703177E+03 0.  0.
          4    1    3    3  501    0 -0.16923651006E+02  0.55509977564E+02  0.94710466484E+02  0.11108664427E+03  0.15500000000E+01 0. -1.
         -4    1    3    3    0  501  0.16923651006E+02 -0.55509977564E+02  0.22020874456E+03  0.22773243347E+03  0.15500000000E+01 0. -1.
<mgrwt>
<rscale>  2 0.12499703E+03</rscale>
<asrwt>0</asrwt>
<pdfrwt beam="1">  1       21 0.50287554E-01 0.12499703E+03</pdfrwt>
<pdfrwt beam="2">  1       21 0.18384515E-02 0.12499703E+03</pdfrwt>
<totfact> 0.52378826E+06</totfact>
</mgrwt>
</event>
<event>
 5    0  0.1476654E+000  0.1250022E+03  0.7546771E-02  0.1235066E+00
         21   -1    0    0  503  502  0.00000000000E+00  0.00000000000E+00  0.28347549855E+03  0.28347549855E+03  0.00000000000E+00 0.  1.
         21   -1    0    0  502  503 -0.00000000000E+00 -0.00000000000E+00 -0.13780329926E+02  0.13780329926E+02  0.00000000000E+00 0.  1.
         25    2    1    2    0    0  0.00000000000E+00  0.00000000000E+00  0.26969516862E+03  0.29725582848E+03  0.12500217432E+03 0.  0.
          4    1    3    3  501    0  0.50828732650E+02 -0.25129589161E+02  0.72431080258E+02  0.91998479344E+02  0.15500000000E+01 0. -1.
         -4    1    3    3    0  501 -0.50828732650E+02  0.25129589161E+02  0.19726408836E+03  0.20525734913E+03  0.15500000000E+01 0. -1.
<mgrwt>
<rscale>  2 0.12500217E+03</rscale>
<asrwt>0</asrwt>
<pdfrwt beam="1">  1       21 0.43611611E-01 0.12500217E+03</pdfrwt>
<pdfrwt beam="2">  1       21 0.21200510E-02 0.12500217E+03</pdfrwt>
<totfact> 0.55681958E+06</totfact>
</mgrwt>
</event>
<event>
 5    0  0.1556237E+000  0.1250013E+03  0.7546771E-02  0.1235067E+00
         21   -1    0    0  503  502  0.00000000000E+00  0.00000000000E+00  0.36568957965E+02  0.36568957965E+02  0.00000000000E+00 0.  1.
         21   -1    0    0  502  503 -0.00000000000E+00 -0.00000000000E+00 -0.10682104101E+03  0.10682104101E+03  0.00000000000E+00 0.  1.
         25    2    1    2    0    0  0.00000000000E+00  0.00000000000E+00 -0.70252083043E+02  0.14338999897E+03  0.12500134653E+03 0.  0.
          4    1    3    3  501    0 -0.12565189335E+02 -0.56252430396E+02 -0.62792787865E+02  0.85249965492E+02  0.15500000000E+01 0. -1.
         -4    1    3    3    0  501  0.12565189335E+02  0.56252430396E+02 -0.74592951777E+01  0.58140033480E+02  0.15500000000E+01 0. -1.
<mgrwt>
<rscale>  2 0.12500135E+03</rscale>
<asrwt>0</asrwt>
<pdfrwt beam="1">  1       21 0.56259935E-02 0.12500135E+03</pdfrwt>
<pdfrwt beam="2">  1       21 0.16434006E-01 0.12500135E+03</pdfrwt>
<totfact> 0.71597326E+06</totfact>
</mgrwt>
</event>
<event>
 5    0  0.1222151E+000  0.1249986E+03  0.7546771E-02  0.1235071E+00
         21   -1    0    0  503  502  0.00000000000E+00  0.00000000000E+00  0.11375887804E+04  0.11375887804E+04  0.00000000000E+00 0. -1.
         21   -1    0    0  502  503 -0.00000000000E+00 -0.00000000000E+00 -0.34337212512E+01  0.34337212512E+01  0.00000000000E+00 0. -1.
         25    2    1    2    0    0  0.00000000000E+00  0.00000000000E+00  0.11341550591E+04  0.11410225016E+04  0.12499860432E+03 0.  0.
          4    1    3    3  501    0 -0.23218480449E+02 -0.48721833490E+02  0.85441481789E+03  0.85611914966E+03  0.15500000000E+01 0.  1.
         -4    1    3    3    0  501  0.23218480449E+02  0.48721833490E+02  0.27974024121E+03  0.28490335194E+03  0.15500000000E+01 0.  1.
<mgrwt>
<rscale>  2 0.12499860E+03</rscale>
<asrwt>0</asrwt>
<pdfrwt beam="1">  1       21 0.17501336E+00 0.12499860E+03</pdfrwt>
<pdfrwt beam="2">  1       21 0.52826572E-03 0.12499860E+03</pdfrwt>
<totfact> 0.20360466E+06</totfact>
</mgrwt>
</event>
<event>
 5    0  0.1483631E+000  0.1249997E+03  0.7546771E-02  0.1235070E+00
         21   -1    0    0  503  502  0.00000000000E+00  0.00000000000E+00  0.26969387344E+03  0.26969387344E+03  0.00000000000E+00 0.  1.
         21   -1    0    0  502  503 -0.00000000000E+00 -0.00000000000E+00 -0.14483948563E+02  0.14483948563E+02  0.00000000000E+00 0.  1.
         25    2    1    2    0    0  0.00000000000E+00  0.00000000000E+00  0.25520992488E+03  0.28417782200E+03  0.12499971505E+03 0.  0.
          4    1    3    3  501    0 -0.32812369129E+02  0.46763982523E+02  0.70077443609E+02  0.90425506535E+02  0.15500000000E+01 0. -1.
         -4    1    3    3    0  501  0.32812369129E+02 -0.46763982523E+02  0.18513248127E+03  0.19375231547E+03  0.15500000000E+01 0. -1.
<mgrwt>
<rscale>  2 0.12499972E+03</rscale>
<asrwt>0</asrwt>
<pdfrwt beam="1">  1       21 0.41491361E-01 0.12499972E+03</pdfrwt>
<pdfrwt beam="2">  1       21 0.22283000E-02 0.12499972E+03</pdfrwt>
<totfact> 0.56797645E+06</totfact>
</mgrwt>
</event>
<event>
 5    0  0.1574588E+000  0.1250068E+03  0.7546771E-02  0.1235059E+00
         21   -1    0    0  503  502  0.00000000000E+00  0.00000000000E+00  0.54953735889E+02  0.54953735889E+02  0.00000000000E+00 0. -1.
         21   -1    0    0  502  503 -0.00000000000E+00 -0.00000000000E+00 -0.71090309289E+02  0.71090309289E+02  0.00000000000E+00 0. -1.
         25    2    1    2    0    0  0.00000000000E+00  0.00000000000E+00 -0.16136573400E+02  0.12604404518E+03  0.12500684911E+03 0.  0.
          4    1    3    3  501    0  0.98221365369E+00 -0.54285233908E+02  0.23114419733E+02  0.59029909908E+02  0.15500000000E+01 0.  1.
         -4    1    3    3    0  501 -0.98221365369E+00  0.54285233908E+02 -0.39250993134E+02  0.67014135271E+02  0.15500000000E+01 0.  1.
<mgrwt>
<rscale>  2 0.12500685E+03</rscale>
<asrwt>0</asrwt>
<pdfrwt beam="1">  1       21 0.84544209E-02 0.12500685E+03</pdfrwt>
<pdfrwt beam="2">  1       21 0.10936971E-01 0.12500685E+03</pdfrwt>
<totfact> 0.73887056E+06</totfact>
</mgrwt>
</event>
<event>
 5    0  0.1591276E+000  0.1250002E+03  0.7546771E-02  0.1235069E+00
         21   -1    0    0  503  502  0.00000000000E+00  0.00000000000E+00  0.11431541897E+03  0.11431541897E+03  0.00000000000E+00 0. -1.
         21   -1    0    0  502  503 -0.00000000000E+00 -0.00000000000E+00 -0.34170889121E+02  0.34170889121E+02  0.00000000000E+00 0. -1.
         25    2    1    2    0    0  0.00000000000E+00  0.00000000000E+00  0.80144529845E+02  0.14848630809E+03  0.12500015210E+03 0.  0.
          4    1    3    3  501    0 -0.11968768695E+02  0.50736399955E+02 -0.84397360114E+00  0.52158877441E+02  0.15500000000E+01 0.  1.
         -4    1    3    3    0  501  0.11968768695E+02 -0.50736399955E+02  0.80988503446E+02  0.96327430646E+02  0.15500000000E+01 0.  1.
<mgrwt>
<rscale>  2 0.12500015E+03</rscale>
<asrwt>0</asrwt>
<pdfrwt beam="1">  1       21 0.17586987E-01 0.12500015E+03</pdfrwt>
<pdfrwt beam="2">  1       21 0.52570599E-02 0.12500015E+03</pdfrwt>
<totfact> 0.70949595E+06</totfact>
</mgrwt>
</event>
<event>
 5    0  0.1264581E+000  0.1249938E+03  0.7546771E-02  0.1235079E+00
         21   -1    0    0  503  502  0.00000000000E+00  0.00000000000E+00  0.54035975488E+03  0.54035975488E+03  0.00000000000E+00 0.  1.
         21   -1    0    0  502  503 -0.00000000000E+00 -0.00000000000E+00 -0.72282610204E+01  0.72282610204E+01  0.00000000000E+00 0.  1.
         25    2    1    2    0    0  0.00000000000E+00  0.00000000000E+00  0.53313149386E+03  0.54758801590E+03  0.12499378150E+03 0.  0.
          4    1    3    3  501    0  0.19904361285E+01 -0.51622139503E+02  0.42050088390E+03  0.42366520152E+03  0.15500000000E+01 0.  1.
         -4    1    3    3    0  501 -0.19904361285E+01  0.51622139503E+02  0.11263060996E+03  0.12392281438E+03  0.15500000000E+01 0.  1.
<mgrwt>
<rscale>  2 0.12499378E+03</rscale>
<asrwt>0</asrwt>
<pdfrwt beam="1">  1       21 0.83132238E-01 0.12499378E+03</pdfrwt>
<pdfrwt beam="2">  1       21 0.11120406E-02 0.12499378E+03</pdfrwt>
<totfact> 0.39581647E+06</totfact>
</mgrwt>
</event>
<event>
 5    0  0.1222151E+000  0.1250076E+03  0.7546771E-02  0.1235057E+00
         21   -1    0    0  503  502  0.00000000000E+00  0.00000000000E+00  0.59425194131E+02  0.59425194131E+02  0.00000000000E+00 0.  1.
         21   -1    0    0  502  503 -0.00000000000E+00 -0.00000000000E+00 -0.65741854441E+02  0.65741854441E+02  0.00000000000E+00 0.  1.
         25    2    1    2    0    0  0.00000000000E+00  0.00000000000E+00 -0.63166603098E+01  0.12516704857E+03  0.12500755917E+03 0.  0.
          4    1    3    3  501    0 -0.91886781036E+01 -0.22678297620E+02  0.54409222617E+02  0.59678329350E+02  0.15500000000E+01 0.  1.
         -4    1    3    3    0  501  0.91886781036E+01  0.22678297620E+02 -0.60725882926E+02  0.65488719223E+02  0.15500000000E+01 0.  1.
<mgrwt>
<rscale>  2 0.12500756E+03</rscale>
<asrwt>0</asrwt>
<pdfrwt beam="1">  1       21 0.91423376E-02 0.12500756E+03</pdfrwt>
<pdfrwt beam="2">  1       21 0.10114131E-01 0.12500756E+03</pdfrwt>
<totfact> 0.74006718E+06</totfact>
</mgrwt>
</event>
<event>
 5    0  0.1222151E+000  0.1250025E+03  0.7546771E-02  0.1235065E+00
         21   -1    0    0  503  502  0.00000000000E+00  0.00000000000E+00  0.91866179258E+01  0.91866179258E+01  0.00000000000E+00 0.  1.
         21   -1    0    0  502  503 -0.00000000000E+00 -0.00000000000E+00 -0.42522760247E+03  0.42522760247E+03  0.00000000000E+00 0.  1.
         25    2    1    2    0    0  0.00000000000E+00  0.00000000000E+00 -0.41604098455E+03  0.43441422040E+03  0.12500245622E+03 0.  0.
          4    1    3    3  501    0 -0.20032249354E+02 -0.48226394105E+01 -0.41301438417E+03  0.41353093342E+03  0.15500000000E+01 0.  1.
         -4    1    3    3    0  501  0.20032249354E+02  0.48226394105E+01 -0.30266003756E+01  0.20883286976E+02  0.15500000000E+01 0.  1.
<mgrwt>
<rscale>  2 0.12500246E+03</rscale>
<asrwt>0</asrwt>
<pdfrwt beam="1">  1       21 0.14133258E-02 0.12500246E+03</pdfrwt>
<pdfrwt beam="2">  1       21 0.65419632E-01 0.12500246E+03</pdfrwt>
<totfact> 0.45836618E+06</totfact>
</mgrwt>
</event>
<event>
 5    0  0.1491890E+000  0.1249922E+03  0.7546771E-02  0.1235081E+00
         21   -1    0    0  503  502  0.00000000000E+00  0.00000000000E+00  0.97382651395E+02  0.97382651395E+02  0.00000000000E+00 0.  1.
         21   -1    0    0  502  503 -0.00000000000E+00 -0.00000000000E+00 -0.40107384326E+02  0.40107384326E+02  0.00000000000E+00 0.  1.
         25    2    1    2    0    0  0.00000000000E+00  0.00000000000E+00  0.57275267068E+02  0.13749003572E+03  0.12499221458E+03 0.  0.
          4    1    3    3  501    0 -0.26336435253E+02  0.23593053953E+02 -0.28021089618E+02  0.45142263790E+02  0.15500000000E+01 0.  1.
         -4    1    3    3    0  501  0.26336435253E+02 -0.23593053953E+02  0.85296356687E+02  0.92347771931E+02  0.15500000000E+01 0.  1.
<mgrwt>
<rscale>  2 0.12499221E+03</rscale>
<asrwt>0</asrwt>
<pdfrwt beam="1">  1       21 0.14981946E-01 0.12499221E+03</pdfrwt>
<pdfrwt beam="2">  1       21 0.61703668E-02 0.12499221E+03</pdfrwt>
<totfact> 0.72382791E+06</totfact>
</mgrwt>
</event>
<event>
 5    0  0.1331141E+000  0.1249925E+03  0.7546771E-02  0.1235081E+00
         21   -1    0    0  503  502  0.00000000000E+00  0.00000000000E+00  0.11465822684E+02  0.11465822684E+02  0.00000000000E+00 0.  1.
         21   -1    0    0  502  503 -0.00000000000E+00 -0.00000000000E+00 -0.34064550379E+03  0.34064550379E+03  0.00000000000E+00 0.  1.
         25    2    1    2    0    0  0.00000000000E+00  0.00000000000E+00 -0.32917968110E+03  0.35211132647E+03  0.12499249489E+03 0.  0.
          4    1    3    3  501    0  0.77863315765E+01  0.33773441708E+02 -0.18154042240E+02  0.39156660658E+02  0.15500000000E+01 0. -1.
         -4    1    3    3    0  501 -0.77863315765E+01 -0.33773441708E+02 -0.31102563886E+03  0.31295466581E+03  0.15500000000E+01 0. -1.
<mgrwt>
<rscale>  2 0.12499249E+03</rscale>
<asrwt>0</asrwt>
<pdfrwt beam="1">  1       21 0.17639729E-02 0.12499249E+03</pdfrwt>
<pdfrwt beam="2">  1       21 0.52406994E-01 0.12499249E+03</pdfrwt>
<totfact> 0.51392545E+06</totfact>
</mgrwt>
</event>
<event>
 5    0  0.1222151E+000  0.1250020E+03  0.7546771E-02  0.1235066E+00
         21   -1    0    0  503  502  0.00000000000E+00  0.00000000000E+00  0.10901415495E+04  0.10901415495E+04  0.00000000000E+00 0.  1.
         21   -1    0    0  502  503 -0.00000000000E+00 -0.00000000000E+00 -0.35833673112E+01  0.35833673112E+01  0.00000000000E+00 0.  1.
         25    2    1    2    0    0  0.00000000000E+00  0.00000000000E+00  0.10865581822E+04  0.10937249168E+04  0.12500204147E+03 0.  0.
          4    1    3    3  501    0  0.45046887742E+02 -0.26277698972E+02  0.84437859824E+03  0.84598898292E+03  0.15500000000E+01 0. -1.
         -4    1    3    3    0  501 -0.45046887742E+02  0.26277698972E+02  0.24217958393E+03  0.24773593387E+03  0.15500000000E+01 0. -1.
<mgrwt>
<rscale>  2 0.12500204E+03</rscale>
<asrwt>0</asrwt>
<pdfrwt beam="1">  1       21 0.16771382E+00 0.12500204E+03</pdfrwt>
<pdfrwt beam="2">  1       21 0.55128815E-03 0.12500204E+03</pdfrwt>
<totfact> 0.21390458E+06</totfact>
</mgrwt>
</event>
<event>
 5    0  0.1364997E+000  0.1250038E+03  0.7546771E-02  0.1235063E+00
         21   -1    0    0  503  502  0.00000000000E+00  0.00000000000E+00  0.44391242728E+03  0.44391242728E+03  0.00000000000E+00 0. -1.
         21   -1    0    0  502  503 -0.00000000000E+00 -0.00000000000E+00 -0.88001295231E+01  0.88001295231E+01  0.00000000000E+00 0. -1.
         25    2    1    2    0    0  0.00000000000E+00  0.00000000000E+00  0.43511229776E+03  0.45271255681E+03  0.12500378965E+03 0.  0.
          4    1    3    3  501    0  0.58267759476E+02  0.83462897298E+01  0.29346213269E+03  0.29931123963E+03  0.15500000000E+01 0. -1.
         -4    1    3    3    0  501 -0.58267759476E+02 -0.83462897298E+01  0.14165016507E+03  0.15340131718E+03  0.15500000000E+01 0. -1.
<mgrwt>
<rscale>  2 0.12500379E+03</rscale>
<asrwt>0</asrwt>
<pdfrwt beam="1">  1       21 0.68294202E-01 0.12500379E+03</pdfrwt>
<pdfrwt beam="2">  1       21 0.13538664E-02 0.12500379E+03</pdfrwt>
<totfact> 0.44726179E+06</totfact>
</mgrwt>
</event>
<event>
 5    0  0.1222151E+000  0.1250002E+03  0.7546771E-02  0.1235069E+00
         21   -1    0    0  503  502  0.00000000000E+00  0.00000000000E+00  0.97954952029E+03  0.97954952029E+03  0.00000000000E+00 0. -1.
         21   -1    0    0  502  503 -0.00000000000E+00 -0.00000000000E+00 -0.39878125477E+01  0.39878125477E+01  0.00000000000E+00 0. -1.
         25    2    1    2    0    0  0.00000000000E+00  0.00000000000E+00  0.97556170774E+03  0.98353733284E+03  0.12500015789E+03 0.  0.
          4    1    3    3  501    0  0.28717148145E+02 -0.19782096193E+02  0.89570829251E+03  0.89638817133E+03  0.15500000000E+01 0. -1.
         -4    1    3    3    0  501 -0.28717148145E+02  0.19782096193E+02  0.79853415229E+02  0.87149161505E+02  0.15500000000E+01 0. -1.
<mgrwt>
<rscale>  2 0.12500016E+03</rscale>
<asrwt>0</asrwt>
<pdfrwt beam="1">  1       21 0.15069973E+00 0.12500016E+03</pdfrwt>
<pdfrwt beam="2">  1       21 0.61351040E-03 0.12500016E+03</pdfrwt>
<totfact> 0.24034403E+06</totfact>
</mgrwt>
</event>
<event>
 5    0  0.1222151E+000  0.1249995E+03  0.7546771E-02  0.1235070E+00
         21   -1    0    0  503  502  0.00000000000E+00  0.00000000000E+00  0.97461780188E+03  0.97461780188E+03  0.00000000000E+00 0.  1.
         21   -1    0    0  502  503 -0.00000000000E+00 -0.00000000000E+00 -0.40079475324E+01  0.40079475324E+01  0.00000000000E+00 0.  1.
         25    2    1    2    0    0  0.00000000000E+00  0.00000000000E+00  0.97060985434E+03  0.97862574941E+03  0.12499947222E+03 0.  0.
          4    1    3    3  501    0 -0.23845089927E+02  0.17809967868E+02  0.55204053118E+02  0.62734944407E+02  0.15500000000E+01 0. -1.
         -4    1    3    3    0  501  0.23845089927E+02 -0.17809967868E+02  0.91540580123E+03  0.91589080500E+03  0.15500000000E+01 0. -1.
<mgrwt>
<rscale>  2 0.12499947E+03</rscale>
<asrwt>0</asrwt>
<pdfrwt beam="1">  1       21 0.14994101E+00 0.12499947E+03</pdfrwt>
<pdfrwt beam="2">  1       21 0.61660809E-03 0.12499947E+03</pdfrwt>
<totfact> 0.24160679E+06</totfact>
</mgrwt>
</event>
<event>
 5    0  0.1353401E+000  0.1250159E+03  0.7546771E-02  0.1235044E+00
         21   -1    0    0  503  502  0.00000000000E+00  0.00000000000E+00  0.63143369145E+01  0.63143369145E+01  0.00000000000E+00 0. -1.
         21   -1    0    0  502  503 -0.00000000000E+00 -0.00000000000E+00 -0.61878909139E+03  0.61878909139E+03  0.00000000000E+00 0. -1.
         25    2    1    2    0    0  0.00000000000E+00  0.00000000000E+00 -0.61247475448E+03  0.62510342831E+03  0.12501588382E+03 0.  0.
          4    1    3    3  501    0 -0.10419781283E+02  0.61451961511E+02 -0.32855688509E+03  0.33442031137E+03  0.15500000000E+01 0. -1.
         -4    1    3    3    0  501  0.10419781283E+02 -0.61451961511E+02 -0.28391786938E+03  0.29068311694E+03  0.15500000000E+01 0. -1.
<mgrwt>
<rscale>  2 0.12501588E+03</rscale>
<asrwt>0</asrwt>
<pdfrwt beam="1">  1       21 0.97143644E-03 0.12501588E+03</pdfrwt>
<pdfrwt beam="2">  1       21 0.95198322E-01 0.12501588E+03</pdfrwt>
<totfact> 0.35967232E+06</totfact>
</mgrwt>
</event>
<event>
 5    0  0.1352382E+000  0.1250157E+03  0.7546771E-02  0.1235045E+00
         21   -1    0    0  503  502  0.00000000000E+00  0.00000000000E+00  0.12297010472E+02  0.12297010472E+02  0.00000000000E+00 0.  1.
         21   -1    0    0  502  503 -0.00000000000E+00 -0.00000000000E+00 -0.31773841972E+03  0.31773841972E+03  0.00000000000E+00 0.  1.
         25    2    1    2    0    0  0.00000000000E+00  0.00000000000E+00 -0.30544140925E+03  0.33003543020E+03  0.12501572180E+03 0.  0.
          4    1    3    3  501    0  0.20124746162E+02  0.36200927598E+01  0.31643393390E+01  0.20749121020E+02  0.15500000000E+01 0.  1.
         -4    1    3    3    0  501 -0.20124746162E+02 -0.36200927598E+01 -0.30860574859E+03  0.30928630918E+03  0.15500000000E+01 0.  1.
<mgrwt>
<rscale>  2 0.12501572E+03</rscale>
<asrwt>0</asrwt>
<pdfrwt beam="1">  1       21 0.18918478E-02 0.12501572E+03</pdfrwt>
<pdfrwt beam="2">  1       21 0.48882834E-01 0.12501572E+03</pdfrwt>
<totfact> 0.53026638E+06</totfact>
</mgrwt>
</event>
<event>
 5    0  0.1606183E+000  0.1249841E+03  0.7546771E-02  0.1235094E+00
         21   -1    0    0  503  502  0.00000000000E+00  0.00000000000E+00  0.53074783502E+02  0.53074783502E+02  0.00000000000E+00 0. -1.
         21   -1    0    0  502  503 -0.00000000000E+00 -0.00000000000E+00 -0.73580263932E+02  0.73580263932E+02  0.00000000000E+00 0. -1.
         25    2    1    2    0    0  0.00000000000E+00  0.00000000000E+00 -0.20505480430E+02  0.12665504743E+03  0.12498410424E+03 0.  0.
          4    1    3    3  501    0 -0.56325454863E+02  0.16392903538E+02  0.11518665557E+02  0.59802728266E+02  0.15500000000E+01 0.  1.
         -4    1    3    3    0  501  0.56325454863E+02 -0.16392903538E+02 -0.32024145987E+02  0.66852319168E+02  0.15500000000E+01 0.  1.
<mgrwt>
<rscale>  2 0.12498410E+03</rscale>
<asrwt>0</asrwt>
<pdfrwt beam="1">  1       21 0.81653513E-02 0.12498410E+03</pdfrwt>
<pdfrwt beam="2">  1       21 0.11320041E-01 0.12498410E+03</pdfrwt>
<totfact> 0.73846129E+06</totfact>
</mgrwt>
</event>
<event>
 5    0  0.1491132E+000  0.1250024E+03  0.7546771E-02  0.1235065E+00
         21   -1    0    0  503  502  0.00000000000E+00  0.00000000000E+00  0.21631150724E+03  0.21631150724E+03  0.00000000000E+00 0.  1.
         21   -1    0    0  502  503 -0.00000000000E+00 -0.00000000000E+00 -0.18059153173E+02  0.18059153173E+02  0.00000000000E+00 0.  1.
         25    2    1    2    0    0  0.00000000000E+00  0.00000000000E+00  0.19825235406E+03  0.23437066041E+03  0.12500244225E+03 0.  0.
          4    1    3    3  501    0 -0.58576389393E+02  0.87673633964E+01  0.61818390533E+02  0.85626958158E+02  0.15500000000E+01 0. -1.
         -4    1    3    3    0  501  0.58576389393E+02 -0.87673633964E+01  0.13643396353E+03  0.14874370225E+03  0.15500000000E+01 0. -1.
<mgrwt>
<rscale>  2 0.12500244E+03</rscale>
<asrwt>0</asrwt>
<pdfrwt beam="1">  1       21 0.33278692E-01 0.12500244E+03</pdfrwt>
<pdfrwt beam="2">  1       21 0.27783314E-02 0.12500244E+03</pdfrwt>
<totfact> 0.61377911E+06</totfact>
</mgrwt>
</event>
<event>
 5    0  0.1596090E+000  0.1250024E+03  0.7546771E-02  0.1235066E+00
         21   -1    0    0  503  502  0.00000000000E+00  0.00000000000E+00  0.52088722355E+02  0.52088722355E+02  0.00000000000E+00 0.  1.
         21   -1    0    0  502  503 -0.00000000000E+00 -0.00000000000E+00 -0.74995077386E+02  0.74995077386E+02  0.00000000000E+00 0.  1.
         25    2    1    2    0    0  0.00000000000E+00  0.00000000000E+00 -0.22906355031E+02  0.12708379974E+03  0.12500236420E+03 0.  0.
          4    1    3    3  501    0  0.54368709122E+02  0.30328403804E+02 -0.16854519460E+02  0.64515470510E+02  0.15500000000E+01 0. -1.
         -4    1    3    3    0  501 -0.54368709122E+02 -0.30328403804E+02 -0.60518355713E+01  0.62568329230E+02  0.15500000000E+01 0. -1.
<mgrwt>
<rscale>  2 0.12500236E+03</rscale>
<asrwt>0</asrwt>
<pdfrwt beam="1">  1       21 0.80136496E-02 0.12500236E+03</pdfrwt>
<pdfrwt beam="2">  1       21 0.11537704E-01 0.12500236E+03</pdfrwt>
<totfact> 0.73753282E+06</totfact>
</mgrwt>
</event>
<event>
 4    0  0.1624581E+000  0.1248013E+03  0.7546771E-02  0.1235380E+00
         21   -1    0    0  503  502  0.00000000000E+00  0.00000000000E+00  0.82546465691E+01  0.82546465691E+01  0.00000000000E+00 0. -1.
         21   -1    0    0  502  503 -0.00000000000E+00 -0.00000000000E+00 -0.47171515553E+03  0.47171515553E+03  0.00000000000E+00 0. -1.
          4    1    1    2  501    0 -0.44731382973E+02  0.11348998120E+02 -0.70307021789E+02  0.84114066563E+02  0.15500000000E+01 0. -1.
         -4    1    1    2    0  501  0.44731382973E+02 -0.11348998120E+02 -0.39315348718E+03  0.39585573554E+03  0.15500000000E+01 0. -1.
<mgrwt>
<rscale>  2 0.12480131E+03</rscale>
<asrwt>0</asrwt>
<pdfrwt beam="1">  1       21 0.12699458E-02 0.12480131E+03</pdfrwt>
<pdfrwt beam="2">  1       21 0.72571555E-01 0.12480131E+03</pdfrwt>
<totfact> 0.43365905E+06</totfact>
</mgrwt>
</event>
<event>
 5    0  0.1325210E+000  0.1249914E+03  0.7546771E-02  0.1235083E+00
         21   -1    0    0  503  502  0.00000000000E+00  0.00000000000E+00  0.41432783930E+03  0.41432783930E+03  0.00000000000E+00 0.  1.
         21   -1    0    0  502  503 -0.00000000000E+00 -0.00000000000E+00 -0.94266233021E+01  0.94266233021E+01  0.00000000000E+00 0.  1.
         25    2    1    2    0    0  0.00000000000E+00  0.00000000000E+00  0.40490121600E+03  0.42375446260E+03  0.12499139914E+03 0.  0.
          4    1    3    3  501    0 -0.39698388302E+02  0.43906359033E+02  0.13468087237E+03  0.14712263687E+03  0.15500000000E+01 0.  1.
         -4    1    3    3    0  501  0.39698388302E+02 -0.43906359033E+02  0.27022034363E+03  0.27663182573E+03  0.15500000000E+01 0.  1.
<mgrwt>
<rscale>  2 0.12499140E+03</rscale>
<asrwt>0</asrwt>
<pdfrwt beam="1">  1       21 0.63742730E-01 0.12499140E+03</pdfrwt>
<pdfrwt beam="2">  1       21 0.14502501E-02 0.12499140E+03</pdfrwt>
<totfact> 0.46514642E+06</totfact>
</mgrwt>
</event>
<event>
 5    0  0.1326727E+000  0.1249992E+03  0.7546771E-02  0.1235071E+00
         21   -1    0    0  503  502  0.00000000000E+00  0.00000000000E+00  0.36812226516E+03  0.36812226516E+03  0.00000000000E+00 0.  1.
         21   -1    0    0  502  503 -0.00000000000E+00 -0.00000000000E+00 -0.10611140485E+02  0.10611140485E+02  0.00000000000E+00 0.  1.
         25    2    1    2    0    0  0.00000000000E+00  0.00000000000E+00  0.35751112467E+03  0.37873340564E+03  0.12499915313E+03 0.  0.
          4    1    3    3  501    0 -0.14450556942E+02 -0.36806798540E+02  0.32181768441E+02  0.51006153890E+02  0.15500000000E+01 0.  1.
         -4    1    3    3    0  501  0.14450556942E+02  0.36806798540E+02  0.32532935623E+03  0.32772725175E+03  0.15500000000E+01 0.  1.
<mgrwt>
<rscale>  2 0.12499915E+03</rscale>
<asrwt>0</asrwt>
<pdfrwt beam="1">  1       21 0.56634185E-01 0.12499915E+03</pdfrwt>
<pdfrwt beam="2">  1       21 0.16324834E-02 0.12499915E+03</pdfrwt>
<totfact> 0.49484963E+06</totfact>
</mgrwt>
</event>
<event>
 5    0  0.1603088E+000  0.1249978E+03  0.7546771E-02  0.1235073E+00
         21   -1    0    0  503  502  0.00000000000E+00  0.00000000000E+00  0.12490207137E+03  0.12490207137E+03  0.00000000000E+00 0. -1.
         21   -1    0    0  502  503 -0.00000000000E+00 -0.00000000000E+00 -0.31273386194E+02  0.31273386194E+02  0.00000000000E+00 0. -1.
         25    2    1    2    0    0  0.00000000000E+00  0.00000000000E+00  0.93628685174E+02  0.15617545756E+03  0.12499777141E+03 0.  0.
          4    1    3    3  501    0  0.49366793837E+02  0.38118793548E+02  0.42209151269E+02  0.75326872404E+02  0.15500000000E+01 0.  1.
         -4    1    3    3    0  501 -0.49366793837E+02 -0.38118793548E+02  0.51419533904E+02  0.80848585159E+02  0.15500000000E+01 0.  1.
<mgrwt>
<rscale>  2 0.12499777E+03</rscale>
<asrwt>0</asrwt>
<pdfrwt beam="1">  1       21 0.19215703E-01 0.12499777E+03</pdfrwt>
<pdfrwt beam="2">  1       21 0.48112902E-02 0.12499777E+03</pdfrwt>
<totfact> 0.69993826E+06</totfact>
</mgrwt>
</event>
<event>
 5    0  0.1501236E+000  0.1250052E+03  0.7546771E-02  0.1235061E+00
         21   -1    0    0  503  502  0.00000000000E+00  0.00000000000E+00  0.18647240705E+03  0.18647240705E+03  0.00000000000E+00 0.  1.
         21   -1    0    0  502  503 -0.00000000000E+00 -0.00000000000E+00 -0.20949874964E+02  0.20949874964E+02  0.00000000000E+00 0.  1.
         25    2    1    2    0    0  0.00000000000E+00  0.00000000000E+00  0.16552253208E+03  0.20742228201E+03  0.12500517768E+03 0.  0.
          4    1    3    3  501    0  0.47905352443E+02  0.24210141424E+02  0.13583628226E+03  0.14606488906E+03  0.15500000000E+01 0.  1.
         -4    1    3    3    0  501 -0.47905352443E+02 -0.24210141424E+02  0.29686249828E+02  0.61357392948E+02  0.15500000000E+01 0.  1.
<mgrwt>
<rscale>  2 0.12500518E+03</rscale>
<asrwt>0</asrwt>
<pdfrwt beam="1">  1       21 0.28688061E-01 0.12500518E+03</pdfrwt>
<pdfrwt beam="2">  1       21 0.32230578E-02 0.12500518E+03</pdfrwt>
<totfact> 0.64123366E+06</totfact>
</mgrwt>
</event>
<event>
 5    0  0.1530381E+000  0.1249950E+03  0.7546771E-02  0.1235077E+00
         21   -1    0    0  503  502  0.00000000000E+00  0.00000000000E+00  0.42762576717E+02  0.42762576717E+02  0.00000000000E+00 0.  1.
         21   -1    0    0  502  503 -0.00000000000E+00 -0.00000000000E+00 -0.91340024487E+02  0.91340024487E+02  0.00000000000E+00 0.  1.
         25    2    1    2    0    0  0.00000000000E+00  0.00000000000E+00 -0.48577447770E+02  0.13410260120E+03  0.12499495677E+03 0.  0.
          4    1    3    3  501    0 -0.70892897004E+01  0.29396245345E+02 -0.82945403987E+02  0.88299149551E+02  0.15500000000E+01 0. -1.
         -4    1    3    3    0  501  0.70892897004E+01 -0.29396245345E+02  0.34367956217E+02  0.45803451653E+02  0.15500000000E+01 0. -1.
<mgrwt>
<rscale>  2 0.12499496E+03</rscale>
<asrwt>0</asrwt>
<pdfrwt beam="1">  1       21 0.65788580E-02 0.12499496E+03</pdfrwt>
<pdfrwt beam="2">  1       21 0.14052311E-01 0.12499496E+03</pdfrwt>
<totfact> 0.72824882E+06</totfact>
</mgrwt>
</event>
<event>
 5    0  0.1236854E+000  0.1249980E+03  0.7546771E-02  0.1235072E+00
         21   -1    0    0  503  502  0.00000000000E+00  0.00000000000E+00  0.60023844672E+03  0.60023844672E+03  0.00000000000E+00 0. -1.
         21   -1    0    0  502  503 -0.00000000000E+00 -0.00000000000E+00 -0.65076233516E+01  0.65076233516E+01  0.00000000000E+00 0. -1.
         25    2    1    2    0    0  0.00000000000E+00  0.00000000000E+00  0.59373082337E+03  0.60674607007E+03  0.12499801170E+03 0.  0.
          4    1    3    3  501    0 -0.34399146475E+02  0.22536267459E+02  0.68542604404E+02  0.79947956495E+02  0.15500000000E+01 0.  1.
         -4    1    3    3    0  501  0.34399146475E+02 -0.22536267459E+02  0.52518821897E+03  0.52679811358E+03  0.15500000000E+01 0.  1.
<mgrwt>
<rscale>  2 0.12499801E+03</rscale>
<asrwt>0</asrwt>
<pdfrwt beam="1">  1       21 0.92344332E-01 0.12499801E+03</pdfrwt>
<pdfrwt beam="2">  1       21 0.10011733E-02 0.12499801E+03</pdfrwt>
<totfact> 0.36791144E+06</totfact>
</mgrwt>
</event>
<event>
 5    0  0.1289147E+000  0.1250361E+03  0.7546771E-02  0.1235013E+00
         21   -1    0    0  503  502  0.00000000000E+00  0.00000000000E+00  0.77411907250E+01  0.77411907250E+01  0.00000000000E+00 0.  1.
         21   -1    0    0  502  503 -0.00000000000E+00 -0.00000000000E+00 -0.50489761561E+03  0.50489761561E+03  0.00000000000E+00 0.  1.
         25    2    1    2    0    0  0.00000000000E+00  0.00000000000E+00 -0.49715642489E+03  0.51263880634E+03  0.12503613460E+03 0.  0.
          4    1    3    3  501    0 -0.42022553031E+02 -0.40084161039E+02 -0.15388224760E+03  0.16448338383E+03  0.15500000000E+01 0.  1.
         -4    1    3    3    0  501  0.42022553031E+02  0.40084161039E+02 -0.34327417729E+03  0.34815542251E+03  0.15500000000E+01 0.  1.
<mgrwt>
<rscale>  2 0.12503613E+03</rscale>
<asrwt>0</asrwt>
<pdfrwt beam="1">  1       21 0.11909526E-02 0.12503613E+03</pdfrwt>
<pdfrwt beam="2">  1       21 0.77676541E-01 0.12503613E+03</pdfrwt>
<totfact> 0.41329651E+06</totfact>
</mgrwt>
</event>
<event>
 5    0  0.1561930E+000  0.1250026E+03  0.7546771E-02  0.1235065E+00
         21   -1    0    0  503  502  0.00000000000E+00  0.00000000000E+00  0.15805235348E+03  0.15805235348E+03  0.00000000000E+00 0.  1.
         21   -1    0    0  502  503 -0.00000000000E+00 -0.00000000000E+00 -0.24715924291E+02  0.24715924291E+02  0.00000000000E+00 0.  1.
         25    2    1    2    0    0  0.00000000000E+00  0.00000000000E+00  0.13333642919E+03  0.18276827777E+03  0.12500256002E+03 0.  0.
          4    1    3    3  501    0 -0.84014247586E+00  0.61421762766E+02  0.83381727236E+02  0.10357728379E+03  0.15500000000E+01 0. -1.
         -4    1    3    3    0  501  0.84014247586E+00 -0.61421762766E+02  0.49954701956E+02  0.79190993984E+02  0.15500000000E+01 0. -1.
<mgrwt>
<rscale>  2 0.12500256E+03</rscale>
<asrwt>0</asrwt>
<pdfrwt beam="1">  1       21 0.24315746E-01 0.12500256E+03</pdfrwt>
<pdfrwt beam="2">  1       21 0.38024500E-02 0.12500256E+03</pdfrwt>
<totfact> 0.66831041E+06</totfact>
</mgrwt>
</event>
<event>
 5    0  0.1234176E+000  0.1250100E+03  0.7546771E-02  0.1235054E+00
         21   -1    0    0  503  502  0.00000000000E+00  0.00000000000E+00  0.46527771722E+01  0.46527771722E+01  0.00000000000E+00 0. -1.
         21   -1    0    0  502  503 -0.00000000000E+00 -0.00000000000E+00 -0.83968651995E+03  0.83968651995E+03  0.00000000000E+00 0. -1.
         25    2    1    2    0    0  0.00000000000E+00  0.00000000000E+00 -0.83503374278E+03  0.84433929712E+03  0.12500998795E+03 0.  0.
          4    1    3    3  501    0  0.18516523378E+02  0.59641695190E+02 -0.40322364494E+03  0.40803394930E+03  0.15500000000E+01 0.  1.
         -4    1    3    3    0  501 -0.18516523378E+02 -0.59641695190E+02 -0.43181009784E+03  0.43630534783E+03  0.15500000000E+01 0.  1.
<mgrwt>
<rscale>  2 0.12500999E+03</rscale>
<asrwt>0</asrwt>
<pdfrwt beam="1">  1       21 0.71581141E-03 0.12500999E+03</pdfrwt>
<pdfrwt beam="2">  1       21 0.12918262E+00 0.12500999E+03</pdfrwt>
<totfact> 0.27938514E+06</totfact>
</mgrwt>
</event>
<event>
 5    0  0.1313534E+000  0.1250018E+03  0.7546771E-02  0.1235066E+00
         21   -1    0    0  503  502  0.00000000000E+00  0.00000000000E+00  0.10743343600E+02  0.10743343600E+02  0.00000000000E+00 0.  1.
         21   -1    0    0  502  503 -0.00000000000E+00 -0.00000000000E+00 -0.36360774732E+03  0.36360774732E+03  0.00000000000E+00 0.  1.
         25    2    1    2    0    0  0.00000000000E+00  0.00000000000E+00 -0.35286440372E+03  0.37435109093E+03  0.12500180743E+03 0.  0.
          4    1    3    3  501    0  0.42852789722E+02  0.25837050972E+02 -0.64376512253E+02  0.81551533522E+02  0.15500000000E+01 0.  1.
         -4    1    3    3    0  501 -0.42852789722E+02 -0.25837050972E+02 -0.28848789147E+03  0.29279955740E+03  0.15500000000E+01 0.  1.
<mgrwt>
<rscale>  2 0.12500181E+03</rscale>
<asrwt>0</asrwt>
<pdfrwt beam="1">  1       21 0.16528224E-02 0.12500181E+03</pdfrwt>
<pdfrwt beam="2">  1       21 0.55939643E-01 0.12500181E+03</pdfrwt>
<totfact> 0.49786550E+06</totfact>
</mgrwt>
</event>
<event>
 5    0  0.1511560E+000  0.1249966E+03  0.7546771E-02  0.1235075E+00
         21   -1    0    0  503  502  0.00000000000E+00  0.00000000000E+00  0.10303756815E+03  0.10303756815E+03  0.00000000000E+00 0.  1.
         21   -1    0    0  502  503 -0.00000000000E+00 -0.00000000000E+00 -0.37908897545E+02  0.37908897545E+02  0.00000000000E+00 0.  1.
         25    2    1    2    0    0  0.00000000000E+00  0.00000000000E+00  0.65128670601E+02  0.14094646569E+03  0.12499664978E+03 0.  0.
          4    1    3    3  501    0 -0.35509996143E+02 -0.41625161309E+02 -0.14515905439E+01  0.54755123004E+02  0.15500000000E+01 0. -1.
         -4    1    3    3    0  501  0.35509996143E+02  0.41625161309E+02  0.66580261145E+02  0.86191342687E+02  0.15500000000E+01 0. -1.
<mgrwt>
<rscale>  2 0.12499665E+03</rscale>
<asrwt>0</asrwt>
<pdfrwt beam="1">  1       21 0.15851933E-01 0.12499665E+03</pdfrwt>
<pdfrwt beam="2">  1       21 0.58321381E-02 0.12499665E+03</pdfrwt>
<totfact> 0.71922127E+06</totfact>
</mgrwt>
</event>
<event>
 5    0  0.1241204E+000  0.1249991E+03  0.7546771E-02  0.1235071E+00
         21   -1    0    0  503  502  0.00000000000E+00  0.00000000000E+00  0.66653382670E+01  0.66653382670E+01  0.00000000000E+00 0. -1.
         21   -1    0    0  502  503 -0.00000000000E+00 -0.00000000000E+00 -0.58604596338E+03  0.58604596338E+03  0.00000000000E+00 0. -1.
         25    2    1    2    0    0  0.00000000000E+00  0.00000000000E+00 -0.57938062511E+03  0.59271130164E+03  0.12499911337E+03 0.  0.
          4    1    3    3  501    0  0.29554173174E+02  0.24657314043E+02 -0.52306599499E+03  0.52448247816E+03  0.15500000000E+01 0. -1.
         -4    1    3    3    0  501 -0.29554173174E+02 -0.24657314043E+02 -0.56314630123E+02  0.68228823482E+02  0.15500000000E+01 0. -1.
<mgrwt>
<rscale>  2 0.12499911E+03</rscale>
<asrwt>0</asrwt>
<pdfrwt beam="1">  1       21 0.10254364E-02 0.12499911E+03</pdfrwt>
<pdfrwt beam="2">  1       21 0.90160940E-01 0.12499911E+03</pdfrwt>
<totfact> 0.37425158E+06</totfact>
</mgrwt>
</event>
<event>
 5    0  0.1454322E+000  0.1249955E+03  0.7546771E-02  0.1235076E+00
         21   -1    0    0  503  502  0.00000000000E+00  0.00000000000E+00  0.21826745115E+02  0.21826745115E+02  0.00000000000E+00 0.  1.
         21   -1    0    0  502  503 -0.00000000000E+00 -0.00000000000E+00 -0.17895331772E+03  0.17895331772E+03  0.00000000000E+00 0.  1.
         25    2    1    2    0    0  0.00000000000E+00  0.00000000000E+00 -0.15712657260E+03  0.20078006283E+03  0.12499549517E+03 0.  0.
          4    1    3    3  501    0 -0.32681594596E+02  0.46220736026E+02 -0.12103531297E+03  0.13362781353E+03  0.15500000000E+01 0. -1.
         -4    1    3    3    0  501  0.32681594596E+02 -0.46220736026E+02 -0.36091259634E+02  0.67152249301E+02  0.15500000000E+01 0. -1.
<mgrwt>
<rscale>  2 0.12499550E+03</rscale>
<asrwt>0</asrwt>
<pdfrwt beam="1">  1       21 0.33579607E-02 0.12499550E+03</pdfrwt>
<pdfrwt beam="2">  1       21 0.27531280E-01 0.12499550E+03</pdfrwt>
<totfact> 0.64850220E+06</totfact>
</mgrwt>
</event>
<event>
 4    0  0.1222151E+000  0.1246956E+03  0.7546771E-02  0.1235546E+00
         21   -1    0    0  503  502  0.00000000000E+00  0.00000000000E+00  0.29890313595E+01  0.29890313595E+01  0.00000000000E+00 0.  1.
         21   -1    0    0  502  503 -0.00000000000E+00 -0.00000000000E+00 -0.13005047719E+04  0.13005047719E+04  0.00000000000E+00 0.  1.
          4    1    1    2  501    0  0.20778969994E+02 -0.23088950336E+02 -0.12136269967E+04  0.12140254342E+04  0.15500000000E+01 0.  1.
         -4    1    1    2    0  501 -0.20778969994E+02  0.23088950336E+02 -0.83888743781E+02  0.89468369019E+02  0.15500000000E+01 0.  1.
<mgrwt>
<rscale>  2 0.12469562E+03</rscale>
<asrwt>0</asrwt>
<pdfrwt beam="1">  1       21 0.45985137E-03 0.12469562E+03</pdfrwt>
<pdfrwt beam="2">  1       21 0.20007749E+00 0.12469562E+03</pdfrwt>
<totfact> 0.17320178E+06</totfact>
</mgrwt>
</event>
<event>
 5    0  0.1600620E+000  0.1249997E+03  0.7546771E-02  0.1235070E+00
         21   -1    0    0  503  502  0.00000000000E+00  0.00000000000E+00  0.97673663331E+02  0.97673663331E+02  0.00000000000E+00 0.  1.
         21   -1    0    0  502  503 -0.00000000000E+00 -0.00000000000E+00 -0.39992650908E+02  0.39992650908E+02  0.00000000000E+00 0.  1.
         25    2    1    2    0    0  0.00000000000E+00  0.00000000000E+00  0.57681012423E+02  0.13766631424E+03  0.12499965953E+03 0.  0.
          4    1    3    3  501    0  0.69368471935E+01  0.36891857435E+02  0.83848749673E+02  0.91881142329E+02  0.15500000000E+01 0. -1.
         -4    1    3    3    0  501 -0.69368471935E+01 -0.36891857435E+02 -0.26167737250E+02  0.45785171909E+02  0.15500000000E+01 0. -1.
<mgrwt>
<rscale>  2 0.12499966E+03</rscale>
<asrwt>0</asrwt>
<pdfrwt beam="1">  1       21 0.15026717E-01 0.12499966E+03</pdfrwt>
<pdfrwt beam="2">  1       21 0.61527155E-02 0.12499966E+03</pdfrwt>
<totfact> 0.72345949E+06</totfact>
</mgrwt>
</event>
<event>
 5    0  0.1548602E+000  0.1249733E+03  0.7546771E-02  0.1235111E+00
         21   -1    0    0  503  502  0.00000000000E+00  0.00000000000E+00  0.21647822222E+02  0.21647822222E+02  0.00000000000E+00 0. -1.
         21   -1    0    0  502  503 -0.00000000000E+00 -0.00000000000E+00 -0.18036835746E+03  0.18036835746E+03  0.00000000000E+00 0. -1.
         25    2    1    2    0    0  0.00000000000E+00  0.00000000000E+00 -0.15872053524E+03  0.20201617968E+03  0.12497331134E+03 0.  0.
          4    1    3    3  501    0 -0.11716817435E+02  0.60753630958E+02 -0.93255570972E+02  0.11192538364E+03  0.15500000000E+01 0. -1.
         -4    1    3    3    0  501  0.11716817435E+02 -0.60753630958E+02 -0.65464964267E+02  0.90090796044E+02  0.15500000000E+01 0. -1.
<mgrwt>
<rscale>  2 0.12497331E+03</rscale>
<asrwt>0</asrwt>
<pdfrwt beam="1">  1       21 0.33304340E-02 0.12497331E+03</pdfrwt>
<pdfrwt beam="2">  1       21 0.27748979E-01 0.12497331E+03</pdfrwt>
<totfact> 0.64753170E+06</totfact>
</mgrwt>
</event>
<event>
 5    0  0.1222151E+000  0.1250543E+03  0.7546771E-02  0.1234984E+00
         21   -1    0    0  503  502  0.00000000000E+00  0.00000000000E+00  0.16803778693E+01  0.16803778693E+01  0.00000000000E+00 0. -1.
         21   -1    0    0  502  503 -0.00000000000E+00 -0.00000000000E+00 -0.23266451050E+04  0.23266451050E+04  0.00000000000E+00 0. -1.
         25    2    1    2    0    0  0.00000000000E+00  0.00000000000E+00 -0.23249647271E+04  0.23283254829E+04  0.12505427532E+03 0.  0.
          4    1    3    3  501    0  0.20610408964E+02 -0.53399735741E+02 -0.16301444844E+04  0.16311498286E+04  0.15500000000E+01 0.  1.
         -4    1    3    3    0  501 -0.20610408964E+02  0.53399735741E+02 -0.69482024275E+03  0.69717565432E+03  0.15500000000E+01 0.  1.
<mgrwt>
<rscale>  2 0.12505428E+03</rscale>
<asrwt>0</asrwt>
<pdfrwt beam="1">  1       21 0.25851813E-03 0.12505428E+03</pdfrwt>
<pdfrwt beam="2">  1       21 0.35794754E+00 0.12505428E+03</pdfrwt>
<totfact> 0.51594869E+05</totfact>
</mgrwt>
</event>
<event>
 5    0  0.1591077E+000  0.1249905E+03  0.7546771E-02  0.1235084E+00
         21   -1    0    0  503  502  0.00000000000E+00  0.00000000000E+00  0.12569886862E+03  0.12569886862E+03  0.00000000000E+00 0. -1.
         21   -1    0    0  502  503 -0.00000000000E+00 -0.00000000000E+00 -0.31071509235E+02  0.31071509235E+02  0.00000000000E+00 0. -1.
         25    2    1    2    0    0  0.00000000000E+00  0.00000000000E+00  0.94627359387E+02  0.15677037786E+03  0.12499045655E+03 0.  0.
          4    1    3    3  501    0  0.30375475110E+02  0.54346487994E+02  0.53835923267E+02  0.82322046740E+02  0.15500000000E+01 0. -1.
         -4    1    3    3    0  501 -0.30375475110E+02 -0.54346487994E+02  0.40791436120E+02  0.74448331118E+02  0.15500000000E+01 0. -1.
<mgrwt>
<rscale>  2 0.12499046E+03</rscale>
<asrwt>0</asrwt>
<pdfrwt beam="1">  1       21 0.19338287E-01 0.12499046E+03</pdfrwt>
<pdfrwt beam="2">  1       21 0.47802322E-02 0.12499046E+03</pdfrwt>
<totfact> 0.69933262E+06</totfact>
</mgrwt>
</event>
<event>
 5    0  0.1546806E+000  0.1250011E+03  0.7546771E-02  0.1235068E+00
         21   -1    0    0  503  502  0.00000000000E+00  0.00000000000E+00  0.39450338705E+02  0.39450338705E+02  0.00000000000E+00 0. -1.
         21   -1    0    0  502  503 -0.00000000000E+00 -0.00000000000E+00 -0.99018585970E+02  0.99018585970E+02  0.00000000000E+00 0. -1.
         25    2    1    2    0    0  0.00000000000E+00  0.00000000000E+00 -0.59568247265E+02  0.13846892467E+03  0.12500106807E+03 0.  0.
          4    1    3    3  501    0  0.54661239214E+01  0.26277191220E+02 -0.92286148869E+02  0.96122344240E+02  0.15500000000E+01 0.  1.
         -4    1    3    3    0  501 -0.54661239214E+01 -0.26277191220E+02  0.32717901604E+02  0.42346580434E+02  0.15500000000E+01 0.  1.
<mgrwt>
<rscale>  2 0.12500107E+03</rscale>
<asrwt>0</asrwt>
<pdfrwt beam="1">  1       21 0.60692829E-02 0.12500107E+03</pdfrwt>
<pdfrwt beam="2">  1       21 0.15233629E-01 0.12500107E+03</pdfrwt>
<totfact> 0.72237856E+06</totfact>
</mgrwt>
</event>
<event>
 5    0  0.1222151E+000  0.1249941E+03  0.7546771E-02  0.1235079E+00
         21   -1    0    0  503  502  0.00000000000E+00  0.00000000000E+00  0.68487865726E+03  0.68487865726E+03  0.00000000000E+00 0. -1.
         21   -1    0    0  502  503 -0.00000000000E+00 -0.00000000000E+00 -0.57030240136E+01  0.57030240136E+01  0.00000000000E+00 0. -1.
         25    2    1    2    0    0  0.00000000000E+00  0.00000000000E+00  0.67917563325E+03  0.69058168128E+03  0.12499407072E+03 0.  0.
          4    1    3    3  501    0 -0.28909152827E+02  0.76518877272E+01  0.64266286894E+03  0.64336012941E+03  0.15500000000E+01 0. -1.
         -4    1    3    3    0  501  0.28909152827E+02 -0.76518877272E+01  0.36512764309E+02  0.47221551864E+02  0.15500000000E+01 0. -1.
<mgrwt>
<rscale>  2 0.12499407E+03</rscale>
<asrwt>0</asrwt>
<pdfrwt beam="1">  1       21 0.10536588E+00 0.12499407E+03</pdfrwt>
<pdfrwt beam="2">  1       21 0.87738885E-03 0.12499407E+03</pdfrwt>
<totfact> 0.33281331E+06</totfact>
</mgrwt>
</event>
<event>
 5    0  0.1499253E+000  0.1249978E+03  0.7546771E-02  0.1235073E+00
         21   -1    0    0  503  502  0.00000000000E+00  0.00000000000E+00  0.17728650295E+02  0.17728650295E+02  0.00000000000E+00 0.  1.
         21   -1    0    0  502  503 -0.00000000000E+00 -0.00000000000E+00 -0.22032779783E+03  0.22032779783E+03  0.00000000000E+00 0.  1.
         25    2    1    2    0    0  0.00000000000E+00  0.00000000000E+00 -0.20259914754E+03  0.23805644813E+03  0.12499783163E+03 0.  0.
          4    1    3    3  501    0  0.22371021148E+01 -0.59214820235E+02 -0.13902146835E+03  0.15113163377E+03  0.15500000000E+01 0.  1.
         -4    1    3    3    0  501 -0.22371021148E+01  0.59214820235E+02 -0.63577679184E+02  0.86924814361E+02  0.15500000000E+01 0.  1.
<mgrwt>
<rscale>  2 0.12499783E+03</rscale>
<asrwt>0</asrwt>
<pdfrwt beam="1">  1       21 0.27274846E-02 0.12499783E+03</pdfrwt>
<pdfrwt beam="2">  1       21 0.33896585E-01 0.12499783E+03</pdfrwt>
<totfact> 0.61024582E+06</totfact>
</mgrwt>
</event>
<event>
 5    0  0.1475895E+000  0.1249979E+03  0.7546771E-02  0.1235073E+00
         21   -1    0    0  503  502  0.00000000000E+00  0.00000000000E+00  0.81405014703E+02  0.81405014703E+02  0.00000000000E+00 0.  1.
         21   -1    0    0  502  503 -0.00000000000E+00 -0.00000000000E+00 -0.47983766030E+02  0.47983766030E+02  0.00000000000E+00 0.  1.
         25    2    1    2    0    0  0.00000000000E+00  0.00000000000E+00  0.33421248673E+02  0.12938878073E+03  0.12499790685E+03 0.  0.
          4    1    3    3  501    0  0.21636479860E+02  0.19232301188E+02  0.74024340126E+02  0.79498579238E+02  0.15500000000E+01 0. -1.
         -4    1    3    3    0  501 -0.21636479860E+02 -0.19232301188E+02 -0.40603091453E+02  0.49890201495E+02  0.15500000000E+01 0. -1.
<mgrwt>
<rscale>  2 0.12499791E+03</rscale>
<asrwt>0</asrwt>
<pdfrwt beam="1">  1       21 0.12523848E-01 0.12499791E+03</pdfrwt>
<pdfrwt beam="2">  1       21 0.73821178E-02 0.12499791E+03</pdfrwt>
<totfact> 0.73450645E+06</totfact>
</mgrwt>
</event>
<event>
 5    0  0.1530873E+000  0.1249992E+03  0.7546771E-02  0.1235071E+00
         21   -1    0    0  503  502  0.00000000000E+00  0.00000000000E+00  0.15481178157E+02  0.15481178157E+02  0.00000000000E+00 0.  1.
         21   -1    0    0  502  503 -0.00000000000E+00 -0.00000000000E+00 -0.25231912939E+03  0.25231912939E+03  0.00000000000E+00 0.  1.
         25    2    1    2    0    0  0.00000000000E+00  0.00000000000E+00 -0.23683795124E+03  0.26780030755E+03  0.12499915831E+03 0.  0.
          4    1    3    3  501    0  0.54163154807E+02 -0.29199453759E+02 -0.95191831173E+02  0.11335846973E+03  0.15500000000E+01 0.  1.
         -4    1    3    3    0  501 -0.54163154807E+02  0.29199453759E+02 -0.14164612006E+03  0.15444183781E+03  0.15500000000E+01 0.  1.
<mgrwt>
<rscale>  2 0.12499916E+03</rscale>
<asrwt>0</asrwt>
<pdfrwt beam="1">  1       21 0.23817196E-02 0.12499916E+03</pdfrwt>
<pdfrwt beam="2">  1       21 0.38818329E-01 0.12499916E+03</pdfrwt>
<totfact> 0.58242859E+06</totfact>
</mgrwt>
</event>
<event>
 5    0  0.1627568E+000  0.1249764E+03  0.7546771E-02  0.1235106E+00
         21   -1    0    0  503  502  0.00000000000E+00  0.00000000000E+00  0.29152186353E+02  0.29152186353E+02  0.00000000000E+00 0. -1.
         21   -1    0    0  502  503 -0.00000000000E+00 -0.00000000000E+00 -0.13394458948E+03  0.13394458948E+03  0.00000000000E+00 0. -1.
         25    2    1    2    0    0  0.00000000000E+00  0.00000000000E+00 -0.10479240313E+03  0.16309677583E+03  0.12497643991E+03 0.  0.
          4    1    3    3  501    0 -0.41101984766E+02  0.46019419091E+02 -0.39662049763E+02  0.73366482651E+02  0.15500000000E+01 0.  1.
         -4    1    3    3    0  501  0.41101984766E+02 -0.46019419091E+02 -0.65130353363E+02  0.89730293181E+02  0.15500000000E+01 0.  1.
<mgrwt>
<rscale>  2 0.12497644E+03</rscale>
<asrwt>0</asrwt>
<pdfrwt beam="1">  1       21 0.44849518E-02 0.12497644E+03</pdfrwt>
<pdfrwt beam="2">  1       21 0.20606860E-01 0.12497644E+03</pdfrwt>
<totfact> 0.69184489E+06</totfact>
</mgrwt>
</event>
<event>
 5    0  0.1222151E+000  0.1250047E+03  0.7546771E-02  0.1235062E+00
         21   -1    0    0  503  502  0.00000000000E+00  0.00000000000E+00  0.37203828764E+01  0.37203828764E+01  0.00000000000E+00 0. -1.
         21   -1    0    0  502  503 -0.00000000000E+00 -0.00000000000E+00 -0.10500387947E+04  0.10500387947E+04  0.00000000000E+00 0. -1.
         25    2    1    2    0    0  0.00000000000E+00  0.00000000000E+00 -0.10463184118E+04  0.10537591776E+04  0.12500474153E+03 0.  0.
          4    1    3    3  501    0 -0.31697186701E+02 -0.42770583919E+01 -0.70681706606E+02  0.77597107046E+02  0.15500000000E+01 0.  1.
         -4    1    3    3    0  501  0.31697186701E+02  0.42770583919E+01 -0.97563670524E+03  0.97616207055E+03  0.15500000000E+01 0.  1.
<mgrwt>
<rscale>  2 0.12500474E+03</rscale>
<asrwt>0</asrwt>
<pdfrwt beam="1">  1       21 0.57236636E-03 0.12500474E+03</pdfrwt>
<pdfrwt beam="2">  1       21 0.16154450E+00 0.12500474E+03</pdfrwt>
<totfact> 0.22307553E+06</totfact>
</mgrwt>
</event>
<event>
 5    0  0.1437581E+000  0.1250019E+03  0.7546771E-02  0.1235066E+00
         21   -1    0    0  503  502  0.00000000000E+00  0.00000000000E+00  0.16025789146E+02  0.16025789146E+02  0.00000000000E+00 0.  1.
         21   -1    0    0  502  503 -0.00000000000E+00 -0.00000000000E+00 -0.24375498153E+03  0.24375498153E+03  0.00000000000E+00 0.  1.
         25    2    1    2    0    0  0.00000000000E+00  0.00000000000E+00 -0.22772919238E+03  0.25978077068E+03  0.12500185498E+03 0.  0.
          4    1    3    3  501    0  0.27454644150E+02 -0.50717343109E+02 -0.63902767086E+02  0.86092813398E+02  0.15500000000E+01 0.  1.
         -4    1    3    3    0  501 -0.27454644150E+02  0.50717343109E+02 -0.16382642530E+03  0.17368795728E+03  0.15500000000E+01 0.  1.
<mgrwt>
<rscale>  2 0.12500185E+03</rscale>
<asrwt>0</asrwt>
<pdfrwt beam="1">  1       21 0.24655060E-02 0.12500185E+03</pdfrwt>
<pdfrwt beam="2">  1       21 0.37500767E-01 0.12500185E+03</pdfrwt>
<totfact> 0.58966615E+06</totfact>
</mgrwt>
</event>
<event>
 5    0  0.1603178E+000  0.1249896E+03  0.7546771E-02  0.1235086E+00
         21   -1    0    0  503  502  0.00000000000E+00  0.00000000000E+00  0.53294103566E+02  0.53294103566E+02  0.00000000000E+00 0. -1.
         21   -1    0    0  502  503 -0.00000000000E+00 -0.00000000000E+00 -0.73283906898E+02  0.73283906898E+02  0.00000000000E+00 0. -1.
         25    2    1    2    0    0  0.00000000000E+00  0.00000000000E+00 -0.19989803332E+02  0.12657801046E+03  0.12498960155E+03 0.  0.
          4    1    3    3  501    0  0.43731529256E+01  0.62272645553E+02 -0.74751552716E+01  0.62891074860E+02  0.15500000000E+01 0. -1.
         -4    1    3    3    0  501 -0.43731529256E+01 -0.62272645553E+02 -0.12514648061E+02  0.63686935605E+02  0.15500000000E+01 0. -1.
<mgrwt>
<rscale>  2 0.12498960E+03</rscale>
<asrwt>0</asrwt>
<pdfrwt beam="1">  1       21 0.81990929E-02 0.12498960E+03</pdfrwt>
<pdfrwt beam="2">  1       21 0.11274447E-01 0.12498960E+03</pdfrwt>
<totfact> 0.73846298E+06</totfact>
</mgrwt>
</event>
<event>
 5    0  0.1447205E+000  0.1249956E+03  0.7546771E-02  0.1235076E+00
         21   -1    0    0  503  502  0.00000000000E+00  0.00000000000E+00  0.24118784975E+03  0.24118784975E+03  0.00000000000E+00 0.  1.
         21   -1    0    0  502  503 -0.00000000000E+00 -0.00000000000E+00 -0.16194750296E+02  0.16194750296E+02  0.00000000000E+00 0.  1.
         25    2    1    2    0    0  0.00000000000E+00  0.00000000000E+00  0.22499309946E+03  0.25738260005E+03  0.12499563194E+03 0.  0.
          4    1    3    3  501    0 -0.32728060744E+02  0.51229400978E+02  0.82799527789E+02  0.10273140604E+03  0.15500000000E+01 0.  1.
         -4    1    3    3    0  501  0.32728060744E+02 -0.51229400978E+02  0.14219357167E+03  0.15465119401E+03  0.15500000000E+01 0.  1.
<mgrwt>
<rscale>  2 0.12499563E+03</rscale>
<asrwt>0</asrwt>
<pdfrwt beam="1">  1       21 0.37105821E-01 0.12499563E+03</pdfrwt>
<pdfrwt beam="2">  1       21 0.24915002E-02 0.12499563E+03</pdfrwt>
<totfact> 0.59196523E+06</totfact>
</mgrwt>
</event>
<event>
 5    0  0.1222151E+000  0.1250051E+03  0.7546771E-02  0.1235061E+00
         21   -1    0    0  503  502  0.00000000000E+00  0.00000000000E+00  0.45982920435E+01  0.45982920435E+01  0.00000000000E+00 0. -1.
         21   -1    0    0  502  503 -0.00000000000E+00 -0.00000000000E+00 -0.84956929829E+03  0.84956929829E+03  0.00000000000E+00 0. -1.
         25    2    1    2    0    0  0.00000000000E+00  0.00000000000E+00 -0.84497100624E+03  0.85416759033E+03  0.12500508381E+03 0.  0.
          4    1    3    3  501    0  0.89899064337E+00 -0.53168136922E+02 -0.19829165233E+03  0.20530377701E+03  0.15500000000E+01 0. -1.
         -4    1    3    3    0  501 -0.89899064337E+00  0.53168136922E+02 -0.64667935391E+03  0.64886381332E+03  0.15500000000E+01 0. -1.
<mgrwt>
<rscale>  2 0.12500508E+03</rscale>
<asrwt>0</asrwt>
<pdfrwt beam="1">  1       21 0.70742861E-03 0.12500508E+03</pdfrwt>
<pdfrwt beam="2">  1       21 0.13070314E+00 0.12500508E+03</pdfrwt>
<totfact> 0.27641312E+06</totfact>
</mgrwt>
</event>
<event>
 5    0  0.1402922E+000  0.1250009E+03  0.7546771E-02  0.1235068E+00
         21   -1    0    0  503  502  0.00000000000E+00  0.00000000000E+00  0.11140814253E+02  0.11140814253E+02  0.00000000000E+00 0.  1.
         21   -1    0    0  502  503 -0.00000000000E+00 -0.00000000000E+00 -0.35063044367E+03  0.35063044367E+03  0.00000000000E+00 0.  1.
         25    2    1    2    0    0  0.00000000000E+00  0.00000000000E+00 -0.33948962942E+03  0.36177125793E+03  0.12500093831E+03 0.  0.
          4    1    3    3  501    0 -0.26313886105E+02 -0.56508310271E+02 -0.15736529596E+03  0.16926856945E+03  0.15500000000E+01 0.  1.
         -4    1    3    3    0  501  0.26313886105E+02  0.56508310271E+02 -0.18212433346E+03  0.19250268847E+03  0.15500000000E+01 0.  1.
<mgrwt>
<rscale>  2 0.12500094E+03</rscale>
<asrwt>0</asrwt>
<pdfrwt beam="1">  1       21 0.17139715E-02 0.12500094E+03</pdfrwt>
<pdfrwt beam="2">  1       21 0.53943144E-01 0.12500094E+03</pdfrwt>
<totfact> 0.50679478E+06</totfact>
</mgrwt>
</event>
<event>
 5    0  0.1222151E+000  0.1250025E+03  0.7546771E-02  0.1235065E+00
         21   -1    0    0  503  502  0.00000000000E+00  0.00000000000E+00  0.27616971125E+04  0.27616971125E+04  0.00000000000E+00 0.  1.
         21   -1    0    0  502  503 -0.00000000000E+00 -0.00000000000E+00 -0.14144943640E+01  0.14144943640E+01  0.00000000000E+00 0.  1.
         25    2    1    2    0    0  0.00000000000E+00  0.00000000000E+00  0.27602826181E+04  0.27631116069E+04  0.12500247999E+03 0.  0.
          4    1    3    3  501    0  0.27491642029E+02  0.51751022032E+02  0.18593768071E+04  0.18603006402E+04  0.15500000000E+01 0.  1.
         -4    1    3    3    0  501 -0.27491642029E+02 -0.51751022032E+02  0.90090581100E+03  0.90281096663E+03  0.15500000000E+01 0.  1.
<mgrwt>
<rscale>  2 0.12500248E+03</rscale>
<asrwt>0</asrwt>
<pdfrwt beam="1">  1       21 0.42487216E+00 0.12500248E+03</pdfrwt>
<pdfrwt beam="2">  1       21 0.21761673E-03 0.12500248E+03</pdfrwt>
<totfact> 0.26402830E+05</totfact>
</mgrwt>
</event>
<event>
 5    0  0.1437256E+000  0.1250009E+03  0.7546771E-02  0.1235068E+00
         21   -1    0    0  503  502  0.00000000000E+00  0.00000000000E+00  0.26654310683E+02  0.26654310683E+02  0.00000000000E+00 0. -1.
         21   -1    0    0  502  503 -0.00000000000E+00 -0.00000000000E+00 -0.14655441937E+03  0.14655441937E+03  0.00000000000E+00 0. -1.
         25    2    1    2    0    0  0.00000000000E+00  0.00000000000E+00 -0.11990010868E+03  0.17320873005E+03  0.12500091241E+03 0.  0.
          4    1    3    3  501    0 -0.19576976399E+02 -0.29589711679E+02 -0.13121521548E+03  0.13593617736E+03  0.15500000000E+01 0. -1.
         -4    1    3    3    0  501  0.19576976399E+02  0.29589711679E+02  0.11315106795E+02  0.37272552689E+02  0.15500000000E+01 0. -1.
<mgrwt>
<rscale>  2 0.12500091E+03</rscale>
<asrwt>0</asrwt>
<pdfrwt beam="1">  1       21 0.41006632E-02 0.12500091E+03</pdfrwt>
<pdfrwt beam="2">  1       21 0.22546834E-01 0.12500091E+03</pdfrwt>
<totfact> 0.67937707E+06</totfact>
</mgrwt>
</event>
<event>
 5    0  0.1467790E+000  0.1250036E+03  0.7546771E-02  0.1235064E+00
         21   -1    0    0  503  502  0.00000000000E+00  0.00000000000E+00  0.49610190047E+02  0.49610190047E+02  0.00000000000E+00 0.  1.
         21   -1    0    0  502  503 -0.00000000000E+00 -0.00000000000E+00 -0.78743376674E+02  0.78743376674E+02  0.00000000000E+00 0.  1.
         25    2    1    2    0    0  0.00000000000E+00  0.00000000000E+00 -0.29133186626E+02  0.12835356672E+03  0.12500358206E+03 0.  0.
          4    1    3    3  501    0  0.27506111454E+00 -0.41852008833E+02 -0.62203931596E+02  0.74989318626E+02  0.15500000000E+01 0.  1.
         -4    1    3    3    0  501 -0.27506111454E+00  0.41852008833E+02  0.33070744969E+02  0.53364248096E+02  0.15500000000E+01 0.  1.
<mgrwt>
<rscale>  2 0.12500358E+03</rscale>
<asrwt>0</asrwt>
<pdfrwt beam="1">  1       21 0.76323370E-02 0.12500358E+03</pdfrwt>
<pdfrwt beam="2">  1       21 0.12114366E-01 0.12500358E+03</pdfrwt>
<totfact> 0.73579122E+06</totfact>
</mgrwt>
</event>
<event>
 5    0  0.1481481E+000  0.1250039E+03  0.7546771E-02  0.1235063E+00
         21   -1    0    0  503  502  0.00000000000E+00  0.00000000000E+00  0.27057905570E+03  0.27057905570E+03  0.00000000000E+00 0.  1.
         21   -1    0    0  502  503 -0.00000000000E+00 -0.00000000000E+00 -0.14437529764E+02  0.14437529764E+02  0.00000000000E+00 0.  1.
         25    2    1    2    0    0  0.00000000000E+00  0.00000000000E+00  0.25614152593E+03  0.28501658546E+03  0.12500389066E+03 0.  0.
          4    1    3    3  501    0  0.32636561024E+01 -0.55534652253E+02  0.19293607912E+03  0.20080209705E+03  0.15500000000E+01 0. -1.
         -4    1    3    3    0  501 -0.32636561024E+01  0.55534652253E+02  0.63205446813E+02  0.84214488414E+02  0.15500000000E+01 0. -1.
<mgrwt>
<rscale>  2 0.12500389E+03</rscale>
<asrwt>0</asrwt>
<pdfrwt beam="1">  1       21 0.41627543E-01 0.12500389E+03</pdfrwt>
<pdfrwt beam="2">  1       21 0.22211586E-02 0.12500389E+03</pdfrwt>
<totfact> 0.56719256E+06</totfact>
</mgrwt>
</event>
<event>
 5    0  0.1222151E+000  0.1250002E+03  0.7546771E-02  0.1235069E+00
         21   -1    0    0  503  502  0.00000000000E+00  0.00000000000E+00  0.72499090264E+03  0.72499090264E+03  0.00000000000E+00 0. -1.
         21   -1    0    0  502  503 -0.00000000000E+00 -0.00000000000E+00 -0.53880171093E+01  0.53880171093E+01  0.00000000000E+00 0. -1.
         25    2    1    2    0    0  0.00000000000E+00  0.00000000000E+00  0.71960288553E+03  0.73037891975E+03  0.12500021420E+03 0.  0.
          4    1    3    3  501    0 -0.40098587654E+02  0.30581154045E+02  0.14426148720E+03  0.15282958779E+03  0.15500000000E+01 0.  1.
         -4    1    3    3    0  501  0.40098587654E+02 -0.30581154045E+02  0.57534139834E+03  0.57754933197E+03  0.15500000000E+01 0.  1.
<mgrwt>
<rscale>  2 0.12500021E+03</rscale>
<asrwt>0</asrwt>
<pdfrwt beam="1">  1       21 0.11153698E+00 0.12500021E+03</pdfrwt>
<pdfrwt beam="2">  1       21 0.82892628E-03 0.12500021E+03</pdfrwt>
<totfact> 0.31771151E+06</totfact>
</mgrwt>
</event>
<event>
 5    0  0.1222151E+000  0.1249924E+03  0.7546771E-02  0.1235081E+00
         21   -1    0    0  503  502  0.00000000000E+00  0.00000000000E+00  0.46739137716E+01  0.46739137716E+01  0.00000000000E+00 0.  1.
         21   -1    0    0  502  503 -0.00000000000E+00 -0.00000000000E+00 -0.83565430658E+03  0.83565430658E+03  0.00000000000E+00 0.  1.
         25    2    1    2    0    0  0.00000000000E+00  0.00000000000E+00 -0.83098039281E+03  0.84032822035E+03  0.12499241852E+03 0.  0.
          4    1    3    3  501    0  0.57969752084E+02 -0.11409498534E+02 -0.55206955465E+03  0.55522415697E+03  0.15500000000E+01 0.  1.
         -4    1    3    3    0  501 -0.57969752084E+02  0.11409498534E+02 -0.27891083816E+03  0.28510406338E+03  0.15500000000E+01 0.  1.
<mgrwt>
<rscale>  2 0.12499242E+03</rscale>
<asrwt>0</asrwt>
<pdfrwt beam="1">  1       21 0.71906373E-03 0.12499242E+03</pdfrwt>
<pdfrwt beam="2">  1       21 0.12856219E+00 0.12499242E+03</pdfrwt>
<totfact> 0.28074771E+06</totfact>
</mgrwt>
</event>
<event>
 5    0  0.1508343E+000  0.1250024E+03  0.7546771E-02  0.1235065E+00
         21   -1    0    0  503  502  0.00000000000E+00  0.00000000000E+00  0.41476805177E+02  0.41476805177E+02  0.00000000000E+00 0.  1.
         21   -1    0    0  502  503 -0.00000000000E+00 -0.00000000000E+00 -0.94182792578E+02  0.94182792578E+02  0.00000000000E+00 0.  1.
         25    2    1    2    0    0  0.00000000000E+00  0.00000000000E+00 -0.52705987401E+02  0.13565959776E+03  0.12500242140E+03 0.  0.
          4    1    3    3  501    0 -0.23262954831E+02  0.24267365924E+02 -0.83511352197E+02  0.90036762282E+02  0.15500000000E+01 0. -1.
         -4    1    3    3    0  501  0.23262954831E+02 -0.24267365924E+02  0.30805364797E+02  0.45622835473E+02  0.15500000000E+01 0. -1.
<mgrwt>
<rscale>  2 0.12500242E+03</rscale>
<asrwt>0</asrwt>
<pdfrwt beam="1">  1       21 0.63810470E-02 0.12500242E+03</pdfrwt>
<pdfrwt beam="2">  1       21 0.14489660E-01 0.12500242E+03</pdfrwt>
<totfact> 0.72604771E+06</totfact>
</mgrwt>
</event>
<event>
 5    0  0.1641297E+000  0.1249997E+03  0.7546771E-02  0.1235070E+00
         21   -1    0    0  503  502  0.00000000000E+00  0.00000000000E+00  0.87098160317E+02  0.87098160317E+02  0.00000000000E+00 0. -1.
         21   -1    0    0  502  503 -0.00000000000E+00 -0.00000000000E+00 -0.44848609313E+02  0.44848609313E+02  0.00000000000E+00 0. -1.
         25    2    1    2    0    0  0.00000000000E+00  0.00000000000E+00  0.42249551004E+02  0.13194676963E+03  0.12499970182E+03 0.  0.
          4    1    3    3  501    0 -0.52971253638E+02  0.33070725430E+02  0.18960902169E+02  0.65280509370E+02  0.15500000000E+01 0. -1.
         -4    1    3    3    0  501  0.52971253638E+02 -0.33070725430E+02  0.23288648835E+02  0.66666260260E+02  0.15500000000E+01 0. -1.
<mgrwt>
<rscale>  2 0.12499970E+03</rscale>
<asrwt>0</asrwt>
<pdfrwt beam="1">  1       21 0.13399717E-01 0.12499970E+03</pdfrwt>
<pdfrwt beam="2">  1       21 0.68997861E-02 0.12499970E+03</pdfrwt>
<totfact> 0.73103926E+06</totfact>
</mgrwt>
</event>
<event>
 5    0  0.1468554E+000  0.1250003E+03  0.7546771E-02  0.1235069E+00
         21   -1    0    0  503  502  0.00000000000E+00  0.00000000000E+00  0.66616149188E+02  0.66616149188E+02  0.00000000000E+00 0. -1.
         21   -1    0    0  502  503 -0.00000000000E+00 -0.00000000000E+00 -0.58638505675E+02  0.58638505675E+02  0.00000000000E+00 0. -1.
         25    2    1    2    0    0  0.00000000000E+00  0.00000000000E+00  0.79776435128E+01  0.12525465486E+03  0.12500034307E+03 0.  0.
          4    1    3    3  501    0  0.51168568199E+02 -0.12217362874E+02 -0.29790036039E+02  0.60475904907E+02  0.15500000000E+01 0. -1.
         -4    1    3    3    0  501 -0.51168568199E+02  0.12217362874E+02  0.37767679551E+02  0.64778749956E+02  0.15500000000E+01 0. -1.
<mgrwt>
<rscale>  2 0.12500034E+03</rscale>
<asrwt>0</asrwt>
<pdfrwt beam="1">  1       21 0.10248638E-01 0.12500034E+03</pdfrwt>
<pdfrwt beam="2">  1       21 0.90213085E-02 0.12500034E+03</pdfrwt>
<totfact> 0.74008544E+06</totfact>
</mgrwt>
</event>
<event>
 5    0  0.1394852E+000  0.1250057E+03  0.7546771E-02  0.1235060E+00
         21   -1    0    0  503  502  0.00000000000E+00  0.00000000000E+00  0.38635428743E+03  0.38635428743E+03  0.00000000000E+00 0. -1.
         21   -1    0    0  502  503 -0.00000000000E+00 -0.00000000000E+00 -0.10111455218E+02  0.10111455218E+02  0.00000000000E+00 0. -1.
         25    2    1    2    0    0  0.00000000000E+00  0.00000000000E+00  0.37624283221E+03  0.39646574265E+03  0.12500566508E+03 0.  0.
          4    1    3    3  501    0 -0.28271917597E+02 -0.52535501603E+02  0.12921860884E+03  0.14233457635E+03  0.15500000000E+01 0.  1.
         -4    1    3    3    0  501  0.28271917597E+02  0.52535501603E+02  0.24702422337E+03  0.25413116630E+03  0.15500000000E+01 0.  1.
<mgrwt>
<rscale>  2 0.12500567E+03</rscale>
<asrwt>0</asrwt>
<pdfrwt beam="1">  1       21 0.59439110E-01 0.12500567E+03</pdfrwt>
<pdfrwt beam="2">  1       21 0.15556088E-02 0.12500567E+03</pdfrwt>
<totfact> 0.48269830E+06</totfact>
</mgrwt>
</event>
<event>
 5    0  0.1543925E+000  0.1249990E+03  0.7546771E-02  0.1235071E+00
         21   -1    0    0  503  502  0.00000000000E+00  0.00000000000E+00  0.80416043541E+02  0.80416043541E+02  0.00000000000E+00 0.  1.
         21   -1    0    0  502  503 -0.00000000000E+00 -0.00000000000E+00 -0.48574737424E+02  0.48574737424E+02  0.00000000000E+00 0.  1.
         25    2    1    2    0    0  0.00000000000E+00  0.00000000000E+00  0.31841306117E+02  0.12899078096E+03  0.12499901119E+03 0.  0.
          4    1    3    3  501    0  0.27369012053E+02  0.54015678544E+02  0.33241068651E-01  0.60573591228E+02  0.15500000000E+01 0. -1.
         -4    1    3    3    0  501 -0.27369012053E+02 -0.54015678544E+02  0.31808065049E+02  0.68417189737E+02  0.15500000000E+01 0. -1.
<mgrwt>
<rscale>  2 0.12499901E+03</rscale>
<asrwt>0</asrwt>
<pdfrwt beam="1">  1       21 0.12371699E-01 0.12499901E+03</pdfrwt>
<pdfrwt beam="2">  1       21 0.74730365E-02 0.12499901E+03</pdfrwt>
<totfact> 0.73501974E+06</totfact>
</mgrwt>
</event>
<event>
 5    0  0.1360887E+000  0.1249890E+03  0.7546771E-02  0.1235086E+00
         21   -1    0    0  503  502  0.00000000000E+00  0.00000000000E+00  0.37662245887E+03  0.37662245887E+03  0.00000000000E+00 0. -1.
         21   -1    0    0  502  503 -0.00000000000E+00 -0.00000000000E+00 -0.10369973514E+02  0.10369973514E+02  0.00000000000E+00 0. -1.
         25    2    1    2    0    0  0.00000000000E+00  0.00000000000E+00  0.36625248535E+03  0.38699243238E+03  0.12498903829E+03 0.  0.
          4    1    3    3  501    0 -0.22565920173E+02 -0.48009151531E+02  0.28530416220E+03  0.29019815101E+03  0.15500000000E+01 0. -1.
         -4    1    3    3    0  501  0.22565920173E+02  0.48009151531E+02  0.80948323156E+02  0.96794281369E+02  0.15500000000E+01 0. -1.
<mgrwt>
<rscale>  2 0.12498904E+03</rscale>
<asrwt>0</asrwt>
<pdfrwt beam="1">  1       21 0.57941906E-01 0.12498904E+03</pdfrwt>
<pdfrwt beam="2">  1       21 0.15953808E-02 0.12498904E+03</pdfrwt>
<totfact> 0.48929683E+06</totfact>
</mgrwt>
</event>
<event>
 5    0  0.1540069E+000  0.1249961E+03  0.7546771E-02  0.1235075E+00
         21   -1    0    0  503  502  0.00000000000E+00  0.00000000000E+00  0.73995384512E+02  0.73995384512E+02  0.00000000000E+00 0. -1.
         21   -1    0    0  502  503 -0.00000000000E+00 -0.00000000000E+00 -0.52787201096E+02  0.52787201096E+02  0.00000000000E+00 0. -1.
         25    2    1    2    0    0  0.00000000000E+00  0.00000000000E+00  0.21208183416E+02  0.12678258561E+03  0.12499614782E+03 0.  0.
          4    1    3    3  501    0 -0.23866739905E+02  0.50712753249E+02  0.38606672162E+02  0.68075562805E+02  0.15500000000E+01 0.  1.
         -4    1    3    3    0  501  0.23866739905E+02 -0.50712753249E+02 -0.17398488746E+02  0.58707022804E+02  0.15500000000E+01 0.  1.
<mgrwt>
<rscale>  2 0.12499615E+03</rscale>
<asrwt>0</asrwt>
<pdfrwt beam="1">  1       21 0.11383905E-01 0.12499615E+03</pdfrwt>
<pdfrwt beam="2">  1       21 0.81211078E-02 0.12499615E+03</pdfrwt>
<totfact> 0.73806020E+06</totfact>
</mgrwt>
</event>
<event>
 5    0  0.1387799E+000  0.1249999E+03  0.7546771E-02  0.1235069E+00
         21   -1    0    0  503  502  0.00000000000E+00  0.00000000000E+00  0.39291057449E+03  0.39291057449E+03  0.00000000000E+00 0. -1.
         21   -1    0    0  502  503 -0.00000000000E+00 -0.00000000000E+00 -0.99418142164E+01  0.99418142164E+01  0.00000000000E+00 0. -1.
         25    2    1    2    0    0  0.00000000000E+00  0.00000000000E+00  0.38296876028E+03  0.40285238871E+03  0.12499990296E+03 0.  0.
          4    1    3    3  501    0 -0.42326491983E+02  0.88836731639E+01  0.33681147579E+03  0.33958036501E+03  0.15500000000E+01 0.  1.
         -4    1    3    3    0  501  0.42326491983E+02 -0.88836731639E+01  0.46157284484E+02  0.63272023702E+02  0.15500000000E+01 0.  1.
<mgrwt>
<rscale>  2 0.12499990E+03</rscale>
<asrwt>0</asrwt>
<pdfrwt beam="1">  1       21 0.60447769E-01 0.12499990E+03</pdfrwt>
<pdfrwt beam="2">  1       21 0.15295102E-02 0.12499990E+03</pdfrwt>
<totfact> 0.47852850E+06</totfact>
</mgrwt>
</event>
<event>
 5    0  0.1514827E+000  0.1249931E+03  0.7546771E-02  0.1235080E+00
         21   -1    0    0  503  502  0.00000000000E+00  0.00000000000E+00  0.35096476473E+02  0.35096476473E+02  0.00000000000E+00 0.  1.
         21   -1    0    0  502  503 -0.00000000000E+00 -0.00000000000E+00 -0.11128803955E+03  0.11128803955E+03  0.00000000000E+00 0.  1.
         25    2    1    2    0    0  0.00000000000E+00  0.00000000000E+00 -0.76191563075E+02  0.14638451602E+03  0.12499308880E+03 0.  0.
          4    1    3    3  501    0 -0.32971570497E+02  0.26106653271E+02  0.16014650257E+02  0.45028361384E+02  0.15500000000E+01 0. -1.
         -4    1    3    3    0  501  0.32971570497E+02 -0.26106653271E+02 -0.92206213332E+02  0.10135615464E+03  0.15500000000E+01 0. -1.
<mgrwt>
<rscale>  2 0.12499309E+03</rscale>
<asrwt>0</asrwt>
<pdfrwt beam="1">  1       21 0.53994581E-02 0.12499309E+03</pdfrwt>
<pdfrwt beam="2">  1       21 0.17121236E-01 0.12499309E+03</pdfrwt>
<totfact> 0.71228918E+06</totfact>
</mgrwt>
</event>
<event>
 5    0  0.1590723E+000  0.1250024E+03  0.7546771E-02  0.1235066E+00
         21   -1    0    0  503  502  0.00000000000E+00  0.00000000000E+00  0.15144150407E+03  0.15144150407E+03  0.00000000000E+00 0.  1.
         21   -1    0    0  502  503 -0.00000000000E+00 -0.00000000000E+00 -0.25794780923E+02  0.25794780923E+02  0.00000000000E+00 0.  1.
         25    2    1    2    0    0  0.00000000000E+00  0.00000000000E+00  0.12564672314E+03  0.17723628499E+03  0.12500240670E+03 0.  0.
          4    1    3    3  501    0 -0.53177794974E+02  0.31854759322E+02  0.73932962722E+02  0.96493984510E+02  0.15500000000E+01 0.  1.
         -4    1    3    3    0  501  0.53177794974E+02 -0.31854759322E+02  0.51713760421E+02  0.80742300479E+02  0.15500000000E+01 0.  1.
<mgrwt>
<rscale>  2 0.12500241E+03</rscale>
<asrwt>0</asrwt>
<pdfrwt beam="1">  1       21 0.23298692E-01 0.12500241E+03</pdfrwt>
<pdfrwt beam="2">  1       21 0.39684279E-02 0.12500241E+03</pdfrwt>
<totfact> 0.67465885E+06</totfact>
</mgrwt>
</event>
<event>
 5    0  0.1467924E+000  0.1249990E+03  0.7546771E-02  0.1235071E+00
         21   -1    0    0  503  502  0.00000000000E+00  0.00000000000E+00  0.23941369093E+02  0.23941369093E+02  0.00000000000E+00 0.  1.
         21   -1    0    0  502  503 -0.00000000000E+00 -0.00000000000E+00 -0.16315644818E+03  0.16315644818E+03  0.00000000000E+00 0.  1.
         25    2    1    2    0    0  0.00000000000E+00  0.00000000000E+00 -0.13921507908E+03  0.18709781727E+03  0.12499901993E+03 0.  0.
          4    1    3    3  501    0  0.35976121571E+02 -0.42554882818E+02 -0.27309211989E+02  0.62075719363E+02  0.15500000000E+01 0.  1.
         -4    1    3    3    0  501 -0.35976121571E+02  0.42554882818E+02 -0.11190586709E+03  0.12502209791E+03  0.15500000000E+01 0.  1.
<mgrwt>
<rscale>  2 0.12499902E+03</rscale>
<asrwt>0</asrwt>
<pdfrwt beam="1">  1       21 0.36832876E-02 0.12499902E+03</pdfrwt>
<pdfrwt beam="2">  1       21 0.25100991E-01 0.12499902E+03</pdfrwt>
<totfact> 0.66348125E+06</totfact>
</mgrwt>
</event>
<event>
 5    0  0.1395386E+000  0.1250073E+03  0.7546771E-02  0.1235058E+00
         21   -1    0    0  503  502  0.00000000000E+00  0.00000000000E+00  0.17887843357E+02  0.17887843357E+02  0.00000000000E+00 0.  1.
         21   -1    0    0  502  503 -0.00000000000E+00 -0.00000000000E+00 -0.21840001774E+03  0.21840001774E+03  0.00000000000E+00 0.  1.
         25    2    1    2    0    0  0.00000000000E+00  0.00000000000E+00 -0.20051217438E+03  0.23628786109E+03  0.12500728469E+03 0.  0.
          4    1    3    3  501    0  0.34590427350E+02 -0.44469085029E+02 -0.49175202524E+02  0.74797060309E+02  0.15500000000E+01 0. -1.
         -4    1    3    3    0  501 -0.34590427350E+02  0.44469085029E+02 -0.15133697185E+03  0.16149080078E+03  0.15500000000E+01 0. -1.
<mgrwt>
<rscale>  2 0.12500728E+03</rscale>
<asrwt>0</asrwt>
<pdfrwt beam="1">  1       21 0.27519758E-02 0.12500728E+03</pdfrwt>
<pdfrwt beam="2">  1       21 0.33600004E-01 0.12500728E+03</pdfrwt>
<totfact> 0.61182491E+06</totfact>
</mgrwt>
</event>
<event>
 5    0  0.1303500E+000  0.1249983E+03  0.7546771E-02  0.1235072E+00
         21   -1    0    0  503  502  0.00000000000E+00  0.00000000000E+00  0.42653044148E+03  0.42653044148E+03  0.00000000000E+00 0. -1.
         21   -1    0    0  502  503 -0.00000000000E+00 -0.00000000000E+00 -0.91579428954E+01  0.91579428954E+01  0.00000000000E+00 0. -1.
         25    2    1    2    0    0  0.00000000000E+00  0.00000000000E+00  0.41737249859E+03  0.43568838438E+03  0.12499826281E+03 0.  0.
          4    1    3    3  501    0  0.26387705115E+02 -0.28487493482E+02  0.38075849152E+02  0.54406075532E+02  0.15500000000E+01 0. -1.
         -4    1    3    3    0  501 -0.26387705115E+02  0.28487493482E+02  0.37929664944E+03  0.38128230885E+03  0.15500000000E+01 0. -1.
<mgrwt>
<rscale>  2 0.12499826E+03</rscale>
<asrwt>0</asrwt>
<pdfrwt beam="1">  1       21 0.65620053E-01 0.12499826E+03</pdfrwt>
<pdfrwt beam="2">  1       21 0.14089146E-02 0.12499826E+03</pdfrwt>
<totfact> 0.45762877E+06</totfact>
</mgrwt>
</event>
<event>
 5    0  0.1222151E+000  0.1250027E+03  0.7546771E-02  0.1235065E+00
         21   -1    0    0  503  502  0.00000000000E+00  0.00000000000E+00  0.16525465306E+04  0.16525465306E+04  0.00000000000E+00 0.  1.
         21   -1    0    0  502  503 -0.00000000000E+00 -0.00000000000E+00 -0.23638780050E+01  0.23638780050E+01  0.00000000000E+00 0.  1.
         25    2    1    2    0    0  0.00000000000E+00  0.00000000000E+00  0.16501826526E+04  0.16549104086E+04  0.12500269431E+03 0.  0.
          4    1    3    3  501    0  0.31152174018E+02 -0.54139934376E+02  0.80447307703E+03  0.80689585735E+03  0.15500000000E+01 0.  1.
         -4    1    3    3    0  501 -0.31152174018E+02  0.54139934376E+02  0.84570957557E+03  0.84801455126E+03  0.15500000000E+01 0.  1.
<mgrwt>
<rscale>  2 0.12500269E+03</rscale>
<asrwt>0</asrwt>
<pdfrwt beam="1">  1       21 0.25423700E+00 0.12500269E+03</pdfrwt>
<pdfrwt beam="2">  1       21 0.36367486E-03 0.12500269E+03</pdfrwt>
<totfact> 0.11843273E+06</totfact>
</mgrwt>
</event>
<event>
 5    0  0.1525837E+000  0.1250173E+03  0.7546771E-02  0.1235042E+00
         21   -1    0    0  503  502  0.00000000000E+00  0.00000000000E+00  0.39490375596E+02  0.39490375596E+02  0.00000000000E+00 0. -1.
         21   -1    0    0  502  503 -0.00000000000E+00 -0.00000000000E+00 -0.98943874274E+02  0.98943874274E+02  0.00000000000E+00 0. -1.
         25    2    1    2    0    0  0.00000000000E+00  0.00000000000E+00 -0.59453498678E+02  0.13843424987E+03  0.12501729093E+03 0.  0.
          4    1    3    3  501    0 -0.50380586691E+02 -0.19838278014E+02 -0.64270322553E+02  0.84052588604E+02  0.15500000000E+01 0. -1.
         -4    1    3    3    0  501  0.50380586691E+02  0.19838278014E+02  0.48168238753E+01  0.54381661267E+02  0.15500000000E+01 0. -1.
<mgrwt>
<rscale>  2 0.12501729E+03</rscale>
<asrwt>0</asrwt>
<pdfrwt beam="1">  1       21 0.60754424E-02 0.12501729E+03</pdfrwt>
<pdfrwt beam="2">  1       21 0.15222134E-01 0.12501729E+03</pdfrwt>
<totfact> 0.72212558E+06</totfact>
</mgrwt>
</event>
<event>
 5    0  0.1387954E+000  0.1249994E+03  0.7546771E-02  0.1235070E+00
         21   -1    0    0  503  502  0.00000000000E+00  0.00000000000E+00  0.22798772046E+03  0.22798772046E+03  0.00000000000E+00 0. -1.
         21   -1    0    0  502  503 -0.00000000000E+00 -0.00000000000E+00 -0.17133446389E+02  0.17133446389E+02  0.00000000000E+00 0. -1.
         25    2    1    2    0    0  0.00000000000E+00  0.00000000000E+00  0.21085427407E+03  0.24512116685E+03  0.12499944617E+03 0.  0.
          4    1    3    3  501    0 -0.47471242087E+02 -0.50980562858E+01  0.18445975491E+03  0.19054477869E+03  0.15500000000E+01 0. -1.
         -4    1    3    3    0  501  0.47471242087E+02  0.50980562858E+01  0.26394519163E+02  0.54576388164E+02  0.15500000000E+01 0. -1.
<mgrwt>
<rscale>  2 0.12499945E+03</rscale>
<asrwt>0</asrwt>
<pdfrwt beam="1">  1       21 0.35075032E-01 0.12499945E+03</pdfrwt>
<pdfrwt beam="2">  1       21 0.26359150E-02 0.12499945E+03</pdfrwt>
<totfact> 0.60341433E+06</totfact>
</mgrwt>
</event>
<event>
 5    0  0.1362964E+000  0.1250008E+03  0.7546771E-02  0.1235068E+00
         21   -1    0    0  503  502  0.00000000000E+00  0.00000000000E+00  0.11769954588E+02  0.11769954588E+02  0.00000000000E+00 0. -1.
         21   -1    0    0  502  503 -0.00000000000E+00 -0.00000000000E+00 -0.33188733532E+03  0.33188733532E+03  0.00000000000E+00 0. -1.
         25    2    1    2    0    0  0.00000000000E+00  0.00000000000E+00 -0.32011738074E+03  0.34365728991E+03  0.12500078184E+03 0.  0.
          4    1    3    3  501    0  0.22120320115E+02 -0.12283190768E+02 -0.29975736563E+01  0.25525933582E+02  0.15500000000E+01 0.  1.
         -4    1    3    3    0  501 -0.22120320115E+02  0.12283190768E+02 -0.31711980708E+03  0.31813135633E+03  0.15500000000E+01 0.  1.
<mgrwt>
<rscale>  2 0.12500078E+03</rscale>
<asrwt>0</asrwt>
<pdfrwt beam="1">  1       21 0.18107623E-02 0.12500078E+03</pdfrwt>
<pdfrwt beam="2">  1       21 0.51059588E-01 0.12500078E+03</pdfrwt>
<totfact> 0.52009279E+06</totfact>
</mgrwt>
</event>
<event>
 5    0  0.1550994E+000  0.1249997E+03  0.7546771E-02  0.1235070E+00
         21   -1    0    0  503  502  0.00000000000E+00  0.00000000000E+00  0.16767183165E+02  0.16767183165E+02  0.00000000000E+00 0.  1.
         21   -1    0    0  502  503 -0.00000000000E+00 -0.00000000000E+00 -0.23296873542E+03  0.23296873542E+03  0.00000000000E+00 0.  1.
         25    2    1    2    0    0  0.00000000000E+00  0.00000000000E+00 -0.21620155226E+03  0.24973591859E+03  0.12499967134E+03 0.  0.
          4    1    3    3  501    0 -0.60474260046E+02  0.52661262677E+01 -0.13766410169E+03  0.15046154196E+03  0.15500000000E+01 0. -1.
         -4    1    3    3    0  501  0.60474260046E+02 -0.52661262677E+01 -0.78537450571E+02  0.99274376634E+02  0.15500000000E+01 0. -1.
<mgrwt>
<rscale>  2 0.12499967E+03</rscale>
<asrwt>0</asrwt>
<pdfrwt beam="1">  1       21 0.25795667E-02 0.12499967E+03</pdfrwt>
<pdfrwt beam="2">  1       21 0.35841344E-01 0.12499967E+03</pdfrwt>
<totfact> 0.59903557E+06</totfact>
</mgrwt>
</event>
<event>
 5    0  0.1599111E+000  0.1250037E+03  0.7546771E-02  0.1235064E+00
         21   -1    0    0  503  502  0.00000000000E+00  0.00000000000E+00  0.50820065316E+02  0.50820065316E+02  0.00000000000E+00 0.  1.
         21   -1    0    0  502  503 -0.00000000000E+00 -0.00000000000E+00 -0.76868846609E+02  0.76868846609E+02  0.00000000000E+00 0.  1.
         25    2    1    2    0    0  0.00000000000E+00  0.00000000000E+00 -0.26048781294E+02  0.12768891192E+03  0.12500367683E+03 0.  0.
          4    1    3    3  501    0 -0.53977201561E+02  0.31428252631E+02 -0.14734862040E+02  0.64193395385E+02  0.15500000000E+01 0. -1.
         -4    1    3    3    0  501  0.53977201561E+02 -0.31428252631E+02 -0.11313919254E+02  0.63495516540E+02  0.15500000000E+01 0. -1.
<mgrwt>
<rscale>  2 0.12500368E+03</rscale>
<asrwt>0</asrwt>
<pdfrwt beam="1">  1       21 0.78184716E-02 0.12500368E+03</pdfrwt>
<pdfrwt beam="2">  1       21 0.11825976E-01 0.12500368E+03</pdfrwt>
<totfact> 0.73668712E+06</totfact>
</mgrwt>
</event>
<event>
 4    0  0.1453309E+000  0.1252279E+03  0.7546771E-02  0.1234713E+00
         21   -1    0    0  503  502  0.00000000000E+00  0.00000000000E+00  0.76232225803E+02  0.76232225803E+02  0.00000000000E+00 0.  1.
         21   -1    0    0  502  503 -0.00000000000E+00 -0.00000000000E+00 -0.51428507438E+02  0.51428507438E+02  0.00000000000E+00 0.  1.
          4    1    1    2  501    0  0.18286875901E+02  0.40051295281E+02 -0.32955087863E+02  0.55017782580E+02  0.15500000000E+01 0.  1.
         -4    1    1    2    0  501 -0.18286875901E+02 -0.40051295281E+02  0.57758806228E+02  0.72642950661E+02  0.15500000000E+01 0.  1.
<mgrwt>
<rscale>  2 0.12522795E+03</rscale>
<asrwt>0</asrwt>
<pdfrwt beam="1">  1       21 0.11728035E-01 0.12522795E+03</pdfrwt>
<pdfrwt beam="2">  1       21 0.79120781E-02 0.12522795E+03</pdfrwt>
<totfact> 0.73252291E+06</totfact>
</mgrwt>
</event>
<event>
 5    0  0.1383077E+000  0.1249998E+03  0.7546771E-02  0.1235070E+00
         21   -1    0    0  503  502  0.00000000000E+00  0.00000000000E+00  0.37333512667E+03  0.37333512667E+03  0.00000000000E+00 0.  1.
         21   -1    0    0  502  503 -0.00000000000E+00 -0.00000000000E+00 -0.10463089750E+02  0.10463089750E+02  0.00000000000E+00 0.  1.
         25    2    1    2    0    0  0.00000000000E+00  0.00000000000E+00  0.36287203692E+03  0.38379821642E+03  0.12499982299E+03 0.  0.
          4    1    3    3  501    0 -0.56867400630E+02 -0.18807836606E+02  0.12683826085E+03  0.14027823383E+03  0.15500000000E+01 0.  1.
         -4    1    3    3    0  501  0.56867400630E+02  0.18807836606E+02  0.23603377607E+03  0.24351998259E+03  0.15500000000E+01 0.  1.
<mgrwt>
<rscale>  2 0.12499982E+03</rscale>
<asrwt>0</asrwt>
<pdfrwt beam="1">  1       21 0.57436163E-01 0.12499982E+03</pdfrwt>
<pdfrwt beam="2">  1       21 0.16097064E-02 0.12499982E+03</pdfrwt>
<totfact> 0.49135117E+06</totfact>
</mgrwt>
</event>
<event>
 5    0  0.1483169E+000  0.1249910E+03  0.7546771E-02  0.1235083E+00
         21   -1    0    0  503  502  0.00000000000E+00  0.00000000000E+00  0.52231865537E+02  0.52231865537E+02  0.00000000000E+00 0.  1.
         21   -1    0    0  502  503 -0.00000000000E+00 -0.00000000000E+00 -0.74775906343E+02  0.74775906343E+02  0.00000000000E+00 0.  1.
         25    2    1    2    0    0  0.00000000000E+00  0.00000000000E+00 -0.22544040806E+02  0.12700777188E+03  0.12499096104E+03 0.  0.
          4    1    3    3  501    0  0.41612989960E+02  0.20961578365E+02 -0.53563946227E+02  0.71010756484E+02  0.15500000000E+01 0.  1.
         -4    1    3    3    0  501 -0.41612989960E+02 -0.20961578365E+02  0.31019905422E+02  0.55997015396E+02  0.15500000000E+01 0.  1.
<mgrwt>
<rscale>  2 0.12499096E+03</rscale>
<asrwt>0</asrwt>
<pdfrwt beam="1">  1       21 0.80356717E-02 0.12499096E+03</pdfrwt>
<pdfrwt beam="2">  1       21 0.11503986E-01 0.12499096E+03</pdfrwt>
<totfact> 0.73785101E+06</totfact>
</mgrwt>
</event>
<event>
 5    0  0.1270448E+000  0.1249973E+03  0.7546771E-02  0.1235073E+00
         21   -1    0    0  503  502  0.00000000000E+00  0.00000000000E+00  0.47298408549E+01  0.47298408549E+01  0.00000000000E+00 0. -1.
         21   -1    0    0  502  503 -0.00000000000E+00 -0.00000000000E+00 -0.82583794275E+03  0.82583794275E+03  0.00000000000E+00 0. -1.
         25    2    1    2    0    0  0.00000000000E+00  0.00000000000E+00 -0.82110810189E+03  0.83056778360E+03  0.12499731263E+03 0.  0.
          4    1    3    3  501    0  0.20476283460E+02  0.46027107402E+02 -0.65612949027E+03  0.65806237038E+03  0.15500000000E+01 0.  1.
         -4    1    3    3    0  501 -0.20476283460E+02 -0.46027107402E+02 -0.16497861162E+03  0.17250541322E+03  0.15500000000E+01 0.  1.
<mgrwt>
<rscale>  2 0.12499731E+03</rscale>
<asrwt>0</asrwt>
<pdfrwt beam="1">  1       21 0.72766790E-03 0.12499731E+03</pdfrwt>
<pdfrwt beam="2">  1       21 0.12705198E+00 0.12499731E+03</pdfrwt>
<totfact> 0.28376660E+06</totfact>
</mgrwt>
</event>
<event>
 5    0  0.1435328E+000  0.1250067E+03  0.7546771E-02  0.1235059E+00
         21   -1    0    0  503  502  0.00000000000E+00  0.00000000000E+00  0.14205628462E+03  0.14205628462E+03  0.00000000000E+00 0. -1.
         21   -1    0    0  502  503 -0.00000000000E+00 -0.00000000000E+00 -0.27500859141E+02  0.27500859141E+02  0.00000000000E+00 0. -1.
         25    2    1    2    0    0  0.00000000000E+00  0.00000000000E+00  0.11455542548E+03  0.16955714376E+03  0.12500671780E+03 0.  0.
          4    1    3    3  501    0 -0.51545645874E+01  0.29639148891E+02 -0.17004837726E+02  0.34592133342E+02  0.15500000000E+01 0. -1.
         -4    1    3    3    0  501  0.51545645874E+01 -0.29639148891E+02  0.13156026321E+03  0.13496501042E+03  0.15500000000E+01 0. -1.
<mgrwt>
<rscale>  2 0.12500672E+03</rscale>
<asrwt>0</asrwt>
<pdfrwt beam="1">  1       21 0.21854813E-01 0.12500672E+03</pdfrwt>
<pdfrwt beam="2">  1       21 0.42309015E-02 0.12500672E+03</pdfrwt>
<totfact> 0.68358497E+06</totfact>
</mgrwt>
</event>
<event>
 5    0  0.1222151E+000  0.1249984E+03  0.7546771E-02  0.1235072E+00
         21   -1    0    0  503  502  0.00000000000E+00  0.00000000000E+00  0.87140784059E+03  0.87140784059E+03  0.00000000000E+00 0. -1.
         21   -1    0    0  502  503 -0.00000000000E+00 -0.00000000000E+00 -0.44825746617E+01  0.44825746617E+01  0.00000000000E+00 0. -1.
         25    2    1    2    0    0  0.00000000000E+00  0.00000000000E+00  0.86692526593E+03  0.87589041525E+03  0.12499841129E+03 0.  0.
          4    1    3    3  501    0 -0.38768112804E+02 -0.37309175609E+02  0.65602377200E+03  0.65822832899E+03  0.15500000000E+01 0.  1.
         -4    1    3    3    0  501  0.38768112804E+02  0.37309175609E+02  0.21090149393E+03  0.21766208627E+03  0.15500000000E+01 0.  1.
<mgrwt>
<rscale>  2 0.12499841E+03</rscale>
<asrwt>0</asrwt>
<pdfrwt beam="1">  1       21 0.13406261E+00 0.12499841E+03</pdfrwt>
<pdfrwt beam="2">  1       21 0.68962756E-03 0.12499841E+03</pdfrwt>
<totfact> 0.26997851E+06</totfact>
</mgrwt>
</event>
<event>
 5    0  0.1506593E+000  0.1250025E+03  0.7546771E-02  0.1235065E+00
         21   -1    0    0  503  502  0.00000000000E+00  0.00000000000E+00  0.25156723859E+03  0.25156723859E+03  0.00000000000E+00 0. -1.
         21   -1    0    0  502  503 -0.00000000000E+00 -0.00000000000E+00 -0.15528287359E+02  0.15528287359E+02  0.00000000000E+00 0. -1.
         25    2    1    2    0    0  0.00000000000E+00  0.00000000000E+00  0.23603895123E+03  0.26709552595E+03  0.12500253391E+03 0.  0.
          4    1    3    3  501    0 -0.53691332912E+02 -0.31105195509E+02  0.13367938824E+03  0.14738681677E+03  0.15500000000E+01 0. -1.
         -4    1    3    3    0  501  0.53691332912E+02  0.31105195509E+02  0.10235956299E+03  0.11970870918E+03  0.15500000000E+01 0. -1.
<mgrwt>
<rscale>  2 0.12500253E+03</rscale>
<asrwt>0</asrwt>
<pdfrwt beam="1">  1       21 0.38702649E-01 0.12500253E+03</pdfrwt>
<pdfrwt beam="2">  1       21 0.23889675E-02 0.12500253E+03</pdfrwt>
<totfact> 0.58301252E+06</totfact>
</mgrwt>
</event>
<event>
 5    0  0.1222151E+000  0.1249974E+03  0.7546771E-02  0.1235073E+00
         21   -1    0    0  503  502  0.00000000000E+00  0.00000000000E+00  0.28880800071E+01  0.28880800071E+01  0.00000000000E+00 0. -1.
         21   -1    0    0  502  503 -0.00000000000E+00 -0.00000000000E+00 -0.13524863042E+04  0.13524863042E+04  0.00000000000E+00 0. -1.
         25    2    1    2    0    0  0.00000000000E+00  0.00000000000E+00 -0.13495982242E+04  0.13553743842E+04  0.12499741845E+03 0.  0.
          4    1    3    3  501    0  0.21497682456E+02 -0.53523203929E+02 -0.93521757795E+03  0.93699584007E+03  0.15500000000E+01 0.  1.
         -4    1    3    3    0  501 -0.21497682456E+02  0.53523203929E+02 -0.41438064621E+03  0.41837854410E+03  0.15500000000E+01 0.  1.
<mgrwt>
<rscale>  2 0.12499742E+03</rscale>
<asrwt>0</asrwt>
<pdfrwt beam="1">  1       21 0.44432043E-03 0.12499742E+03</pdfrwt>
<pdfrwt beam="2">  1       21 0.20807462E+00 0.12499742E+03</pdfrwt>
<totfact> 0.16287525E+06</totfact>
</mgrwt>
</event>
<event>
 5    0  0.1516373E+000  0.1250016E+03  0.7546771E-02  0.1235067E+00
         21   -1    0    0  503  502  0.00000000000E+00  0.00000000000E+00  0.22441729658E+03  0.22441729658E+03  0.00000000000E+00 0.  1.
         21   -1    0    0  502  503 -0.00000000000E+00 -0.00000000000E+00 -0.17406642934E+02  0.17406642934E+02  0.00000000000E+00 0.  1.
         25    2    1    2    0    0  0.00000000000E+00  0.00000000000E+00  0.20701065365E+03  0.24182393952E+03  0.12500162799E+03 0.  0.
          4    1    3    3  501    0 -0.54771701173E+02 -0.27670678621E+02  0.12625960552E+03  0.14039051318E+03  0.15500000000E+01 0. -1.
         -4    1    3    3    0  501  0.54771701173E+02  0.27670678621E+02  0.80751048134E+02  0.10143342634E+03  0.15500000000E+01 0. -1.
<mgrwt>
<rscale>  2 0.12500163E+03</rscale>
<asrwt>0</asrwt>
<pdfrwt beam="1">  1       21 0.34525736E-01 0.12500163E+03</pdfrwt>
<pdfrwt beam="2">  1       21 0.26779452E-02 0.12500163E+03</pdfrwt>
<totfact> 0.60654120E+06</totfact>
</mgrwt>
</event>
<event>
 5    0  0.1222151E+000  0.1249927E+03  0.7546771E-02  0.1235081E+00
         21   -1    0    0  503  502  0.00000000000E+00  0.00000000000E+00  0.45569271324E+01  0.45569271324E+01  0.00000000000E+00 0.  1.
         21   -1    0    0  502  503 -0.00000000000E+00 -0.00000000000E+00 -0.85711177588E+03  0.85711177588E+03  0.00000000000E+00 0.  1.
         25    2    1    2    0    0  0.00000000000E+00  0.00000000000E+00 -0.85255484875E+03  0.86166870301E+03  0.12499273430E+03 0.  0.
          4    1    3    3  501    0  0.58742616985E+02  0.16818838953E+02 -0.33644018897E+03  0.34194732292E+03  0.15500000000E+01 0.  1.
         -4    1    3    3    0  501 -0.58742616985E+02 -0.16818838953E+02 -0.51611465977E+03  0.51972138009E+03  0.15500000000E+01 0.  1.
<mgrwt>
<rscale>  2 0.12499273E+03</rscale>
<asrwt>0</asrwt>
<pdfrwt beam="1">  1       21 0.70106549E-03 0.12499273E+03</pdfrwt>
<pdfrwt beam="2">  1       21 0.13186339E+00 0.12499273E+03</pdfrwt>
<totfact> 0.27423466E+06</totfact>
</mgrwt>
</event>
<event>
 5    0  0.1549827E+000  0.1249985E+03  0.7546771E-02  0.1235072E+00
         21   -1    0    0  503  502  0.00000000000E+00  0.00000000000E+00  0.28950192187E+02  0.28950192187E+02  0.00000000000E+00 0.  1.
         21   -1    0    0  502  503 -0.00000000000E+00 -0.00000000000E+00 -0.13492680812E+03  0.13492680812E+03  0.00000000000E+00 0.  1.
         25    2    1    2    0    0  0.00000000000E+00  0.00000000000E+00 -0.10597661594E+03  0.16387700031E+03  0.12499851241E+03 0.  0.
          4    1    3    3  501    0  0.53672566271E+02  0.31961123603E+02 -0.51384377590E+02  0.80901264220E+02  0.15500000000E+01 0. -1.
         -4    1    3    3    0  501 -0.53672566271E+02 -0.31961123603E+02 -0.54592238347E+02  0.82975736090E+02  0.15500000000E+01 0. -1.
<mgrwt>
<rscale>  2 0.12499851E+03</rscale>
<asrwt>0</asrwt>
<pdfrwt beam="1">  1       21 0.44538758E-02 0.12499851E+03</pdfrwt>
<pdfrwt beam="2">  1       21 0.20757970E-01 0.12499851E+03</pdfrwt>
<totfact> 0.69051455E+06</totfact>
</mgrwt>
</event>
<event>
 5    0  0.1549462E+000  0.1250049E+03  0.7546771E-02  0.1235062E+00
         21   -1    0    0  503  502  0.00000000000E+00  0.00000000000E+00  0.46566515175E+02  0.46566515175E+02  0.00000000000E+00 0.  1.
         21   -1    0    0  502  503 -0.00000000000E+00 -0.00000000000E+00 -0.83891934826E+02  0.83891934826E+02  0.00000000000E+00 0.  1.
         25    2    1    2    0    0  0.00000000000E+00  0.00000000000E+00 -0.37325419651E+02  0.13045845000E+03  0.12500488080E+03 0.  0.
          4    1    3    3  501    0  0.10149681723E+02  0.56310162202E+02  0.75383970209E+01  0.57732835856E+02  0.15500000000E+01 0.  1.
         -4    1    3    3    0  501 -0.10149681723E+02 -0.56310162202E+02 -0.44863816672E+02  0.72725614144E+02  0.15500000000E+01 0.  1.
<mgrwt>
<rscale>  2 0.12500488E+03</rscale>
<asrwt>0</asrwt>
<pdfrwt beam="1">  1       21 0.71640792E-02 0.12500488E+03</pdfrwt>
<pdfrwt beam="2">  1       21 0.12906452E-01 0.12500488E+03</pdfrwt>
<totfact> 0.73294573E+06</totfact>
</mgrwt>
</event>
<event>
 5    0  0.1489495E+000  0.1250000E+03  0.7546771E-02  0.1235069E+00
         21   -1    0    0  503  502  0.00000000000E+00  0.00000000000E+00  0.24095295931E+02  0.24095295931E+02  0.00000000000E+00 0. -1.
         21   -1    0    0  502  503 -0.00000000000E+00 -0.00000000000E+00 -0.16211672037E+03  0.16211672037E+03  0.00000000000E+00 0. -1.
         25    2    1    2    0    0  0.00000000000E+00  0.00000000000E+00 -0.13802142444E+03  0.18621201630E+03  0.12500000564E+03 0.  0.
          4    1    3    3  501    0 -0.57784572026E+02  0.12293067909E+02 -0.99309517718E+02  0.11556365818E+03  0.15500000000E+01 0. -1.
         -4    1    3    3    0  501  0.57784572026E+02 -0.12293067909E+02 -0.38711906718E+02  0.70648358117E+02  0.15500000000E+01 0. -1.
<mgrwt>
<rscale>  2 0.12500001E+03</rscale>
<asrwt>0</asrwt>
<pdfrwt beam="1">  1       21 0.37069688E-02 0.12500001E+03</pdfrwt>
<pdfrwt beam="2">  1       21 0.24941033E-01 0.12500001E+03</pdfrwt>
<totfact> 0.66445950E+06</totfact>
</mgrwt>
</event>
<event>
 5    0  0.1598668E+000  0.1250039E+03  0.7546771E-02  0.1235063E+00
         21   -1    0    0  503  502  0.00000000000E+00  0.00000000000E+00  0.35068564101E+02  0.35068564101E+02  0.00000000000E+00 0. -1.
         21   -1    0    0  502  503 -0.00000000000E+00 -0.00000000000E+00 -0.11139589010E+03  0.11139589010E+03  0.00000000000E+00 0. -1.
         25    2    1    2    0    0  0.00000000000E+00  0.00000000000E+00 -0.76327326000E+02  0.14646445420E+03  0.12500390254E+03 0.  0.
          4    1    3    3  501    0  0.60140936965E+02 -0.23393521394E+01 -0.18498764120E+02  0.62984217399E+02  0.15500000000E+01 0.  1.
         -4    1    3    3    0  501 -0.60140936965E+02  0.23393521394E+01 -0.57828561880E+02  0.83480236802E+02  0.15500000000E+01 0.  1.
<mgrwt>
<rscale>  2 0.12500390E+03</rscale>
<asrwt>0</asrwt>
<pdfrwt beam="1">  1       21 0.53951637E-02 0.12500390E+03</pdfrwt>
<pdfrwt beam="2">  1       21 0.17137829E-01 0.12500390E+03</pdfrwt>
<totfact> 0.71199133E+06</totfact>
</mgrwt>
</event>
<event>
 5    0  0.1499939E+000  0.1249942E+03  0.7546771E-02  0.1235078E+00
         21   -1    0    0  503  502  0.00000000000E+00  0.00000000000E+00  0.24694083895E+02  0.24694083895E+02  0.00000000000E+00 0. -1.
         21   -1    0    0  502  503 -0.00000000000E+00 -0.00000000000E+00 -0.15817103087E+03  0.15817103087E+03  0.00000000000E+00 0. -1.
         25    2    1    2    0    0  0.00000000000E+00  0.00000000000E+00 -0.13347694698E+03  0.18286511477E+03  0.12499421917E+03 0.  0.
          4    1    3    3  501    0  0.36487100056E+02  0.84187350021E+01  0.64300102800E+01  0.38025400744E+02  0.15500000000E+01 0.  1.
         -4    1    3    3    0  501 -0.36487100056E+02 -0.84187350021E+01 -0.13990695726E+03  0.14483971402E+03  0.15500000000E+01 0.  1.
<mgrwt>
<rscale>  2 0.12499422E+03</rscale>
<asrwt>0</asrwt>
<pdfrwt beam="1">  1       21 0.37990898E-02 0.12499422E+03</pdfrwt>
<pdfrwt beam="2">  1       21 0.24334005E-01 0.12499422E+03</pdfrwt>
<totfact> 0.66834167E+06</totfact>
</mgrwt>
</event>
<event>
 5    0  0.1507170E+000  0.1249953E+03  0.7546771E-02  0.1235077E+00
         21   -1    0    0  503  502  0.00000000000E+00  0.00000000000E+00  0.91886228494E+02  0.91886228494E+02  0.00000000000E+00 0.  1.
         21   -1    0    0  502  503 -0.00000000000E+00 -0.00000000000E+00 -0.42508610369E+02  0.42508610369E+02  0.00000000000E+00 0.  1.
         25    2    1    2    0    0  0.00000000000E+00  0.00000000000E+00  0.49377618126E+02  0.13439483886E+03  0.12499529408E+03 0.  0.
          4    1    3    3  501    0 -0.34561636050E+02 -0.41268177440E+02 -0.94135572059E+01  0.54667967906E+02  0.15500000000E+01 0.  1.
         -4    1    3    3    0  501  0.34561636050E+02  0.41268177440E+02  0.58791175331E+02  0.79726870957E+02  0.15500000000E+01 0.  1.
<mgrwt>
<rscale>  2 0.12499529E+03</rscale>
<asrwt>0</asrwt>
<pdfrwt beam="1">  1       21 0.14136343E-01 0.12499529E+03</pdfrwt>
<pdfrwt beam="2">  1       21 0.65397863E-02 0.12499529E+03</pdfrwt>
<totfact> 0.72785436E+06</totfact>
</mgrwt>
</event>
<event>
 5    0  0.1489224E+000  0.1250000E+03  0.7546771E-02  0.1235069E+00
         21   -1    0    0  503  502  0.00000000000E+00  0.00000000000E+00  0.13097038666E+03  0.13097038666E+03  0.00000000000E+00 0.  1.
         21   -1    0    0  502  503 -0.00000000000E+00 -0.00000000000E+00 -0.29825433499E+02  0.29825433499E+02  0.00000000000E+00 0.  1.
         25    2    1    2    0    0  0.00000000000E+00  0.00000000000E+00  0.10114495316E+03  0.16079582016E+03  0.12499997692E+03 0.  0.
          4    1    3    3  501    0  0.26080427901E+02 -0.55841850626E+02  0.37369498467E+02  0.72092877017E+02  0.15500000000E+01 0. -1.
         -4    1    3    3    0  501 -0.26080427901E+02  0.55841850626E+02  0.63775454698E+02  0.88702943146E+02  0.15500000000E+01 0. -1.
<mgrwt>
<rscale>  2 0.12499998E+03</rscale>
<asrwt>0</asrwt>
<pdfrwt beam="1">  1       21 0.20149290E-01 0.12499998E+03</pdfrwt>
<pdfrwt beam="2">  1       21 0.45885283E-02 0.12499998E+03</pdfrwt>
<totfact> 0.69422427E+06</totfact>
</mgrwt>
</event>
<event>
 5    0  0.1278145E+000  0.1249991E+03  0.7546771E-02  0.1235071E+00
         21   -1    0    0  503  502  0.00000000000E+00  0.00000000000E+00  0.40072246807E+03  0.40072246807E+03  0.00000000000E+00 0.  1.
         21   -1    0    0  502  503 -0.00000000000E+00 -0.00000000000E+00 -0.97478711420E+01  0.97478711420E+01  0.00000000000E+00 0.  1.
         25    2    1    2    0    0  0.00000000000E+00  0.00000000000E+00  0.39097459692E+03  0.41047033921E+03  0.12499905572E+03 0.  0.
          4    1    3    3  501    0  0.81994967656E+01 -0.29599372655E+02  0.37415774814E+03  0.37541946887E+03  0.15500000000E+01 0.  1.
         -4    1    3    3    0  501 -0.81994967656E+01  0.29599372655E+02  0.16816848781E+02  0.35050870342E+02  0.15500000000E+01 0.  1.
<mgrwt>
<rscale>  2 0.12499906E+03</rscale>
<asrwt>0</asrwt>
<pdfrwt beam="1">  1       21 0.61649598E-01 0.12499906E+03</pdfrwt>
<pdfrwt beam="2">  1       21 0.14996728E-02 0.12499906E+03</pdfrwt>
<totfact> 0.47355654E+06</totfact>
</mgrwt>
</event>
<event>
 5    0  0.1425905E+000  0.1249942E+03  0.7546771E-02  0.1235078E+00
         21   -1    0    0  503  502  0.00000000000E+00  0.00000000000E+00  0.31191547752E+03  0.31191547752E+03  0.00000000000E+00 0.  1.
         21   -1    0    0  502  503 -0.00000000000E+00 -0.00000000000E+00 -0.12522267351E+02  0.12522267351E+02  0.00000000000E+00 0.  1.
         25    2    1    2    0    0  0.00000000000E+00  0.00000000000E+00  0.29939321017E+03  0.32443774487E+03  0.12499422387E+03 0.  0.
          4    1    3    3  501    0  0.41286419691E+02  0.23582102837E+02  0.25490105359E+03  0.25930220525E+03  0.15500000000E+01 0.  1.
         -4    1    3    3    0  501 -0.41286419691E+02 -0.23582102837E+02  0.44492156581E+02  0.65135539626E+02  0.15500000000E+01 0.  1.
<mgrwt>
<rscale>  2 0.12499422E+03</rscale>
<asrwt>0</asrwt>
<pdfrwt beam="1">  1       21 0.47986991E-01 0.12499422E+03</pdfrwt>
<pdfrwt beam="2">  1       21 0.19265029E-02 0.12499422E+03</pdfrwt>
<totfact> 0.53491289E+06</totfact>
</mgrwt>
</event>
<event>
 5    0  0.1394362E+000  0.1249997E+03  0.7546771E-02  0.1235070E+00
         21   -1    0    0  503  502  0.00000000000E+00  0.00000000000E+00  0.76737043474E+01  0.76737043474E+01  0.00000000000E+00 0. -1.
         21   -1    0    0  502  503 -0.00000000000E+00 -0.00000000000E+00 -0.50904083460E+03  0.50904083460E+03  0.00000000000E+00 0. -1.
         25    2    1    2    0    0  0.00000000000E+00  0.00000000000E+00 -0.50136713025E+03  0.51671453895E+03  0.12499966185E+03 0.  0.
          4    1    3    3  501    0 -0.27501130877E+02  0.56099226732E+02 -0.25326814039E+03  0.26086507792E+03  0.15500000000E+01 0.  1.
         -4    1    3    3    0  501  0.27501130877E+02 -0.56099226732E+02 -0.24809898986E+03  0.25584946103E+03  0.15500000000E+01 0.  1.
<mgrwt>
<rscale>  2 0.12499966E+03</rscale>
<asrwt>0</asrwt>
<pdfrwt beam="1">  1       21 0.11805696E-02 0.12499966E+03</pdfrwt>
<pdfrwt beam="2">  1       21 0.78313992E-01 0.12499966E+03</pdfrwt>
<totfact> 0.41152213E+06</totfact>
</mgrwt>
</event>
<event>
 5    0  0.1222151E+000  0.1249973E+03  0.7546771E-02  0.1235073E+00
         21   -1    0    0  503  502  0.00000000000E+00  0.00000000000E+00  0.22168882024E+04  0.22168882024E+04  0.00000000000E+00 0. -1.
         21   -1    0    0  502  503 -0.00000000000E+00 -0.00000000000E+00 -0.17619668930E+01  0.17619668930E+01  0.00000000000E+00 0. -1.
         25    2    1    2    0    0  0.00000000000E+00  0.00000000000E+00  0.22151262355E+04  0.22186501693E+04  0.12499733786E+03 0.  0.
          4    1    3    3  501    0  0.11477167187E+02 -0.52798585520E+02  0.16644206683E+04  0.16652981654E+04  0.15500000000E+01 0. -1.
         -4    1    3    3    0  501 -0.11477167187E+02  0.52798585520E+02  0.55070556718E+03  0.55335200391E+03  0.15500000000E+01 0. -1.
<mgrwt>
<rscale>  2 0.12499734E+03</rscale>
<asrwt>0</asrwt>
<pdfrwt beam="1">  1       21 0.34105749E+00 0.12499734E+03</pdfrwt>
<pdfrwt beam="2">  1       21 0.27107360E-03 0.12499734E+03</pdfrwt>
<totfact> 0.60063474E+05</totfact>
</mgrwt>
</event>
<event>
 5    0  0.1543756E+000  0.1249983E+03  0.7546771E-02  0.1235072E+00
         21   -1    0    0  503  502  0.00000000000E+00  0.00000000000E+00  0.18884203805E+03  0.18884203805E+03  0.00000000000E+00 0.  1.
         21   -1    0    0  502  503 -0.00000000000E+00 -0.00000000000E+00 -0.20684719524E+02  0.20684719524E+02  0.00000000000E+00 0.  1.
         25    2    1    2    0    0  0.00000000000E+00  0.00000000000E+00  0.16815731852E+03  0.20952675757E+03  0.12499831345E+03 0.  0.
          4    1    3    3  501    0  0.25789776296E+02  0.56003385068E+02  0.67128732450E+02  0.91160084033E+02  0.15500000000E+01 0.  1.
         -4    1    3    3    0  501 -0.25789776296E+02 -0.56003385068E+02  0.10102858607E+03  0.11836667354E+03  0.15500000000E+01 0.  1.
<mgrwt>
<rscale>  2 0.12499831E+03</rscale>
<asrwt>0</asrwt>
<pdfrwt beam="1">  1       21 0.29052620E-01 0.12499831E+03</pdfrwt>
<pdfrwt beam="2">  1       21 0.31822647E-02 0.12499831E+03</pdfrwt>
<totfact> 0.63912088E+06</totfact>
</mgrwt>
</event>
<event>
 5    0  0.1222151E+000  0.1249990E+03  0.7546771E-02  0.1235071E+00
         21   -1    0    0  503  502  0.00000000000E+00  0.00000000000E+00  0.84938058572E+03  0.84938058572E+03  0.00000000000E+00 0.  1.
         21   -1    0    0  502  503 -0.00000000000E+00 -0.00000000000E+00 -0.45988672150E+01  0.45988672150E+01  0.00000000000E+00 0.  1.
         25    2    1    2    0    0  0.00000000000E+00  0.00000000000E+00  0.84478171850E+03  0.85397945293E+03  0.12499901646E+03 0.  0.
          4    1    3    3  501    0  0.26236140336E+02 -0.17210505067E+02  0.79151838513E+03  0.79214158649E+03  0.15500000000E+01 0. -1.
         -4    1    3    3    0  501 -0.26236140336E+02  0.17210505067E+02  0.53263333366E+02  0.61837866439E+02  0.15500000000E+01 0. -1.
<mgrwt>
<rscale>  2 0.12499902E+03</rscale>
<asrwt>0</asrwt>
<pdfrwt beam="1">  1       21 0.13067381E+00 0.12499902E+03</pdfrwt>
<pdfrwt beam="2">  1       21 0.70751871E-03 0.12499902E+03</pdfrwt>
<totfact> 0.27651233E+06</totfact>
</mgrwt>
</event>
<event>
 5    0  0.1222151E+000  0.1250033E+03  0.7546771E-02  0.1235064E+00
         21   -1    0    0  503  502  0.00000000000E+00  0.00000000000E+00  0.81206811000E+03  0.81206811000E+03  0.00000000000E+00 0. -1.
         21   -1    0    0  502  503 -0.00000000000E+00 -0.00000000000E+00 -0.48105028440E+01  0.48105028440E+01  0.00000000000E+00 0. -1.
         25    2    1    2    0    0  0.00000000000E+00  0.00000000000E+00  0.80725760715E+03  0.81687861284E+03  0.12500329520E+03 0.  0.
          4    1    3    3  501    0 -0.16901695947E+01 -0.57244114465E+02  0.56690977007E+03  0.56979718779E+03  0.15500000000E+01 0. -1.
         -4    1    3    3    0  501  0.16901695947E+01  0.57244114465E+02  0.24034783708E+03  0.24708142505E+03  0.15500000000E+01 0. -1.
<mgrwt>
<rscale>  2 0.12500330E+03</rscale>
<asrwt>0</asrwt>
<pdfrwt beam="1">  1       21 0.12493345E+00 0.12500330E+03</pdfrwt>
<pdfrwt beam="2">  1       21 0.74007800E-03 0.12500330E+03</pdfrwt>
<totfact> 0.28808840E+06</totfact>
</mgrwt>
</event>
<event>
 5    0  0.1487461E+000  0.1250024E+03  0.7546771E-02  0.1235065E+00
         21   -1    0    0  503  502  0.00000000000E+00  0.00000000000E+00  0.16044450315E+03  0.16044450315E+03  0.00000000000E+00 0. -1.
         21   -1    0    0  502  503 -0.00000000000E+00 -0.00000000000E+00 -0.24347373468E+02  0.24347373468E+02  0.00000000000E+00 0. -1.
         25    2    1    2    0    0  0.00000000000E+00  0.00000000000E+00  0.13609712969E+03  0.18479187662E+03  0.12500243580E+03 0.  0.
          4    1    3    3  501    0  0.99855443931E+01 -0.24391800282E+02 -0.15698867666E+02  0.30716900296E+02  0.15500000000E+01 0.  1.
         -4    1    3    3    0  501 -0.99855443931E+01  0.24391800282E+02  0.15179599735E+03  0.15407497633E+03  0.15500000000E+01 0.  1.
<mgrwt>
<rscale>  2 0.12500244E+03</rscale>
<asrwt>0</asrwt>
<pdfrwt beam="1">  1       21 0.24683769E-01 0.12500244E+03</pdfrwt>
<pdfrwt beam="2">  1       21 0.37457499E-02 0.12500244E+03</pdfrwt>
<totfact> 0.66601921E+06</totfact>
</mgrwt>
</event>
<event>
 5    0  0.1222151E+000  0.1250025E+03  0.7546771E-02  0.1235065E+00
         21   -1    0    0  503  502  0.00000000000E+00  0.00000000000E+00  0.85713100282E+03  0.85713100282E+03  0.00000000000E+00 0.  1.
         21   -1    0    0  502  503 -0.00000000000E+00 -0.00000000000E+00 -0.45575335759E+01  0.45575335759E+01  0.00000000000E+00 0.  1.
         25    2    1    2    0    0  0.00000000000E+00  0.00000000000E+00  0.85257346924E+03  0.86168853639E+03  0.12500245316E+03 0.  0.
          4    1    3    3  501    0 -0.40400849455E+02 -0.46065230162E+02  0.34192616700E+03  0.34737607898E+03  0.15500000000E+01 0. -1.
         -4    1    3    3    0  501  0.40400849455E+02  0.46065230162E+02  0.51064730224E+03  0.51431245741E+03  0.15500000000E+01 0. -1.
<mgrwt>
<rscale>  2 0.12500245E+03</rscale>
<asrwt>0</asrwt>
<pdfrwt beam="1">  1       21 0.13186618E+00 0.12500245E+03</pdfrwt>
<pdfrwt beam="2">  1       21 0.70115969E-03 0.12500245E+03</pdfrwt>
<totfact> 0.27416307E+06</totfact>
</mgrwt>
</event>
<event>
 5    0  0.1524439E+000  0.1250091E+03  0.7546771E-02  0.1235055E+00
         21   -1    0    0  503  502  0.00000000000E+00  0.00000000000E+00  0.90214212569E+02  0.90214212569E+02  0.00000000000E+00 0. -1.
         21   -1    0    0  502  503 -0.00000000000E+00 -0.00000000000E+00 -0.43305990559E+02  0.43305990559E+02  0.00000000000E+00 0. -1.
         25    2    1    2    0    0  0.00000000000E+00  0.00000000000E+00  0.46908222010E+02  0.13352020313E+03  0.12500905308E+03 0.  0.
          4    1    3    3  501    0 -0.38516236085E+02 -0.51991964029E+01  0.75712596671E+02  0.85119515272E+02  0.15500000000E+01 0.  1.
         -4    1    3    3    0  501  0.38516236085E+02  0.51991964029E+01 -0.28804374661E+02  0.48400687857E+02  0.15500000000E+01 0.  1.
<mgrwt>
<rscale>  2 0.12500905E+03</rscale>
<asrwt>0</asrwt>
<pdfrwt beam="1">  1       21 0.13879110E-01 0.12500905E+03</pdfrwt>
<pdfrwt beam="2">  1       21 0.66624601E-02 0.12500905E+03</pdfrwt>
<totfact> 0.72876181E+06</totfact>
</mgrwt>
</event>
<event>
 5    0  0.1483138E+000  0.1250020E+03  0.7546771E-02  0.1235066E+00
         21   -1    0    0  503  502  0.00000000000E+00  0.00000000000E+00  0.22889464200E+03  0.22889464200E+03  0.00000000000E+00 0. -1.
         21   -1    0    0  502  503 -0.00000000000E+00 -0.00000000000E+00 -0.17066257223E+02  0.17066257223E+02  0.00000000000E+00 0. -1.
         25    2    1    2    0    0  0.00000000000E+00  0.00000000000E+00  0.21182838478E+03  0.24596089922E+03  0.12500199738E+03 0.  0.
          4    1    3    3  501    0 -0.52031782936E+01  0.53060266623E+02  0.17002195621E+03  0.17819184339E+03  0.15500000000E+01 0. -1.
         -4    1    3    3    0  501  0.52031782936E+01 -0.53060266623E+02  0.41806428567E+02  0.67769055830E+02  0.15500000000E+01 0. -1.
<mgrwt>
<rscale>  2 0.12500200E+03</rscale>
<asrwt>0</asrwt>
<pdfrwt beam="1">  1       21 0.35214558E-01 0.12500200E+03</pdfrwt>
<pdfrwt beam="2">  1       21 0.26255782E-02 0.12500200E+03</pdfrwt>
<totfact> 0.60257529E+06</totfact>
</mgrwt>
</event>
<event>
 5    0  0.1383654E+000  0.1250007E+03  0.7546771E-02  0.1235068E+00
         21   -1    0    0  503  502  0.00000000000E+00  0.00000000000E+00  0.39197760898E+03  0.39197760898E+03  0.00000000000E+00 0.  1.
         21   -1    0    0  502  503 -0.00000000000E+00 -0.00000000000E+00 -0.99656008400E+01  0.99656008400E+01  0.00000000000E+00 0.  1.
         25    2    1    2    0    0  0.00000000000E+00  0.00000000000E+00  0.38201200814E+03  0.40194320982E+03  0.12500067823E+03 0.  0.
          4    1    3    3  501    0  0.43862109390E+02 -0.30801952874E+02  0.87745736986E+02  0.10283171593E+03  0.15500000000E+01 0.  1.
         -4    1    3    3    0  501 -0.43862109390E+02  0.30801952874E+02  0.29426627116E+03  0.29911149390E+03  0.15500000000E+01 0.  1.
<mgrwt>
<rscale>  2 0.12500068E+03</rscale>
<asrwt>0</asrwt>
<pdfrwt beam="1">  1       21 0.60304236E-01 0.12500068E+03</pdfrwt>
<pdfrwt beam="2">  1       21 0.15331697E-02 0.12500068E+03</pdfrwt>
<totfact> 0.47911919E+06</totfact>
</mgrwt>
</event>
<event>
 5    0  0.1648843E+000  0.1249984E+03  0.7546771E-02  0.1235072E+00
         21   -1    0    0  503  502  0.00000000000E+00  0.00000000000E+00  0.11355280497E+03  0.11355280497E+03  0.00000000000E+00 0.  1.
         21   -1    0    0  502  503 -0.00000000000E+00 -0.00000000000E+00 -0.34399389616E+02  0.34399389616E+02  0.00000000000E+00 0.  1.
         25    2    1    2    0    0  0.00000000000E+00  0.00000000000E+00  0.79153415358E+02  0.14795219459E+03  0.12499835487E+03 0.  0.
          4    1    3    3  501    0 -0.48387839346E+02 -0.32838239756E+02  0.65616951200E+02  0.87907450035E+02  0.15500000000E+01 0. -1.
         -4    1    3    3    0  501  0.48387839346E+02  0.32838239756E+02  0.13536464158E+02  0.60044744556E+02  0.15500000000E+01 0. -1.
<mgrwt>
<rscale>  2 0.12499835E+03</rscale>
<asrwt>0</asrwt>
<pdfrwt beam="1">  1       21 0.17469662E-01 0.12499835E+03</pdfrwt>
<pdfrwt beam="2">  1       21 0.52922138E-02 0.12499835E+03</pdfrwt>
<totfact> 0.71020375E+06</totfact>
</mgrwt>
</event>
<event>
 5    0  0.1428146E+000  0.1250399E+03  0.7546771E-02  0.1235007E+00
         21   -1    0    0  503  502  0.00000000000E+00  0.00000000000E+00  0.35504197117E+03  0.35504197117E+03  0.00000000000E+00 0.  1.
         21   -1    0    0  502  503 -0.00000000000E+00 -0.00000000000E+00 -0.11009237447E+02  0.11009237447E+02  0.00000000000E+00 0.  1.
         25    2    1    2    0    0  0.00000000000E+00  0.00000000000E+00  0.34403273372E+03  0.36605120861E+03  0.12503985547E+03 0.  0.
          4    1    3    3  501    0 -0.61958453369E+02  0.66203223503E+01  0.15777659379E+03  0.16964237283E+03  0.15500000000E+01 0. -1.
         -4    1    3    3    0  501  0.61958453369E+02 -0.66203223503E+01  0.18625613993E+03  0.19640883578E+03  0.15500000000E+01 0. -1.
<mgrwt>
<rscale>  2 0.12503986E+03</rscale>
<asrwt>0</asrwt>
<pdfrwt beam="1">  1       21 0.54621833E-01 0.12503986E+03</pdfrwt>
<pdfrwt beam="2">  1       21 0.16937291E-02 0.12503986E+03</pdfrwt>
<totfact> 0.50324194E+06</totfact>
</mgrwt>
</event>
<event>
 5    0  0.1420784E+000  0.1250063E+03  0.7546771E-02  0.1235059E+00
         21   -1    0    0  503  502  0.00000000000E+00  0.00000000000E+00  0.10164998047E+03  0.10164998047E+03  0.00000000000E+00 0. -1.
         21   -1    0    0  502  503 -0.00000000000E+00 -0.00000000000E+00 -0.38432299271E+02  0.38432299271E+02  0.00000000000E+00 0. -1.
         25    2    1    2    0    0  0.00000000000E+00  0.00000000000E+00  0.63217681200E+02  0.14008227974E+03  0.12500627937E+03 0.  0.
          4    1    3    3  501    0 -0.26294124112E+02 -0.36309628523E+02 -0.17165928784E+02  0.48029591892E+02  0.15500000000E+01 0.  1.
         -4    1    3    3    0  501  0.26294124112E+02  0.36309628523E+02  0.80383609984E+02  0.92052687850E+02  0.15500000000E+01 0.  1.
<mgrwt>
<rscale>  2 0.12500628E+03</rscale>
<asrwt>0</asrwt>
<pdfrwt beam="1">  1       21 0.15638458E-01 0.12500628E+03</pdfrwt>
<pdfrwt beam="2">  1       21 0.59126615E-02 0.12500628E+03</pdfrwt>
<totfact> 0.72017047E+06</totfact>
</mgrwt>
</event>
<event>
 5    0  0.1318606E+000  0.1250074E+03  0.7546771E-02  0.1235058E+00
         21   -1    0    0  503  502  0.00000000000E+00  0.00000000000E+00  0.89866977544E+01  0.89866977544E+01  0.00000000000E+00 0. -1.
         21   -1    0    0  502  503 -0.00000000000E+00 -0.00000000000E+00 -0.43472167239E+03  0.43472167239E+03  0.00000000000E+00 0. -1.
         25    2    1    2    0    0  0.00000000000E+00  0.00000000000E+00 -0.42573497463E+03  0.44370837014E+03  0.12500739621E+03 0.  0.
          4    1    3    3  501    0 -0.50592871810E+02 -0.32062805071E+02 -0.27602863793E+03  0.28245685264E+03  0.15500000000E+01 0. -1.
         -4    1    3    3    0  501  0.50592871810E+02  0.32062805071E+02 -0.14970633670E+03  0.16125151750E+03  0.15500000000E+01 0. -1.
<mgrwt>
<rscale>  2 0.12500740E+03</rscale>
<asrwt>0</asrwt>
<pdfrwt beam="1">  1       21 0.13825686E-02 0.12500740E+03</pdfrwt>
<pdfrwt beam="2">  1       21 0.66880269E-01 0.12500740E+03</pdfrwt>
<totfact> 0.45262797E+06</totfact>
</mgrwt>
</event>
<event>
 5    0  0.1466351E+000  0.1249986E+03  0.7546771E-02  0.1235072E+00
         21   -1    0    0  503  502  0.00000000000E+00  0.00000000000E+00  0.21014256417E+02  0.21014256417E+02  0.00000000000E+00 0.  1.
         21   -1    0    0  502  503 -0.00000000000E+00 -0.00000000000E+00 -0.18588141411E+03  0.18588141411E+03  0.00000000000E+00 0.  1.
         25    2    1    2    0    0  0.00000000000E+00  0.00000000000E+00 -0.16486715769E+03  0.20689567052E+03  0.12499855518E+03 0.  0.
          4    1    3    3  501    0 -0.21253455626E+02  0.50890747706E+02 -0.33832569777E+02  0.64719570887E+02  0.15500000000E+01 0.  1.
         -4    1    3    3    0  501  0.21253455626E+02 -0.50890747706E+02 -0.13103458791E+03  0.14217609964E+03  0.15500000000E+01 0.  1.
<mgrwt>
<rscale>  2 0.12499856E+03</rscale>
<asrwt>0</asrwt>
<pdfrwt beam="1">  1       21 0.32329626E-02 0.12499856E+03</pdfrwt>
<pdfrwt beam="2">  1       21 0.28597140E-01 0.12499856E+03</pdfrwt>
<totfact> 0.64189980E+06</totfact>
</mgrwt>
</event>
<event>
 5    0  0.1222151E+000  0.1249855E+03  0.7546771E-02  0.1235092E+00
         21   -1    0    0  503  502  0.00000000000E+00  0.00000000000E+00  0.96439721269E+03  0.96439721269E+03  0.00000000000E+00 0.  1.
         21   -1    0    0  502  503 -0.00000000000E+00 -0.00000000000E+00 -0.40495193668E+01  0.40495193668E+01  0.00000000000E+00 0.  1.
         25    2    1    2    0    0  0.00000000000E+00  0.00000000000E+00  0.96034769332E+03  0.96844673205E+03  0.12498552220E+03 0.  0.
          4    1    3    3  501    0  0.42096956913E+02 -0.33886622886E+02  0.23730089689E+03  0.24338154235E+03  0.15500000000E+01 0.  1.
         -4    1    3    3    0  501 -0.42096956913E+02  0.33886622886E+02  0.72304679643E+03  0.72506518970E+03  0.15500000000E+01 0.  1.
<mgrwt>
<rscale>  2 0.12498552E+03</rscale>
<asrwt>0</asrwt>
<pdfrwt beam="1">  1       21 0.14836862E+00 0.12498552E+03</pdfrwt>
<pdfrwt beam="2">  1       21 0.62300375E-03 0.12498552E+03</pdfrwt>
<totfact> 0.24432721E+06</totfact>
</mgrwt>
</event>
<event>
 5    0  0.1419438E+000  0.1249941E+03  0.7546771E-02  0.1235079E+00
         21   -1    0    0  503  502  0.00000000000E+00  0.00000000000E+00  0.45227092374E+02  0.45227092374E+02  0.00000000000E+00 0. -1.
         21   -1    0    0  502  503 -0.00000000000E+00 -0.00000000000E+00 -0.86361477903E+02  0.86361477903E+02  0.00000000000E+00 0. -1.
         25    2    1    2    0    0  0.00000000000E+00  0.00000000000E+00 -0.41134385529E+02  0.13158857028E+03  0.12499405648E+03 0.  0.
          4    1    3    3  501    0 -0.13698278368E+02 -0.17851911147E+02  0.40792854647E+02  0.46613228296E+02  0.15500000000E+01 0. -1.
         -4    1    3    3    0  501  0.13698278368E+02  0.17851911147E+02 -0.81927240176E+02  0.84975341981E+02  0.15500000000E+01 0. -1.
<mgrwt>
<rscale>  2 0.12499406E+03</rscale>
<asrwt>0</asrwt>
<pdfrwt beam="1">  1       21 0.69580143E-02 0.12499406E+03</pdfrwt>
<pdfrwt beam="2">  1       21 0.13286381E-01 0.12499406E+03</pdfrwt>
<totfact> 0.73162559E+06</totfact>
</mgrwt>
</event>
<event>
 5    0  0.1222151E+000  0.1250026E+03  0.7546771E-02  0.1235065E+00
         21   -1    0    0  503  502  0.00000000000E+00  0.00000000000E+00  0.71824577153E+03  0.71824577153E+03  0.00000000000E+00 0. -1.
         21   -1    0    0  502  503 -0.00000000000E+00 -0.00000000000E+00 -0.54388260849E+01  0.54388260849E+01  0.00000000000E+00 0. -1.
         25    2    1    2    0    0  0.00000000000E+00  0.00000000000E+00  0.71280694545E+03  0.72368459762E+03  0.12500262137E+03 0.  0.
          4    1    3    3  501    0  0.42511455882E+02  0.44526956695E+02  0.29455278307E+03  0.30092128251E+03  0.15500000000E+01 0.  1.
         -4    1    3    3    0  501 -0.42511455882E+02 -0.44526956695E+02  0.41825416238E+03  0.42276331511E+03  0.15500000000E+01 0.  1.
<mgrwt>
<rscale>  2 0.12500262E+03</rscale>
<asrwt>0</asrwt>
<pdfrwt beam="1">  1       21 0.11049927E+00 0.12500262E+03</pdfrwt>
<pdfrwt beam="2">  1       21 0.83674304E-03 0.12500262E+03</pdfrwt>
<totfact> 0.32014719E+06</totfact>
</mgrwt>
</event>
<event>
 5    0  0.1289330E+000  0.1249981E+03  0.7546771E-02  0.1235072E+00
         21   -1    0    0  503  502  0.00000000000E+00  0.00000000000E+00  0.65864257334E+03  0.65864257334E+03  0.00000000000E+00 0. -1.
         21   -1    0    0  502  503 -0.00000000000E+00 -0.00000000000E+00 -0.59305772538E+01  0.59305772538E+01  0.00000000000E+00 0. -1.
         25    2    1    2    0    0  0.00000000000E+00  0.00000000000E+00  0.65271199608E+03  0.66457315059E+03  0.12499809061E+03 0.  0.
          4    1    3    3  501    0 -0.43346520942E+02  0.21338723822E+02  0.11572834468E+03  0.12541815768E+03  0.15500000000E+01 0.  1.
         -4    1    3    3    0  501  0.43346520942E+02 -0.21338723822E+02  0.53698365140E+03  0.53915499291E+03  0.15500000000E+01 0.  1.
<mgrwt>
<rscale>  2 0.12499809E+03</rscale>
<asrwt>0</asrwt>
<pdfrwt beam="1">  1       21 0.10132957E+00 0.12499809E+03</pdfrwt>
<pdfrwt beam="2">  1       21 0.91239702E-03 0.12499809E+03</pdfrwt>
<totfact> 0.34322787E+06</totfact>
</mgrwt>
</event>
<event>
 5    0  0.1353654E+000  0.1250027E+03  0.7546771E-02  0.1235065E+00
         21   -1    0    0  503  502  0.00000000000E+00  0.00000000000E+00  0.41218079959E+03  0.41218079959E+03  0.00000000000E+00 0.  1.
         21   -1    0    0  502  503 -0.00000000000E+00 -0.00000000000E+00 -0.94774421528E+01  0.94774421528E+01  0.00000000000E+00 0.  1.
         25    2    1    2    0    0  0.00000000000E+00  0.00000000000E+00  0.40270335744E+03  0.42165824175E+03  0.12500271492E+03 0.  0.
          4    1    3    3  501    0  0.43781596333E+02  0.26174207894E+02  0.79631300796E+02  0.94580462585E+02  0.15500000000E+01 0. -1.
         -4    1    3    3    0  501 -0.43781596333E+02 -0.26174207894E+02  0.32307205665E+03  0.32707777916E+03  0.15500000000E+01 0. -1.
<mgrwt>
<rscale>  2 0.12500271E+03</rscale>
<asrwt>0</asrwt>
<pdfrwt beam="1">  1       21 0.63412417E-01 0.12500271E+03</pdfrwt>
<pdfrwt beam="2">  1       21 0.14580683E-02 0.12500271E+03</pdfrwt>
<totfact> 0.46634040E+06</totfact>
</mgrwt>
</event>
<event>
 5    0  0.1513049E+000  0.1249898E+03  0.7546771E-02  0.1235085E+00
         21   -1    0    0  503  502  0.00000000000E+00  0.00000000000E+00  0.41492292182E+02  0.41492292182E+02  0.00000000000E+00 0. -1.
         21   -1    0    0  502  503 -0.00000000000E+00 -0.00000000000E+00 -0.94128627496E+02  0.94128627496E+02  0.00000000000E+00 0. -1.
         25    2    1    2    0    0  0.00000000000E+00  0.00000000000E+00 -0.52636335314E+02  0.13562091968E+03  0.12498979982E+03 0.  0.
          4    1    3    3  501    0  0.18587217297E+02 -0.42072306001E+02 -0.72194947469E+02  0.85615866048E+02  0.15500000000E+01 0.  1.
         -4    1    3    3    0  501 -0.18587217297E+02  0.42072306001E+02  0.19558612155E+02  0.50005053629E+02  0.15500000000E+01 0.  1.
<mgrwt>
<rscale>  2 0.12498980E+03</rscale>
<asrwt>0</asrwt>
<pdfrwt beam="1">  1       21 0.63834297E-02 0.12498980E+03</pdfrwt>
<pdfrwt beam="2">  1       21 0.14481327E-01 0.12498980E+03</pdfrwt>
<totfact> 0.72633256E+06</totfact>
</mgrwt>
</event>
<event>
 5    0  0.1578473E+000  0.1250009E+03  0.7546771E-02  0.1235068E+00
         21   -1    0    0  503  502  0.00000000000E+00  0.00000000000E+00  0.42745268557E+02  0.42745268557E+02  0.00000000000E+00 0. -1.
         21   -1    0    0  502  503 -0.00000000000E+00 -0.00000000000E+00 -0.91385723096E+02  0.91385723096E+02  0.00000000000E+00 0. -1.
         25    2    1    2    0    0  0.00000000000E+00  0.00000000000E+00 -0.48640454539E+02  0.13413099165E+03  0.12500091641E+03 0.  0.
          4    1    3    3  501    0  0.55835511023E+02  0.28002201766E+02 -0.22736927251E+02  0.66491337449E+02  0.15500000000E+01 0. -1.
         -4    1    3    3    0  501 -0.55835511023E+02 -0.28002201766E+02 -0.25903527288E+02  0.67639654205E+02  0.15500000000E+01 0. -1.
<mgrwt>
<rscale>  2 0.12500092E+03</rscale>
<asrwt>0</asrwt>
<pdfrwt beam="1">  1       21 0.65761952E-02 0.12500092E+03</pdfrwt>
<pdfrwt beam="2">  1       21 0.14059342E-01 0.12500092E+03</pdfrwt>
<totfact> 0.72810039E+06</totfact>
</mgrwt>
</event>
<event>
 5    0  0.1479985E+000  0.1249993E+03  0.7546771E-02  0.1235070E+00
         21   -1    0    0  503  502  0.00000000000E+00  0.00000000000E+00  0.16900854157E+02  0.16900854157E+02  0.00000000000E+00 0. -1.
         21   -1    0    0  502  503 -0.00000000000E+00 -0.00000000000E+00 -0.23112472684E+03  0.23112472684E+03  0.00000000000E+00 0. -1.
         25    2    1    2    0    0  0.00000000000E+00  0.00000000000E+00 -0.21422387268E+03  0.24802558099E+03  0.12499928480E+03 0.  0.
          4    1    3    3  501    0  0.23741997947E+02  0.55022999799E+02 -0.14219329200E+03  0.15431314838E+03  0.15500000000E+01 0. -1.
         -4    1    3    3    0  501 -0.23741997947E+02 -0.55022999799E+02 -0.72030580682E+02  0.93712432616E+02  0.15500000000E+01 0. -1.
<mgrwt>
<rscale>  2 0.12499928E+03</rscale>
<asrwt>0</asrwt>
<pdfrwt beam="1">  1       21 0.26001314E-02 0.12499928E+03</pdfrwt>
<pdfrwt beam="2">  1       21 0.35557650E-01 0.12499928E+03</pdfrwt>
<totfact> 0.60065660E+06</totfact>
</mgrwt>
</event>
<event>
 5    0  0.1455220E+000  0.1250027E+03  0.7546771E-02  0.1235065E+00
         21   -1    0    0  503  502  0.00000000000E+00  0.00000000000E+00  0.12427629305E+02  0.12427629305E+02  0.00000000000E+00 0.  1.
         21   -1    0    0  502  503 -0.00000000000E+00 -0.00000000000E+00 -0.31433316055E+03  0.31433316055E+03  0.00000000000E+00 0.  1.
         25    2    1    2    0    0  0.00000000000E+00  0.00000000000E+00 -0.30190553125E+03  0.32676078986E+03  0.12500265594E+03 0.  0.
          4    1    3    3  501    0 -0.59047665745E+02  0.15909910036E+02 -0.11745016680E+03  0.13242619170E+03  0.15500000000E+01 0. -1.
         -4    1    3    3    0  501  0.59047665745E+02 -0.15909910036E+02 -0.18445536445E+03  0.19433459815E+03  0.15500000000E+01 0. -1.
<mgrwt>
<rscale>  2 0.12500266E+03</rscale>
<asrwt>0</asrwt>
<pdfrwt beam="1">  1       21 0.19119434E-02 0.12500266E+03</pdfrwt>
<pdfrwt beam="2">  1       21 0.48358938E-01 0.12500266E+03</pdfrwt>
<totfact> 0.53298350E+06</totfact>
</mgrwt>
</event>
<event>
 5    0  0.1388510E+000  0.1250010E+03  0.7546771E-02  0.1235068E+00
         21   -1    0    0  503  502  0.00000000000E+00  0.00000000000E+00  0.44455109888E+03  0.44455109888E+03  0.00000000000E+00 0. -1.
         21   -1    0    0  502  503 -0.00000000000E+00 -0.00000000000E+00 -0.87870935027E+01  0.87870935027E+01  0.00000000000E+00 0. -1.
         25    2    1    2    0    0  0.00000000000E+00  0.00000000000E+00  0.43576400538E+03  0.45333819238E+03  0.12500099316E+03 0.  0.
          4    1    3    3  501    0  0.25680262956E+02  0.56957383195E+02  0.21592841614E+03  0.22479124271E+03  0.15500000000E+01 0. -1.
         -4    1    3    3    0  501 -0.25680262956E+02 -0.56957383195E+02  0.21983558924E+03  0.22854694967E+03  0.15500000000E+01 0. -1.
<mgrwt>
<rscale>  2 0.12500099E+03</rscale>
<asrwt>0</asrwt>
<pdfrwt beam="1">  1       21 0.68392459E-01 0.12500099E+03</pdfrwt>
<pdfrwt beam="2">  1       21 0.13518609E-02 0.12500099E+03</pdfrwt>
<totfact> 0.44692090E+06</totfact>
</mgrwt>
</event>
<event>
 5    0  0.1506914E+000  0.1249936E+03  0.7546771E-02  0.1235079E+00
         21   -1    0    0  503  502  0.00000000000E+00  0.00000000000E+00  0.25426451222E+02  0.25426451222E+02  0.00000000000E+00 0. -1.
         21   -1    0    0  502  503 -0.00000000000E+00 -0.00000000000E+00 -0.15361367542E+03  0.15361367542E+03  0.00000000000E+00 0. -1.
         25    2    1    2    0    0  0.00000000000E+00  0.00000000000E+00 -0.12818722419E+03  0.17904012664E+03  0.12499360984E+03 0.  0.
          4    1    3    3  501    0  0.16731543271E+02 -0.32155165186E+02 -0.13698473269E+03  0.14170786386E+03  0.15500000000E+01 0.  1.
         -4    1    3    3    0  501 -0.16731543271E+02  0.32155165186E+02  0.87975084997E+01  0.37332262779E+02  0.15500000000E+01 0.  1.
<mgrwt>
<rscale>  2 0.12499361E+03</rscale>
<asrwt>0</asrwt>
<pdfrwt beam="1">  1       21 0.39117617E-02 0.12499361E+03</pdfrwt>
<pdfrwt beam="2">  1       21 0.23632873E-01 0.12499361E+03</pdfrwt>
<totfact> 0.67272725E+06</totfact>
</mgrwt>
</event>
<event>
 5    0  0.1485898E+000  0.1250118E+03  0.7546771E-02  0.1235051E+00
         21   -1    0    0  503  502  0.00000000000E+00  0.00000000000E+00  0.21975722823E+03  0.21975722823E+03  0.00000000000E+00 0. -1.
         21   -1    0    0  502  503 -0.00000000000E+00 -0.00000000000E+00 -0.17778645551E+02  0.17778645551E+02  0.00000000000E+00 0. -1.
         25    2    1    2    0    0  0.00000000000E+00  0.00000000000E+00  0.20197858268E+03  0.23753587378E+03  0.12501177333E+03 0.  0.
          4    1    3    3  501    0  0.44930616811E+02 -0.40525388990E+02  0.71338113935E+02  0.93555312407E+02  0.15500000000E+01 0. -1.
         -4    1    3    3    0  501 -0.44930616811E+02  0.40525388990E+02  0.13064046875E+03  0.14398056138E+03  0.15500000000E+01 0. -1.
<mgrwt>
<rscale>  2 0.12501177E+03</rscale>
<asrwt>0</asrwt>
<pdfrwt beam="1">  1       21 0.33808802E-01 0.12501177E+03</pdfrwt>
<pdfrwt beam="2">  1       21 0.27351764E-02 0.12501177E+03</pdfrwt>
<totfact> 0.61053792E+06</totfact>
</mgrwt>
</event>
<event>
 5    0  0.1387910E+000  0.1249455E+03  0.7546771E-02  0.1235155E+00
         21   -1    0    0  503  502  0.00000000000E+00  0.00000000000E+00  0.70767544985E+02  0.70767544985E+02  0.00000000000E+00 0. -1.
         21   -1    0    0  502  503 -0.00000000000E+00 -0.00000000000E+00 -0.55150166645E+02  0.55150166645E+02  0.00000000000E+00 0. -1.
         25    2    1    2    0    0  0.00000000000E+00  0.00000000000E+00  0.15617378340E+02  0.12591771163E+03  0.12494545848E+03 0.  0.
          4    1    3    3  501    0  0.51870681835E+02 -0.33843543850E+02  0.15901513118E+02  0.63962596209E+02  0.15500000000E+01 0. -1.
         -4    1    3    3    0  501 -0.51870681835E+02  0.33843543850E+02 -0.28413477815E+00  0.61955115421E+02  0.15500000000E+01 0. -1.
<mgrwt>
<rscale>  2 0.12494546E+03</rscale>
<asrwt>0</asrwt>
<pdfrwt beam="1">  1       21 0.10887315E-01 0.12494546E+03</pdfrwt>
<pdfrwt beam="2">  1       21 0.84846410E-02 0.12494546E+03</pdfrwt>
<totfact> 0.74020333E+06</totfact>
</mgrwt>
</event>
<event>
 5    0  0.1560583E+000  0.1250134E+03  0.7546771E-02  0.1235048E+00
         21   -1    0    0  503  502  0.00000000000E+00  0.00000000000E+00  0.74715512191E+02  0.74715512191E+02  0.00000000000E+00 0. -1.
         21   -1    0    0  502  503 -0.00000000000E+00 -0.00000000000E+00 -0.52292842171E+02  0.52292842171E+02  0.00000000000E+00 0. -1.
         25    2    1    2    0    0  0.00000000000E+00  0.00000000000E+00  0.22422670020E+02  0.12700835436E+03  0.12501338307E+03 0.  0.
          4    1    3    3  501    0  0.44824752313E+02 -0.34907460888E+02 -0.15221049961E+02  0.58837675918E+02  0.15500000000E+01 0. -1.
         -4    1    3    3    0  501 -0.44824752313E+02  0.34907460888E+02  0.37643719981E+02  0.68170678444E+02  0.15500000000E+01 0. -1.
<mgrwt>
<rscale>  2 0.12501338E+03</rscale>
<asrwt>0</asrwt>
<pdfrwt beam="1">  1       21 0.11494694E-01 0.12501338E+03</pdfrwt>
<pdfrwt beam="2">  1       21 0.80450526E-02 0.12501338E+03</pdfrwt>
<totfact> 0.73742804E+06</totfact>
</mgrwt>
</event>
<event>
 4    0  0.1501837E+000  0.1251416E+03  0.7546771E-02  0.1234848E+00
         21   -1    0    0  503  502  0.00000000000E+00  0.00000000000E+00  0.37958795890E+02  0.37958795890E+02  0.00000000000E+00 0.  1.
         21   -1    0    0  502  503 -0.00000000000E+00 -0.00000000000E+00 -0.10314092971E+03  0.10314092971E+03  0.00000000000E+00 0.  1.
          4    1    1    2  501    0 -0.20538824803E+02 -0.51894512395E+02 -0.64438665923E+02  0.85262112963E+02  0.15500000000E+01 0.  1.
         -4    1    1    2    0  501  0.20538824803E+02  0.51894512395E+02 -0.74346790190E+00  0.55837612641E+02  0.15500000000E+01 0.  1.
<mgrwt>
<rscale>  2 0.12514161E+03</rscale>
<asrwt>0</asrwt>
<pdfrwt beam="1">  1       21 0.58398149E-02 0.12514161E+03</pdfrwt>
<pdfrwt beam="2">  1       21 0.15867835E-01 0.12514161E+03</pdfrwt>
<totfact> 0.71637302E+06</totfact>
</mgrwt>
</event>
<event>
 5    0  0.1363978E+000  0.1249696E+03  0.7546771E-02  0.1235117E+00
         21   -1    0    0  503  502  0.00000000000E+00  0.00000000000E+00  0.62821933287E+01  0.62821933287E+01  0.00000000000E+00 0. -1.
         21   -1    0    0  502  503 -0.00000000000E+00 -0.00000000000E+00 -0.62149440115E+03  0.62149440115E+03  0.00000000000E+00 0. -1.
         25    2    1    2    0    0  0.00000000000E+00  0.00000000000E+00 -0.61521220782E+03  0.62777659447E+03  0.12496956399E+03 0.  0.
          4    1    3    3  501    0 -0.45620393922E+02 -0.32792097353E+02 -0.44475634525E+03  0.44829359925E+03  0.15500000000E+01 0.  1.
         -4    1    3    3    0  501  0.45620393922E+02  0.32792097353E+02 -0.17045586257E+03  0.17948299522E+03  0.15500000000E+01 0.  1.
<mgrwt>
<rscale>  2 0.12496956E+03</rscale>
<asrwt>0</asrwt>
<pdfrwt beam="1">  1       21 0.96649135E-03 0.12496956E+03</pdfrwt>
<pdfrwt beam="2">  1       21 0.95614516E-01 0.12496956E+03</pdfrwt>
<totfact> 0.35892967E+06</totfact>
</mgrwt>
</event>
<event>
 5    0  0.1337776E+000  0.1249997E+03  0.7546771E-02  0.1235070E+00
         21   -1    0    0  503  502  0.00000000000E+00  0.00000000000E+00  0.50115161505E+03  0.50115161505E+03  0.00000000000E+00 0.  1.
         21   -1    0    0  502  503 -0.00000000000E+00 -0.00000000000E+00 -0.77945068857E+01  0.77945068857E+01  0.00000000000E+00 0.  1.
         25    2    1    2    0    0  0.00000000000E+00  0.00000000000E+00  0.49335710817E+03  0.50894612194E+03  0.12499967543E+03 0.  0.
          4    1    3    3  501    0  0.32576645615E+02 -0.26194346632E+02  0.43575271227E+03  0.43775587990E+03  0.15500000000E+01 0. -1.
         -4    1    3    3    0  501 -0.32576645615E+02  0.26194346632E+02  0.57604395894E+02  0.71190242037E+02  0.15500000000E+01 0. -1.
<mgrwt>
<rscale>  2 0.12499968E+03</rscale>
<asrwt>0</asrwt>
<pdfrwt beam="1">  1       21 0.77100223E-01 0.12499968E+03</pdfrwt>
<pdfrwt beam="2">  1       21 0.11991553E-02 0.12499968E+03</pdfrwt>
<totfact> 0.41563366E+06</totfact>
</mgrwt>
</event>
<event>
 5    0  0.1554845E+000  0.1250010E+03  0.7546771E-02  0.1235068E+00
         21   -1    0    0  503  502  0.00000000000E+00  0.00000000000E+00  0.34702649286E+02  0.34702649286E+02  0.00000000000E+00 0.  1.
         21   -1    0    0  502  503 -0.00000000000E+00 -0.00000000000E+00 -0.11256516909E+03  0.11256516909E+03  0.00000000000E+00 0.  1.
         25    2    1    2    0    0  0.00000000000E+00  0.00000000000E+00 -0.77862519805E+02  0.14726781838E+03  0.12500095335E+03 0.  0.
          4    1    3    3  501    0 -0.59232576048E+02 -0.17709684822E+02 -0.49585136938E+02  0.79266760417E+02  0.15500000000E+01 0.  1.
         -4    1    3    3    0  501  0.59232576048E+02  0.17709684822E+02 -0.28277382867E+02  0.68001057959E+02  0.15500000000E+01 0.  1.
<mgrwt>
<rscale>  2 0.12500095E+03</rscale>
<asrwt>0</asrwt>
<pdfrwt beam="1">  1       21 0.53388691E-02 0.12500095E+03</pdfrwt>
<pdfrwt beam="2">  1       21 0.17317718E-01 0.12500095E+03</pdfrwt>
<totfact> 0.71102398E+06</totfact>
</mgrwt>
</event>
<event>
 5    0  0.1423278E+000  0.1250553E+03  0.7546771E-02  0.1234983E+00
         21   -1    0    0  503  502  0.00000000000E+00  0.00000000000E+00  0.16866194318E+03  0.16866194318E+03  0.00000000000E+00 0. -1.
         21   -1    0    0  502  503 -0.00000000000E+00 -0.00000000000E+00 -0.23180712289E+02  0.23180712289E+02  0.00000000000E+00 0. -1.
         25    2    1    2    0    0  0.00000000000E+00  0.00000000000E+00  0.14548123089E+03  0.19184265547E+03  0.12505525145E+03 0.  0.
          4    1    3    3  501    0  0.10052090534E+02 -0.43347308082E+02  0.14008699914E+03  0.14699252862E+03  0.15500000000E+01 0. -1.
         -4    1    3    3    0  501 -0.10052090534E+02  0.43347308082E+02  0.53942317495E+01  0.44850126848E+02  0.15500000000E+01 0. -1.
<mgrwt>
<rscale>  2 0.12505525E+03</rscale>
<asrwt>0</asrwt>
<pdfrwt beam="1">  1       21 0.25947991E-01 0.12505525E+03</pdfrwt>
<pdfrwt beam="2">  1       21 0.35662635E-02 0.12505525E+03</pdfrwt>
<totfact> 0.65726197E+06</totfact>
</mgrwt>
</event>
<event>
 5    0  0.1355744E+000  0.1250031E+03  0.7546771E-02  0.1235064E+00
         21   -1    0    0  503  502  0.00000000000E+00  0.00000000000E+00  0.77562056359E+01  0.77562056359E+01  0.00000000000E+00 0.  1.
         21   -1    0    0  502  503 -0.00000000000E+00 -0.00000000000E+00 -0.50365402587E+03  0.50365402587E+03  0.00000000000E+00 0.  1.
         25    2    1    2    0    0  0.00000000000E+00  0.00000000000E+00 -0.49589782023E+03  0.51141023150E+03  0.12500310707E+03 0.  0.
          4    1    3    3  501    0  0.35829566146E+02 -0.50201507381E+02 -0.20701818291E+03  0.21601592467E+03  0.15500000000E+01 0. -1.
         -4    1    3    3    0  501 -0.35829566146E+02  0.50201507381E+02 -0.28887963732E+03  0.29539430684E+03  0.15500000000E+01 0. -1.
<mgrwt>
<rscale>  2 0.12500311E+03</rscale>
<asrwt>0</asrwt>
<pdfrwt beam="1">  1       21 0.11932620E-02 0.12500311E+03</pdfrwt>
<pdfrwt beam="2">  1       21 0.77485259E-01 0.12500311E+03</pdfrwt>
<totfact> 0.41428740E+06</totfact>
</mgrwt>
</event>
<event>
 5    0  0.1222151E+000  0.1250206E+03  0.7546771E-02  0.1235037E+00
         21   -1    0    0  503  502  0.00000000000E+00  0.00000000000E+00  0.41039021950E+01  0.41039021950E+01  0.00000000000E+00 0.  1.
         21   -1    0    0  502  503 -0.00000000000E+00 -0.00000000000E+00 -0.95215146789E+03  0.95215146789E+03  0.00000000000E+00 0.  1.
         25    2    1    2    0    0  0.00000000000E+00  0.00000000000E+00 -0.94804756570E+03  0.95625537009E+03  0.12502058229E+03 0.  0.
          4    1    3    3  501    0  0.19922963069E+02  0.53166528868E+02 -0.27434368593E+03  0.28016149764E+03  0.15500000000E+01 0.  1.
         -4    1    3    3    0  501 -0.19922963069E+02 -0.53166528868E+02 -0.67370387977E+03  0.67609387245E+03  0.15500000000E+01 0.  1.
<mgrwt>
<rscale>  2 0.12502058E+03</rscale>
<asrwt>0</asrwt>
<pdfrwt beam="1">  1       21 0.63137055E-03 0.12502058E+03</pdfrwt>
<pdfrwt beam="2">  1       21 0.14648461E+00 0.12502058E+03</pdfrwt>
<totfact> 0.24732108E+06</totfact>
</mgrwt>
</event>
<event>
 5    0  0.1324840E+000  0.1250008E+03  0.7546771E-02  0.1235068E+00
         21   -1    0    0  503  502  0.00000000000E+00  0.00000000000E+00  0.68022235977E+01  0.68022235977E+01  0.00000000000E+00 0.  1.
         21   -1    0    0  502  503 -0.00000000000E+00 -0.00000000000E+00 -0.57426766574E+03  0.57426766574E+03  0.00000000000E+00 0.  1.
         25    2    1    2    0    0  0.00000000000E+00  0.00000000000E+00 -0.56746544214E+03  0.58106988934E+03  0.12500075307E+03 0.  0.
          4    1    3    3  501    0 -0.19076501982E+01  0.62366197710E+02 -0.29894757090E+03  0.30539357294E+03  0.15500000000E+01 0. -1.
         -4    1    3    3    0  501  0.19076501982E+01 -0.62366197710E+02 -0.26851787124E+03  0.27567631640E+03  0.15500000000E+01 0. -1.
<mgrwt>
<rscale>  2 0.12500075E+03</rscale>
<asrwt>0</asrwt>
<pdfrwt beam="1">  1       21 0.10464956E-02 0.12500075E+03</pdfrwt>
<pdfrwt beam="2">  1       21 0.88348898E-01 0.12500075E+03</pdfrwt>
<totfact> 0.37962238E+06</totfact>
</mgrwt>
</event>
<event>
 5    0  0.1559090E+000  0.1249971E+03  0.7546771E-02  0.1235074E+00
         21   -1    0    0  503  502  0.00000000000E+00  0.00000000000E+00  0.41543464119E+02  0.41543464119E+02  0.00000000000E+00 0.  1.
         21   -1    0    0  502  503 -0.00000000000E+00 -0.00000000000E+00 -0.94023701255E+02  0.94023701255E+02  0.00000000000E+00 0.  1.
         25    2    1    2    0    0  0.00000000000E+00  0.00000000000E+00 -0.52480237137E+02  0.13556716537E+03  0.12499712412E+03 0.  0.
          4    1    3    3  501    0 -0.35313552824E+02 -0.49552205077E+02 -0.41624079861E+02  0.73738962329E+02  0.15500000000E+01 0. -1.
         -4    1    3    3    0  501  0.35313552824E+02  0.49552205077E+02 -0.10856157276E+02  0.61828203045E+02  0.15500000000E+01 0. -1.
<mgrwt>
<rscale>  2 0.12499712E+03</rscale>
<asrwt>0</asrwt>
<pdfrwt beam="1">  1       21 0.63913022E-02 0.12499712E+03</pdfrwt>
<pdfrwt beam="2">  1       21 0.14465185E-01 0.12499712E+03</pdfrwt>
<totfact> 0.72626790E+06</totfact>
</mgrwt>
</event>
<event>
 5    0  0.1549419E+000  0.1250003E+03  0.7546771E-02  0.1235069E+00
         21   -1    0    0  503  502  0.00000000000E+00  0.00000000000E+00  0.56218585145E+02  0.56218585145E+02  0.00000000000E+00 0.  1.
         21   -1    0    0  502  503 -0.00000000000E+00 -0.00000000000E+00 -0.69483561759E+02  0.69483561759E+02  0.00000000000E+00 0.  1.
         25    2    1    2    0    0  0.00000000000E+00  0.00000000000E+00 -0.13264976614E+02  0.12570214690E+03  0.12500028053E+03 0.  0.
          4    1    3    3  501    0  0.49703160227E+02 -0.24495644052E+02  0.22398698605E+02  0.59787497968E+02  0.15500000000E+01 0.  1.
         -4    1    3    3    0  501 -0.49703160227E+02  0.24495644052E+02 -0.35663675219E+02  0.65914648935E+02  0.15500000000E+01 0.  1.
<mgrwt>
<rscale>  2 0.12500028E+03</rscale>
<asrwt>0</asrwt>
<pdfrwt beam="1">  1       21 0.86490131E-02 0.12500028E+03</pdfrwt>
<pdfrwt beam="2">  1       21 0.10689779E-01 0.12500028E+03</pdfrwt>
<totfact> 0.73946710E+06</totfact>
</mgrwt>
</event>
<event>
 5    0  0.1496422E+000  0.1250017E+03  0.7546771E-02  0.1235067E+00
         21   -1    0    0  503  502  0.00000000000E+00  0.00000000000E+00  0.94141976269E+02  0.94141976269E+02  0.00000000000E+00 0.  1.
         21   -1    0    0  502  503 -0.00000000000E+00 -0.00000000000E+00 -0.41494338500E+02  0.41494338500E+02  0.00000000000E+00 0.  1.
         25    2    1    2    0    0  0.00000000000E+00  0.00000000000E+00  0.52647637769E+02  0.13563631477E+03  0.12500174447E+03 0.  0.
          4    1    3    3  501    0  0.20293714437E+02  0.53672685403E+02 -0.50552335664E+00  0.57404268638E+02  0.15500000000E+01 0. -1.
         -4    1    3    3    0  501 -0.20293714437E+02 -0.53672685403E+02  0.53153161126E+02  0.78232046130E+02  0.15500000000E+01 0. -1.
<mgrwt>
<rscale>  2 0.12500174E+03</rscale>
<asrwt>0</asrwt>
<pdfrwt beam="1">  1       21 0.14483381E-01 0.12500174E+03</pdfrwt>
<pdfrwt beam="2">  1       21 0.63837444E-02 0.12500174E+03</pdfrwt>
<totfact> 0.72609099E+06</totfact>
</mgrwt>
</event>
<event>
 5    0  0.1536921E+000  0.1249990E+03  0.7546771E-02  0.1235071E+00
         21   -1    0    0  503  502  0.00000000000E+00  0.00000000000E+00  0.70172724755E+02  0.70172724755E+02  0.00000000000E+00 0.  1.
         21   -1    0    0  502  503 -0.00000000000E+00 -0.00000000000E+00 -0.55665363653E+02  0.55665363653E+02  0.00000000000E+00 0.  1.
         25    2    1    2    0    0  0.00000000000E+00  0.00000000000E+00  0.14507361102E+02  0.12583808841E+03  0.12499904387E+03 0.  0.
          4    1    3    3  501    0 -0.55555013103E+01  0.39935074754E+02  0.55303653020E+02  0.68458529986E+02  0.15500000000E+01 0. -1.
         -4    1    3    3    0  501  0.55555013103E+01 -0.39935074754E+02 -0.40796291918E+02  0.57379558422E+02  0.15500000000E+01 0. -1.
<mgrwt>
<rscale>  2 0.12499904E+03</rscale>
<asrwt>0</asrwt>
<pdfrwt beam="1">  1       21 0.10795804E-01 0.12499904E+03</pdfrwt>
<pdfrwt beam="2">  1       21 0.85639021E-02 0.12499904E+03</pdfrwt>
<totfact> 0.73930203E+06</totfact>
</mgrwt>
</event>
<event>
 5    0  0.1474379E+000  0.1250002E+03  0.7546771E-02  0.1235069E+00
         21   -1    0    0  503  502  0.00000000000E+00  0.00000000000E+00  0.10149026779E+03  0.10149026779E+03  0.00000000000E+00 0.  1.
         21   -1    0    0  502  503 -0.00000000000E+00 -0.00000000000E+00 -0.38489065719E+02  0.38489065719E+02  0.00000000000E+00 0.  1.
         25    2    1    2    0    0  0.00000000000E+00  0.00000000000E+00  0.63001202066E+02  0.13997933350E+03  0.12500024939E+03 0.  0.
          4    1    3    3  501    0  0.36919094442E+02  0.31049168462E+02  0.75967858072E+02  0.90003268588E+02  0.15500000000E+01 0.  1.
         -4    1    3    3    0  501 -0.36919094442E+02 -0.31049168462E+02 -0.12966656006E+02  0.49976064916E+02  0.15500000000E+01 0.  1.
<mgrwt>
<rscale>  2 0.12500025E+03</rscale>
<asrwt>0</asrwt>
<pdfrwt beam="1">  1       21 0.15613887E-01 0.12500025E+03</pdfrwt>
<pdfrwt beam="2">  1       21 0.59213948E-02 0.12500025E+03</pdfrwt>
<totfact> 0.72041549E+06</totfact>
</mgrwt>
</event>
<event>
 5    0  0.1487720E+000  0.1250138E+03  0.7546771E-02  0.1235048E+00
         21   -1    0    0  503  502  0.00000000000E+00  0.00000000000E+00  0.72789659597E+02  0.72789659597E+02  0.00000000000E+00 0. -1.
         21   -1    0    0  502  503 -0.00000000000E+00 -0.00000000000E+00 -0.53676745988E+02  0.53676745988E+02  0.00000000000E+00 0. -1.
         25    2    1    2    0    0  0.00000000000E+00  0.00000000000E+00  0.19112913609E+02  0.12646640559E+03  0.12501379234E+03 0.  0.
          4    1    3    3  501    0  0.28848054594E+02 -0.18572568165E+01  0.65599178839E+02  0.71702959640E+02  0.15500000000E+01 0.  1.
         -4    1    3    3    0  501 -0.28848054594E+02  0.18572568165E+01 -0.46486265231E+02  0.54763445946E+02  0.15500000000E+01 0.  1.
<mgrwt>
<rscale>  2 0.12501379E+03</rscale>
<asrwt>0</asrwt>
<pdfrwt beam="1">  1       21 0.11198409E-01 0.12501379E+03</pdfrwt>
<pdfrwt beam="2">  1       21 0.82579610E-02 0.12501379E+03</pdfrwt>
<totfact> 0.73815986E+06</totfact>
</mgrwt>
</event>
<event>
 5    0  0.1605937E+000  0.1249984E+03  0.7546771E-02  0.1235072E+00
         21   -1    0    0  503  502  0.00000000000E+00  0.00000000000E+00  0.40006845052E+02  0.40006845052E+02  0.00000000000E+00 0. -1.
         21   -1    0    0  502  503 -0.00000000000E+00 -0.00000000000E+00 -0.97637097907E+02  0.97637097907E+02  0.00000000000E+00 0. -1.
         25    2    1    2    0    0  0.00000000000E+00  0.00000000000E+00 -0.57630252855E+02  0.13764394296E+03  0.12499843595E+03 0.  0.
          4    1    3    3  501    0 -0.28545897275E+02 -0.49972142136E+02 -0.20301654145E+01  0.57607354674E+02  0.15500000000E+01 0. -1.
         -4    1    3    3    0  501  0.28545897275E+02  0.49972142136E+02 -0.55600087441E+02  0.80036588285E+02  0.15500000000E+01 0. -1.
<mgrwt>
<rscale>  2 0.12499844E+03</rscale>
<asrwt>0</asrwt>
<pdfrwt beam="1">  1       21 0.61548993E-02 0.12499844E+03</pdfrwt>
<pdfrwt beam="2">  1       21 0.15021092E-01 0.12499844E+03</pdfrwt>
<totfact> 0.72351137E+06</totfact>
</mgrwt>
</event>
<event>
 5    0  0.1222151E+000  0.1249983E+03  0.7546771E-02  0.1235072E+00
         21   -1    0    0  503  502  0.00000000000E+00  0.00000000000E+00  0.31182315557E+01  0.31182315557E+01  0.00000000000E+00 0. -1.
         21   -1    0    0  502  503 -0.00000000000E+00 -0.00000000000E+00 -0.12526789280E+04  0.12526789280E+04  0.00000000000E+00 0. -1.
         25    2    1    2    0    0  0.00000000000E+00  0.00000000000E+00 -0.12495606965E+04  0.12557971596E+04  0.12499828739E+03 0.  0.
          4    1    3    3  501    0  0.49922076727E+02 -0.20341810121E+02 -0.94211944173E+03  0.94366172327E+03  0.15500000000E+01 0.  1.
         -4    1    3    3    0  501 -0.49922076727E+02  0.20341810121E+02 -0.30744125474E+03  0.31213543631E+03  0.15500000000E+01 0.  1.
<mgrwt>
<rscale>  2 0.12499829E+03</rscale>
<asrwt>0</asrwt>
<pdfrwt beam="1">  1       21 0.47972804E-03 0.12499829E+03</pdfrwt>
<pdfrwt beam="2">  1       21 0.19271979E+00 0.12499829E+03</pdfrwt>
<totfact> 0.18065887E+06</totfact>
</mgrwt>
</event>
<event>
 5    0  0.1496489E+000  0.1250016E+03  0.7546771E-02  0.1235067E+00
         21   -1    0    0  503  502  0.00000000000E+00  0.00000000000E+00  0.11043223237E+03  0.11043223237E+03  0.00000000000E+00 0.  1.
         21   -1    0    0  502  503 -0.00000000000E+00 -0.00000000000E+00 -0.35373295185E+02  0.35373295185E+02  0.00000000000E+00 0.  1.
         25    2    1    2    0    0  0.00000000000E+00  0.00000000000E+00  0.75058937188E+02  0.14580552756E+03  0.12500163125E+03 0.  0.
          4    1    3    3  501    0  0.59005214850E+02 -0.15806948762E+02  0.22210811798E+02  0.65016902951E+02  0.15500000000E+01 0.  1.
         -4    1    3    3    0  501 -0.59005214850E+02  0.15806948762E+02  0.52848125390E+02  0.80788624607E+02  0.15500000000E+01 0.  1.
<mgrwt>
<rscale>  2 0.12500163E+03</rscale>
<asrwt>0</asrwt>
<pdfrwt beam="1">  1       21 0.16989574E-01 0.12500163E+03</pdfrwt>
<pdfrwt beam="2">  1       21 0.54420454E-02 0.12500163E+03</pdfrwt>
<totfact> 0.71287209E+06</totfact>
</mgrwt>
</event>
<event>
 5    0  0.1222151E+000  0.1249874E+03  0.7546771E-02  0.1235089E+00
         21   -1    0    0  503  502  0.00000000000E+00  0.00000000000E+00  0.75278817530E+02  0.75278817530E+02  0.00000000000E+00 0.  1.
         21   -1    0    0  502  503 -0.00000000000E+00 -0.00000000000E+00 -0.51879980369E+02  0.51879980369E+02  0.00000000000E+00 0.  1.
         25    2    1    2    0    0  0.00000000000E+00  0.00000000000E+00  0.23398837161E+02  0.12715879790E+03  0.12498741658E+03 0.  0.
          4    1    3    3  501    0 -0.55472282961E+01  0.20024181865E+02 -0.48242072159E+02  0.52549401779E+02  0.15500000000E+01 0. -1.
         -4    1    3    3    0  501  0.55472282961E+01 -0.20024181865E+02  0.71640909320E+02  0.74609396119E+02  0.15500000000E+01 0. -1.
<mgrwt>
<rscale>  2 0.12498742E+03</rscale>
<asrwt>0</asrwt>
<pdfrwt beam="1">  1       21 0.11581357E-01 0.12498742E+03</pdfrwt>
<pdfrwt beam="2">  1       21 0.79815354E-02 0.12498742E+03</pdfrwt>
<totfact> 0.73771228E+06</totfact>
</mgrwt>
</event>
<event>
 5    0  0.1244381E+000  0.1250065E+03  0.7546771E-02  0.1235059E+00
         21   -1    0    0  503  502  0.00000000000E+00  0.00000000000E+00  0.70413208461E+01  0.70413208461E+01  0.00000000000E+00 0. -1.
         21   -1    0    0  502  503 -0.00000000000E+00 -0.00000000000E+00 -0.55481841730E+03  0.55481841730E+03  0.00000000000E+00 0. -1.
         25    2    1    2    0    0  0.00000000000E+00  0.00000000000E+00 -0.54777709645E+03  0.56185973815E+03  0.12500647163E+03 0.  0.
          4    1    3    3  501    0  0.41151294368E+02 -0.46324794544E+02 -0.31007989634E+03  0.31621410505E+03  0.15500000000E+01 0. -1.
         -4    1    3    3    0  501 -0.41151294368E+02  0.46324794544E+02 -0.23769720011E+03  0.24564563310E+03  0.15500000000E+01 0. -1.
<mgrwt>
<rscale>  2 0.12500647E+03</rscale>
<asrwt>0</asrwt>
<pdfrwt beam="1">  1       21 0.10832797E-02 0.12500647E+03</pdfrwt>
<pdfrwt beam="2">  1       21 0.85356710E-01 0.12500647E+03</pdfrwt>
<totfact> 0.38870049E+06</totfact>
</mgrwt>
</event>
<event>
 5    0  0.1513092E+000  0.1250027E+03  0.7546771E-02  0.1235065E+00
         21   -1    0    0  503  502  0.00000000000E+00  0.00000000000E+00  0.67655264853E+02  0.67655264853E+02  0.00000000000E+00 0. -1.
         21   -1    0    0  502  503 -0.00000000000E+00 -0.00000000000E+00 -0.57740018352E+02  0.57740018352E+02  0.00000000000E+00 0. -1.
         25    2    1    2    0    0  0.00000000000E+00  0.00000000000E+00  0.99152465010E+01  0.12539528320E+03  0.12500265972E+03 0.  0.
          4    1    3    3  501    0  0.57953669115E+02  0.15571476099E+02  0.22416745671E+02  0.64078168031E+02  0.15500000000E+01 0. -1.
         -4    1    3    3    0  501 -0.57953669115E+02 -0.15571476099E+02 -0.12501499170E+02  0.61317115174E+02  0.15500000000E+01 0. -1.
<mgrwt>
<rscale>  2 0.12500266E+03</rscale>
<asrwt>0</asrwt>
<pdfrwt beam="1">  1       21 0.10408502E-01 0.12500266E+03</pdfrwt>
<pdfrwt beam="2">  1       21 0.88830798E-02 0.12500266E+03</pdfrwt>
<totfact> 0.73985060E+06</totfact>
</mgrwt>
</event>
<event>
 5    0  0.1469396E+000  0.1250002E+03  0.7546771E-02  0.1235069E+00
         21   -1    0    0  503  502  0.00000000000E+00  0.00000000000E+00  0.15352113744E+03  0.15352113744E+03  0.00000000000E+00 0.  1.
         21   -1    0    0  502  503 -0.00000000000E+00 -0.00000000000E+00 -0.25444464345E+02  0.25444464345E+02  0.00000000000E+00 0.  1.
         25    2    1    2    0    0  0.00000000000E+00  0.00000000000E+00  0.12807667309E+03  0.17896560178E+03  0.12500020972E+03 0.  0.
          4    1    3    3  501    0 -0.59161951228E+02 -0.20029232091E+02  0.61750268317E+02  0.87845345627E+02  0.15500000000E+01 0.  1.
         -4    1    3    3    0  501  0.59161951228E+02  0.20029232091E+02  0.66326404774E+02  0.91120256153E+02  0.15500000000E+01 0.  1.
<mgrwt>
<rscale>  2 0.12500021E+03</rscale>
<asrwt>0</asrwt>
<pdfrwt beam="1">  1       21 0.23618636E-01 0.12500021E+03</pdfrwt>
<pdfrwt beam="2">  1       21 0.39145331E-02 0.12500021E+03</pdfrwt>
<totfact> 0.67270040E+06</totfact>
</mgrwt>
</event>
<event>
 5    0  0.1222151E+000  0.1249941E+03  0.7546771E-02  0.1235079E+00
         21   -1    0    0  503  502  0.00000000000E+00  0.00000000000E+00  0.99330752245E+03  0.99330752245E+03  0.00000000000E+00 0. -1.
         21   -1    0    0  502  503 -0.00000000000E+00 -0.00000000000E+00 -0.39321971907E+01  0.39321971907E+01  0.00000000000E+00 0. -1.
         25    2    1    2    0    0  0.00000000000E+00  0.00000000000E+00  0.98937532526E+03  0.99723971964E+03  0.12499409665E+03 0.  0.
          4    1    3    3  501    0  0.93131657103E+01  0.61768690029E+02  0.50403428092E+03  0.50789276916E+03  0.15500000000E+01 0. -1.
         -4    1    3    3    0  501 -0.93131657103E+01 -0.61768690029E+02  0.48534104434E+03  0.48934695048E+03  0.15500000000E+01 0. -1.
<mgrwt>
<rscale>  2 0.12499410E+03</rscale>
<asrwt>0</asrwt>
<pdfrwt beam="1">  1       21 0.15281634E+00 0.12499410E+03</pdfrwt>
<pdfrwt beam="2">  1       21 0.60495421E-03 0.12499410E+03</pdfrwt>
<totfact> 0.23691254E+06</totfact>
</mgrwt>
</event>
<event>
 5    0  0.1424077E+000  0.1249191E+03  0.7546771E-02  0.1235196E+00
         21   -1    0    0  503  502  0.00000000000E+00  0.00000000000E+00  0.48088542978E+02  0.48088542978E+02  0.00000000000E+00 0. -1.
         21   -1    0    0  502  503 -0.00000000000E+00 -0.00000000000E+00 -0.81125236147E+02  0.81125236147E+02  0.00000000000E+00 0. -1.
         25    2    1    2    0    0  0.00000000000E+00  0.00000000000E+00 -0.33036693170E+02  0.12921377913E+03  0.12491908429E+03 0.  0.
          4    1    3    3  501    0  0.57427050243E+02  0.19309853190E+02 -0.89765732864E+00  0.60613074649E+02  0.15500000000E+01 0.  1.
         -4    1    3    3    0  501 -0.57427050243E+02 -0.19309853190E+02 -0.32139035841E+02  0.68600704476E+02  0.15500000000E+01 0.  1.
<mgrwt>
<rscale>  2 0.12491908E+03</rscale>
<asrwt>0</asrwt>
<pdfrwt beam="1">  1       21 0.73982375E-02 0.12491908E+03</pdfrwt>
<pdfrwt beam="2">  1       21 0.12480805E-01 0.12491908E+03</pdfrwt>
<totfact> 0.73622166E+06</totfact>
</mgrwt>
</event>
<event>
 5    0  0.1501171E+000  0.1249952E+03  0.7546771E-02  0.1235077E+00
         21   -1    0    0  503  502  0.00000000000E+00  0.00000000000E+00  0.79966568431E+02  0.79966568431E+02  0.00000000000E+00 0. -1.
         21   -1    0    0  502  503 -0.00000000000E+00 -0.00000000000E+00 -0.48844814639E+02  0.48844814639E+02  0.00000000000E+00 0. -1.
         25    2    1    2    0    0  0.00000000000E+00  0.00000000000E+00  0.31121753792E+02  0.12881138307E+03  0.12499523531E+03 0.  0.
          4    1    3    3  501    0 -0.33809762208E+02  0.46928661953E+02  0.39907369054E+02  0.70287978617E+02  0.15500000000E+01 0. -1.
         -4    1    3    3    0  501  0.33809762208E+02 -0.46928661953E+02 -0.87856152618E+01  0.58523404453E+02  0.15500000000E+01 0. -1.
<mgrwt>
<rscale>  2 0.12499524E+03</rscale>
<asrwt>0</asrwt>
<pdfrwt beam="1">  1       21 0.12302549E-01 0.12499524E+03</pdfrwt>
<pdfrwt beam="2">  1       21 0.75145868E-02 0.12499524E+03</pdfrwt>
<totfact> 0.73533169E+06</totfact>
</mgrwt>
</event>
<event>
 5    0  0.1527411E+000  0.1249933E+03  0.7546771E-02  0.1235080E+00
         21   -1    0    0  503  502  0.00000000000E+00  0.00000000000E+00  0.67606257030E+02  0.67606257030E+02  0.00000000000E+00 0. -1.
         21   -1    0    0  502  503 -0.00000000000E+00 -0.00000000000E+00 -0.57773248249E+02  0.57773248249E+02  0.00000000000E+00 0. -1.
         25    2    1    2    0    0  0.00000000000E+00  0.00000000000E+00  0.98330087809E+01  0.12537950528E+03  0.12499332895E+03 0.  0.
          4    1    3    3  501    0  0.50123064000E+02  0.30632966160E+02  0.26259705209E+02  0.64363613775E+02  0.15500000000E+01 0. -1.
         -4    1    3    3    0  501 -0.50123064000E+02 -0.30632966160E+02 -0.16426696428E+02  0.61015891504E+02  0.15500000000E+01 0. -1.
<mgrwt>
<rscale>  2 0.12499333E+03</rscale>
<asrwt>0</asrwt>
<pdfrwt beam="1">  1       21 0.10400963E-01 0.12499333E+03</pdfrwt>
<pdfrwt beam="2">  1       21 0.88881921E-02 0.12499333E+03</pdfrwt>
<totfact> 0.74004872E+06</totfact>
</mgrwt>
</event>
<event>
 5    0  0.1519661E+000  0.1249925E+03  0.7546771E-02  0.1235081E+00
         21   -1    0    0  503  502  0.00000000000E+00  0.00000000000E+00  0.11277482237E+03  0.11277482237E+03  0.00000000000E+00 0.  1.
         21   -1    0    0  502  503 -0.00000000000E+00 -0.00000000000E+00 -0.34633446533E+02  0.34633446533E+02  0.00000000000E+00 0.  1.
         25    2    1    2    0    0  0.00000000000E+00  0.00000000000E+00  0.78141375841E+02  0.14740826891E+03  0.12499249227E+03 0.  0.
          4    1    3    3  501    0 -0.45202583156E+02  0.20468563838E+02 -0.56997563620E+01  0.49971245253E+02  0.15500000000E+01 0. -1.
         -4    1    3    3    0  501  0.45202583156E+02 -0.20468563838E+02  0.83841132203E+02  0.97437023654E+02  0.15500000000E+01 0. -1.
<mgrwt>
<rscale>  2 0.12499249E+03</rscale>
<asrwt>0</asrwt>
<pdfrwt beam="1">  1       21 0.17349973E-01 0.12499249E+03</pdfrwt>
<pdfrwt beam="2">  1       21 0.53282226E-02 0.12499249E+03</pdfrwt>
<totfact> 0.71099898E+06</totfact>
</mgrwt>
</event>
<event>
 5    0  0.1457158E+000  0.1249992E+03  0.7546771E-02  0.1235071E+00
         21   -1    0    0  503  502  0.00000000000E+00  0.00000000000E+00  0.11850464288E+02  0.11850464288E+02  0.00000000000E+00 0. -1.
         21   -1    0    0  502  503 -0.00000000000E+00 -0.00000000000E+00 -0.32962397621E+03  0.32962397621E+03  0.00000000000E+00 0. -1.
         25    2    1    2    0    0  0.00000000000E+00  0.00000000000E+00 -0.31777351192E+03  0.34147444050E+03  0.12499915453E+03 0.  0.
          4    1    3    3  501    0  0.41461865123E+02  0.44683892283E+02 -0.19634929676E+03  0.20559957521E+03  0.15500000000E+01 0.  1.
         -4    1    3    3    0  501 -0.41461865123E+02 -0.44683892283E+02 -0.12142421516E+03  0.13587486529E+03  0.15500000000E+01 0.  1.
<mgrwt>
<rscale>  2 0.12499915E+03</rscale>
<asrwt>0</asrwt>
<pdfrwt beam="1">  1       21 0.18231486E-02 0.12499915E+03</pdfrwt>
<pdfrwt beam="2">  1       21 0.50711375E-01 0.12499915E+03</pdfrwt>
<totfact> 0.52175406E+06</totfact>
</mgrwt>
</event>
<event>
 5    0  0.1507103E+000  0.1250017E+03  0.7546771E-02  0.1235067E+00
         21   -1    0    0  503  502  0.00000000000E+00  0.00000000000E+00  0.44905932750E+02  0.44905932750E+02  0.00000000000E+00 0.  1.
         21   -1    0    0  502  503 -0.00000000000E+00 -0.00000000000E+00 -0.86989782059E+02  0.86989782059E+02  0.00000000000E+00 0.  1.
         25    2    1    2    0    0  0.00000000000E+00  0.00000000000E+00 -0.42083849309E+02  0.13189571481E+03  0.12500171684E+03 0.  0.
          4    1    3    3  501    0 -0.21820137141E+02  0.58265636480E+02 -0.27098899278E+02  0.67880450952E+02  0.15500000000E+01 0. -1.
         -4    1    3    3    0  501  0.21820137141E+02 -0.58265636480E+02 -0.14984950031E+02  0.64015263857E+02  0.15500000000E+01 0. -1.
<mgrwt>
<rscale>  2 0.12500172E+03</rscale>
<asrwt>0</asrwt>
<pdfrwt beam="1">  1       21 0.69086051E-02 0.12500172E+03</pdfrwt>
<pdfrwt beam="2">  1       21 0.13383043E-01 0.12500172E+03</pdfrwt>
<totfact> 0.73107018E+06</totfact>
</mgrwt>
</event>
<event>
 5    0  0.1541583E+000  0.1250044E+03  0.7546771E-02  0.1235062E+00
         21   -1    0    0  503  502  0.00000000000E+00  0.00000000000E+00  0.99327965428E+02  0.99327965428E+02  0.00000000000E+00 0. -1.
         21   -1    0    0  502  503 -0.00000000000E+00 -0.00000000000E+00 -0.39329588218E+02  0.39329588218E+02  0.00000000000E+00 0. -1.
         25    2    1    2    0    0  0.00000000000E+00  0.00000000000E+00  0.59998377210E+02  0.13865755365E+03  0.12500444758E+03 0.  0.
          4    1    3    3  501    0  0.44103892504E+02 -0.40595416231E+02  0.10438356808E+02  0.60864628035E+02  0.15500000000E+01 0.  1.
         -4    1    3    3    0  501 -0.44103892504E+02  0.40595416231E+02  0.49560020402E+02  0.77792925611E+02  0.15500000000E+01 0.  1.
<mgrwt>
<rscale>  2 0.12500445E+03</rscale>
<asrwt>0</asrwt>
<pdfrwt beam="1">  1       21 0.15281225E-01 0.12500445E+03</pdfrwt>
<pdfrwt beam="2">  1       21 0.60507059E-02 0.12500445E+03</pdfrwt>
<totfact> 0.72206867E+06</totfact>
</mgrwt>
</event>
<event>
 5    0  0.1576813E+000  0.1250012E+03  0.7546771E-02  0.1235067E+00
         21   -1    0    0  503  502  0.00000000000E+00  0.00000000000E+00  0.60685816410E+02  0.60685816410E+02  0.00000000000E+00 0. -1.
         21   -1    0    0  502  503 -0.00000000000E+00 -0.00000000000E+00 -0.64369616761E+02  0.64369616761E+02  0.00000000000E+00 0. -1.
         25    2    1    2    0    0  0.00000000000E+00  0.00000000000E+00 -0.36838003511E+01  0.12505543317E+03  0.12500116392E+03 0.  0.
          4    1    3    3  501    0 -0.36900044451E+02 -0.10369137287E+02  0.47523092905E+02  0.61073555225E+02  0.15500000000E+01 0.  1.
         -4    1    3    3    0  501  0.36900044451E+02  0.10369137287E+02 -0.51206893256E+02  0.63981877946E+02  0.15500000000E+01 0.  1.
<mgrwt>
<rscale>  2 0.12500116E+03</rscale>
<asrwt>0</asrwt>
<pdfrwt beam="1">  1       21 0.93362795E-02 0.12500116E+03</pdfrwt>
<pdfrwt beam="2">  1       21 0.99030179E-02 0.12500116E+03</pdfrwt>
<totfact> 0.74033891E+06</totfact>
</mgrwt>
</event>
<event>
 5    0  0.1273502E+000  0.1250088E+03  0.7546771E-02  0.1235056E+00
         21   -1    0    0  503  502  0.00000000000E+00  0.00000000000E+00  0.11474705703E+02  0.11474705703E+02  0.00000000000E+00 0. -1.
         21   -1    0    0  502  503 -0.00000000000E+00 -0.00000000000E+00 -0.34047063662E+03  0.34047063662E+03  0.00000000000E+00 0. -1.
         25    2    1    2    0    0  0.00000000000E+00  0.00000000000E+00 -0.32899593092E+03  0.35194534233E+03  0.12500880538E+03 0.  0.
          4    1    3    3  501    0  0.39574580082E+02 -0.23184442200E+01 -0.30047963783E+03  0.30308734356E+03  0.15500000000E+01 0. -1.
         -4    1    3    3    0  501 -0.39574580082E+02  0.23184442200E+01 -0.28516293087E+02  0.48857998769E+02  0.15500000000E+01 0. -1.
<mgrwt>
<rscale>  2 0.12500881E+03</rscale>
<asrwt>0</asrwt>
<pdfrwt beam="1">  1       21 0.17653396E-02 0.12500881E+03</pdfrwt>
<pdfrwt beam="2">  1       21 0.52380092E-01 0.12500881E+03</pdfrwt>
<totfact> 0.51383752E+06</totfact>
</mgrwt>
</event>
<event>
 5    0  0.1222151E+000  0.1249958E+03  0.7546771E-02  0.1235076E+00
         21   -1    0    0  503  502  0.00000000000E+00  0.00000000000E+00  0.49319657709E+01  0.49319657709E+01  0.00000000000E+00 0.  1.
         21   -1    0    0  502  503 -0.00000000000E+00 -0.00000000000E+00 -0.79197336468E+03  0.79197336468E+03  0.00000000000E+00 0.  1.
         25    2    1    2    0    0  0.00000000000E+00  0.00000000000E+00 -0.78704139891E+03  0.79690533046E+03  0.12499576835E+03 0.  0.
          4    1    3    3  501    0  0.10997638152E+02  0.59292048974E+02 -0.49771369781E+03  0.50135598391E+03  0.15500000000E+01 0.  1.
         -4    1    3    3    0  501 -0.10997638152E+02 -0.59292048974E+02 -0.28932770110E+03  0.29554934654E+03  0.15500000000E+01 0.  1.
<mgrwt>
<rscale>  2 0.12499577E+03</rscale>
<asrwt>0</asrwt>
<pdfrwt beam="1">  1       21 0.75876375E-03 0.12499577E+03</pdfrwt>
<pdfrwt beam="2">  1       21 0.12184209E+00 0.12499577E+03</pdfrwt>
<totfact> 0.29468688E+06</totfact>
</mgrwt>
</event>
<event>
 5    0  0.1535300E+000  0.1249818E+03  0.7546771E-02  0.1235098E+00
         21   -1    0    0  503  502  0.00000000000E+00  0.00000000000E+00  0.14842807674E+03  0.14842807674E+03  0.00000000000E+00 0. -1.
         21   -1    0    0  502  503 -0.00000000000E+00 -0.00000000000E+00 -0.26309814256E+02  0.26309814256E+02  0.00000000000E+00 0. -1.
         25    2    1    2    0    0  0.00000000000E+00  0.00000000000E+00  0.12211826248E+03  0.17473789099E+03  0.12498184075E+03 0.  0.
          4    1    3    3  501    0 -0.75497935427E+01  0.52259457986E+02  0.10773708709E+03  0.11999055282E+03  0.15500000000E+01 0. -1.
         -4    1    3    3    0  501  0.75497935427E+01 -0.52259457986E+02  0.14381175395E+02  0.54747338175E+02  0.15500000000E+01 0. -1.
<mgrwt>
<rscale>  2 0.12498184E+03</rscale>
<asrwt>0</asrwt>
<pdfrwt beam="1">  1       21 0.22835088E-01 0.12498184E+03</pdfrwt>
<pdfrwt beam="2">  1       21 0.40476638E-02 0.12498184E+03</pdfrwt>
<totfact> 0.67791610E+06</totfact>
</mgrwt>
</event>
<event>
 5    0  0.1222151E+000  0.1250004E+03  0.7546771E-02  0.1235069E+00
         21   -1    0    0  503  502  0.00000000000E+00  0.00000000000E+00  0.46594272381E+01  0.46594272381E+01  0.00000000000E+00 0.  1.
         21   -1    0    0  502  503 -0.00000000000E+00 -0.00000000000E+00 -0.83835996570E+03  0.83835996570E+03  0.00000000000E+00 0.  1.
         25    2    1    2    0    0  0.00000000000E+00  0.00000000000E+00 -0.83370053846E+03  0.84301939293E+03  0.12500043615E+03 0.  0.
          4    1    3    3  501    0 -0.17910993308E+02  0.57668702856E+02 -0.52504930271E+03  0.52851268267E+03  0.15500000000E+01 0. -1.
         -4    1    3    3    0  501  0.17910993308E+02 -0.57668702856E+02 -0.30865123575E+03  0.31450671026E+03  0.15500000000E+01 0. -1.
<mgrwt>
<rscale>  2 0.12500044E+03</rscale>
<asrwt>0</asrwt>
<pdfrwt beam="1">  1       21 0.71683487E-03 0.12500044E+03</pdfrwt>
<pdfrwt beam="2">  1       21 0.12897847E+00 0.12500044E+03</pdfrwt>
<totfact> 0.27985869E+06</totfact>
</mgrwt>
</event>
<event>
 5    0  0.1550979E+000  0.1249993E+03  0.7546771E-02  0.1235070E+00
         21   -1    0    0  503  502  0.00000000000E+00  0.00000000000E+00  0.26281080565E+03  0.26281080565E+03  0.00000000000E+00 0. -1.
         21   -1    0    0  502  503 -0.00000000000E+00 -0.00000000000E+00 -0.14863196887E+02  0.14863196887E+02  0.00000000000E+00 0. -1.
         25    2    1    2    0    0  0.00000000000E+00  0.00000000000E+00  0.24794760877E+03  0.27767400254E+03  0.12499933997E+03 0.  0.
          4    1    3    3  501    0 -0.18184987440E+02 -0.59151933933E+02  0.14310384323E+03  0.15591907357E+03  0.15500000000E+01 0.  1.
         -4    1    3    3    0  501  0.18184987440E+02  0.59151933933E+02  0.10484376554E+03  0.12175492897E+03  0.15500000000E+01 0.  1.
<mgrwt>
<rscale>  2 0.12499934E+03</rscale>
<asrwt>0</asrwt>
<pdfrwt beam="1">  1       21 0.40432428E-01 0.12499934E+03</pdfrwt>
<pdfrwt beam="2">  1       21 0.22866459E-02 0.12499934E+03</pdfrwt>
<totfact> 0.57365086E+06</totfact>
</mgrwt>
</event>
<event>
 5    0  0.1603439E+000  0.1249896E+03  0.7546771E-02  0.1235086E+00
         21   -1    0    0  503  502  0.00000000000E+00  0.00000000000E+00  0.58866113384E+02  0.58866113384E+02  0.00000000000E+00 0.  1.
         21   -1    0    0  502  503 -0.00000000000E+00 -0.00000000000E+00 -0.66347149176E+02  0.66347149176E+02  0.00000000000E+00 0.  1.
         25    2    1    2    0    0  0.00000000000E+00  0.00000000000E+00 -0.74810357928E+01  0.12521326256E+03  0.12498958046E+03 0.  0.
          4    1    3    3  501    0 -0.16142352866E+02 -0.60282382354E+02 -0.66877427012E+01  0.62782717214E+02  0.15500000000E+01 0.  1.
         -4    1    3    3    0  501  0.16142352866E+02  0.60282382354E+02 -0.79329309153E+00  0.62430545346E+02  0.15500000000E+01 0.  1.
<mgrwt>
<rscale>  2 0.12498958E+03</rscale>
<asrwt>0</asrwt>
<pdfrwt beam="1">  1       21 0.90563252E-02 0.12498958E+03</pdfrwt>
<pdfrwt beam="2">  1       21 0.10207254E-01 0.12498958E+03</pdfrwt>
<totfact> 0.74034501E+06</totfact>
</mgrwt>
</event>
<event>
 5    0  0.1464250E+000  0.1249848E+03  0.7546771E-02  0.1235093E+00
         21   -1    0    0  503  502  0.00000000000E+00  0.00000000000E+00  0.27335413589E+02  0.27335413589E+02  0.00000000000E+00 0. -1.
         21   -1    0    0  502  503 -0.00000000000E+00 -0.00000000000E+00 -0.14286588650E+03  0.14286588650E+03  0.00000000000E+00 0. -1.
         25    2    1    2    0    0  0.00000000000E+00  0.00000000000E+00 -0.11553047291E+03  0.17020130009E+03  0.12498476859E+03 0.  0.
          4    1    3    3  501    0  0.28056696542E+02  0.11309800055E+02 -0.13220105447E+03  0.13562673447E+03  0.15500000000E+01 0. -1.
         -4    1    3    3    0  501 -0.28056696542E+02 -0.11309800055E+02  0.16670581565E+02  0.34574565620E+02  0.15500000000E+01 0. -1.
<mgrwt>
<rscale>  2 0.12498477E+03</rscale>
<asrwt>0</asrwt>
<pdfrwt beam="1">  1       21 0.42054483E-02 0.12498477E+03</pdfrwt>
<pdfrwt beam="2">  1       21 0.21979367E-01 0.12498477E+03</pdfrwt>
<totfact> 0.68320194E+06</totfact>
</mgrwt>
</event>
<event>
 5    0  0.1222151E+000  0.1250034E+03  0.7546771E-02  0.1235064E+00
         21   -1    0    0  503  502  0.00000000000E+00  0.00000000000E+00  0.40538453018E+02  0.40538453018E+02  0.00000000000E+00 0.  1.
         21   -1    0    0  502  503 -0.00000000000E+00 -0.00000000000E+00 -0.96364340454E+02  0.96364340454E+02  0.00000000000E+00 0.  1.
         25    2    1    2    0    0  0.00000000000E+00  0.00000000000E+00 -0.55825887437E+02  0.13690279347E+03  0.12500338056E+03 0.  0.
          4    1    3    3  501    0 -0.22328017220E+02  0.48746654843E+01  0.35775654616E+02  0.42480615341E+02  0.15500000000E+01 0.  1.
         -4    1    3    3    0  501  0.22328017220E+02 -0.48746654843E+01 -0.91601542053E+02  0.94422178131E+02  0.15500000000E+01 0.  1.
<mgrwt>
<rscale>  2 0.12500338E+03</rscale>
<asrwt>0</asrwt>
<pdfrwt beam="1">  1       21 0.62366851E-02 0.12500338E+03</pdfrwt>
<pdfrwt beam="2">  1       21 0.14825283E-01 0.12500338E+03</pdfrwt>
<totfact> 0.72439252E+06</totfact>
</mgrwt>
</event>
<event>
 5    0  0.1533087E+000  0.1250002E+03  0.7546771E-02  0.1235069E+00
         21   -1    0    0  503  502  0.00000000000E+00  0.00000000000E+00  0.10625599685E+03  0.10625599685E+03  0.00000000000E+00 0.  1.
         21   -1    0    0  502  503 -0.00000000000E+00 -0.00000000000E+00 -0.36762776089E+02  0.36762776089E+02  0.00000000000E+00 0.  1.
         25    2    1    2    0    0  0.00000000000E+00  0.00000000000E+00  0.69493220765E+02  0.14301877294E+03  0.12500024673E+03 0.  0.
          4    1    3    3  501    0  0.50744449959E+02  0.36390945847E+02  0.37190586197E+02  0.72696921138E+02  0.15500000000E+01 0. -1.
         -4    1    3    3    0  501 -0.50744449959E+02 -0.36390945847E+02  0.32302634567E+02  0.70321851805E+02  0.15500000000E+01 0. -1.
<mgrwt>
<rscale>  2 0.12500025E+03</rscale>
<asrwt>0</asrwt>
<pdfrwt beam="1">  1       21 0.16347076E-01 0.12500025E+03</pdfrwt>
<pdfrwt beam="2">  1       21 0.56558117E-02 0.12500025E+03</pdfrwt>
<totfact> 0.71647172E+06</totfact>
</mgrwt>
</event>
<event>
 5    0  0.1222151E+000  0.1249251E+03  0.7546771E-02  0.1235186E+00
         21   -1    0    0  503  502  0.00000000000E+00  0.00000000000E+00  0.53514275076E+03  0.53514275076E+03  0.00000000000E+00 0.  1.
         21   -1    0    0  502  503 -0.00000000000E+00 -0.00000000000E+00 -0.72907033510E+01  0.72907033510E+01  0.00000000000E+00 0.  1.
         25    2    1    2    0    0  0.00000000000E+00  0.00000000000E+00  0.52785204740E+03  0.54243345411E+03  0.12492505027E+03 0.  0.
          4    1    3    3  501    0 -0.59860372966E+02  0.93486584914E+01  0.32956212425E+03  0.33508843297E+03  0.15500000000E+01 0.  1.
         -4    1    3    3    0  501  0.59860372966E+02 -0.93486584914E+01  0.19828992315E+03  0.20734502114E+03  0.15500000000E+01 0.  1.
<mgrwt>
<rscale>  2 0.12492505E+03</rscale>
<asrwt>0</asrwt>
<pdfrwt beam="1">  1       21 0.82329623E-01 0.12492505E+03</pdfrwt>
<pdfrwt beam="2">  1       21 0.11216471E-02 0.12492505E+03</pdfrwt>
<totfact> 0.39906856E+06</totfact>
</mgrwt>
</event>
<event>
 5    0  0.1356771E+000  0.1250023E+03  0.7546771E-02  0.1235066E+00
         21   -1    0    0  503  502  0.00000000000E+00  0.00000000000E+00  0.49768946289E+03  0.49768946289E+03  0.00000000000E+00 0.  1.
         21   -1    0    0  502  503 -0.00000000000E+00 -0.00000000000E+00 -0.78490615981E+01  0.78490615981E+01  0.00000000000E+00 0.  1.
         25    2    1    2    0    0  0.00000000000E+00  0.00000000000E+00  0.48984040130E+03  0.50553852449E+03  0.12500232399E+03 0.  0.
          4    1    3    3  501    0  0.57853998335E+02  0.20623098640E+02  0.19852676095E+03  0.20781644457E+03  0.15500000000E+01 0. -1.
         -4    1    3    3    0  501 -0.57853998335E+02 -0.20623098640E+02  0.29131364034E+03  0.29772207992E+03  0.15500000000E+01 0. -1.
<mgrwt>
<rscale>  2 0.12500232E+03</rscale>
<asrwt>0</asrwt>
<pdfrwt beam="1">  1       21 0.76567585E-01 0.12500232E+03</pdfrwt>
<pdfrwt beam="2">  1       21 0.12075483E-02 0.12500232E+03</pdfrwt>
<totfact> 0.41742881E+06</totfact>
</mgrwt>
</event>
<event>
 5    0  0.1566624E+000  0.1250024E+03  0.7546771E-02  0.1235066E+00
         21   -1    0    0  503  502  0.00000000000E+00  0.00000000000E+00  0.12509002250E+03  0.12509002250E+03  0.00000000000E+00 0.  1.
         21   -1    0    0  502  503 -0.00000000000E+00 -0.00000000000E+00 -0.31228713944E+02  0.31228713944E+02  0.00000000000E+00 0.  1.
         25    2    1    2    0    0  0.00000000000E+00  0.00000000000E+00  0.93861308558E+02  0.15631873645E+03  0.12500240846E+03 0.  0.
          4    1    3    3  501    0  0.47665896150E+02  0.20207859138E+02  0.31872189460E+01  0.51893699919E+02  0.15500000000E+01 0. -1.
         -4    1    3    3    0  501 -0.47665896150E+02 -0.20207859138E+02  0.90674089612E+02  0.10442503653E+03  0.15500000000E+01 0. -1.
<mgrwt>
<rscale>  2 0.12500241E+03</rscale>
<asrwt>0</asrwt>
<pdfrwt beam="1">  1       21 0.19244618E-01 0.12500241E+03</pdfrwt>
<pdfrwt beam="2">  1       21 0.48044176E-02 0.12500241E+03</pdfrwt>
<totfact> 0.69967841E+06</totfact>
</mgrwt>
</event>
<event>
 5    0  0.1481927E+000  0.1250462E+03  0.7546771E-02  0.1234997E+00
         21   -1    0    0  503  502  0.00000000000E+00  0.00000000000E+00  0.69629856866E+02  0.69629856866E+02  0.00000000000E+00 0. -1.
         21   -1    0    0  502  503 -0.00000000000E+00 -0.00000000000E+00 -0.56141705099E+02  0.56141705099E+02  0.00000000000E+00 0. -1.
         25    2    1    2    0    0  0.00000000000E+00  0.00000000000E+00  0.13488151766E+02  0.12577156197E+03  0.12504621370E+03 0.  0.
          4    1    3    3  501    0  0.38206462108E+02 -0.23707159412E+01 -0.42952882409E+02  0.57556117382E+02  0.15500000000E+01 0.  1.
         -4    1    3    3    0  501 -0.38206462108E+02  0.23707159412E+01  0.56441034175E+02  0.68215444583E+02  0.15500000000E+01 0.  1.
<mgrwt>
<rscale>  2 0.12504621E+03</rscale>
<asrwt>0</asrwt>
<pdfrwt beam="1">  1       21 0.10712286E-01 0.12504621E+03</pdfrwt>
<pdfrwt beam="2">  1       21 0.86371854E-02 0.12504621E+03</pdfrwt>
<totfact> 0.73850532E+06</totfact>
</mgrwt>
</event>
<event>
 5    0  0.1430452E+000  0.1250012E+03  0.7546771E-02  0.1235067E+00
         21   -1    0    0  503  502  0.00000000000E+00  0.00000000000E+00  0.75785023458E+02  0.75785023458E+02  0.00000000000E+00 0.  1.
         21   -1    0    0  502  503 -0.00000000000E+00 -0.00000000000E+00 -0.51544842758E+02  0.51544842758E+02  0.00000000000E+00 0.  1.
         25    2    1    2    0    0  0.00000000000E+00  0.00000000000E+00  0.24240180700E+02  0.12732986622E+03  0.12500123387E+03 0.  0.
          4    1    3    3  501    0  0.20620035172E+02 -0.46248438982E+00  0.72197823780E+02  0.75102117153E+02  0.15500000000E+01 0. -1.
         -4    1    3    3    0  501 -0.20620035172E+02  0.46248438982E+00 -0.47957643080E+02  0.52227749062E+02  0.15500000000E+01 0. -1.
<mgrwt>
<rscale>  2 0.12500123E+03</rscale>
<asrwt>0</asrwt>
<pdfrwt beam="1">  1       21 0.11659234E-01 0.12500123E+03</pdfrwt>
<pdfrwt beam="2">  1       21 0.79299758E-02 0.12500123E+03</pdfrwt>
<totfact> 0.73721975E+06</totfact>
</mgrwt>
</event>
<event>
 5    0  0.1369522E+000  0.1250012E+03  0.7546771E-02  0.1235067E+00
         21   -1    0    0  503  502  0.00000000000E+00  0.00000000000E+00  0.84708348416E+01  0.84708348416E+01  0.00000000000E+00 0.  1.
         21   -1    0    0  502  503 -0.00000000000E+00 -0.00000000000E+00 -0.46114989057E+03  0.46114989057E+03  0.00000000000E+00 0.  1.
         25    2    1    2    0    0  0.00000000000E+00  0.00000000000E+00 -0.45267905573E+03  0.46962072541E+03  0.12500119296E+03 0.  0.
          4    1    3    3  501    0 -0.40497387325E+02  0.34775958761E+02 -0.10433954750E+03  0.11721155814E+03  0.15500000000E+01 0. -1.
         -4    1    3    3    0  501  0.40497387325E+02 -0.34775958761E+02 -0.34833950822E+03  0.35240916727E+03  0.15500000000E+01 0. -1.
<mgrwt>
<rscale>  2 0.12500119E+03</rscale>
<asrwt>0</asrwt>
<pdfrwt beam="1">  1       21 0.13032053E-02 0.12500119E+03</pdfrwt>
<pdfrwt beam="2">  1       21 0.70946139E-01 0.12500119E+03</pdfrwt>
<totfact> 0.43739718E+06</totfact>
</mgrwt>
</event>
<event>
 5    0  0.1452071E+000  0.1249999E+03  0.7546771E-02  0.1235069E+00
         21   -1    0    0  503  502  0.00000000000E+00  0.00000000000E+00  0.62793949754E+02  0.62793949754E+02  0.00000000000E+00 0. -1.
         21   -1    0    0  502  503 -0.00000000000E+00 -0.00000000000E+00 -0.62207320468E+02  0.62207320468E+02  0.00000000000E+00 0. -1.
         25    2    1    2    0    0  0.00000000000E+00  0.00000000000E+00  0.58662928621E+00  0.12500127022E+03  0.12499989369E+03 0.  0.
          4    1    3    3  501    0  0.23926602857E+02 -0.25771594110E+02  0.51938664988E+02  0.62743006048E+02  0.15500000000E+01 0. -1.
         -4    1    3    3    0  501 -0.23926602857E+02  0.25771594110E+02 -0.51352035702E+02  0.62258264174E+02  0.15500000000E+01 0. -1.
<mgrwt>
<rscale>  2 0.12499989E+03</rscale>
<asrwt>0</asrwt>
<pdfrwt beam="1">  1       21 0.96606077E-02 0.12499989E+03</pdfrwt>
<pdfrwt beam="2">  1       21 0.95703570E-02 0.12499989E+03</pdfrwt>
<totfact> 0.74043611E+06</totfact>
</mgrwt>
</event>
<event>
 5    0  0.1433415E+000  0.1249853E+03  0.7546771E-02  0.1235092E+00
         21   -1    0    0  503  502  0.00000000000E+00  0.00000000000E+00  0.20114888743E+02  0.20114888743E+02  0.00000000000E+00 0.  1.
         21   -1    0    0  502  503 -0.00000000000E+00 -0.00000000000E+00 -0.19415127703E+03  0.19415127703E+03  0.00000000000E+00 0.  1.
         25    2    1    2    0    0  0.00000000000E+00  0.00000000000E+00 -0.17403638828E+03  0.21426616577E+03  0.12498530052E+03 0.  0.
          4    1    3    3  501    0 -0.49680772847E+02  0.13631989220E+02 -0.26433668551E+02  0.57923670929E+02  0.15500000000E+01 0. -1.
         -4    1    3    3    0  501  0.49680772847E+02 -0.13631989220E+02 -0.14760271973E+03  0.15634249484E+03  0.15500000000E+01 0. -1.
<mgrwt>
<rscale>  2 0.12498530E+03</rscale>
<asrwt>0</asrwt>
<pdfrwt beam="1">  1       21 0.30945983E-02 0.12498530E+03</pdfrwt>
<pdfrwt beam="2">  1       21 0.29869427E-01 0.12498530E+03</pdfrwt>
<totfact> 0.63437039E+06</totfact>
</mgrwt>
</event>
