<event>
 5    1  0.1952976E-002  0.5636933E+02  0.7546771E-02  0.1443677E+00
          3   -1    0    0  502    0  0.00000000000E+00  0.00000000000E+00  0.22951053882E+03  0.22951053882E+03  0.00000000000E+00 0. -1.
         -3   -1    0    0    0  501 -0.00000000000E+00 -0.00000000000E+00 -0.90473324849E+02  0.90473324849E+02  0.00000000000E+00 0.  1.
         25    1    1    2    0    0 -0.86820183415E+02  0.34536990626E+02  0.95340629218E+02  0.18288079054E+03  0.12500000000E+03 0.  0.
          2    1    1    2  502    0  0.42905561129E+02 -0.25173146137E+02  0.69383126502E+02  0.85373255212E+02  0.00000000000E+00 0. -1.
         -2    1    1    2    0  501  0.43914622286E+02 -0.93638444885E+01 -0.25686541750E+02  0.51729817912E+02  0.00000000000E+00 0.  1.
<mgrwt>
<rscale>  0 0.50309906E+02</rscale>
<asrwt>0</asrwt>
<pdfrwt beam="1">  1        3 0.35309313E-01 0.56369326E+02</pdfrwt>
<pdfrwt beam="2">  1       -3 0.13918973E-01 0.44901844E+02</pdfrwt>
<totfact> 0.63695501E+02</totfact>
</mgrwt>
</event>
<event>
 5    1  0.8274494E-003  0.1253291E+03  0.7546771E-02  0.1430296E+00
          2   -1    0    0  502    0  0.00000000000E+00  0.00000000000E+00  0.23486639871E+04  0.23486639871E+04  0.00000000000E+00 0. -1.
          1   -1    0    0  501    0 -0.00000000000E+00 -0.00000000000E+00 -0.47856500294E+03  0.47856500294E+03  0.00000000000E+00 0. -1.
         25    1    1    2    0    0  0.47337830678E+02 -0.10613100677E+03  0.12122337108E+04  0.12241896220E+04  0.12500000000E+03 0.  0.
          2    1    1    2  501    0 -0.69593198923E+02  0.10431963262E+03 -0.46415501620E+03  0.48079691986E+03  0.00000000000E+00 0. -1.
          1    1    1    2  502    0  0.22255368245E+02  0.18113741487E+01  0.11220202895E+04  0.11222424482E+04  0.00000000000E+00 0. -1.
<mgrwt>
<rscale>  0 0.52900543E+02</rscale>
<asrwt>0</asrwt>
<pdfrwt beam="1">  1        2 0.36133292E+00 0.22328961E+02</pdfrwt>
<pdfrwt beam="2">  1        1 0.73625386E-01 0.12532905E+03</pdfrwt>
<totfact> 0.45147309E+01</totfact>
</mgrwt>
</event>
<event>
 5    1  0.8274494E-003  0.1591176E+03  0.7546771E-02  0.1363686E+00
          2   -1    0    0  502    0  0.00000000000E+00  0.00000000000E+00  0.29620101945E+04  0.29620101945E+04  0.00000000000E+00 0. -1.
          1   -1    0    0  501    0 -0.00000000000E+00 -0.00000000000E+00 -0.12887591269E+04  0.12887591269E+04  0.00000000000E+00 0. -1.
         25    1    1    2    0    0 -0.92081051477E+02 -0.91581077607E+02 -0.32545756714E+03  0.37203983903E+03  0.12500000000E+03 0.  0.
          2    1    1    2  501    0 -0.24835109845E+02 -0.16617122814E+02 -0.93761344446E+03  0.93808948543E+03  0.00000000000E+00 0. -1.
          1    1    1    2  502    0  0.11691616132E+03  0.10819820042E+03  0.29363220792E+04  0.29406399970E+04  0.00000000000E+00 0. -1.
<mgrwt>
<rscale>  0 0.68954283E+02</rscale>
<asrwt>0</asrwt>
<pdfrwt beam="1">  1        2 0.45569387E+00 0.15911763E+03</pdfrwt>
<pdfrwt beam="2">  1        1 0.19827064E+00 0.29881624E+02</pdfrwt>
<totfact> 0.39209162E+00</totfact>
</mgrwt>
</event>
<event>
 5    1  0.8274494E-003  0.4926824E+02  0.7546771E-02  0.1520356E+00
          2   -1    0    0  502    0  0.00000000000E+00  0.00000000000E+00  0.21372919295E+03  0.21372919295E+03  0.00000000000E+00 0. -1.
          1   -1    0    0  501    0 -0.00000000000E+00 -0.00000000000E+00 -0.32811474003E+03  0.32811474003E+03  0.00000000000E+00 0. -1.
         25    1    1    2    0    0  0.56340868690E+02  0.27800213765E+01 -0.29555295015E+02  0.14028733894E+03  0.12500000000E+03 0.  0.
          2    1    1    2  501    0 -0.15854806280E+02  0.25377884056E+02 -0.23839602735E+03  0.24026668046E+03  0.00000000000E+00 0. -1.
          1    1    1    2  502    0 -0.40486062410E+02 -0.28157905432E+02  0.15356577528E+03  0.16128991359E+03  0.00000000000E+00 0. -1.
<mgrwt>
<rscale>  0 0.38396287E+02</rscale>
<asrwt>0</asrwt>
<pdfrwt beam="1">  1        2 0.32881414E-01 0.49268238E+02</pdfrwt>
<pdfrwt beam="2">  1        1 0.50479191E-01 0.29923434E+02</pdfrwt>
<totfact> 0.16355200E+03</totfact>
</mgrwt>
</event>
<event>
 5    1  0.8274494E-003  0.1416407E+03  0.7546771E-02  0.1309626E+00
          1   -1    0    0  501    0 -0.00000000000E+00  0.00000000000E+00  0.40409028844E+03  0.40409028844E+03  0.00000000000E+00 0. -1.
          2   -1    0    0  502    0  0.00000000000E+00 -0.00000000000E+00 -0.73934147343E+03  0.73934147343E+03  0.00000000000E+00 0. -1.
         25    1    1    2    0    0 -0.11659679312E+03 -0.13960449576E+02 -0.29739080396E+03  0.34330161171E+03  0.12500000000E+03 0.  0.
          2    1    1    2  501    0 -0.41373907333E+02  0.34323994508E+02  0.36395176464E+03  0.36790056237E+03  0.00000000000E+00 0. -1.
          1    1    1    2  502    0  0.15797070045E+03 -0.20363544933E+02 -0.40181214566E+03  0.43222958779E+03  0.00000000000E+00 0. -1.
<mgrwt>
<rscale>  0 0.87260184E+02</rscale>
<asrwt>0</asrwt>
<pdfrwt beam="2">  1        2 0.11374484E+00 0.14164070E+03</pdfrwt>
<pdfrwt beam="1">  1        1 0.62167736E-01 0.53758132E+02</pdfrwt>
<totfact> 0.33439789E+02</totfact>
</mgrwt>
</event>
<event>
 5    1  0.8274494E-003  0.1066838E+03  0.7546771E-02  0.1401550E+00
          2   -1    0    0  502    0  0.00000000000E+00  0.00000000000E+00  0.66204192285E+02  0.66204192285E+02  0.00000000000E+00 0. -1.
          1   -1    0    0  501    0 -0.00000000000E+00 -0.00000000000E+00 -0.11440223539E+04  0.11440223539E+04  0.00000000000E+00 0. -1.
         25    1    1    2    0    0 -0.36545957446E+02 -0.70629654538E+02 -0.20370415621E+03  0.25188199293E+03  0.12500000000E+03 0.  0.
          2    1    1    2  501    0  0.39415572830E+02  0.10326888438E+03 -0.90594503875E+03  0.91266338981E+03  0.00000000000E+00 0. -1.
          1    1    1    2  502    0 -0.28696153838E+01 -0.32639229843E+02  0.31831033297E+02  0.45681163492E+02  0.00000000000E+00 0. -1.
<mgrwt>
<rscale>  0 0.59122830E+02</rscale>
<asrwt>0</asrwt>
<pdfrwt beam="1">  1        2 0.10185261E-01 0.32765134E+02</pdfrwt>
<pdfrwt beam="2">  1        1 0.17600343E+00 0.10668380E+03</pdfrwt>
<totfact> 0.99492125E+02</totfact>
</mgrwt>
</event>
<event>
 5    1  0.8274494E-003  0.8725046E+02  0.7546771E-02  0.1438806E+00
          2   -1    0    0  502    0  0.00000000000E+00  0.00000000000E+00  0.97464100583E+03  0.97464100583E+03  0.00000000000E+00 0. -1.
          1   -1    0    0  501    0 -0.00000000000E+00 -0.00000000000E+00 -0.12947728520E+03  0.12947728520E+03  0.00000000000E+00 0. -1.
         25    1    1    2    0    0  0.58974376309E+02 -0.19188395886E+01  0.88301546457E+02  0.16402384617E+03  0.12500000000E+03 0.  0.
          2    1    1    2  501    0  0.30024145312E+02  0.18802142260E+01 -0.86741085668E+02  0.91809588007E+02  0.00000000000E+00 0. -1.
          1    1    1    2  502    0 -0.88998521620E+02  0.38625362643E-01  0.84360325985E+03  0.84828485685E+03  0.00000000000E+00 0. -1.
<mgrwt>
<rscale>  0 0.51232335E+02</rscale>
<asrwt>0</asrwt>
<pdfrwt beam="1">  1        2 0.14994477E+00 0.87250462E+02</pdfrwt>
<pdfrwt beam="2">  1        1 0.19919583E-01 0.30082960E+02</pdfrwt>
<totfact> 0.92484888E+02</totfact>
</mgrwt>
</event>
<event>
 5    1  0.8274494E-003  0.4029896E+02  0.7546771E-02  0.1544222E+00
          2   -1    0    0  502    0  0.00000000000E+00  0.00000000000E+00  0.36789228882E+02  0.36789228882E+02  0.00000000000E+00 0. -1.
          1   -1    0    0  501    0 -0.00000000000E+00 -0.00000000000E+00 -0.44831613239E+03  0.44831613239E+03  0.00000000000E+00 0. -1.
         25    1    1    2    0    0 -0.50714092050E+00 -0.53282140035E+02 -0.12553769526E+03  0.18499717990E+03  0.12500000000E+03 0.  0.
          2    1    1    2  501    0 -0.21599629974E+02  0.22609799990E+02 -0.23257026433E+03  0.23466289634E+03  0.00000000000E+00 0. -1.
          1    1    1    2  502    0  0.22106770895E+02  0.30672340045E+02 -0.53418943911E+02  0.65445285024E+02  0.00000000000E+00 0. -1.
<mgrwt>
<rscale>  0 0.35497972E+02</rscale>
<asrwt>0</asrwt>
<pdfrwt beam="1">  1        2 0.56598815E-02 0.40298958E+02</pdfrwt>
<pdfrwt beam="2">  1        1 0.68971711E-01 0.31268947E+02</pdfrwt>
<totfact> 0.82895628E+03</totfact>
</mgrwt>
</event>
<event>
 5    1  0.8274494E-003  0.8893826E+02  0.7546771E-02  0.1488720E+00
          1   -1    0    0  502    0  0.00000000000E+00  0.00000000000E+00  0.36004079755E+04  0.36004079755E+04  0.00000000000E+00 0. -1.
         -1   -1    0    0    0  501 -0.00000000000E+00 -0.00000000000E+00 -0.40723137711E+02  0.40723137711E+02  0.00000000000E+00 0.  1.
         25    1    1    2    0    0 -0.74424899324E+02  0.61859484984E+02  0.61380978948E+03  0.63383997916E+03  0.12500000000E+03 0.  0.
          2    1    1    2  502    0  0.78151411680E+02 -0.41625622338E+02  0.29724020666E+04  0.29737206293E+04  0.00000000000E+00 0. -1.
         -2    1    1    2    0  501 -0.37265123564E+01 -0.20233862646E+02 -0.26527018274E+02  0.33570504769E+02  0.00000000000E+00 0.  1.
<mgrwt>
<rscale>  0 0.42776514E+02</rscale>
<asrwt>0</asrwt>
<pdfrwt beam="1">  1        1 0.55390867E+00 0.88938265E+02</pdfrwt>
<pdfrwt beam="2">  1       -1 0.62651009E-02 0.20574161E+02</pdfrwt>
<totfact> 0.31875840E+01</totfact>
</mgrwt>
</event>
<event>
 5    1  0.8274494E-003  0.7163663E+02  0.7546771E-02  0.1366449E+00
          2   -1    0    0  502    0  0.00000000000E+00  0.00000000000E+00  0.15923227420E+03  0.15923227420E+03  0.00000000000E+00 0. -1.
         -2   -1    0    0    0  501 -0.00000000000E+00 -0.00000000000E+00 -0.46458224670E+03  0.46458224670E+03  0.00000000000E+00 0.  1.
         25    1    1    2    0    0 -0.69821454004E+02  0.25765133600E+02 -0.29085766471E+02  0.14835720191E+03  0.12500000000E+03 0.  0.
          1    1    1    2  502    0  0.47695192018E+02  0.43954476163E+02  0.84967699850E+02  0.10689404723E+03  0.00000000000E+00 0. -1.
         -1    1    1    2    0  501  0.22126261986E+02 -0.69719609763E+02 -0.36123190588E+03  0.36856327175E+03  0.00000000000E+00 0.  1.
<mgrwt>
<rscale>  0 0.68164184E+02</rscale>
<asrwt>0</asrwt>
<pdfrwt beam="1">  1        2 0.24497273E-01 0.64860059E+02</pdfrwt>
<pdfrwt beam="2">  1       -2 0.71474191E-01 0.71636629E+02</pdfrwt>
<totfact> 0.39543255E+02</totfact>
</mgrwt>
</event>
<event>
 5    1  0.8274494E-003  0.4291608E+02  0.7546771E-02  0.1603156E+00
          2   -1    0    0  502    0  0.00000000000E+00  0.00000000000E+00  0.17814939635E+04  0.17814939635E+04  0.00000000000E+00 0. -1.
         -2   -1    0    0    0  501 -0.00000000000E+00 -0.00000000000E+00 -0.26524070587E+02  0.26524070587E+02  0.00000000000E+00 0.  1.
         25    1    1    2    0    0 -0.12491029146E+02  0.52545073659E+02  0.32098731460E+03  0.34867587629E+03  0.12500000000E+03 0.  0.
          1    1    1    2  502    0 -0.51546443068E+01 -0.42424516190E+02  0.14379768340E+04  0.14386117562E+04  0.00000000000E+00 0. -1.
         -1    1    1    2    0  501  0.17645673452E+02 -0.10120557469E+02 -0.39942556264E+01  0.20730401662E+02  0.00000000000E+00 0.  1.
<mgrwt>
<rscale>  0 0.29546527E+02</rscale>
<asrwt>0</asrwt>
<pdfrwt beam="1">  1        2 0.27407590E+00 0.42916077E+02</pdfrwt>
<pdfrwt beam="2">  1       -2 0.40806276E-02 0.20341963E+02</pdfrwt>
<totfact> 0.22923597E+03</totfact>
</mgrwt>
</event>
<event>
 5    1  0.8274494E-003  0.1111323E+03  0.7546771E-02  0.1320726E+00
          2   -1    0    0  502    0  0.00000000000E+00  0.00000000000E+00  0.18527488717E+03  0.18527488717E+03  0.00000000000E+00 0. -1.
          1   -1    0    0  501    0 -0.00000000000E+00 -0.00000000000E+00 -0.49454569560E+03  0.49454569560E+03  0.00000000000E+00 0. -1.
         25    1    1    2    0    0 -0.17609330602E+02  0.61517601112E+02 -0.34080509932E+02  0.14450254298E+03  0.12500000000E+03 0.  0.
          2    1    1    2  501    0  0.67497054054E+02 -0.98332216773E+02 -0.38836857636E+03  0.40626989584E+03  0.00000000000E+00 0. -1.
          1    1    1    2  502    0 -0.49887723452E+02  0.36814615661E+02  0.11317827786E+03  0.12904814395E+03  0.00000000000E+00 0. -1.
<mgrwt>
<rscale>  0 0.83007802E+02</rscale>
<asrwt>0</asrwt>
<pdfrwt beam="1">  1        2 0.28503829E-01 0.62000814E+02</pdfrwt>
<pdfrwt beam="2">  1        1 0.76083952E-01 0.11113234E+03</pdfrwt>
<totfact> 0.11409886E+03</totfact>
</mgrwt>
</event>
<event>
 5    1  0.8274494E-003  0.8366253E+02  0.7546771E-02  0.1336181E+00
         -1   -1    0    0    0  501 -0.00000000000E+00  0.00000000000E+00  0.71261454229E+02  0.71261454229E+02  0.00000000000E+00 0.  1.
          1   -1    0    0  502    0  0.00000000000E+00 -0.00000000000E+00 -0.98824876379E+03  0.98824876379E+03  0.00000000000E+00 0. -1.
         25    1    1    2    0    0 -0.78709369824E+02 -0.50383961808E+02 -0.14818101504E+03  0.21521227131E+03  0.12500000000E+03 0.  0.
          2    1    1    2  502    0 -0.62082192359E+01  0.71597168075E+02 -0.75168423695E+03  0.75511183844E+03  0.00000000000E+00 0. -1.
         -2    1    1    2    0  501  0.84917589060E+02 -0.21213206268E+02 -0.17122057562E+02  0.89186108263E+02  0.00000000000E+00 0.  1.
<mgrwt>
<rscale>  0 0.77540160E+02</rscale>
<asrwt>0</asrwt>
<pdfrwt beam="2">  1        1 0.15203826E+00 0.71865823E+02</pdfrwt>
<pdfrwt beam="1">  1       -1 0.10963302E-01 0.83662528E+02</pdfrwt>
<totfact> 0.87849949E+02</totfact>
</mgrwt>
</event>
<event>
 5    1  0.8274494E-003  0.2090269E+03  0.7546771E-02  0.1318590E+00
         -2   -1    0    0    0  501 -0.00000000000E+00  0.00000000000E+00  0.79506073883E+03  0.79506073883E+03  0.00000000000E+00 0.  1.
          2   -1    0    0  502    0  0.00000000000E+00 -0.00000000000E+00 -0.12453880528E+04  0.12453880528E+04  0.00000000000E+00 0. -1.
         25    1    1    2    0    0 -0.19903331275E+03  0.79432271320E+02  0.14614908568E+03  0.28793801513E+03  0.12500000000E+03 0.  0.
          1    1    1    2  502    0  0.17954496167E+03 -0.10680188315E+03 -0.11647036662E+04  0.11832910316E+04  0.00000000000E+00 0. -1.
         -1    1    1    2    0  501  0.19488351083E+02  0.27369611828E+02  0.56822726656E+03  0.56921974486E+03  0.00000000000E+00 0.  1.
<mgrwt>
<rscale>  0 0.83803877E+02</rscale>
<asrwt>0</asrwt>
<pdfrwt beam="2">  1        2 0.19159816E+00 0.20902687E+03</pdfrwt>
<pdfrwt beam="1">  1       -2 0.12231704E+00 0.33598980E+02</pdfrwt>
<totfact> 0.11124110E+01</totfact>
</mgrwt>
</event>
<event>
 5    1  0.8274494E-003  0.2754536E+02  0.7546771E-02  0.1633229E+00
          2   -1    0    0  502    0  0.00000000000E+00  0.00000000000E+00  0.10589737145E+03  0.10589737145E+03  0.00000000000E+00 0. -1.
          1   -1    0    0  501    0 -0.00000000000E+00 -0.00000000000E+00 -0.83932035642E+03  0.83932035642E+03  0.00000000000E+00 0. -1.
         25    1    1    2    0    0 -0.12143934225E+02 -0.51862587533E+02 -0.60949211404E+02  0.14891947319E+03  0.12500000000E+03 0.  0.
          2    1    1    2  501    0  0.78211898895E+01  0.25379855504E+02 -0.73122616353E+03  0.73170828224E+03  0.00000000000E+00 0. -1.
          1    1    1    2  502    0  0.43227443357E+01  0.26482732029E+02  0.58752389962E+02  0.64589972446E+02  0.00000000000E+00 0. -1.
<mgrwt>
<rscale>  0 0.27046990E+02</rscale>
<asrwt>0</asrwt>
<pdfrwt beam="1">  1        2 0.16291903E-01 0.27545359E+02</pdfrwt>
<pdfrwt beam="2">  1        1 0.12912621E+00 0.26557637E+02</pdfrwt>
<totfact> 0.10404538E+03</totfact>
</mgrwt>
</event>
<event>
 5    1  0.8274494E-003  0.2267948E+03  0.7546771E-02  0.1210160E+00
          1   -1    0    0  501    0 -0.00000000000E+00  0.00000000000E+00  0.12009111877E+04  0.12009111877E+04  0.00000000000E+00 0. -1.
          2   -1    0    0  502    0  0.00000000000E+00 -0.00000000000E+00 -0.38786878706E+03  0.38786878706E+03  0.00000000000E+00 0. -1.
         25    1    1    2    0    0 -0.10462129309E+03 -0.28689686567E+03 -0.15989074661E+03  0.36666807517E+03  0.12500000000E+03 0.  0.
          2    1    1    2  501    0  0.10452537382E+03  0.19750977973E+03  0.10682890804E+04  0.10914106589E+04  0.00000000000E+00 0. -1.
          1    1    1    2  502    0  0.95919266111E-01  0.89387085939E+02 -0.95355933196E+02  0.13070124073E+03  0.00000000000E+00 0. -1.
<mgrwt>
<rscale>  0 0.14238168E+03</rscale>
<asrwt>0</asrwt>
<pdfrwt beam="2">  1        2 0.59672122E-01 0.89387137E+02</pdfrwt>
<pdfrwt beam="1">  1        1 0.18475557E+00 0.22679484E+03</pdfrwt>
<totfact> 0.13178170E+02</totfact>
</mgrwt>
</event>
<event>
 5    1  0.8274494E-003  0.6418199E+02  0.7546771E-02  0.1387667E+00
          2   -1    0    0  502    0  0.00000000000E+00  0.00000000000E+00  0.16657690935E+04  0.16657690935E+04  0.00000000000E+00 0. -1.
          1   -1    0    0  501    0 -0.00000000000E+00 -0.00000000000E+00 -0.63734749485E+02  0.63734749485E+02  0.00000000000E+00 0. -1.
         25    1    1    2    0    0 -0.32164515299E+01 -0.34143066277E+02  0.11274706884E+03  0.17179346922E+03  0.12500000000E+03 0.  0.
          2    1    1    2  501    0  0.63341956308E+02  0.43465671248E+02  0.10341961180E+02  0.77514025615E+02  0.00000000000E+00 0. -1.
          1    1    1    2  502    0 -0.60125504778E+02 -0.93226049718E+01  0.14789453140E+04  0.14801963482E+04  0.00000000000E+00 0. -1.
<mgrwt>
<rscale>  0 0.62490689E+02</rscale>
<asrwt>0</asrwt>
<pdfrwt beam="1">  1        2 0.25627214E+00 0.60843959E+02</pdfrwt>
<pdfrwt beam="2">  1        1 0.98053473E-02 0.64181988E+02</pdfrwt>
<totfact> 0.10432995E+03</totfact>
</mgrwt>
</event>
<event>
 5    1  0.8274494E-003  0.7172402E+02  0.7546771E-02  0.1391736E+00
          2   -1    0    0  502    0  0.00000000000E+00  0.00000000000E+00  0.29689555963E+03  0.29689555963E+03  0.00000000000E+00 0. -1.
         -2   -1    0    0    0  501 -0.00000000000E+00 -0.00000000000E+00 -0.39043538417E+03  0.39043538417E+03  0.00000000000E+00 0.  1.
         25    1    1    2    0    0  0.51677856170E+02  0.52935417825E+02 -0.12567929413E+02  0.14579338849E+03  0.12500000000E+03 0.  0.
          1    1    1    2  502    0  0.20919351563E+02 -0.48363305065E+02  0.22291890846E+03  0.22906214942E+03  0.00000000000E+00 0. -1.
         -1    1    1    2    0  501 -0.72597207734E+02 -0.45721127597E+01 -0.30389080359E+03  0.31247540590E+03  0.00000000000E+00 0.  1.
<mgrwt>
<rscale>  0 0.61476873E+02</rscale>
<asrwt>0</asrwt>
<pdfrwt beam="1">  1        2 0.45676240E-01 0.52693724E+02</pdfrwt>
<pdfrwt beam="2">  1       -2 0.60066982E-01 0.71724024E+02</pdfrwt>
<totfact> 0.29387126E+02</totfact>
</mgrwt>
</event>
<event>
 5    1  0.8274494E-003  0.5034063E+02  0.7546771E-02  0.1493418E+00
          1   -1    0    0  501    0 -0.00000000000E+00  0.00000000000E+00  0.31569797144E+03  0.31569797144E+03  0.00000000000E+00 0. -1.
          2   -1    0    0  502    0  0.00000000000E+00 -0.00000000000E+00 -0.47267079910E+03  0.47267079910E+03  0.00000000000E+00 0. -1.
         25    1    1    2    0    0 -0.30363427974E+02  0.68287296207E+02  0.55564400265E+02  0.15587653819E+03  0.12500000000E+03 0.  0.
          2    1    1    2  501    0  0.78358558760E+00 -0.49243168219E+02  0.20634214495E+03  0.21213812577E+03  0.00000000000E+00 0. -1.
          1    1    1    2  502    0  0.29579842386E+02 -0.19044127988E+02 -0.41887937288E+03  0.42035410657E+03  0.00000000000E+00 0. -1.
<mgrwt>
<rscale>  0 0.42083169E+02</rscale>
<asrwt>0</asrwt>
<pdfrwt beam="2">  1        2 0.72718584E-01 0.35180192E+02</pdfrwt>
<pdfrwt beam="1">  1        1 0.48568919E-01 0.50340633E+02</pdfrwt>
<totfact> 0.76116469E+02</totfact>
</mgrwt>
</event>
<event>
 5    1  0.8274494E-003  0.6350504E+02  0.7546771E-02  0.1446616E+00
          2   -1    0    0  502    0  0.00000000000E+00  0.00000000000E+00  0.16249509103E+04  0.16249509103E+04  0.00000000000E+00 0. -1.
          1   -1    0    0  501    0 -0.00000000000E+00 -0.00000000000E+00 -0.57707969089E+02  0.57707969089E+02  0.00000000000E+00 0. -1.
         25    1    1    2    0    0  0.91076393535E+01 -0.25270381378E+02  0.57628882162E+03  0.59030106487E+03  0.12500000000E+03 0.  0.
          2    1    1    2  501    0 -0.86099440390E+01  0.64264064128E+02 -0.29446962214E+02  0.71211829482E+02  0.00000000000E+00 0. -1.
          1    1    1    2  502    0 -0.49769531450E+00 -0.38993682750E+02  0.10204010818E+04  0.10211459851E+04  0.00000000000E+00 0. -1.
<mgrwt>
<rscale>  0 0.49764414E+02</rscale>
<asrwt>0</asrwt>
<pdfrwt beam="1">  1        2 0.24999241E+00 0.38996859E+02</pdfrwt>
<pdfrwt beam="2">  1        1 0.88781503E-02 0.63505036E+02</pdfrwt>
<totfact> 0.12963874E+03</totfact>
</mgrwt>
</event>
<event>
 5    1  0.8274494E-003  0.9688323E+02  0.7546771E-02  0.1377031E+00
          2   -1    0    0  502    0  0.00000000000E+00  0.00000000000E+00  0.22574330004E+04  0.22574330004E+04  0.00000000000E+00 0. -1.
          1   -1    0    0  501    0 -0.00000000000E+00 -0.00000000000E+00 -0.20636662785E+03  0.20636662785E+03  0.00000000000E+00 0. -1.
         25    1    1    2    0    0  0.64526738203E+02  0.20074430944E+02  0.78283995847E+03  0.79563187675E+03  0.12500000000E+03 0.  0.
          2    1    1    2  501    0  0.41540886951E+02 -0.14339193387E+02 -0.19560831153E+03  0.20048408738E+03  0.00000000000E+00 0. -1.
          1    1    1    2  502    0 -0.10606762515E+03 -0.57352375566E+01  0.14638347256E+04  0.14676836642E+04  0.00000000000E+00 0. -1.
<mgrwt>
<rscale>  0 0.65250578E+02</rscale>
<asrwt>0</asrwt>
<pdfrwt beam="1">  1        2 0.34729737E+00 0.96883230E+02</pdfrwt>
<pdfrwt beam="2">  1        1 0.31748713E-01 0.43946078E+02</pdfrwt>
<totfact> 0.11440650E+02</totfact>
</mgrwt>
</event>
<event>
 5    1  0.8274494E-003  0.8164037E+02  0.7546771E-02  0.1347497E+00
          1   -1    0    0  501    0 -0.00000000000E+00  0.00000000000E+00  0.45036496933E+03  0.45036496933E+03  0.00000000000E+00 0. -1.
          2   -1    0    0  502    0  0.00000000000E+00 -0.00000000000E+00 -0.19494323360E+04  0.19494323360E+04  0.00000000000E+00 0. -1.
         25    1    1    2    0    0  0.62685471552E+02  0.50561526797E+02 -0.92887515374E+02  0.17532548830E+03  0.12500000000E+03 0.  0.
          2    1    1    2  501    0 -0.58830154889E+02  0.31615870526E+02  0.40548075822E+03  0.41094427321E+03  0.00000000000E+00 0. -1.
          1    1    1    2  502    0 -0.38553166625E+01 -0.82177397323E+02 -0.18116606095E+04  0.18135275438E+04  0.00000000000E+00 0. -1.
<mgrwt>
<rscale>  0 0.73841346E+02</rscale>
<asrwt>0</asrwt>
<pdfrwt beam="2">  1        2 0.29991266E+00 0.81640373E+02</pdfrwt>
<pdfrwt beam="1">  1        1 0.69286919E-01 0.66787352E+02</pdfrwt>
<totfact> 0.65263174E+01</totfact>
</mgrwt>
</event>
<event>
 5    1  0.8274494E-003  0.3065329E+03  0.7546771E-02  0.1240954E+00
          1   -1    0    0  501    0 -0.00000000000E+00  0.00000000000E+00  0.97102442246E+03  0.97102442246E+03  0.00000000000E+00 0. -1.
          2   -1    0    0  502    0  0.00000000000E+00 -0.00000000000E+00 -0.10316055527E+04  0.10316055527E+04  0.00000000000E+00 0. -1.
         25    1    1    2    0    0 -0.12838197586E+03 -0.32543711594E+03  0.26661962918E+03  0.45727702197E+03  0.12500000000E+03 0.  0.
          2    1    1    2  501    0  0.28229897552E+02  0.38829913156E+02  0.58345241970E+03  0.58542413285E+03  0.00000000000E+00 0. -1.
          1    1    1    2  502    0  0.10015207831E+03  0.28660720278E+03 -0.91065317910E+03  0.95992882032E+03  0.00000000000E+00 0. -1.
<mgrwt>
<rscale>  0 0.12130861E+03</rscale>
<asrwt>0</asrwt>
<pdfrwt beam="2">  1        2 0.15870855E+00 0.30653286E+03</pdfrwt>
<pdfrwt beam="1">  1        1 0.14938837E+00 0.48007179E+02</pdfrwt>
<totfact> 0.64313614E+01</totfact>
</mgrwt>
</event>
<event>
 5    1  0.8274494E-003  0.4370698E+02  0.7546771E-02  0.1490578E+00
          2   -1    0    0  502    0  0.00000000000E+00  0.00000000000E+00  0.85324371820E+02  0.85324371820E+02  0.00000000000E+00 0. -1.
          1   -1    0    0  501    0 -0.00000000000E+00 -0.00000000000E+00 -0.12918889800E+04  0.12918889800E+04  0.00000000000E+00 0. -1.
         25    1    1    2    0    0 -0.69695202665E+02 -0.10390377766E+02 -0.18095470305E+03  0.23094368530E+03  0.12500000000E+03 0.  0.
          2    1    1    2  501    0  0.37226337773E+02 -0.17948073182E+02 -0.10777964993E+04  0.10785885348E+04  0.00000000000E+00 0. -1.
          1    1    1    2  502    0  0.32468864892E+02  0.28338450948E+02  0.52186594114E+02  0.67681131748E+02  0.00000000000E+00 0. -1.
<mgrwt>
<rscale>  0 0.42500414E+02</rscale>
<asrwt>0</asrwt>
<pdfrwt beam="1">  1        2 0.13126828E-01 0.43706983E+02</pdfrwt>
<pdfrwt beam="2">  1        1 0.19875213E+00 0.41327153E+02</pdfrwt>
<totfact> 0.65444268E+02</totfact>
</mgrwt>
</event>
<event>
 5    1  0.8274494E-003  0.3516157E+02  0.7546771E-02  0.1573720E+00
         -1   -1    0    0    0  502 -0.00000000000E+00  0.00000000000E+00  0.14337556913E+02  0.14337556913E+02  0.00000000000E+00 0.  1.
         -2   -1    0    0    0  501  0.00000000000E+00 -0.00000000000E+00 -0.13033568939E+04  0.13033568939E+04  0.00000000000E+00 0.  1.
         25    1    1    2    0    0  0.26095492802E+02 -0.11714755451E+02 -0.42915572406E+03  0.44790383536E+03  0.12500000000E+03 0.  0.
         -2    1    1    2    0  502 -0.99241226206E+01  0.36647790346E+02 -0.72268885654E+02  0.81635412540E+02  0.00000000000E+00 0.  1.
         -1    1    1    2    0  501 -0.16171370181E+02 -0.24933034895E+02 -0.78759472730E+03  0.78815520294E+03  0.00000000000E+00 0.  1.
<mgrwt>
<rscale>  0 0.32325490E+02</rscale>
<asrwt>0</asrwt>
<pdfrwt beam="2">  1       -2 0.20051648E+00 0.29718167E+02</pdfrwt>
<pdfrwt beam="1">  1       -1 0.22057776E-02 0.35161567E+02</pdfrwt>
<totfact> 0.55855377E+02</totfact>
</mgrwt>
</event>
<event>
 5    1  0.8274494E-003  0.1826580E+03  0.7546771E-02  0.1221239E+00
          2   -1    0    0  502    0  0.00000000000E+00  0.00000000000E+00  0.20821075059E+03  0.20821075059E+03  0.00000000000E+00 0. -1.
          1   -1    0    0  501    0 -0.00000000000E+00 -0.00000000000E+00 -0.61012159758E+03  0.61012159758E+03  0.00000000000E+00 0. -1.
         25    1    1    2    0    0 -0.72174255797E+02  0.81570678707E+02 -0.20247198612E+03  0.26169219321E+03  0.12500000000E+03 0.  0.
          2    1    1    2  501    0 -0.26061312962E+02  0.95213141726E+02 -0.31056529965E+03  0.32587657132E+03  0.00000000000E+00 0. -1.
          1    1    1    2  502    0  0.98235568760E+02 -0.17678382043E+03  0.11112643878E+03  0.23076358364E+03  0.00000000000E+00 0. -1.
<mgrwt>
<rscale>  0 0.13428015E+03</rscale>
<asrwt>0</asrwt>
<pdfrwt beam="1">  1        2 0.32032423E-01 0.18265799E+03</pdfrwt>
<pdfrwt beam="2">  1        1 0.93864861E-01 0.98715421E+02</pdfrwt>
<totfact> 0.78348178E+02</totfact>
</mgrwt>
</event>
<event>
 5    1  0.8274494E-003  0.9088328E+02  0.7546771E-02  0.1464320E+00
          2   -1    0    0  502    0  0.00000000000E+00  0.00000000000E+00  0.12551948147E+04  0.12551948147E+04  0.00000000000E+00 0. -1.
          1   -1    0    0  501    0 -0.00000000000E+00 -0.00000000000E+00 -0.88053317285E+03  0.88053317285E+03  0.00000000000E+00 0. -1.
         25    1    1    2    0    0  0.26041356123E+02  0.10422293662E+03  0.79782431114E+01  0.16501280286E+03  0.12500000000E+03 0.  0.
          2    1    1    2  501    0  0.10650357316E+02 -0.21441788951E+02 -0.80008269098E+03  0.80044081157E+03  0.00000000000E+00 0. -1.
          1    1    1    2  502    0 -0.36691713439E+02 -0.82781147665E+02  0.11667660897E+04  0.11702743731E+04  0.00000000000E+00 0. -1.
<mgrwt>
<rscale>  0 0.46646046E+02</rscale>
<asrwt>0</asrwt>
<pdfrwt beam="1">  1        2 0.19310689E+00 0.90883280E+02</pdfrwt>
<pdfrwt beam="2">  1        1 0.13546664E+00 0.23941187E+02</pdfrwt>
<totfact> 0.62384394E+01</totfact>
</mgrwt>
</event>
<event>
 5    1  0.8274494E-003  0.7361573E+02  0.7546771E-02  0.1434860E+00
          1   -1    0    0  501    0 -0.00000000000E+00  0.00000000000E+00  0.40819571914E+02  0.40819571914E+02  0.00000000000E+00 0. -1.
          2   -1    0    0  502    0  0.00000000000E+00 -0.00000000000E+00 -0.12633252576E+04  0.12633252576E+04  0.00000000000E+00 0. -1.
         25    1    1    2    0    0  0.97013556439E+02  0.46802701021E+02 -0.57816315482E+03  0.60124849817E+03  0.12500000000E+03 0.  0.
          2    1    1    2  501    0 -0.63075668409E+02 -0.32764908883E+02 -0.15202943991E+02  0.72685684322E+02  0.00000000000E+00 0. -1.
          1    1    1    2  502    0 -0.33937888030E+02 -0.14037792138E+02 -0.62913958692E+03  0.63021064707E+03  0.00000000000E+00 0. -1.
<mgrwt>
<rscale>  0 0.51996655E+02</rscale>
<asrwt>0</asrwt>
<pdfrwt beam="2">  1        2 0.19435771E+00 0.36726555E+02</pdfrwt>
<pdfrwt beam="1">  1        1 0.62799350E-02 0.73615729E+02</pdfrwt>
<totfact> 0.31344505E+03</totfact>
</mgrwt>
</event>
<event>
 5    1  0.8375825E-003  0.2009271E+03  0.7546771E-02  0.1230977E+00
          2   -1    0    0  502    0  0.00000000000E+00  0.00000000000E+00  0.13631745176E+04  0.13631745176E+04  0.00000000000E+00 0. -1.
          1   -1    0    0  501    0 -0.00000000000E+00 -0.00000000000E+00 -0.21950074438E+04  0.21950074438E+04  0.00000000000E+00 0. -1.
         25    1    1    2    0    0 -0.50370108223E+02  0.12210113594E+03 -0.90245522865E+03  0.92059560879E+03  0.12500000000E+03 0.  0.
          2    1    1    2  501    0 -0.71389756423E+02  0.38487589255E+02 -0.12746877537E+04  0.12772653057E+04  0.00000000000E+00 0. -1.
          1    1    1    2  502    0  0.12175986465E+03 -0.16058872520E+03  0.13453100562E+04  0.13603210468E+04  0.00000000000E+00 0. -1.
<mgrwt>
<rscale>  0 0.12765544E+03</rscale>
<asrwt>0</asrwt>
<pdfrwt beam="1">  1        2 0.20971916E+00 0.20092713E+03</pdfrwt>
<pdfrwt beam="2">  1        1 0.33769345E+00 0.81103587E+02</pdfrwt>
<totfact> 0.66980153E+00</totfact>
</mgrwt>
</event>
<event>
 5    1  0.8274494E-003  0.9700147E+02  0.7546771E-02  0.1473716E+00
          1   -1    0    0  502    0  0.00000000000E+00  0.00000000000E+00  0.11889456893E+04  0.11889456893E+04  0.00000000000E+00 0. -1.
         -1   -1    0    0    0  501 -0.00000000000E+00 -0.00000000000E+00 -0.26284591285E+02  0.26284591285E+02  0.00000000000E+00 0.  1.
         25    1    1    2    0    0  0.59928407219E+02  0.52340408808E+02  0.74574996769E+03  0.76032818354E+03  0.12500000000E+03 0.  0.
          2    1    1    2  502    0  0.12374269184E+02  0.16928787223E+02  0.30100742856E+03  0.30173693580E+03  0.00000000000E+00 0. -1.
         -2    1    1    2    0  501 -0.72302676402E+02 -0.69269196031E+02  0.11590370174E+03  0.15316516121E+03  0.00000000000E+00 0.  1.
<mgrwt>
<rscale>  0 0.45100344E+02</rscale>
<asrwt>0</asrwt>
<pdfrwt beam="1">  1        1 0.18291468E+00 0.20969177E+02</pdfrwt>
<pdfrwt beam="2">  1       -1 0.40437842E-02 0.97001472E+02</pdfrwt>
<totfact> 0.31450482E+03</totfact>
</mgrwt>
</event>
<event>
 5    1  0.8274494E-003  0.7447394E+02  0.7546771E-02  0.1381533E+00
          1   -1    0    0  502    0  0.00000000000E+00  0.00000000000E+00  0.94834608722E+03  0.94834608722E+03  0.00000000000E+00 0. -1.
         -1   -1    0    0    0  501 -0.00000000000E+00 -0.00000000000E+00 -0.36460004220E+03  0.36460004220E+03  0.00000000000E+00 0.  1.
         25    1    1    2    0    0 -0.32312841740E+02  0.55654156071E+02  0.27746446342E+03  0.31105149620E+03  0.12500000000E+03 0.  0.
          2    1    1    2  502    0  0.75281062478E+02 -0.21151200003E+02  0.64954557096E+03  0.65423547778E+03  0.00000000000E+00 0. -1.
         -2    1    1    2    0  501 -0.42968220738E+02 -0.34502956068E+02 -0.34326398936E+03  0.34765915544E+03  0.00000000000E+00 0.  1.
<mgrwt>
<rscale>  0 0.64062433E+02</rscale>
<asrwt>0</asrwt>
<pdfrwt beam="1">  1        1 0.14589940E+00 0.74473942E+02</pdfrwt>
<pdfrwt beam="2">  1       -1 0.56092315E-01 0.55106460E+02</pdfrwt>
<totfact> 0.64697260E+01</totfact>
</mgrwt>
</event>
<event>
 5    1  0.8274494E-003  0.5488364E+02  0.7546771E-02  0.1554117E+00
          1   -1    0    0  501    0 -0.00000000000E+00  0.00000000000E+00  0.27798245306E+03  0.27798245306E+03  0.00000000000E+00 0. -1.
          2   -1    0    0  502    0  0.00000000000E+00 -0.00000000000E+00 -0.16133226239E+03  0.16133226239E+03  0.00000000000E+00 0. -1.
         25    1    1    2    0    0  0.31090720325E+02  0.43541544179E+02  0.37756307200E+02  0.14111356311E+03  0.12500000000E+03 0.  0.
          2    1    1    2  501    0 -0.12217836456E+02 -0.53932410004E+02  0.18336997663E+03  0.19152683547E+03  0.00000000000E+00 0. -1.
          1    1    1    2  502    0 -0.18872883869E+02  0.10390865825E+02 -0.10447609316E+03  0.10667431687E+03  0.00000000000E+00 0. -1.
<mgrwt>
<rscale>  0 0.34386454E+02</rscale>
<asrwt>0</asrwt>
<pdfrwt beam="2">  1        2 0.24820348E-01 0.21544276E+02</pdfrwt>
<pdfrwt beam="1">  1        1 0.42766531E-01 0.54883638E+02</pdfrwt>
<totfact> 0.25882669E+03</totfact>
</mgrwt>
</event>
<event>
 5    1  0.8274494E-003  0.6256185E+02  0.7546771E-02  0.1442172E+00
          2   -1    0    0  502    0  0.00000000000E+00  0.00000000000E+00  0.12146975094E+04  0.12146975094E+04  0.00000000000E+00 0. -1.
          1   -1    0    0  501    0 -0.00000000000E+00 -0.00000000000E+00 -0.19585826500E+03  0.19585826500E+03  0.00000000000E+00 0. -1.
         25    1    1    2    0    0 -0.51279981720E+02  0.15284360754E+02  0.24934034041E+02  0.13823875818E+03  0.12500000000E+03 0.  0.
          2    1    1    2  501    0  0.59460574589E+02  0.24802456983E+02 -0.13135989569E+03  0.14630838663E+03  0.00000000000E+00 0. -1.
          1    1    1    2  502    0 -0.81805928691E+01 -0.40086817736E+02  0.11252651061E+04  0.11260086296E+04  0.00000000000E+00 0. -1.
<mgrwt>
<rscale>  0 0.50592433E+02</rscale>
<asrwt>0</asrwt>
<pdfrwt beam="1">  1        2 0.18687653E+00 0.40913018E+02</pdfrwt>
<pdfrwt beam="2">  1        1 0.30132042E-01 0.62561853E+02</pdfrwt>
<totfact> 0.44402762E+02</totfact>
</mgrwt>
</event>
<event>
 5    1  0.8274494E-003  0.9403125E+02  0.7546771E-02  0.1433611E+00
          2   -1    0    0  502    0  0.00000000000E+00  0.00000000000E+00  0.13804199820E+04  0.13804199820E+04  0.00000000000E+00 0. -1.
          1   -1    0    0  501    0 -0.00000000000E+00 -0.00000000000E+00 -0.28851681198E+03  0.28851681198E+03  0.00000000000E+00 0. -1.
         25    1    1    2    0    0  0.65879681366E+02  0.39721848956E+02  0.38813912664E+02  0.15182054379E+03  0.12500000000E+03 0.  0.
          2    1    1    2  501    0 -0.67113520078E+02 -0.68720203308E+02 -0.22189927571E+03  0.24179739345E+03  0.00000000000E+00 0. -1.
          1    1    1    2  502    0  0.12338387121E+01  0.28998354353E+02  0.12749885331E+04  0.12753188568E+04  0.00000000000E+00 0. -1.
<mgrwt>
<rscale>  0 0.52241925E+02</rscale>
<asrwt>0</asrwt>
<pdfrwt beam="1">  1        2 0.21237230E+00 0.29024592E+02</pdfrwt>
<pdfrwt beam="2">  1        1 0.44387203E-01 0.94031253E+02</pdfrwt>
<totfact> 0.23623045E+02</totfact>
</mgrwt>
</event>
<event>
 5    1  0.8274494E-003  0.8340025E+02  0.7546771E-02  0.1391521E+00
         -2   -1    0    0    0  501 -0.00000000000E+00  0.00000000000E+00  0.28377656551E+03  0.28377656551E+03  0.00000000000E+00 0.  1.
          2   -1    0    0  502    0  0.00000000000E+00 -0.00000000000E+00 -0.93219170072E+03  0.93219170072E+03  0.00000000000E+00 0. -1.
         25    1    1    2    0    0  0.37695196553E+01  0.10544616036E+03 -0.42240811759E+03  0.45297540752E+03  0.12500000000E+03 0.  0.
          1    1    1    2  502    0 -0.34732969282E+02 -0.72250321582E+02 -0.48929578126E+03  0.49581937203E+03  0.00000000000E+00 0. -1.
         -1    1    1    2    0  501  0.30963449627E+02 -0.33195838775E+02  0.26328876364E+03  0.26717348668E+03  0.00000000000E+00 0.  1.
<mgrwt>
<rscale>  0 0.61530055E+02</rscale>
<asrwt>0</asrwt>
<pdfrwt beam="2">  1        2 0.14341411E+00 0.83400246E+02</pdfrwt>
<pdfrwt beam="1">  1       -2 0.43657933E-01 0.45394922E+02</pdfrwt>
<totfact> 0.15365342E+02</totfact>
</mgrwt>
</event>
<event>
 5    1  0.8274494E-003  0.6268645E+02  0.7546771E-02  0.1522186E+00
         -1   -1    0    0    0  501 -0.00000000000E+00  0.00000000000E+00  0.28072064821E+03  0.28072064821E+03  0.00000000000E+00 0.  1.
          1   -1    0    0  502    0  0.00000000000E+00 -0.00000000000E+00 -0.99958691472E+03  0.99958691472E+03  0.00000000000E+00 0. -1.
         25    1    1    2    0    0 -0.67704189587E+02 -0.84563479977E+01  0.78817091859E+01  0.14262709577E+03  0.12500000000E+03 0.  0.
          2    1    1    2  502    0  0.61120982275E+02 -0.13824167314E+02 -0.93050023293E+03  0.93260793776E+03  0.00000000000E+00 0. -1.
         -2    1    1    2    0  501  0.65832073113E+01  0.22280515311E+02  0.20375225724E+03  0.20507252939E+03  0.00000000000E+00 0.  1.
<mgrwt>
<rscale>  0 0.38162518E+02</rscale>
<asrwt>0</asrwt>
<pdfrwt beam="2">  1        1 0.15378261E+00 0.62686453E+02</pdfrwt>
<pdfrwt beam="1">  1       -1 0.43187791E-01 0.23232735E+02</pdfrwt>
<totfact> 0.94690987E+01</totfact>
</mgrwt>
</event>
<event>
 5    1  0.8274494E-003  0.1582941E+03  0.7546771E-02  0.1411943E+00
         -1   -1    0    0    0  501 -0.00000000000E+00  0.00000000000E+00  0.20946123156E+03  0.20946123156E+03  0.00000000000E+00 0.  1.
          1   -1    0    0  502    0  0.00000000000E+00 -0.00000000000E+00 -0.12027874765E+04  0.12027874765E+04  0.00000000000E+00 0. -1.
         25    1    1    2    0    0 -0.14126218118E+03  0.10703886283E+03  0.50608325842E+02  0.22270726219E+03  0.12500000000E+03 0.  0.
          2    1    1    2  502    0  0.12839060652E+03 -0.91270930253E+02 -0.11096348157E+04  0.11207604360E+04  0.00000000000E+00 0. -1.
         -2    1    1    2    0  501  0.12871574657E+02 -0.15767932578E+02  0.65700244965E+02  0.68781009882E+02  0.00000000000E+00 0.  1.
<mgrwt>
<rscale>  0 0.56762623E+02</rscale>
<asrwt>0</asrwt>
<pdfrwt beam="2">  1        1 0.18504423E+00 0.15829411E+03</pdfrwt>
<pdfrwt beam="1">  1       -1 0.32224805E-01 0.20354487E+02</pdfrwt>
<totfact> 0.10306880E+02</totfact>
</mgrwt>
</event>
<event>
 5    1  0.8274494E-003  0.1083708E+03  0.7546771E-02  0.1321299E+00
          2   -1    0    0  502    0  0.00000000000E+00  0.00000000000E+00  0.16023907298E+04  0.16023907298E+04  0.00000000000E+00 0. -1.
          1   -1    0    0  501    0 -0.00000000000E+00 -0.00000000000E+00 -0.72632034822E+02  0.72632034822E+02  0.00000000000E+00 0. -1.
         25    1    1    2    0    0 -0.44254865749E+02  0.63270124084E+02  0.11831325694E+03  0.18863888388E+03  0.12500000000E+03 0.  0.
          2    1    1    2  501    0  0.41485598294E+02  0.47753122183E+02 -0.69589314134E+01  0.63638371054E+02  0.00000000000E+00 0. -1.
          1    1    1    2  502    0  0.27692674557E+01 -0.11102324627E+03  0.14184043695E+04  0.14227455097E+04  0.00000000000E+00 0. -1.
<mgrwt>
<rscale>  0 0.82796038E+02</rscale>
<asrwt>0</asrwt>
<pdfrwt beam="1">  1        2 0.24652163E+00 0.10837080E+03</pdfrwt>
<pdfrwt beam="2">  1        1 0.11174160E-01 0.63256743E+02</pdfrwt>
<totfact> 0.89906728E+02</totfact>
</mgrwt>
</event>
<event>
 5    1  0.8274494E-003  0.2086645E+03  0.7546771E-02  0.1289519E+00
          2   -1    0    0  502    0  0.00000000000E+00  0.00000000000E+00  0.30973320040E+03  0.30973320040E+03  0.00000000000E+00 0. -1.
          1   -1    0    0  501    0 -0.00000000000E+00 -0.00000000000E+00 -0.16565638452E+04  0.16565638452E+04  0.00000000000E+00 0. -1.
         25    1    1    2    0    0  0.22152809490E+03  0.11450942153E+03 -0.64882831733E+02  0.28639463386E+03  0.12500000000E+03 0.  0.
          2    1    1    2  501    0 -0.17994854087E+03 -0.10034111870E+03 -0.14712316902E+04  0.14855882686E+04  0.00000000000E+00 0. -1.
          1    1    1    2  502    0 -0.41579554033E+02 -0.14168302829E+02  0.18928387710E+03  0.19431414320E+03  0.00000000000E+00 0. -1.
<mgrwt>
<rscale>  0 0.95739486E+02</rscale>
<asrwt>0</asrwt>
<pdfrwt beam="1">  1        2 0.47651263E-01 0.43927214E+02</pdfrwt>
<pdfrwt beam="2">  1        1 0.25485597E+00 0.20866448E+03</pdfrwt>
<totfact> 0.82841301E+01</totfact>
</mgrwt>
</event>
<event>
 5    1  0.8274494E-003  0.7647392E+02  0.7546771E-02  0.1394322E+00
          2   -1    0    0  502    0  0.00000000000E+00  0.00000000000E+00  0.11581851812E+04  0.11581851812E+04  0.00000000000E+00 0. -1.
          1   -1    0    0  501    0 -0.00000000000E+00 -0.00000000000E+00 -0.24337209275E+04  0.24337209275E+04  0.00000000000E+00 0. -1.
         25    1    1    2    0    0  0.94319849793E+01 -0.60585067029E+02 -0.13394406983E+03  0.19319815354E+03  0.12500000000E+03 0.  0.
          2    1    1    2  501    0  0.38582072052E+02  0.66757251431E+02 -0.22689755365E+04  0.22702852447E+04  0.00000000000E+00 0. -1.
          1    1    1    2  502    0 -0.48014057032E+02 -0.61721844015E+01  0.11273838601E+04  0.11284227105E+04  0.00000000000E+00 0. -1.
<mgrwt>
<rscale>  0 0.60844371E+02</rscale>
<asrwt>0</asrwt>
<pdfrwt beam="1">  1        2 0.17818234E+00 0.48409147E+02</pdfrwt>
<pdfrwt beam="2">  1        1 0.37441860E+00 0.76473924E+02</pdfrwt>
<totfact> 0.67595541E+00</totfact>
</mgrwt>
</event>
<event>
 5    1  0.8274494E-003  0.1441014E+03  0.7546771E-02  0.1334887E+00
          1   -1    0    0  501    0 -0.00000000000E+00  0.00000000000E+00  0.40847031154E+03  0.40847031154E+03  0.00000000000E+00 0. -1.
          2   -1    0    0  502    0  0.00000000000E+00 -0.00000000000E+00 -0.55837704022E+03  0.55837704022E+03  0.00000000000E+00 0. -1.
         25    1    1    2    0    0  0.11508269378E+03 -0.33731864865E+02 -0.49607339105E+02  0.18018810507E+03  0.12500000000E+03 0.  0.
          2    1    1    2  501    0  0.15046241572E+02 -0.39423558740E+02  0.32923234817E+03  0.33192551190E+03  0.00000000000E+00 0. -1.
          1    1    1    2  502    0 -0.13012893535E+03  0.73155423605E+02 -0.42953173775E+03  0.45473373478E+03  0.00000000000E+00 0. -1.
<mgrwt>
<rscale>  0 0.77978716E+02</rscale>
<asrwt>0</asrwt>
<pdfrwt beam="2">  1        2 0.85904159E-01 0.14410140E+03</pdfrwt>
<pdfrwt beam="1">  1        1 0.62841587E-01 0.42197232E+02</pdfrwt>
<totfact> 0.45836413E+02</totfact>
</mgrwt>
</event>
<event>
 5    1  0.8274494E-003  0.5105292E+02  0.7546771E-02  0.1536595E+00
          2   -1    0    0  502    0  0.00000000000E+00  0.00000000000E+00  0.17596623547E+04  0.17596623547E+04  0.00000000000E+00 0. -1.
          1   -1    0    0  501    0 -0.00000000000E+00 -0.00000000000E+00 -0.86362372435E+02  0.86362372435E+02  0.00000000000E+00 0. -1.
         25    1    1    2    0    0 -0.44933820944E+02  0.23418528847E+02  0.25762237500E+03  0.29079505473E+03  0.12500000000E+03 0.  0.
          2    1    1    2  501    0  0.17039383320E+02  0.19556132485E+02 -0.66907646273E+02  0.71759431655E+02  0.00000000000E+00 0. -1.
          1    1    1    2  502    0  0.27894437624E+02 -0.42974661332E+02  0.14825852535E+04  0.14834702407E+04  0.00000000000E+00 0. -1.
<mgrwt>
<rscale>  0 0.36389746E+02</rscale>
<asrwt>0</asrwt>
<pdfrwt beam="1">  1        2 0.27071726E+00 0.51052918E+02</pdfrwt>
<pdfrwt beam="2">  1        1 0.13286520E-01 0.25938059E+02</pdfrwt>
<totfact> 0.60818263E+02</totfact>
</mgrwt>
</event>
<event>
 5    1  0.8274494E-003  0.5519080E+02  0.7546771E-02  0.1477445E+00
         -1   -1    0    0    0  501 -0.00000000000E+00  0.00000000000E+00  0.21162988023E+03  0.21162988023E+03  0.00000000000E+00 0.  1.
          1   -1    0    0  502    0  0.00000000000E+00 -0.00000000000E+00 -0.99146684120E+03  0.99146684120E+03  0.00000000000E+00 0. -1.
         25    1    1    2    0    0  0.32355471041E+02 -0.17362329098E+02 -0.13585985558E+03  0.18823184464E+03  0.12500000000E+03 0.  0.
          2    1    1    2  502    0  0.22515343418E+02  0.27950304370E+02 -0.82481180745E+03  0.82559231943E+03  0.00000000000E+00 0. -1.
         -2    1    1    2    0  501 -0.54870814459E+02 -0.10587975272E+02  0.18083470206E+03  0.18927255736E+03  0.00000000000E+00 0.  1.
<mgrwt>
<rscale>  0 0.44506743E+02</rscale>
<asrwt>0</asrwt>
<pdfrwt beam="2">  1        1 0.15253336E+00 0.35890949E+02</pdfrwt>
<pdfrwt beam="1">  1       -1 0.32558444E-01 0.55190801E+02</pdfrwt>
<totfact> 0.16227641E+02</totfact>
</mgrwt>
</event>
<event>
 5    1  0.8274494E-003  0.5670018E+02  0.7546771E-02  0.1520747E+00
         -1   -1    0    0    0  501 -0.00000000000E+00  0.00000000000E+00  0.59818286255E+03  0.59818286255E+03  0.00000000000E+00 0.  1.
          1   -1    0    0  502    0  0.00000000000E+00 -0.00000000000E+00 -0.11924995701E+04  0.11924995701E+04  0.00000000000E+00 0. -1.
         25    1    1    2    0    0  0.17863712781E+02  0.51871020716E+02 -0.23387712486E+03  0.27080107931E+03  0.12500000000E+03 0.  0.
          2    1    1    2  502    0  0.76469024257E+01 -0.56534784473E+02 -0.93900428583E+03  0.94073572579E+03  0.00000000000E+00 0. -1.
         -2    1    1    2    0  501 -0.25510615207E+02  0.46637637573E+01  0.57856470314E+03  0.57914562754E+03  0.00000000000E+00 0.  1.
<mgrwt>
<rscale>  0 0.38346180E+02</rscale>
<asrwt>0</asrwt>
<pdfrwt beam="2">  1        1 0.18346147E+00 0.56700182E+02</pdfrwt>
<pdfrwt beam="1">  1       -1 0.92028133E-01 0.25933418E+02</pdfrwt>
<totfact> 0.17535530E+01</totfact>
</mgrwt>
</event>
<event>
 5    1  0.8274494E-003  0.7364286E+02  0.7546771E-02  0.1405969E+00
          2   -1    0    0  502    0  0.00000000000E+00  0.00000000000E+00  0.99305291011E+03  0.99305291011E+03  0.00000000000E+00 0. -1.
         -2   -1    0    0    0  501 -0.00000000000E+00 -0.00000000000E+00 -0.74718625806E+02  0.74718625806E+02  0.00000000000E+00 0.  1.
         25    1    1    2    0    0 -0.14560550307E+02 -0.79403891146E+02  0.63936074605E+03  0.65644813287E+03  0.12500000000E+03 0.  0.
          1    1    1    2  502    0 -0.37226161777E+02  0.26753171607E+02  0.32240520144E+03  0.32564802045E+03  0.00000000000E+00 0. -1.
         -1    1    1    2    0  501  0.51786712084E+02  0.52650719538E+02 -0.43431663182E+02  0.85675382597E+02  0.00000000000E+00 0.  1.
<mgrwt>
<rscale>  0 0.58103013E+02</rscale>
<asrwt>0</asrwt>
<pdfrwt beam="1">  1        2 0.15277736E+00 0.45842331E+02</pdfrwt>
<pdfrwt beam="2">  1       -2 0.11495174E-01 0.73642855E+02</pdfrwt>
<totfact> 0.14305245E+03</totfact>
</mgrwt>
</event>
<event>
 5    1  0.8274494E-003  0.3507089E+02  0.7546771E-02  0.1573540E+00
          1   -1    0    0  501    0 -0.00000000000E+00  0.00000000000E+00  0.47557731918E+03  0.47557731918E+03  0.00000000000E+00 0. -1.
          2   -1    0    0  502    0  0.00000000000E+00 -0.00000000000E+00 -0.98134015258E+02  0.98134015258E+02  0.00000000000E+00 0. -1.
         25    1    1    2    0    0  0.26193772577E+02 -0.41863693913E+02  0.83244176437E+02  0.15809261684E+03  0.12500000000E+03 0.  0.
          2    1    1    2  501    0 -0.28967128754E+02  0.71159074693E+01  0.34921645182E+03  0.35048803247E+03  0.00000000000E+00 0. -1.
          1    1    1    2  502    0  0.27733561770E+01  0.34747786444E+02 -0.55017324333E+02  0.65130685119E+02  0.00000000000E+00 0. -1.
<mgrwt>
<rscale>  0 0.32343574E+02</rscale>
<asrwt>0</asrwt>
<pdfrwt beam="2">  1        2 0.15097541E-01 0.35070886E+02</pdfrwt>
<pdfrwt beam="1">  1        1 0.73165740E-01 0.29828354E+02</pdfrwt>
<totfact> 0.23928797E+03</totfact>
</mgrwt>
</event>
<event>
 5    1  0.8274494E-003  0.4148594E+02  0.7546771E-02  0.1515098E+00
         -2   -1    0    0    0  501 -0.00000000000E+00  0.00000000000E+00  0.41712670423E+03  0.41712670423E+03  0.00000000000E+00 0.  1.
          2   -1    0    0  502    0  0.00000000000E+00 -0.00000000000E+00 -0.81141060687E+03  0.81141060687E+03  0.00000000000E+00 0. -1.
         25    1    1    2    0    0  0.31020624827E+02 -0.12989270485E+02  0.24477473492E+02  0.13173893510E+03  0.12500000000E+03 0.  0.
          1    1    1    2  502    0 -0.71748200746E+01  0.41034242791E+02 -0.75620562235E+03  0.75735211784E+03  0.00000000000E+00 0. -1.
         -1    1    1    2    0  501 -0.23845804752E+02 -0.28044972306E+02  0.33744424622E+03  0.33944625817E+03  0.00000000000E+00 0.  1.
<mgrwt>
<rscale>  0 0.39079297E+02</rscale>
<asrwt>0</asrwt>
<pdfrwt beam="2">  1        2 0.12483240E+00 0.41485941E+02</pdfrwt>
<pdfrwt beam="1">  1       -2 0.64173339E-01 0.36812265E+02</pdfrwt>
<totfact> 0.88502023E+01</totfact>
</mgrwt>
</event>
<event>
 5    1  0.8274494E-003  0.7128546E+02  0.7546771E-02  0.1517701E+00
          2   -1    0    0  502    0  0.00000000000E+00  0.00000000000E+00  0.43268665583E+03  0.43268665583E+03  0.00000000000E+00 0. -1.
          1   -1    0    0  501    0 -0.00000000000E+00 -0.00000000000E+00 -0.59335782294E+03  0.59335782294E+03  0.00000000000E+00 0. -1.
         25    1    1    2    0    0  0.48448821075E+02 -0.47216450538E+02  0.36120196898E+03  0.38816046148E+03  0.12500000000E+03 0.  0.
          2    1    1    2  501    0 -0.53839008922E+01 -0.20352182473E+02 -0.55191154834E+03  0.55231291394E+03  0.00000000000E+00 0. -1.
          1    1    1    2  502    0 -0.43064920183E+02  0.67568633012E+02  0.30038412253E+02  0.85571103347E+02  0.00000000000E+00 0. -1.
<mgrwt>
<rscale>  0 0.38739129E+02</rscale>
<asrwt>0</asrwt>
<pdfrwt beam="1">  1        2 0.66567178E-01 0.71285458E+02</pdfrwt>
<pdfrwt beam="2">  1        1 0.91285819E-01 0.21052262E+02</pdfrwt>
<totfact> 0.39200039E+02</totfact>
</mgrwt>
</event>
<event>
 5    1  0.8274494E-003  0.1148372E+03  0.7546771E-02  0.1404823E+00
         -2   -1    0    0    0  501 -0.00000000000E+00  0.00000000000E+00  0.10121200155E+03  0.10121200155E+03  0.00000000000E+00 0.  1.
          2   -1    0    0  502    0  0.00000000000E+00 -0.00000000000E+00 -0.12320390785E+04  0.12320390785E+04  0.00000000000E+00 0. -1.
         25    1    1    2    0    0 -0.96488335177E+02 -0.87311700574E+02 -0.69887448721E+03  0.72179213126E+03  0.12500000000E+03 0.  0.
          1    1    1    2  502    0 -0.20346248220E+01  0.29593881240E+02 -0.48475140412E+03  0.48565817331E+03  0.00000000000E+00 0. -1.
         -1    1    1    2    0  501  0.98522959999E+02  0.57717819334E+02  0.52798814360E+02  0.12580077549E+03  0.00000000000E+00 0.  1.
<mgrwt>
<rscale>  0 0.58365247E+02</rscale>
<asrwt>0</asrwt>
<pdfrwt beam="2">  1        2 0.18954449E+00 0.29663741E+02</pdfrwt>
<pdfrwt beam="1">  1       -2 0.15571076E-01 0.11483724E+03</pdfrwt>
<totfact> 0.69166624E+02</totfact>
</mgrwt>
</event>
<event>
 5    1  0.8274494E-003  0.1069590E+03  0.7546771E-02  0.1267387E+00
          2   -1    0    0  502    0  0.00000000000E+00  0.00000000000E+00  0.13662655237E+04  0.13662655237E+04  0.00000000000E+00 0. -1.
         -2   -1    0    0    0  501 -0.00000000000E+00 -0.00000000000E+00 -0.97544061663E+02  0.97544061663E+02  0.00000000000E+00 0.  1.
         25    1    1    2    0    0  0.93384654286E+02  0.24402543445E+02  0.48034857656E+02  0.16507127349E+03  0.12500000000E+03 0.  0.
          1    1    1    2  502    0 -0.26355697574E+02 -0.10631495940E+03  0.11804271261E+04  0.11854980782E+04  0.00000000000E+00 0. -1.
         -1    1    1    2    0  501 -0.67028956712E+02  0.81912415952E+02  0.40259478247E+02  0.11324023363E+03  0.00000000000E+00 0.  1.
<mgrwt>
<rscale>  0 0.10639905E+03</rscale>
<asrwt>0</asrwt>
<pdfrwt beam="1">  1        2 0.21019468E+00 0.10695904E+03</pdfrwt>
<pdfrwt beam="2">  1       -2 0.15006780E-01 0.10584198E+03</pdfrwt>
<totfact> 0.56816549E+02</totfact>
</mgrwt>
</event>
<event>
 5    1  0.8274494E-003  0.1888059E+03  0.7546771E-02  0.1239376E+00
          2   -1    0    0  502    0  0.00000000000E+00  0.00000000000E+00  0.10424582397E+04  0.10424582397E+04  0.00000000000E+00 0. -1.
          1   -1    0    0  501    0 -0.00000000000E+00 -0.00000000000E+00 -0.27710623205E+03  0.27710623205E+03  0.00000000000E+00 0. -1.
         25    1    1    2    0    0 -0.17449535446E+03 -0.97180189802E+02  0.39882303091E+03  0.46322502955E+03  0.12500000000E+03 0.  0.
          2    1    1    2  501    0  0.18817927691E+03  0.19171412899E+02 -0.20524067564E+03  0.27911058430E+03  0.00000000000E+00 0. -1.
          1    1    1    2  502    0 -0.13683922452E+02  0.78008776903E+02  0.57176965237E+03  0.57722885788E+03  0.00000000000E+00 0. -1.
<mgrwt>
<rscale>  0 0.12228409E+03</rscale>
<asrwt>0</asrwt>
<pdfrwt beam="1">  1        2 0.16037819E+00 0.79199867E+02</pdfrwt>
<pdfrwt beam="2">  1        1 0.42631729E-01 0.18880587E+03</pdfrwt>
<totfact> 0.34904138E+02</totfact>
</mgrwt>
</event>
<event>
 5    1  0.8274494E-003  0.3891730E+02  0.7546771E-02  0.1531884E+00
          1   -1    0    0  501    0 -0.00000000000E+00  0.00000000000E+00  0.16011792645E+04  0.16011792645E+04  0.00000000000E+00 0. -1.
          2   -1    0    0  502    0  0.00000000000E+00 -0.00000000000E+00 -0.52544088643E+02  0.52544088643E+02  0.00000000000E+00 0. -1.
         25    1    1    2    0    0  0.24581681978E+02 -0.63138252667E+02  0.11458020851E+04  0.11545900209E+04  0.12500000000E+03 0.  0.
          2    1    1    2  501    0 -0.25232811116E+02  0.24390525066E+02  0.44237656752E+03  0.44376640247E+03  0.00000000000E+00 0. -1.
          1    1    1    2  502    0  0.65112913743E+00  0.38747727601E+02 -0.39543476761E+02  0.55366929821E+02  0.00000000000E+00 0. -1.
<mgrwt>
<rscale>  0 0.36956267E+02</rscale>
<asrwt>0</asrwt>
<pdfrwt beam="2">  1        2 0.80837072E-02 0.38917299E+02</pdfrwt>
<pdfrwt beam="1">  1        1 0.24633523E+00 0.35094052E+02</pdfrwt>
<totfact> 0.75011827E+02</totfact>
</mgrwt>
</event>
<event>
 5    1  0.8274494E-003  0.1032480E+03  0.7546771E-02  0.1358528E+00
          2   -1    0    0  502    0  0.00000000000E+00  0.00000000000E+00  0.37481165766E+03  0.37481165766E+03  0.00000000000E+00 0. -1.
          1   -1    0    0  501    0 -0.00000000000E+00 -0.00000000000E+00 -0.17690420287E+03  0.17690420287E+03  0.00000000000E+00 0. -1.
         25    1    1    2    0    0 -0.62639695400E+02  0.95347843075E+01  0.36131588080E+02  0.14472434214E+03  0.12500000000E+03 0.  0.
          2    1    1    2  501    0 -0.47130311864E+02  0.95457425279E+01 -0.10630743854E+03  0.11667758562E+03  0.00000000000E+00 0. -1.
          1    1    1    2  502    0  0.10977000726E+03 -0.19080526835E+02  0.26808330526E+03  0.29031393276E+03  0.00000000000E+00 0. -1.
<mgrwt>
<rscale>  0 0.70462153E+02</rscale>
<asrwt>0</asrwt>
<pdfrwt beam="1">  1        2 0.57663332E-01 0.10324797E+03</pdfrwt>
<pdfrwt beam="2">  1        1 0.27216031E-01 0.48087290E+02</pdfrwt>
<totfact> 0.19260204E+03</totfact>
</mgrwt>
</event>
<event>
 5    1  0.8274494E-003  0.1821572E+03  0.7546771E-02  0.1323541E+00
         -2   -1    0    0    0  501 -0.00000000000E+00  0.00000000000E+00  0.40328100517E+03  0.40328100517E+03  0.00000000000E+00 0.  1.
          2   -1    0    0  502    0  0.00000000000E+00 -0.00000000000E+00 -0.14301040577E+04  0.14301040577E+04  0.00000000000E+00 0. -1.
         25    1    1    2    0    0  0.19841058689E+03  0.15659774104E+02  0.27080287757E+02  0.23658049687E+03  0.12500000000E+03 0.  0.
          1    1    1    2  502    0 -0.21013077852E+02 -0.30320220140E+02 -0.12958822223E+04  0.12964071888E+04  0.00000000000E+00 0. -1.
         -1    1    1    2    0  501 -0.17739750904E+03  0.14660446036E+02  0.24197888199E+03  0.30039737719E+03  0.00000000000E+00 0.  1.
<mgrwt>
<rscale>  0 0.81974165E+02</rscale>
<asrwt>0</asrwt>
<pdfrwt beam="2">  1        2 0.22001601E+00 0.36889906E+02</pdfrwt>
<pdfrwt beam="1">  1       -2 0.62043232E-01 0.18215725E+03</pdfrwt>
<totfact> 0.43721116E+01</totfact>
</mgrwt>
</event>
<event>
 5    1  0.8274494E-003  0.7575133E+02  0.7546771E-02  0.1359484E+00
         -1   -1    0    0    0  501 -0.00000000000E+00  0.00000000000E+00  0.59954342341E+03  0.59954342341E+03  0.00000000000E+00 0.  1.
          1   -1    0    0  502    0  0.00000000000E+00 -0.00000000000E+00 -0.25801325008E+03  0.25801325008E+03  0.00000000000E+00 0. -1.
         25    1    1    2    0    0  0.71935503943E+02 -0.10422352798E+03 -0.62654918461E+02  0.18864755318E+03  0.12500000000E+03 0.  0.
          2    1    1    2  502    0 -0.57266767905E+02  0.30786278883E+02 -0.12156098140E+03  0.13785626527E+03  0.00000000000E+00 0. -1.
         -2    1    1    2    0  501 -0.14668736038E+02  0.73437249097E+02  0.52574607320E+03  0.53105285505E+03  0.00000000000E+00 0.  1.
<mgrwt>
<rscale>  0 0.70179511E+02</rscale>
<asrwt>0</asrwt>
<pdfrwt beam="2">  1        1 0.39694346E-01 0.65017518E+02</pdfrwt>
<pdfrwt beam="1">  1       -1 0.92237449E-01 0.75751334E+02</pdfrwt>
<totfact> 0.13433358E+02</totfact>
</mgrwt>
</event>
<event>
 5    1  0.8274494E-003  0.1423830E+03  0.7546771E-02  0.1218977E+00
          1   -1    0    0  501    0 -0.00000000000E+00  0.00000000000E+00  0.22670830981E+03  0.22670830981E+03  0.00000000000E+00 0. -1.
          2   -1    0    0  502    0  0.00000000000E+00 -0.00000000000E+00 -0.30088493778E+04  0.30088493778E+04  0.00000000000E+00 0. -1.
         25    1    1    2    0    0  0.40312339830E+02 -0.16869305178E+02 -0.11103504870E+03  0.17281041705E+03  0.12500000000E+03 0.  0.
          2    1    1    2  501    0 -0.10972357275E+03 -0.10744888744E+03  0.16364673276E+03  0.22442098603E+03  0.00000000000E+00 0. -1.
          1    1    1    2  502    0  0.69411232922E+02  0.12431819262E+03 -0.28347527520E+04  0.28383262845E+04  0.00000000000E+00 0. -1.
<mgrwt>
<rscale>  0 0.13588427E+03</rscale>
<asrwt>0</asrwt>
<pdfrwt beam="2">  1        2 0.46289987E+00 0.14238305E+03</pdfrwt>
<pdfrwt beam="1">  1        1 0.34878204E-01 0.12968211E+03</pdfrwt>
<totfact> 0.38507744E+01</totfact>
</mgrwt>
</event>
<event>
 5    1  0.8274494E-003  0.7855997E+02  0.7546771E-02  0.1441462E+00
          2   -1    0    0  502    0  0.00000000000E+00  0.00000000000E+00  0.12517410519E+04  0.12517410519E+04  0.00000000000E+00 0. -1.
          1   -1    0    0  501    0 -0.00000000000E+00 -0.00000000000E+00 -0.13335276030E+04  0.13335276030E+04  0.00000000000E+00 0. -1.
         25    1    1    2    0    0  0.44842394165E+02  0.53082529031E+02 -0.68438590490E+03  0.69916926565E+03  0.12500000000E+03 0.  0.
          2    1    1    2  501    0 -0.74065100300E+02 -0.38288235717E+02 -0.63882501894E+03  0.64424299212E+03  0.00000000000E+00 0. -1.
          1    1    1    2  502    0  0.29222706136E+02 -0.14794293314E+02  0.12414243728E+04  0.12418563971E+04  0.00000000000E+00 0. -1.
<mgrwt>
<rscale>  0 0.50726414E+02</rscale>
<asrwt>0</asrwt>
<pdfrwt beam="1">  1        2 0.19257555E+00 0.32754201E+02</pdfrwt>
<pdfrwt beam="2">  1        1 0.20515809E+00 0.78559973E+02</pdfrwt>
<totfact> 0.30460783E+01</totfact>
</mgrwt>
</event>
<event>
 5    1  0.8274494E-003  0.6884468E+02  0.7546771E-02  0.1498059E+00
          2   -1    0    0  502    0  0.00000000000E+00  0.00000000000E+00  0.66496176824E+03  0.66496176824E+03  0.00000000000E+00 0. -1.
         -2   -1    0    0    0  501 -0.00000000000E+00 -0.00000000000E+00 -0.12294156288E+03  0.12294156288E+03  0.00000000000E+00 0.  1.
         25    1    1    2    0    0  0.49604846789E+02  0.78536589496E+01  0.11740973662E+03  0.17869629833E+03  0.12500000000E+03 0.  0.
          1    1    1    2  502    0  0.20831401058E+02 -0.13663122895E+02  0.50302560996E+03  0.50364212738E+03  0.00000000000E+00 0. -1.
         -1    1    1    2    0  501 -0.70436247848E+02  0.58094639454E+01 -0.78415141215E+02  0.10556490541E+03  0.00000000000E+00 0.  1.
<mgrwt>
<rscale>  0 0.41413607E+02</rscale>
<asrwt>0</asrwt>
<pdfrwt beam="1">  1        2 0.10230181E+00 0.24912411E+02</pdfrwt>
<pdfrwt beam="2">  1       -2 0.18914087E-01 0.68844676E+02</pdfrwt>
<totfact> 0.10502610E+03</totfact>
</mgrwt>
</event>
<event>
 5    1  0.8274494E-003  0.6201696E+02  0.7546771E-02  0.1399822E+00
          1   -1    0    0  501    0 -0.00000000000E+00  0.00000000000E+00  0.33539377104E+03  0.33539377104E+03  0.00000000000E+00 0. -1.
          2   -1    0    0  502    0  0.00000000000E+00 -0.00000000000E+00 -0.16369052414E+04  0.16369052414E+04  0.00000000000E+00 0. -1.
         25    1    1    2    0    0  0.57375941998E+02  0.55556084068E+02  0.95403878122E+02  0.17636716576E+03  0.12500000000E+03 0.  0.
          2    1    1    2  501    0 -0.56770592878E+02  0.64836632996E+01  0.19480023272E+03  0.20300755841E+03  0.00000000000E+00 0. -1.
          1    1    1    2  502    0 -0.60534912039E+00 -0.62039747368E+02 -0.15917155812E+04  0.15929242883E+04  0.00000000000E+00 0. -1.
<mgrwt>
<rscale>  0 0.59528366E+02</rscale>
<asrwt>0</asrwt>
<pdfrwt beam="2">  1        2 0.25183157E+00 0.62016957E+02</pdfrwt>
<pdfrwt beam="1">  1        1 0.51599043E-01 0.57139637E+02</pdfrwt>
<totfact> 0.13766823E+02</totfact>
</mgrwt>
</event>
<event>
 5    1  0.8274494E-003  0.5936371E+02  0.7546771E-02  0.1416729E+00
         -2   -1    0    0    0  501 -0.00000000000E+00  0.00000000000E+00  0.24003411020E+02  0.24003411020E+02  0.00000000000E+00 0.  1.
          2   -1    0    0  502    0  0.00000000000E+00 -0.00000000000E+00 -0.23371999074E+04  0.23371999074E+04  0.00000000000E+00 0. -1.
         25    1    1    2    0    0  0.40382236041E+02  0.36969283068E+02 -0.33079824000E+03  0.35784064675E+03  0.12500000000E+03 0.  0.
          1    1    1    2  502    0  0.66083896933E+01 -0.59925382959E+02 -0.19240995049E+04  0.19250437988E+04  0.00000000000E+00 0. -1.
         -1    1    1    2    0  501 -0.46990625735E+02  0.22956099891E+02 -0.58298751411E+02  0.78318872855E+02  0.00000000000E+00 0.  1.
<mgrwt>
<rscale>  0 0.55719070E+02</rscale>
<asrwt>0</asrwt>
<pdfrwt beam="2">  1        2 0.35956926E+00 0.59363706E+02</pdfrwt>
<pdfrwt beam="1">  1       -2 0.36928321E-02 0.52298197E+02</pdfrwt>
<totfact> 0.15510852E+03</totfact>
</mgrwt>
</event>
<event>
 5    1  0.8274494E-003  0.1946100E+03  0.7546771E-02  0.1266097E+00
          1   -1    0    0  501    0 -0.00000000000E+00  0.00000000000E+00  0.33453454097E+03  0.33453454097E+03  0.00000000000E+00 0. -1.
          2   -1    0    0  502    0  0.00000000000E+00 -0.00000000000E+00 -0.26083716007E+03  0.26083716007E+03  0.00000000000E+00 0. -1.
         25    1    1    2    0    0 -0.16139356307E+03  0.85991607946E+02  0.15416028034E+03  0.26987558406E+03  0.12500000000E+03 0.  0.
          2    1    1    2  501    0 -0.34063270723E+02 -0.48057977849E+02  0.58245157724E+02  0.82839447400E+02  0.00000000000E+00 0. -1.
          1    1    1    2  502    0  0.19545683379E+03 -0.37933630097E+02 -0.13870805716E+03  0.24265666958E+03  0.00000000000E+00 0. -1.
<mgrwt>
<rscale>  0 0.10706834E+03</rscale>
<asrwt>0</asrwt>
<pdfrwt beam="2">  1        2 0.40128794E-01 0.19461003E+03</pdfrwt>
<pdfrwt beam="1">  1        1 0.51466852E-01 0.58905650E+02</pdfrwt>
<totfact> 0.13241118E+03</totfact>
</mgrwt>
</event>
<event>
 5    1  0.8274494E-003  0.7176593E+02  0.7546771E-02  0.1360740E+00
          2   -1    0    0  502    0  0.00000000000E+00  0.00000000000E+00  0.38161345045E+03  0.38161345045E+03  0.00000000000E+00 0. -1.
          1   -1    0    0  501    0 -0.00000000000E+00 -0.00000000000E+00 -0.50763353630E+03  0.50763353630E+03  0.00000000000E+00 0. -1.
         25    1    1    2    0    0  0.16111731558E+02  0.32965543042E+01 -0.14549291504E+03  0.19251920291E+03  0.12500000000E+03 0.  0.
          2    1    1    2  501    0 -0.80179382964E+02 -0.25808717041E+02 -0.33007086003E+03  0.34064878683E+03  0.00000000000E+00 0. -1.
          3    1    1    2  502    0  0.64067651406E+02  0.22512162737E+02  0.34954368923E+03  0.35607899700E+03  0.00000000000E+00 0. -1.
<mgrwt>
<rscale>  0 0.69810190E+02</rscale>
<asrwt>0</asrwt>
<pdfrwt beam="1">  1        2 0.58709762E-01 0.67907742E+02</pdfrwt>
<pdfrwt beam="2">  1        1 0.78097466E-01 0.71765934E+02</pdfrwt>
<totfact> 0.52644896E+02</totfact>
</mgrwt>
</event>
<event>
 5    1  0.8274494E-003  0.2719519E+02  0.7546771E-02  0.1686252E+00
          1   -1    0    0  501    0 -0.00000000000E+00  0.00000000000E+00  0.33874213447E+02  0.33874213447E+02  0.00000000000E+00 0. -1.
          2   -1    0    0  502    0  0.00000000000E+00 -0.00000000000E+00 -0.43225535722E+03  0.43225535722E+03  0.00000000000E+00 0. -1.
         25    1    1    2    0    0 -0.34497040848E+01  0.40966896454E+02 -0.14144903351E+03  0.19319165651E+03  0.12500000000E+03 0.  0.
          2    1    1    2  501    0  0.12497752923E+02 -0.15627484250E+02 -0.64635529116E+01  0.21028304933E+02  0.00000000000E+00 0. -1.
          1    1    1    2  502    0 -0.90480488385E+01 -0.25339412203E+02 -0.25046855735E+03  0.25190960923E+03  0.00000000000E+00 0. -1.
<mgrwt>
<rscale>  0 0.23327749E+02</rscale>
<asrwt>0</asrwt>
<pdfrwt beam="2">  1        2 0.66500826E-01 0.27195190E+02</pdfrwt>
<pdfrwt beam="1">  1        1 0.52114173E-02 0.20010300E+02</pdfrwt>
<totfact> 0.12142586E+04</totfact>
</mgrwt>
</event>
<event>
 5    1  0.8274494E-003  0.4466688E+02  0.7546771E-02  0.1500115E+00
          1   -1    0    0  501    0 -0.00000000000E+00  0.00000000000E+00  0.52301631326E+03  0.52301631326E+03  0.00000000000E+00 0. -1.
          2   -1    0    0  502    0  0.00000000000E+00 -0.00000000000E+00 -0.35348173410E+03  0.35348173410E+03  0.00000000000E+00 0. -1.
         25    1    1    2    0    0  0.22886954364E+02 -0.65656188789E+02  0.26332880129E+03  0.29966915990E+03  0.12500000000E+03 0.  0.
          2    1    1    2  501    0  0.10683731260E+02  0.36319125311E+02  0.23853600029E+03  0.24152151956E+03  0.00000000000E+00 0. -1.
          1    1    1    2  502    0 -0.33570685624E+02  0.29337063479E+02 -0.33233022243E+03  0.33530736789E+03  0.00000000000E+00 0. -1.
<mgrwt>
<rscale>  0 0.41121703E+02</rscale>
<asrwt>0</asrwt>
<pdfrwt beam="2">  1        2 0.54381805E-01 0.44666879E+02</pdfrwt>
<pdfrwt beam="1">  1        1 0.80464048E-01 0.37857905E+02</pdfrwt>
<totfact> 0.55638976E+02</totfact>
</mgrwt>
</event>
<event>
 5    1  0.8274494E-003  0.8026165E+02  0.7546771E-02  0.1344456E+00
         -2   -1    0    0    0  501 -0.00000000000E+00  0.00000000000E+00  0.51396234299E+02  0.51396234299E+02  0.00000000000E+00 0.  1.
          2   -1    0    0  502    0  0.00000000000E+00 -0.00000000000E+00 -0.18414227694E+04  0.18414227694E+04  0.00000000000E+00 0. -1.
         25    1    1    2    0    0  0.36148857254E+02  0.12343611608E+03 -0.56963003829E+03  0.59719895777E+03  0.12500000000E+03 0.  0.
          1    1    1    2  502    0  0.14680618734E+02 -0.75699601107E+02 -0.12233968503E+04  0.12258245402E+04  0.00000000000E+00 0. -1.
         -1    1    1    2    0  501 -0.50829475988E+02 -0.47736514976E+02  0.30003534910E+01  0.69795505674E+02  0.00000000000E+00 0.  1.
<mgrwt>
<rscale>  0 0.74811258E+02</rscale>
<asrwt>0</asrwt>
<pdfrwt beam="2">  1        2 0.28329581E+00 0.80261654E+02</pdfrwt>
<pdfrwt beam="1">  1       -2 0.79071130E-02 0.69730987E+02</pdfrwt>
<totfact> 0.88676347E+02</totfact>
</mgrwt>
</event>
<event>
 5    1  0.8274494E-003  0.1341731E+03  0.7546771E-02  0.1233696E+00
          2   -1    0    0  502    0  0.00000000000E+00  0.00000000000E+00  0.44038523128E+04  0.44038523128E+04  0.00000000000E+00 0. -1.
          1   -1    0    0  501    0 -0.00000000000E+00 -0.00000000000E+00 -0.18556446534E+02  0.18556446534E+02  0.00000000000E+00 0. -1.
         25    1    1    2    0    0 -0.93367357596E+02  0.14394653320E+03  0.15552175994E+04  0.15696384454E+04  0.12500000000E+03 0.  0.
          2    1    1    2  501    0 -0.24061951112E+02 -0.13132966413E+03  0.44085123244E+03  0.46062595163E+03  0.00000000000E+00 0. -1.
          1    1    1    2  502    0  0.11742930871E+03 -0.12616869073E+02  0.23892270344E+04  0.23921443622E+04  0.00000000000E+00 0. -1.
<mgrwt>
<rscale>  0 0.12588300E+03</rscale>
<asrwt>0</asrwt>
<pdfrwt beam="1">  1        2 0.67751491E+00 0.11810516E+03</pdfrwt>
<pdfrwt beam="2">  1        1 0.28548414E-02 0.13417305E+03</pdfrwt>
<totfact> 0.11572872E+02</totfact>
</mgrwt>
</event>
<event>
 5    1  0.8274494E-003  0.6947873E+02  0.7546771E-02  0.1374214E+00
          2   -1    0    0  502    0  0.00000000000E+00  0.00000000000E+00  0.48922182326E+04  0.48922182326E+04  0.00000000000E+00 0. -1.
         -2   -1    0    0    0  501 -0.00000000000E+00 -0.00000000000E+00 -0.12940276300E+02  0.12940276300E+02  0.00000000000E+00 0.  1.
         25    1    1    2    0    0 -0.45360811687E+01  0.42628964026E+02  0.29810961163E+04  0.29840236023E+04  0.12500000000E+03 0.  0.
          1    1    1    2  502    0  0.56189979188E+02 -0.78193711241E+02  0.18119667697E+04  0.18145233933E+04  0.00000000000E+00 0. -1.
         -1    1    1    2    0  501 -0.51653898020E+02  0.35564747215E+02  0.86215070374E+02  0.10661151338E+03  0.00000000000E+00 0.  1.
<mgrwt>
<rscale>  0 0.66009473E+02</rscale>
<asrwt>0</asrwt>
<pdfrwt beam="1">  1        2 0.75264748E+00 0.69478728E+02</pdfrwt>
<pdfrwt beam="2">  1       -2 0.19908156E-02 0.62713447E+02</pdfrwt>
<totfact> 0.63205111E+01</totfact>
</mgrwt>
</event>
<event>
 5    1  0.8274494E-003  0.7028947E+02  0.7546771E-02  0.1443008E+00
          1   -1    0    0  501    0 -0.00000000000E+00  0.00000000000E+00  0.12156437009E+04  0.12156437009E+04  0.00000000000E+00 0. -1.
          2   -1    0    0  502    0  0.00000000000E+00 -0.00000000000E+00 -0.24764523629E+02  0.24764523629E+02  0.00000000000E+00 0. -1.
         25    1    1    2    0    0  0.15252645881E+02  0.81408623979E+02  0.54589530412E+03  0.56611543904E+03  0.12500000000E+03 0.  0.
          2    1    1    2  501    0 -0.33222862435E+02 -0.14349088546E+02  0.57351231842E+03  0.57465296859E+03  0.00000000000E+00 0. -1.
          1    1    1    2  502    0  0.17970216554E+02 -0.67059535434E+02  0.71471554743E+02  0.99639816906E+02  0.00000000000E+00 0. -1.
<mgrwt>
<rscale>  0 0.50435269E+02</rscale>
<asrwt>0</asrwt>
<pdfrwt beam="2">  1        2 0.38099277E-02 0.70289466E+02</pdfrwt>
<pdfrwt beam="1">  1        1 0.18702206E+00 0.36189155E+02</pdfrwt>
<totfact> 0.35366445E+03</totfact>
</mgrwt>
</event>
<event>
 5    1  0.8274494E-003  0.5097172E+02  0.7546771E-02  0.1492397E+00
          1   -1    0    0  501    0 -0.00000000000E+00  0.00000000000E+00  0.15690599378E+02  0.15690599378E+02  0.00000000000E+00 0. -1.
          2   -1    0    0  502    0  0.00000000000E+00 -0.00000000000E+00 -0.23571992389E+04  0.23571992389E+04  0.00000000000E+00 0. -1.
         25    1    1    2    0    0  0.23246313772E+02  0.64592973558E+01 -0.10688188614E+04  0.10763739462E+04  0.12500000000E+03 0.  0.
          2    1    1    2  501    0  0.19766669545E+02  0.28873740282E+02 -0.15798836774E+02  0.38392933544E+02  0.00000000000E+00 0. -1.
          1    1    1    2  502    0 -0.43012983317E+02 -0.35333037637E+02 -0.12568909414E+04  0.12581229586E+04  0.00000000000E+00 0. -1.
<mgrwt>
<rscale>  0 0.42232494E+02</rscale>
<asrwt>0</asrwt>
<pdfrwt beam="2">  1        2 0.36264613E+00 0.50971720E+02</pdfrwt>
<pdfrwt beam="1">  1        1 0.24139378E-02 0.34991629E+02</pdfrwt>
<totfact> 0.28829692E+03</totfact>
</mgrwt>
</event>
<event>
 5    1  0.8274494E-003  0.7136396E+02  0.7546771E-02  0.1510413E+00
          1   -1    0    0  501    0 -0.00000000000E+00  0.00000000000E+00  0.12237281841E+04  0.12237281841E+04  0.00000000000E+00 0. -1.
          2   -1    0    0  502    0  0.00000000000E+00 -0.00000000000E+00 -0.63908136450E+02  0.63908136450E+02  0.00000000000E+00 0. -1.
         25    1    1    2    0    0  0.60044624022E+02  0.45941637556E+02  0.35138539483E+03  0.38054262131E+03  0.12500000000E+03 0.  0.
          2    1    1    2  501    0  0.67429499984E+01 -0.21033483457E+02  0.83179052943E+03  0.83208374557E+03  0.00000000000E+00 0. -1.
          1    1    1    2  502    0 -0.66787574021E+02 -0.24908154099E+02 -0.23355876570E+02  0.75009953703E+02  0.00000000000E+00 0. -1.
<mgrwt>
<rscale>  0 0.39702382E+02</rscale>
<asrwt>0</asrwt>
<pdfrwt beam="2">  1        2 0.98320219E-02 0.71363958E+02</pdfrwt>
<pdfrwt beam="1">  1        1 0.18826586E+00 0.22087888E+02</pdfrwt>
<totfact> 0.11112318E+03</totfact>
</mgrwt>
</event>
<event>
 5    1  0.8274494E-003  0.1232206E+03  0.7546771E-02  0.1316239E+00
          2   -1    0    0  502    0  0.00000000000E+00  0.00000000000E+00  0.84503229465E+03  0.84503229465E+03  0.00000000000E+00 0. -1.
         -2   -1    0    0    0  501 -0.00000000000E+00 -0.00000000000E+00 -0.29875835841E+03  0.29875835841E+03  0.00000000000E+00 0.  1.
         25    1    1    2    0    0  0.32799646885E+02 -0.66324191658E+02  0.59427183941E+03  0.61176689543E+03  0.12500000000E+03 0.  0.
          1    1    1    2  502    0  0.53252268595E+02 -0.23510183870E+02  0.22479267299E+03  0.23220740446E+03  0.00000000000E+00 0. -1.
         -1    1    1    2    0  501 -0.86051915480E+02  0.89834375528E+02 -0.27279057616E+03  0.29981635316E+03  0.00000000000E+00 0.  1.
<mgrwt>
<rscale>  0 0.84692435E+02</rscale>
<asrwt>0</asrwt>
<pdfrwt beam="1">  1        2 0.13000497E+00 0.58211106E+02</pdfrwt>
<pdfrwt beam="2">  1       -2 0.45962825E-01 0.12322062E+03</pdfrwt>
<totfact> 0.16145410E+02</totfact>
</mgrwt>
</event>
<event>
 5    1  0.8274494E-003  0.1514193E+03  0.7546771E-02  0.1339008E+00
          2   -1    0    0  502    0  0.00000000000E+00  0.00000000000E+00  0.15507847813E+04  0.15507847813E+04  0.00000000000E+00 0. -1.
         -2   -1    0    0    0  501 -0.00000000000E+00 -0.00000000000E+00 -0.13823441486E+03  0.13823441486E+03  0.00000000000E+00 0.  1.
         25    1    1    2    0    0  0.16298129936E+03 -0.13588061870E+02  0.24720051630E+03  0.32168406027E+03  0.12500000000E+03 0.  0.
          1    1    1    2  502    0 -0.14881091545E+02  0.35771424611E+02  0.12103482411E+04  0.12109681690E+04  0.00000000000E+00 0. -1.
         -1    1    1    2    0  501 -0.14810020782E+03 -0.22183362741E+02 -0.44998390944E+02  0.15636696686E+03  0.00000000000E+00 0.  1.
<mgrwt>
<rscale>  0 0.76592952E+02</rscale>
<asrwt>0</asrwt>
<pdfrwt beam="1">  1        2 0.23858226E+00 0.38743279E+02</pdfrwt>
<pdfrwt beam="2">  1       -2 0.21266834E-01 0.15141930E+03</pdfrwt>
<totfact> 0.28285248E+02</totfact>
</mgrwt>
</event>
<event>
 5    1  0.8274494E-003  0.5166150E+02  0.7546771E-02  0.1460068E+00
          2   -1    0    0  502    0  0.00000000000E+00  0.00000000000E+00  0.21440607368E+04  0.21440607368E+04  0.00000000000E+00 0. -1.
          1   -1    0    0  501    0 -0.00000000000E+00 -0.00000000000E+00 -0.60340057719E+02  0.60340057719E+02  0.00000000000E+00 0. -1.
         25    1    1    2    0    0  0.19569281611E+02  0.12463358256E+02  0.95712603100E+02  0.15913577371E+03  0.12500000000E+03 0.  0.
          2    1    1    2  501    0 -0.17881972302E+02  0.39582670506E+02 -0.11617673046E+02  0.44961350789E+02  0.00000000000E+00 0. -1.
          1    1    1    2  502    0 -0.16873093095E+01 -0.52046028762E+02  0.19996257490E+04  0.20003036700E+04  0.00000000000E+00 0. -1.
<mgrwt>
<rscale>  0 0.47369711E+02</rscale>
<asrwt>0</asrwt>
<pdfrwt beam="1">  1        2 0.32985544E+00 0.51661499E+02</pdfrwt>
<pdfrwt beam="2">  1        1 0.92830875E-02 0.43434465E+02</pdfrwt>
<totfact> 0.64457857E+02</totfact>
</mgrwt>
</event>
<event>
 5    1  0.8274494E-003  0.1331957E+03  0.7546771E-02  0.1291229E+00
          1   -1    0    0  501    0 -0.00000000000E+00  0.00000000000E+00  0.11962898856E+04  0.11962898856E+04  0.00000000000E+00 0. -1.
          2   -1    0    0  502    0  0.00000000000E+00 -0.00000000000E+00 -0.61493381397E+03  0.61493381397E+03  0.00000000000E+00 0. -1.
         25    1    1    2    0    0 -0.69106777600E+02 -0.67934624156E+02 -0.32862072664E+03  0.36470185336E+03  0.12500000000E+03 0.  0.
          2    1    1    2  501    0  0.12880280448E+03  0.35951344075E+02  0.11701052830E+04  0.11777219684E+04  0.00000000000E+00 0. -1.
          1    1    1    2  502    0 -0.59696026879E+02  0.31983280081E+02 -0.26012848465E+03  0.26879987789E+03  0.00000000000E+00 0. -1.
<mgrwt>
<rscale>  0 0.94976574E+02</rscale>
<asrwt>0</asrwt>
<pdfrwt beam="2">  1        2 0.94605202E-01 0.67724042E+02</pdfrwt>
<pdfrwt beam="1">  1        1 0.18404460E+00 0.13319568E+03</pdfrwt>
<totfact> 0.84456169E+01</totfact>
</mgrwt>
</event>
<event>
 5    1  0.8274494E-003  0.8603569E+02  0.7546771E-02  0.1337838E+00
         -2   -1    0    0    0  501 -0.00000000000E+00  0.00000000000E+00  0.41887903498E+02  0.41887903498E+02  0.00000000000E+00 0.  1.
          2   -1    0    0  502    0  0.00000000000E+00 -0.00000000000E+00 -0.14755489581E+04  0.14755489581E+04  0.00000000000E+00 0. -1.
         25    1    1    2    0    0 -0.13230570804E+02 -0.31838972126E+02 -0.48803523990E+03  0.50496748760E+03  0.12500000000E+03 0.  0.
          1    1    1    2  502    0  0.36304650607E+02  0.96742504817E+02 -0.93742166986E+03  0.94309942584E+03  0.00000000000E+00 0. -1.
         -1    1    1    2    0  501 -0.23074079803E+02 -0.64903532691E+02 -0.82041448395E+01  0.69369948155E+02  0.00000000000E+00 0.  1.
<mgrwt>
<rscale>  0 0.76983147E+02</rscale>
<asrwt>0</asrwt>
<pdfrwt beam="2">  1        2 0.22700753E+00 0.86035686E+02</pdfrwt>
<pdfrwt beam="1">  1       -2 0.64442929E-02 0.68883102E+02</pdfrwt>
<totfact> 0.18288747E+03</totfact>
</mgrwt>
</event>
<event>
 5    1  0.8274494E-003  0.7047191E+02  0.7546771E-02  0.1391111E+00
          2   -1    0    0  502    0  0.00000000000E+00  0.00000000000E+00  0.34916405048E+03  0.34916405048E+03  0.00000000000E+00 0. -1.
         -2   -1    0    0    0  501 -0.00000000000E+00 -0.00000000000E+00 -0.10887211408E+03  0.10887211408E+03  0.00000000000E+00 0.  1.
         25    1    1    2    0    0  0.42860655702E+02  0.99308268397E+01  0.81989742580E+02  0.15582995546E+03  0.12500000000E+03 0.  0.
          1    1    1    2  502    0 -0.67277229698E+02  0.38121411786E+02  0.21227991407E+03  0.22592527435E+03  0.00000000000E+00 0. -1.
         -1    1    1    2    0  501  0.24416573996E+02 -0.48052238626E+02 -0.53977720251E+02  0.76280934749E+02  0.00000000000E+00 0.  1.
<mgrwt>
<rscale>  0 0.61631328E+02</rscale>
<asrwt>0</asrwt>
<pdfrwt beam="1">  1        2 0.53717546E-01 0.70471907E+02</pdfrwt>
<pdfrwt beam="2">  1       -2 0.16749556E-01 0.53899784E+02</pdfrwt>
<totfact> 0.24523812E+03</totfact>
</mgrwt>
</event>
<event>
 5    1  0.8274494E-003  0.5522100E+02  0.7546771E-02  0.1448125E+00
         -1   -1    0    0    0  501 -0.00000000000E+00  0.00000000000E+00  0.11600424249E+03  0.11600424249E+03  0.00000000000E+00 0.  1.
          1   -1    0    0  502    0  0.00000000000E+00 -0.00000000000E+00 -0.59317235424E+03  0.59317235424E+03  0.00000000000E+00 0. -1.
         25    1    1    2    0    0 -0.63395724585E+01  0.98493178027E+02 -0.46687213666E+01  0.15933578774E+03  0.12500000000E+03 0.  0.
          2    1    1    2  502    0  0.21112776146E+01 -0.54345716469E+02 -0.49646168613E+03  0.49943179733E+03  0.00000000000E+00 0. -1.
         -2    1    1    2    0  501  0.42282948439E+01 -0.44147461558E+02  0.23962295744E+02  0.50409011661E+02  0.00000000000E+00 0.  1.
<mgrwt>
<rscale>  0 0.49487603E+02</rscale>
<asrwt>0</asrwt>
<pdfrwt beam="2">  1        1 0.91257285E-01 0.55220999E+02</pdfrwt>
<pdfrwt beam="1">  1       -1 0.17846807E-01 0.44349485E+02</pdfrwt>
<totfact> 0.85142179E+02</totfact>
</mgrwt>
</event>
<event>
 5    1  0.8274494E-003  0.5171084E+02  0.7546771E-02  0.1474416E+00
          1   -1    0    0  501    0 -0.00000000000E+00  0.00000000000E+00  0.30700684420E+02  0.30700684420E+02  0.00000000000E+00 0. -1.
          2   -1    0    0  502    0  0.00000000000E+00 -0.00000000000E+00 -0.88615485873E+03  0.88615485873E+03  0.00000000000E+00 0. -1.
         25    1    1    2    0    0 -0.99158624651E+01  0.25527994774E+02 -0.24126434948E+03  0.27309977879E+03  0.12500000000E+03 0.  0.
          2    1    1    2  501    0  0.30486941234E+02  0.24544540935E+02 -0.14672120508E+02  0.41799033431E+02  0.00000000000E+00 0. -1.
          1    1    1    2  502    0 -0.20571078769E+02 -0.50072535709E+02 -0.59951770433E+03  0.60195673093E+03  0.00000000000E+00 0. -1.
<mgrwt>
<rscale>  0 0.44988091E+02</rscale>
<asrwt>0</asrwt>
<pdfrwt beam="2">  1        2 0.13633152E+00 0.51710843E+02</pdfrwt>
<pdfrwt beam="1">  1        1 0.47231820E-02 0.39139342E+02</pdfrwt>
<totfact> 0.67608786E+03</totfact>
</mgrwt>
</event>
<event>
 5    1  0.8282622E-003  0.6450456E+02  0.7546771E-02  0.1451338E+00
          2   -1    0    0  502    0  0.00000000000E+00  0.00000000000E+00  0.56333929558E+03  0.56333929558E+03  0.00000000000E+00 0. -1.
          1   -1    0    0  501    0 -0.00000000000E+00 -0.00000000000E+00 -0.12013644718E+04  0.12013644718E+04  0.00000000000E+00 0. -1.
         25    1    1    2    0    0  0.42864807694E+02  0.85603648946E+02 -0.45371648372E+03  0.48025933000E+03  0.12500000000E+03 0.  0.
          2    1    1    2  501    0 -0.54398184800E+00 -0.37074234790E+02 -0.73202135290E+03  0.73295979146E+03  0.00000000000E+00 0. -1.
          1    1    1    2  502    0 -0.42320825846E+02 -0.48529414155E+02  0.54771266039E+03  0.55148464592E+03  0.00000000000E+00 0. -1.
<mgrwt>
<rscale>  0 0.48905158E+02</rscale>
<asrwt>0</asrwt>
<pdfrwt beam="1">  1        2 0.86667585E-01 0.64504557E+02</pdfrwt>
<pdfrwt beam="2">  1        1 0.18482530E+00 0.37078225E+02</pdfrwt>
<totfact> 0.10232895E+02</totfact>
</mgrwt>
</event>
<event>
 5    1  0.8274494E-003  0.6153532E+02  0.7546771E-02  0.1464813E+00
          1   -1    0    0  501    0 -0.00000000000E+00  0.00000000000E+00  0.66890545944E+03  0.66890545944E+03  0.00000000000E+00 0. -1.
          2   -1    0    0  502    0  0.00000000000E+00 -0.00000000000E+00 -0.10140793639E+03  0.10140793639E+03  0.00000000000E+00 0. -1.
         25    1    1    2    0    0 -0.40188419415E+02 -0.27218171976E+02  0.80799166522E+02  0.15655492088E+03  0.12500000000E+03 0.  0.
          2    1    1    2  501    0  0.23184002274E+02  0.58076978974E+02  0.54340826228E+03  0.54699449079E+03  0.00000000000E+00 0. -1.
          1    1    1    2  502    0  0.17004417141E+02 -0.30858806997E+02 -0.56709905744E+02  0.66763984161E+02  0.00000000000E+00 0. -1.
<mgrwt>
<rscale>  0 0.46563067E+02</rscale>
<asrwt>0</asrwt>
<pdfrwt beam="2">  1        2 0.15601221E-01 0.35233736E+02</pdfrwt>
<pdfrwt beam="1">  1        1 0.10290853E+00 0.61535319E+02</pdfrwt>
<totfact> 0.14609541E+03</totfact>
</mgrwt>
</event>
<event>
 5    1  0.8274494E-003  0.5728050E+02  0.7546771E-02  0.1537219E+00
          2   -1    0    0  502    0  0.00000000000E+00  0.00000000000E+00  0.34654861262E+03  0.34654861262E+03  0.00000000000E+00 0. -1.
          1   -1    0    0  501    0 -0.00000000000E+00 -0.00000000000E+00 -0.14548268091E+03  0.14548268091E+03  0.00000000000E+00 0. -1.
         25    1    1    2    0    0 -0.36998245992E+02  0.81450480557E+01 -0.39705327195E+00  0.13061535004E+03  0.12500000000E+03 0.  0.
          2    1    1    2  501    0  0.59970410955E+02 -0.96883307376E+01 -0.67878438168E+02  0.91092240672E+02  0.00000000000E+00 0. -1.
          3    1    1    2  502    0 -0.22972164963E+02  0.15432826818E+01  0.26934142315E+03  0.27032370283E+03  0.00000000000E+00 0. -1.
<mgrwt>
<rscale>  0 0.36315604E+02</rscale>
<asrwt>0</asrwt>
<pdfrwt beam="1">  1        2 0.53315171E-01 0.23023946E+02</pdfrwt>
<pdfrwt beam="2">  1        1 0.22381951E-01 0.57280499E+02</pdfrwt>
<totfact> 0.26454625E+03</totfact>
</mgrwt>
</event>
<event>
 5    1  0.8274494E-003  0.1175423E+03  0.7546771E-02  0.1260560E+00
          1   -1    0    0  501    0 -0.00000000000E+00  0.00000000000E+00  0.16080685169E+03  0.16080685169E+03  0.00000000000E+00 0. -1.
          2   -1    0    0  502    0  0.00000000000E+00 -0.00000000000E+00 -0.44520651535E+04  0.44520651535E+04  0.00000000000E+00 0. -1.
         25    1    1    2    0    0 -0.11757954179E+02  0.24141251426E+02 -0.18371198804E+03  0.22382167915E+03  0.12500000000E+03 0.  0.
          2    1    1    2  501    0 -0.10011860066E+03  0.23986685553E+02  0.12093139962E+03  0.15881907535E+03  0.00000000000E+00 0. -1.
          1    1    1    2  502    0  0.11187655483E+03 -0.48127936979E+02 -0.42284777133E+04  0.42302312507E+04  0.00000000000E+00 0. -1.
<mgrwt>
<rscale>  0 0.11000548E+03</rscale>
<asrwt>0</asrwt>
<pdfrwt beam="2">  1        2 0.68493313E+00 0.11754231E+03</pdfrwt>
<pdfrwt beam="1">  1        1 0.24739515E-01 0.10295191E+03</pdfrwt>
<totfact> 0.58966010E+00</totfact>
</mgrwt>
</event>
<event>
 5    1  0.8274494E-003  0.1731940E+03  0.7546771E-02  0.1250312E+00
          1   -1    0    0  501    0 -0.00000000000E+00  0.00000000000E+00  0.72073857270E+03  0.72073857270E+03  0.00000000000E+00 0. -1.
          2   -1    0    0  502    0  0.00000000000E+00 -0.00000000000E+00 -0.67380454003E+03  0.67380454003E+03  0.00000000000E+00 0. -1.
         25    1    1    2    0    0  0.81486173099E+02 -0.14832655682E+03 -0.38375970366E+02  0.21386556283E+03  0.12500000000E+03 0.  0.
          2    1    1    2  501    0 -0.72223098848E+02 -0.27642568859E+02  0.61634096568E+03  0.62117346498E+03  0.00000000000E+00 0. -1.
          3    1    1    2  502    0 -0.92630742508E+01  0.17596912568E+03 -0.53103096265E+03  0.55950408491E+03  0.00000000000E+00 0. -1.
<mgrwt>
<rscale>  0 0.11573028E+03</rscale>
<asrwt>0</asrwt>
<pdfrwt beam="2">  1        2 0.10366224E+00 0.17319404E+03</pdfrwt>
<pdfrwt beam="1">  1        1 0.11088286E+00 0.77332319E+02</pdfrwt>
<totfact> 0.17375301E+02</totfact>
</mgrwt>
</event>
<event>
 5    1  0.8274494E-003  0.4695087E+02  0.7546771E-02  0.1511483E+00
          2   -1    0    0  502    0  0.00000000000E+00  0.00000000000E+00  0.27629835629E+02  0.27629835629E+02  0.00000000000E+00 0. -1.
          1   -1    0    0  501    0 -0.00000000000E+00 -0.00000000000E+00 -0.43629905418E+03  0.43629905418E+03  0.00000000000E+00 0. -1.
         25    1    1    2    0    0 -0.49814754541E+02 -0.59734552582E+01 -0.23538684188E+03  0.27119947873E+03  0.12500000000E+03 0.  0.
          2    1    1    2  501    0  0.86553174649E+01  0.32187316984E+02 -0.92854664342E+02  0.98655595813E+02  0.00000000000E+00 0. -1.
          1    1    1    2  502    0  0.41159437076E+02 -0.26213861726E+02 -0.80427712333E+02  0.94073815263E+02  0.00000000000E+00 0. -1.
<mgrwt>
<rscale>  0 0.39558904E+02</rscale>
<asrwt>0</asrwt>
<pdfrwt beam="1">  1        2 0.42507440E-02 0.46950868E+02</pdfrwt>
<pdfrwt beam="2">  1        1 0.67122930E-01 0.33330735E+02</pdfrwt>
<totfact> 0.12480341E+04</totfact>
</mgrwt>
</event>
<event>
 5    1  0.8274494E-003  0.9663158E+02  0.7546771E-02  0.1300427E+00
         -2   -1    0    0    0  501 -0.00000000000E+00  0.00000000000E+00  0.91458730260E+03  0.91458730260E+03  0.00000000000E+00 0.  1.
          2   -1    0    0  502    0  0.00000000000E+00 -0.00000000000E+00 -0.23364802951E+03  0.23364802951E+03  0.00000000000E+00 0. -1.
         25    1    1    2    0    0  0.98086912495E+02  0.10490064120E+03  0.26960527869E+03  0.33005634856E+03  0.12500000000E+03 0.  0.
          1    1    1    2  502    0 -0.84842446459E+02 -0.12186266797E+02 -0.19060877296E+03  0.20899389979E+03  0.00000000000E+00 0. -1.
         -1    1    1    2    0  501 -0.13244466035E+02 -0.92714374405E+02  0.60194276736E+03  0.60918508376E+03  0.00000000000E+00 0.  1.
<mgrwt>
<rscale>  0 0.91008779E+02</rscale>
<asrwt>0</asrwt>
<pdfrwt beam="2">  1        2 0.35945851E-01 0.85713160E+02</pdfrwt>
<pdfrwt beam="1">  1       -2 0.14070574E+00 0.96631578E+02</pdfrwt>
<totfact> 0.55837151E+01</totfact>
</mgrwt>
</event>
<event>
 5    1  0.8274494E-003  0.9147302E+02  0.7546771E-02  0.1415468E+00
          1   -1    0    0  501    0 -0.00000000000E+00  0.00000000000E+00  0.89551300854E+02  0.89551300854E+02  0.00000000000E+00 0. -1.
          2   -1    0    0  502    0  0.00000000000E+00 -0.00000000000E+00 -0.20304894222E+04  0.20304894222E+04  0.00000000000E+00 0. -1.
         25    1    1    2    0    0 -0.11811751918E+03 -0.27385334641E+01 -0.22534402962E+03  0.28348576611E+03  0.12500000000E+03 0.  0.
          2    1    1    2  501    0  0.87381433198E+02 -0.12424621531E+02  0.28022095819E+02  0.92601965109E+02  0.00000000000E+00 0. -1.
          3    1    1    2  502    0  0.30736085982E+02  0.15163154995E+02 -0.17436161875E+04  0.17439529918E+04  0.00000000000E+00 0. -1.
<mgrwt>
<rscale>  0 0.55991438E+02</rscale>
<asrwt>0</asrwt>
<pdfrwt beam="2">  1        2 0.31238297E+00 0.34272850E+02</pdfrwt>
<pdfrwt beam="1">  1        1 0.13777124E-01 0.91473022E+02</pdfrwt>
<totfact> 0.48735426E+02</totfact>
</mgrwt>
</event>
<event>
 5    1  0.8274494E-003  0.2468187E+03  0.7546771E-02  0.1276064E+00
          2   -1    0    0  502    0  0.00000000000E+00  0.00000000000E+00  0.18547817625E+04  0.18547817625E+04  0.00000000000E+00 0. -1.
         -2   -1    0    0    0  501 -0.00000000000E+00 -0.00000000000E+00 -0.48048203241E+03  0.48048203241E+03  0.00000000000E+00 0.  1.
         25    1    1    2    0    0 -0.24501175364E+03  0.72969902056E+02 -0.15410706977E+03  0.32361915113E+03  0.12500000000E+03 0.  0.
          1    1    1    2  502    0  0.22166391433E+03 -0.10810506128E+03  0.17595166632E+04  0.17767162079E+04  0.00000000000E+00 0. -1.
         -1    1    1    2    0  501  0.23347839312E+02  0.35135159224E+02 -0.23110986340E+03  0.23492843586E+03  0.00000000000E+00 0.  1.
<mgrwt>
<rscale>  0 0.10203982E+03</rscale>
<asrwt>0</asrwt>
<pdfrwt beam="1">  1        2 0.28535104E+00 0.24681867E+03</pdfrwt>
<pdfrwt beam="2">  1       -2 0.73920314E-01 0.42185318E+02</pdfrwt>
<totfact> 0.15829042E+01</totfact>
</mgrwt>
</event>
<event>
 5    1  0.8274494E-003  0.1140238E+03  0.7546771E-02  0.1301230E+00
          2   -1    0    0  502    0  0.00000000000E+00  0.00000000000E+00  0.76633729108E+03  0.76633729108E+03  0.00000000000E+00 0. -1.
          1   -1    0    0  501    0 -0.00000000000E+00 -0.00000000000E+00 -0.39977772607E+03  0.39977772607E+03  0.00000000000E+00 0. -1.
         25    1    1    2    0    0 -0.56777032880E+02  0.66657227787E+02  0.33848435865E+03  0.37129971523E+03  0.12500000000E+03 0.  0.
          2    1    1    2  501    0  0.11309047358E+03 -0.21625944960E+02 -0.37142413343E+03  0.38886118809E+03  0.00000000000E+00 0. -1.
          1    1    1    2  502    0 -0.56313440696E+02 -0.45031282827E+02  0.39949933980E+03  0.40595411383E+03  0.00000000000E+00 0. -1.
<mgrwt>
<rscale>  0 0.90673023E+02</rscale>
<asrwt>0</asrwt>
<pdfrwt beam="1">  1        2 0.11789804E+00 0.72104230E+02</pdfrwt>
<pdfrwt beam="2">  1        1 0.61504266E-01 0.11402378E+03</pdfrwt>
<totfact> 0.32912818E+02</totfact>
</mgrwt>
</event>
<event>
 5    1  0.8274494E-003  0.4001312E+02  0.7546771E-02  0.1572475E+00
          2   -1    0    0  502    0  0.00000000000E+00  0.00000000000E+00  0.35696352504E+02  0.35696352504E+02  0.00000000000E+00 0. -1.
          1   -1    0    0  501    0 -0.00000000000E+00 -0.00000000000E+00 -0.25029128443E+04  0.25029128443E+04  0.00000000000E+00 0. -1.
         25    1    1    2    0    0 -0.24583106514E+02 -0.50834674060E+02 -0.30444761081E+03  0.33391891372E+03  0.12500000000E+03 0.  0.
          2    1    1    2  501    0  0.65887059367E+00  0.39867478094E+02 -0.21752129548E+04  0.21755783710E+04  0.00000000000E+00 0. -1.
          1    1    1    2  502    0  0.23924235920E+02  0.10967195966E+02  0.12444073772E+02  0.29111912059E+02  0.00000000000E+00 0. -1.
<mgrwt>
<rscale>  0 0.32451100E+02</rscale>
<asrwt>0</asrwt>
<pdfrwt beam="1">  1        2 0.54917467E-02 0.26318215E+02</pdfrwt>
<pdfrwt beam="2">  1        1 0.38506350E+00 0.40013119E+02</pdfrwt>
<totfact> 0.31883487E+02</totfact>
</mgrwt>
</event>
<event>
 5    1  0.8274494E-003  0.5063257E+02  0.7546771E-02  0.1474832E+00
          2   -1    0    0  502    0  0.00000000000E+00  0.00000000000E+00  0.24668538256E+04  0.24668538256E+04  0.00000000000E+00 0. -1.
          1   -1    0    0  501    0 -0.00000000000E+00 -0.00000000000E+00 -0.13519045419E+03  0.13519045419E+03  0.00000000000E+00 0. -1.
         25    1    1    2    0    0  0.65322224836E+02  0.48746413659E+02  0.16738300649E+04  0.16804687716E+04  0.12500000000E+03 0.  0.
          2    1    1    2  501    0 -0.49022639643E+02 -0.12377333237E+02 -0.12650004293E+03  0.13623024054E+03  0.00000000000E+00 0. -1.
          1    1    1    2  502    0 -0.16299585192E+02 -0.36369080423E+02  0.78433334942E+03  0.78534526770E+03  0.00000000000E+00 0. -1.
<mgrwt>
<rscale>  0 0.44921478E+02</rscale>
<asrwt>0</asrwt>
<pdfrwt beam="1">  1        2 0.37951594E+00 0.39854567E+02</pdfrwt>
<pdfrwt beam="2">  1        1 0.20798533E-01 0.50632572E+02</pdfrwt>
<totfact> 0.16940178E+02</totfact>
</mgrwt>
</event>
<event>
 5    1  0.8274494E-003  0.1060653E+03  0.7546771E-02  0.1350537E+00
          2   -1    0    0  502    0  0.00000000000E+00  0.00000000000E+00  0.21493783602E+02  0.21493783602E+02  0.00000000000E+00 0. -1.
         -2   -1    0    0    0  501 -0.00000000000E+00 -0.00000000000E+00 -0.13203728540E+04  0.13203728540E+04  0.00000000000E+00 0.  1.
         25    1    1    2    0    0  0.23701332203E+02 -0.11942373314E+03 -0.53682040391E+03  0.56446871236E+03  0.12500000000E+03 0.  0.
          1    1    1    2  502    0  0.35363111809E+02  0.35473635489E+02 -0.29170384291E+03  0.29597307388E+03  0.00000000000E+00 0. -1.
         -1    1    1    2    0  501 -0.59064444012E+02  0.83950097655E+02 -0.47035482355E+03  0.48142485133E+03  0.00000000000E+00 0.  1.
<mgrwt>
<rscale>  0 0.72888458E+02</rscale>
<asrwt>0</asrwt>
<pdfrwt beam="1">  1        2 0.33067353E-02 0.50089205E+02</pdfrwt>
<pdfrwt beam="2">  1       -2 0.20313433E+00 0.10606531E+03</pdfrwt>
<totfact> 0.33857503E+02</totfact>
</mgrwt>
</event>
<event>
 5    1  0.8274494E-003  0.4191043E+02  0.7546771E-02  0.1534569E+00
          2   -1    0    0  502    0  0.00000000000E+00  0.00000000000E+00  0.13566827149E+04  0.13566827149E+04  0.00000000000E+00 0. -1.
         -2   -1    0    0    0  501 -0.00000000000E+00 -0.00000000000E+00 -0.11242815856E+02  0.11242815856E+02  0.00000000000E+00 0.  1.
         25    1    1    2    0    0  0.60053696195E+02 -0.28104406549E+01  0.64829421984E+03  0.66296662094E+03  0.12500000000E+03 0.  0.
          1    1    1    2  502    0 -0.36356627277E+02 -0.18721030283E+02  0.62113836694E+03  0.62248305375E+03  0.00000000000E+00 0. -1.
         -1    1    1    2    0  501 -0.23697068918E+02  0.21531470938E+02  0.76007312261E+02  0.82475856062E+02  0.00000000000E+00 0.  1.
<mgrwt>
<rscale>  0 0.36631819E+02</rscale>
<asrwt>0</asrwt>
<pdfrwt beam="1">  1        2 0.20872029E+00 0.41910431E+02</pdfrwt>
<pdfrwt beam="2">  1       -2 0.17296651E-02 0.32018047E+02</pdfrwt>
<totfact> 0.13211469E+04</totfact>
</mgrwt>
</event>
<event>
 5    1  0.8274494E-003  0.4784468E+02  0.7546771E-02  0.1486711E+00
         -1   -1    0    0    0  501 -0.00000000000E+00  0.00000000000E+00  0.72599444957E+02  0.72599444957E+02  0.00000000000E+00 0.  1.
          1   -1    0    0  502    0  0.00000000000E+00 -0.00000000000E+00 -0.46744485377E+03  0.46744485377E+03  0.00000000000E+00 0. -1.
         25    1    1    2    0    0 -0.81701364805E+02 -0.20923531859E+02 -0.26515783614E+03  0.30503538363E+03  0.12500000000E+03 0.  0.
          2    1    1    2  502    0  0.35504428078E+02  0.15613424634E+02 -0.16944588192E+03  0.17382822079E+03  0.00000000000E+00 0. -1.
         -2    1    1    2    0  501  0.46196936728E+02  0.53101072249E+01  0.39758309253E+02  0.61180694311E+02  0.00000000000E+00 0.  1.
<mgrwt>
<rscale>  0 0.43077808E+02</rscale>
<asrwt>0</asrwt>
<pdfrwt beam="2">  1        1 0.71914594E-01 0.38785867E+02</pdfrwt>
<pdfrwt beam="1">  1       -1 0.11169145E-01 0.47844684E+02</pdfrwt>
<totfact> 0.23693023E+03</totfact>
</mgrwt>
</event>
<event>
 5    1  0.8274494E-003  0.4771010E+02  0.7546771E-02  0.1557411E+00
          2   -1    0    0  502    0  0.00000000000E+00  0.00000000000E+00  0.21380310673E+04  0.21380310673E+04  0.00000000000E+00 0. -1.
          1   -1    0    0  501    0 -0.00000000000E+00 -0.00000000000E+00 -0.97157521757E+03  0.97157521757E+03  0.00000000000E+00 0. -1.
         25    1    1    2    0    0 -0.42770531241E+02  0.43655749287E+02  0.93504746882E+03  0.94534327720E+03  0.12500000000E+03 0.  0.
          2    1    1    2  501    0  0.12435890525E+00 -0.24268490870E+02 -0.96581679749E+03  0.96612165975E+03  0.00000000000E+00 0. -1.
          1    1    1    2  502    0  0.42646172336E+02 -0.19387258418E+02  0.11972251784E+04  0.11981413479E+04  0.00000000000E+00 0. -1.
<mgrwt>
<rscale>  0 0.34027449E+02</rscale>
<asrwt>0</asrwt>
<pdfrwt beam="1">  1        2 0.32892786E+00 0.47710098E+02</pdfrwt>
<pdfrwt beam="2">  1        1 0.14947311E+00 0.24268809E+02</pdfrwt>
<totfact> 0.20718425E+01</totfact>
</mgrwt>
</event>
<event>
 5    1  0.8274494E-003  0.4231667E+02  0.7546771E-02  0.1521488E+00
          3   -1    0    0  501    0 -0.00000000000E+00  0.00000000000E+00  0.23519859590E+02  0.23519859590E+02  0.00000000000E+00 0. -1.
          2   -1    0    0  502    0  0.00000000000E+00 -0.00000000000E+00 -0.10852675342E+04  0.10852675342E+04  0.00000000000E+00 0. -1.
         25    1    1    2    0    0  0.64231508679E+02  0.32333814815E+02 -0.54968001192E+03  0.56828186474E+03  0.12500000000E+03 0.  0.
          2    1    1    2  501    0 -0.25229628693E+02 -0.23643344545E+02 -0.88330993902E+01  0.35687050174E+02  0.00000000000E+00 0. -1.
          1    1    1    2  502    0 -0.39001879985E+02 -0.86904702702E+01 -0.50323456335E+03  0.50481847892E+03  0.00000000000E+00 0. -1.
<mgrwt>
<rscale>  0 0.38251367E+02</rscale>
<asrwt>0</asrwt>
<pdfrwt beam="2">  1        2 0.16696423E+00 0.42316673E+02</pdfrwt>
<pdfrwt beam="1">  1        3 0.36184400E-02 0.34576609E+02</pdfrwt>
<totfact> 0.45207764E+03</totfact>
</mgrwt>
</event>
<event>
 5    1  0.8274494E-003  0.8561319E+02  0.7546771E-02  0.1402470E+00
          1   -1    0    0  501    0 -0.00000000000E+00  0.00000000000E+00  0.45965700962E+03  0.45965700962E+03  0.00000000000E+00 0. -1.
          2   -1    0    0  502    0  0.00000000000E+00 -0.00000000000E+00 -0.15611666390E+04  0.15611666390E+04  0.00000000000E+00 0. -1.
         25    1    1    2    0    0  0.95635592782E+02 -0.52794047647E+02 -0.15330915114E+03  0.22596918793E+03  0.12500000000E+03 0.  0.
          2    1    1    2  501    0 -0.11829260407E+02  0.38769094320E+02  0.42103666621E+03  0.42298327197E+03  0.00000000000E+00 0. -1.
          1    1    1    2  502    0 -0.83806332375E+02  0.14024953327E+02 -0.13692371445E+04  0.13718711887E+04  0.00000000000E+00 0. -1.
<mgrwt>
<rscale>  0 0.58908506E+02</rscale>
<asrwt>0</asrwt>
<pdfrwt beam="2">  1        2 0.24017948E+00 0.85613186E+02</pdfrwt>
<pdfrwt beam="1">  1        1 0.70716462E-01 0.40533617E+02</pdfrwt>
<totfact> 0.99948773E+01</totfact>
</mgrwt>
</event>
<event>
 5    1  0.8274494E-003  0.2432977E+02  0.7546771E-02  0.1700380E+00
         -2   -1    0    0    0  501 -0.00000000000E+00  0.00000000000E+00  0.73102481804E+01  0.73102481804E+01  0.00000000000E+00 0.  1.
          2   -1    0    0  502    0  0.00000000000E+00 -0.00000000000E+00 -0.12973927151E+04  0.12973927151E+04  0.00000000000E+00 0. -1.
         25    1    1    2    0    0 -0.66900654440E+01 -0.66611910630E+01 -0.71178318211E+03  0.72273745356E+03  0.12500000000E+03 0.  0.
          1    1    1    2  502    0 -0.20254008586E+02  0.44534646166E+01 -0.46587984059E+03  0.46634116705E+03  0.00000000000E+00 0. -1.
         -1    1    1    2    0  501  0.26944074030E+02  0.22077264463E+01 -0.11241944425E+03  0.11562434271E+03  0.00000000000E+00 0.  1.
<mgrwt>
<rscale>  0 0.22462125E+02</rscale>
<asrwt>0</asrwt>
<pdfrwt beam="2">  1        2 0.19959866E+00 0.20737845E+02</pdfrwt>
<pdfrwt beam="1">  1       -2 0.11246548E-02 0.24329772E+02</pdfrwt>
<totfact> 0.25514938E+04</totfact>
</mgrwt>
</event>
<event>
 5    1  0.8274494E-003  0.2071477E+03  0.7546771E-02  0.1197617E+00
         -1   -1    0    0    0  501 -0.00000000000E+00  0.00000000000E+00  0.10659719833E+04  0.10659719833E+04  0.00000000000E+00 0.  1.
          1   -1    0    0  502    0  0.00000000000E+00 -0.00000000000E+00 -0.23808138740E+04  0.23808138740E+04  0.00000000000E+00 0. -1.
         25    1    1    2    0    0 -0.89620234968E+02  0.26595213331E+03  0.10014125697E+03  0.32313402030E+03  0.12500000000E+03 0.  0.
          2    1    1    2  502    0 -0.49272780715E+01 -0.20582754959E+03 -0.22609461519E+04  0.22703010285E+04  0.00000000000E+00 0. -1.
         -2    1    1    2    0  501  0.94547513039E+02 -0.60124583728E+02  0.84596300423E+03  0.85335080847E+03  0.00000000000E+00 0.  1.
<mgrwt>
<rscale>  0 0.15234819E+03</rscale>
<asrwt>0</asrwt>
<pdfrwt beam="2">  1        1 0.36627906E+00 0.20714770E+03</pdfrwt>
<pdfrwt beam="1">  1       -1 0.16399569E+00 0.11204552E+03</pdfrwt>
<totfact> 0.63572926E-01</totfact>
</mgrwt>
</event>
<event>
 5    1  0.8274494E-003  0.6724310E+02  0.7546771E-02  0.1400191E+00
          2   -1    0    0  502    0  0.00000000000E+00  0.00000000000E+00  0.16802076898E+03  0.16802076898E+03  0.00000000000E+00 0. -1.
          1   -1    0    0  501    0 -0.00000000000E+00 -0.00000000000E+00 -0.22356557323E+04  0.22356557323E+04  0.00000000000E+00 0. -1.
         25    1    1    2    0    0  0.72573205299E+02  0.38915743972E+02 -0.98536646465E+03  0.99667114682E+03  0.12500000000E+03 0.  0.
          2    1    1    2  501    0 -0.25545117660E+02 -0.62353460408E+02 -0.12394465881E+04  0.12412769037E+04  0.00000000000E+00 0. -1.
          1    1    1    2  502    0 -0.47028087639E+02  0.23437716436E+02  0.15717808942E+03  0.16572845070E+03  0.00000000000E+00 0. -1.
<mgrwt>
<rscale>  0 0.59441421E+02</rscale>
<asrwt>0</asrwt>
<pdfrwt beam="1">  1        2 0.25849352E-01 0.52544910E+02</pdfrwt>
<pdfrwt beam="2">  1        1 0.34394700E+00 0.67243098E+02</pdfrwt>
<totfact> 0.76880819E+01</totfact>
</mgrwt>
</event>
<event>
 5    1  0.8274494E-003  0.1175292E+03  0.7546771E-02  0.1279380E+00
          1   -1    0    0  501    0 -0.00000000000E+00  0.00000000000E+00  0.11728509704E+03  0.11728509704E+03  0.00000000000E+00 0. -1.
          2   -1    0    0  502    0  0.00000000000E+00 -0.00000000000E+00 -0.58005724170E+03  0.58005724170E+03  0.00000000000E+00 0. -1.
         25    1    1    2    0    0  0.44414467447E+02 -0.23112908903E+02 -0.75575041689E+02  0.15441320670E+03  0.12500000000E+03 0.  0.
          2    1    1    2  501    0  0.81220533288E+02 -0.27750544029E+02  0.40037730424E+02  0.94709490438E+02  0.00000000000E+00 0. -1.
          1    1    1    2  502    0 -0.12563500074E+03  0.50863452932E+02 -0.42723483339E+03  0.44821964160E+03  0.00000000000E+00 0. -1.
<mgrwt>
<rscale>  0 0.10043699E+03</rscale>
<asrwt>0</asrwt>
<pdfrwt beam="2">  1        2 0.89239576E-01 0.11752925E+03</pdfrwt>
<pdfrwt beam="1">  1        1 0.18043861E-01 0.85830459E+02</pdfrwt>
<totfact> 0.20320693E+03</totfact>
</mgrwt>
</event>
<event>
 5    1  0.8274494E-003  0.7291753E+02  0.7546771E-02  0.1402700E+00
          1   -1    0    0  501    0 -0.00000000000E+00  0.00000000000E+00  0.42719437688E+03  0.42719437688E+03  0.00000000000E+00 0. -1.
          2   -1    0    0  502    0  0.00000000000E+00 -0.00000000000E+00 -0.40340244190E+03  0.40340244190E+03  0.00000000000E+00 0. -1.
         25    1    1    2    0    0  0.89138453944E+02 -0.16478444388E+02 -0.17163713623E+03  0.23087119706E+03  0.12500000000E+03 0.  0.
          2    1    1    2  501    0 -0.35924387749E+02 -0.31082750007E+02  0.38979045134E+03  0.39267454073E+03  0.00000000000E+00 0. -1.
          1    1    1    2  502    0 -0.53214066196E+02  0.47561194395E+02 -0.19436138012E+03  0.20705108098E+03  0.00000000000E+00 0. -1.
<mgrwt>
<rscale>  0 0.58855137E+02</rscale>
<asrwt>0</asrwt>
<pdfrwt beam="2">  1        2 0.62061914E-01 0.72917528E+02</pdfrwt>
<pdfrwt beam="1">  1        1 0.65722212E-01 0.47504726E+02</pdfrwt>
<totfact> 0.62072501E+02</totfact>
</mgrwt>
</event>
<event>
 5    1  0.8274494E-003  0.1654097E+03  0.7546771E-02  0.1335811E+00
          1   -1    0    0  501    0 -0.00000000000E+00  0.00000000000E+00  0.13315797696E+03  0.13315797696E+03  0.00000000000E+00 0. -1.
          2   -1    0    0  502    0  0.00000000000E+00 -0.00000000000E+00 -0.24402986998E+04  0.24402986998E+04  0.00000000000E+00 0. -1.
         25    1    1    2    0    0 -0.11939374770E+03 -0.15231675955E+03 -0.16029918837E+04  0.16194638747E+04  0.12500000000E+03 0.  0.
          2    1    1    2  501    0  0.11669965365E+03  0.11595014354E+03  0.70145884185E+02  0.17883984460E+03  0.00000000000E+00 0. -1.
          1    1    1    2  502    0  0.26940940491E+01  0.36366616014E+02 -0.77429472335E+03  0.77515295749E+03  0.00000000000E+00 0. -1.
<mgrwt>
<rscale>  0 0.77665138E+02</rscale>
<asrwt>0</asrwt>
<pdfrwt beam="2">  1        2 0.37543056E+00 0.36466271E+02</pdfrwt>
<pdfrwt beam="1">  1        1 0.20485843E-01 0.16540967E+03</pdfrwt>
<totfact> 0.18776437E+02</totfact>
</mgrwt>
</event>
<event>
 5    1  0.8274494E-003  0.8943071E+02  0.7546771E-02  0.1316231E+00
          2   -1    0    0  502    0  0.00000000000E+00  0.00000000000E+00  0.61297018435E+03  0.61297018435E+03  0.00000000000E+00 0. -1.
         -2   -1    0    0    0  501 -0.00000000000E+00 -0.00000000000E+00 -0.25654611773E+03  0.25654611773E+03  0.00000000000E+00 0.  1.
         25    1    1    2    0    0  0.21249105427E+01 -0.50442910947E+02 -0.99503168599E+02  0.16755561187E+03  0.12500000000E+03 0.  0.
          1    1    1    2  502    0  0.19852137802E+02 -0.77715015330E+02  0.54077921213E+03  0.54669542458E+03  0.00000000000E+00 0. -1.
         -1    1    1    2    0  501 -0.21977048344E+02  0.12815792628E+03 -0.84851976921E+02  0.15526526562E+03  0.00000000000E+00 0.  1.
<mgrwt>
<rscale>  0 0.84695253E+02</rscale>
<asrwt>0</asrwt>
<pdfrwt beam="1">  1        2 0.94303105E-01 0.80210542E+02</pdfrwt>
<pdfrwt beam="2">  1       -2 0.39468634E-01 0.89430713E+02</pdfrwt>
<totfact> 0.30976162E+02</totfact>
</mgrwt>
</event>
<event>
 5    1  0.8274494E-003  0.6630525E+02  0.7546771E-02  0.1455318E+00
          2   -1    0    0  502    0  0.00000000000E+00  0.00000000000E+00  0.39028341279E+03  0.39028341279E+03  0.00000000000E+00 0. -1.
          1   -1    0    0  501    0 -0.00000000000E+00 -0.00000000000E+00 -0.64791794995E+03  0.64791794995E+03  0.00000000000E+00 0. -1.
         25    1    1    2    0    0  0.54195141231E+02  0.72334130681E+02 -0.32543548205E+03  0.36014246177E+03  0.12500000000E+03 0.  0.
          2    1    1    2  501    0 -0.33738744234E+02 -0.94374226510E+01 -0.30117307783E+03  0.30320387632E+03  0.00000000000E+00 0. -1.
          1    1    1    2  502    0 -0.20456396997E+02 -0.62896708030E+02  0.36897402272E+03  0.37485502465E+03  0.00000000000E+00 0. -1.
<mgrwt>
<rscale>  0 0.48196737E+02</rscale>
<asrwt>0</asrwt>
<pdfrwt beam="1">  1        2 0.60043602E-01 0.66305249E+02</pdfrwt>
<pdfrwt beam="2">  1        1 0.99679684E-01 0.35033810E+02</pdfrwt>
<totfact> 0.38350649E+02</totfact>
</mgrwt>
</event>
<event>
 5    1  0.8274494E-003  0.1040157E+03  0.7546771E-02  0.1295291E+00
          2   -1    0    0  502    0  0.00000000000E+00  0.00000000000E+00  0.68267493477E+03  0.68267493477E+03  0.00000000000E+00 0. -1.
          1   -1    0    0  501    0 -0.00000000000E+00 -0.00000000000E+00 -0.57785685163E+03  0.57785685163E+03  0.00000000000E+00 0. -1.
         25    1    1    2    0    0 -0.14075236747E+02  0.51059115776E+02 -0.23316936834E+03  0.26981123017E+03  0.12500000000E+03 0.  0.
          2    1    1    2  501    0 -0.87253106974E+02 -0.74550417365E+02 -0.31201312038E+03  0.33245008151E+03  0.00000000000E+00 0. -1.
          1    1    1    2  502    0  0.10132834372E+03  0.23491301589E+02  0.65000057185E+03  0.65827047473E+03  0.00000000000E+00 0. -1.
<mgrwt>
<rscale>  0 0.93196324E+02</rscale>
<asrwt>0</asrwt>
<pdfrwt beam="1">  1        2 0.10502691E+00 0.10401574E+03</pdfrwt>
<pdfrwt beam="2">  1        1 0.88901053E-01 0.83502310E+02</pdfrwt>
<totfact> 0.23398747E+02</totfact>
</mgrwt>
</event>
<event>
 5    1  0.8274494E-003  0.1674922E+03  0.7546771E-02  0.1276922E+00
          1   -1    0    0  501    0 -0.00000000000E+00  0.00000000000E+00  0.15839028075E+04  0.15839028075E+04  0.00000000000E+00 0. -1.
          2   -1    0    0  502    0  0.00000000000E+00 -0.00000000000E+00 -0.20018037929E+03  0.20018037929E+03  0.00000000000E+00 0. -1.
         25    1    1    2    0    0 -0.12960922235E+03  0.17550040640E+03  0.12560641004E+03  0.28107101133E+03  0.12500000000E+03 0.  0.
          2    1    1    2  501    0  0.75389823452E+02 -0.14614378675E+03  0.13675515259E+04  0.13774029214E+04  0.00000000000E+00 0. -1.
          1    1    1    2  502    0  0.54219398900E+02 -0.29356619657E+02 -0.10943550777E+03  0.12560925402E+03  0.00000000000E+00 0. -1.
<mgrwt>
<rscale>  0 0.10162196E+03</rscale>
<asrwt>0</asrwt>
<pdfrwt beam="2">  1        2 0.30796982E-01 0.61656746E+02</pdfrwt>
<pdfrwt beam="1">  1        1 0.24367735E+00 0.16749218E+03</pdfrwt>
<totfact> 0.14882183E+02</totfact>
</mgrwt>
</event>
<event>
 5    1  0.8274494E-003  0.1332482E+03  0.7546771E-02  0.1384845E+00
          2   -1    0    0  502    0  0.00000000000E+00  0.00000000000E+00  0.14812923263E+04  0.14812923263E+04  0.00000000000E+00 0. -1.
          1   -1    0    0  501    0 -0.00000000000E+00 -0.00000000000E+00 -0.32084133666E+02  0.32084133666E+02  0.00000000000E+00 0. -1.
         25    1    1    2    0    0 -0.14995892278E+03  0.11516102547E+02  0.11051003029E+04  0.11222709025E+04  0.12500000000E+03 0.  0.
          2    1    1    2  501    0  0.12691313111E+03 -0.30695858383E+02  0.16959916647E+03  0.21403984638E+03  0.00000000000E+00 0. -1.
          1    1    1    2  502    0  0.23045791670E+02  0.19179755835E+02  0.17450872328E+03  0.17706571110E+03  0.00000000000E+00 0. -1.
<mgrwt>
<rscale>  0 0.63207278E+02</rscale>
<asrwt>0</asrwt>
<pdfrwt beam="1">  1        2 0.22789107E+00 0.29982854E+02</pdfrwt>
<pdfrwt beam="2">  1        1 0.49360217E-02 0.13324816E+03</pdfrwt>
<totfact> 0.36230733E+03</totfact>
</mgrwt>
</event>
<event>
 5    1  0.8274494E-003  0.7363634E+02  0.7546771E-02  0.1362427E+00
         -1   -1    0    0    0  501 -0.00000000000E+00  0.00000000000E+00  0.12002558566E+03  0.12002558566E+03  0.00000000000E+00 0.  1.
          1   -1    0    0  502    0  0.00000000000E+00 -0.00000000000E+00 -0.42286575313E+03  0.42286575313E+03  0.00000000000E+00 0. -1.
         25    1    1    2    0    0 -0.41074489933E+02 -0.68359198705E+02 -0.15598893487E+03  0.21521533768E+03  0.12500000000E+03 0.  0.
          2    1    1    2  502    0  0.65179246601E+02 -0.31053121734E+01 -0.21582411818E+03  0.22547289668E+03  0.00000000000E+00 0. -1.
         -2    1    1    2    0  501 -0.24104756669E+02  0.71464510878E+02  0.68972885579E+02  0.10220310443E+03  0.00000000000E+00 0.  1.
<mgrwt>
<rscale>  0 0.69318145E+02</rscale>
<asrwt>0</asrwt>
<pdfrwt beam="2">  1        1 0.65056269E-01 0.65253177E+02</pdfrwt>
<pdfrwt beam="1">  1       -1 0.18465475E-01 0.73636341E+02</pdfrwt>
<totfact> 0.12658713E+03</totfact>
</mgrwt>
</event>
<event>
 5    1  0.8274494E-003  0.1445579E+03  0.7546771E-02  0.1226524E+00
          1   -1    0    0  501    0 -0.00000000000E+00  0.00000000000E+00  0.25019028982E+03  0.25019028982E+03  0.00000000000E+00 0. -1.
          2   -1    0    0  502    0  0.00000000000E+00 -0.00000000000E+00 -0.84939848207E+03  0.84939848207E+03  0.00000000000E+00 0. -1.
         25    1    1    2    0    0  0.47887823731E+02 -0.26421181737E+02  0.10126388127E+02  0.13681690774E+03  0.12500000000E+03 0.  0.
          2    1    1    2  501    0  0.10817973789E+02 -0.11754726312E+03  0.14818860981E+03  0.18945778343E+03  0.00000000000E+00 0. -1.
          1    1    1    2  502    0 -0.58705797519E+02  0.14396844486E+03 -0.75752319019E+03  0.77331408073E+03  0.00000000000E+00 0. -1.
<mgrwt>
<rscale>  0 0.13062997E+03</rscale>
<asrwt>0</asrwt>
<pdfrwt beam="2">  1        2 0.13067669E+00 0.14455787E+03</pdfrwt>
<pdfrwt beam="1">  1        1 0.38490813E-01 0.11804401E+03</pdfrwt>
<totfact> 0.50408526E+02</totfact>
</mgrwt>
</event>
<event>
 5    1  0.8274494E-003  0.4260911E+02  0.7546771E-02  0.1536914E+00
          1   -1    0    0  501    0 -0.00000000000E+00  0.00000000000E+00  0.11672386483E+03  0.11672386483E+03  0.00000000000E+00 0. -1.
          2   -1    0    0  502    0  0.00000000000E+00 -0.00000000000E+00 -0.15150787887E+04  0.15150787887E+04  0.00000000000E+00 0. -1.
         25    1    1    2    0    0 -0.19835763432E+01 -0.57257625331E+02 -0.27739110186E+03  0.30960166929E+03  0.12500000000E+03 0.  0.
          2    1    1    2  501    0  0.23808704994E+02  0.35223799462E+02  0.95921032512E+02  0.10492099390E+03  0.00000000000E+00 0. -1.
          1    1    1    2  502    0 -0.21825128651E+02  0.22033825869E+02 -0.12168848545E+04  0.12172799903E+04  0.00000000000E+00 0. -1.
<mgrwt>
<rscale>  0 0.36351750E+02</rscale>
<asrwt>0</asrwt>
<pdfrwt beam="2">  1        2 0.23308905E+00 0.31013315E+02</pdfrwt>
<pdfrwt beam="1">  1        1 0.17957518E-01 0.42609108E+02</pdfrwt>
<totfact> 0.59741688E+02</totfact>
</mgrwt>
</event>
<event>
 5    1  0.8274494E-003  0.3482615E+02  0.7546771E-02  0.1587131E+00
          1   -1    0    0  501    0 -0.00000000000E+00  0.00000000000E+00  0.34767885103E+03  0.34767885103E+03  0.00000000000E+00 0. -1.
          2   -1    0    0  502    0  0.00000000000E+00 -0.00000000000E+00 -0.14739095440E+04  0.14739095440E+04  0.00000000000E+00 0. -1.
         25    1    1    2    0    0  0.12515423485E+02  0.57454338272E+02 -0.54993071123E+03  0.56701536484E+03  0.12500000000E+03 0.  0.
          2    1    1    2  501    0 -0.14517336366E+02 -0.23498493069E+02  0.33825742569E+03  0.33938329109E+03  0.00000000000E+00 0. -1.
          1    1    1    2  502    0  0.20019128812E+01 -0.33955845203E+02 -0.91455740742E+03  0.91518973910E+03  0.00000000000E+00 0. -1.
<mgrwt>
<rscale>  0 0.31015172E+02</rscale>
<asrwt>0</asrwt>
<pdfrwt beam="2">  1        2 0.22675531E+00 0.34826146E+02</pdfrwt>
<pdfrwt beam="1">  1        1 0.53489054E-01 0.27621228E+02</pdfrwt>
<totfact> 0.16714792E+02</totfact>
</mgrwt>
</event>
<event>
 5    1  0.8274494E-003  0.9067411E+02  0.7546771E-02  0.1420450E+00
          2   -1    0    0  502    0  0.00000000000E+00  0.00000000000E+00  0.27268290466E+04  0.27268290466E+04  0.00000000000E+00 0. -1.
          1   -1    0    0  501    0 -0.00000000000E+00 -0.00000000000E+00 -0.97848881044E+03  0.97848881044E+03  0.00000000000E+00 0. -1.
         25    1    1    2    0    0  0.96196041418E+01 -0.62644788846E+02  0.18789395126E+04  0.18841591224E+04  0.12500000000E+03 0.  0.
          2    1    1    2  501    0 -0.35600323672E+02  0.83428786963E+02 -0.97344230138E+03  0.97765927585E+03  0.00000000000E+00 0. -1.
          1    1    1    2  502    0  0.25980719530E+02 -0.20783998116E+02  0.84284302494E+03  0.84349945883E+03  0.00000000000E+00 0. -1.
<mgrwt>
<rscale>  0 0.54925731E+02</rscale>
<asrwt>0</asrwt>
<pdfrwt beam="1">  1        2 0.41951216E+00 0.33271194E+02</pdfrwt>
<pdfrwt beam="2">  1        1 0.15053674E+00 0.90674111E+02</pdfrwt>
<totfact> 0.10037097E+01</totfact>
</mgrwt>
</event>
<event>
 5    1  0.8274494E-003  0.3478402E+02  0.7546771E-02  0.1605656E+00
          1   -1    0    0  502    0  0.00000000000E+00  0.00000000000E+00  0.12035466383E+03  0.12035466383E+03  0.00000000000E+00 0. -1.
         -1   -1    0    0    0  501 -0.00000000000E+00 -0.00000000000E+00 -0.12019622777E+04  0.12019622777E+04  0.00000000000E+00 0.  1.
         25    1    1    2    0    0  0.41592571613E+02 -0.38901311008E+02 -0.85493565406E+02  0.16179432542E+03  0.12500000000E+03 0.  0.
          2    1    1    2  502    0 -0.29442659719E+02  0.17367366245E+02  0.78502290308E+02  0.85621873404E+02  0.00000000000E+00 0. -1.
         -2    1    1    2    0  501 -0.12149911895E+02  0.21533944763E+02 -0.10746163388E+04  0.10749007427E+04  0.00000000000E+00 0.  1.
<mgrwt>
<rscale>  0 0.29326419E+02</rscale>
<asrwt>0</asrwt>
<pdfrwt beam="1">  1        1 0.18516103E-01 0.34784024E+02</pdfrwt>
<pdfrwt beam="2">  1       -1 0.18491727E+00 0.24725111E+02</pdfrwt>
<totfact> 0.67439814E+01</totfact>
</mgrwt>
</event>
<event>
 5    1  0.8274494E-003  0.7189707E+02  0.7546771E-02  0.1359661E+00
          2   -1    0    0  502    0  0.00000000000E+00  0.00000000000E+00  0.98862684506E+03  0.98862684506E+03  0.00000000000E+00 0. -1.
         -2   -1    0    0    0  501 -0.00000000000E+00 -0.00000000000E+00 -0.11163770418E+03  0.11163770418E+03  0.00000000000E+00 0.  1.
         25    1    1    2    0    0 -0.41095328091E+02  0.12876982951E+03  0.24585714101E+03  0.30715017299E+03  0.12500000000E+03 0.  0.
          1    1    1    2  502    0  0.30930442823E+02 -0.61128678646E+02  0.69569242940E+03  0.69905748259E+03  0.00000000000E+00 0. -1.
         -1    1    1    2    0  501  0.10164885268E+02 -0.67641150864E+02 -0.64560429535E+02  0.94056893657E+02  0.00000000000E+00 0.  1.
<mgrwt>
<rscale>  0 0.70127077E+02</rscale>
<asrwt>0</asrwt>
<pdfrwt beam="1">  1        2 0.15209643E+00 0.71897070E+02</pdfrwt>
<pdfrwt beam="2">  1       -2 0.17175032E-01 0.68400659E+02</pdfrwt>
<totfact> 0.73717405E+02</totfact>
</mgrwt>
</event>
<event>
 5    1  0.8274494E-003  0.6707434E+02  0.7546771E-02  0.1429751E+00
          1   -1    0    0  501    0 -0.00000000000E+00  0.00000000000E+00  0.51762877130E+03  0.51762877130E+03  0.00000000000E+00 0. -1.
          2   -1    0    0  502    0  0.00000000000E+00 -0.00000000000E+00 -0.12484596843E+04  0.12484596843E+04  0.00000000000E+00 0. -1.
         25    1    1    2    0    0 -0.10631246873E+03 -0.11504838783E+02 -0.55211566826E+01  0.16459096420E+03  0.12500000000E+03 0.  0.
          2    1    1    2  501    0  0.65925597224E+02  0.36616474602E+00  0.43523351291E+03  0.44019828396E+03  0.00000000000E+00 0. -1.
          3    1    1    2  502    0  0.40386871510E+02  0.11138674037E+02 -0.11605432692E+04  0.11612992074E+04  0.00000000000E+00 0. -1.
<mgrwt>
<rscale>  0 0.53010021E+02</rscale>
<asrwt>0</asrwt>
<pdfrwt beam="2">  1        2 0.19207072E+00 0.41894743E+02</pdfrwt>
<pdfrwt beam="1">  1        1 0.79635196E-01 0.67074342E+02</pdfrwt>
<totfact> 0.13007461E+02</totfact>
</mgrwt>
</event>
<event>
 5    1  0.8274494E-003  0.1173329E+03  0.7546771E-02  0.1276099E+00
          1   -1    0    0  501    0 -0.00000000000E+00  0.00000000000E+00  0.26158686953E+03  0.26158686953E+03  0.00000000000E+00 0. -1.
          2   -1    0    0  502    0  0.00000000000E+00 -0.00000000000E+00 -0.12055933538E+04  0.12055933538E+04  0.00000000000E+00 0. -1.
         25    1    1    2    0    0  0.17080600661E+03 -0.80060311678E+02 -0.26382368986E+03  0.34758061616E+03  0.12500000000E+03 0.  0.
          2    1    1    2  501    0 -0.11364120857E+03  0.12224325281E+02  0.20246821229E+03  0.23250190408E+03  0.00000000000E+00 0. -1.
          1    1    1    2  502    0 -0.57164798039E+02  0.67835986398E+02 -0.88265100670E+03  0.88709770308E+03  0.00000000000E+00 0. -1.
<mgrwt>
<rscale>  0 0.10202278E+03</rscale>
<asrwt>0</asrwt>
<pdfrwt beam="2">  1        2 0.18547590E+00 0.88710401E+02</pdfrwt>
<pdfrwt beam="1">  1        1 0.40244134E-01 0.11733290E+03</pdfrwt>
<totfact> 0.30195694E+02</totfact>
</mgrwt>
</event>
<event>
 5    1  0.8274494E-003  0.1174020E+03  0.7546771E-02  0.1378839E+00
          2   -1    0    0  502    0  0.00000000000E+00  0.00000000000E+00  0.10513110162E+04  0.10513110162E+04  0.00000000000E+00 0. -1.
          1   -1    0    0  501    0 -0.00000000000E+00 -0.00000000000E+00 -0.68613980245E+03  0.68613980245E+03  0.00000000000E+00 0. -1.
         25    1    1    2    0    0 -0.12227218000E+03  0.76152373133E+02  0.34567957525E+02  0.19382882557E+03  0.12500000000E+03 0.  0.
          2    1    1    2  501    0  0.86565295161E+02 -0.77519869196E+02 -0.60059773418E+03  0.61173566084E+03  0.00000000000E+00 0. -1.
          1    1    1    2  502    0  0.35706884840E+02  0.13674960633E+01  0.93120099042E+03  0.93188633225E+03  0.00000000000E+00 0. -1.
<mgrwt>
<rscale>  0 0.64769849E+02</rscale>
<asrwt>0</asrwt>
<pdfrwt beam="1">  1        2 0.16174016E+00 0.35733061E+02</pdfrwt>
<pdfrwt beam="2">  1        1 0.10555997E+00 0.11740201E+03</pdfrwt>
<totfact> 0.11244301E+02</totfact>
</mgrwt>
</event>
<event>
 5    1  0.8274494E-003  0.9298426E+02  0.7546771E-02  0.1452832E+00
          1   -1    0    0  502    0  0.00000000000E+00  0.00000000000E+00  0.46013306054E+03  0.46013306054E+03  0.00000000000E+00 0. -1.
         -1   -1    0    0    0  501 -0.00000000000E+00 -0.00000000000E+00 -0.12567429336E+03  0.12567429336E+03  0.00000000000E+00 0.  1.
         25    1    1    2    0    0  0.10603881403E+03 -0.34267053969E+02  0.46647794779E+02  0.17383750408E+03  0.12500000000E+03 0.  0.
          2    1    1    2  502    0 -0.90219894581E+02  0.14342205161E+02  0.34099200318E+03  0.35301681895E+03  0.00000000000E+00 0. -1.
         -2    1    1    2    0  501 -0.15818919449E+02  0.19924848808E+02 -0.53181030788E+02  0.58953030866E+02  0.00000000000E+00 0.  1.
<mgrwt>
<rscale>  0 0.48637438E+02</rscale>
<asrwt>0</asrwt>
<pdfrwt beam="1">  1        1 0.70789701E-01 0.92984261E+02</pdfrwt>
<pdfrwt beam="2">  1       -1 0.19334507E-01 0.25440869E+02</pdfrwt>
<totfact> 0.99709617E+02</totfact>
</mgrwt>
</event>
<event>
 5    1  0.8274494E-003  0.7385766E+02  0.7546771E-02  0.1440164E+00
          2   -1    0    0  502    0  0.00000000000E+00  0.00000000000E+00  0.25062315299E+04  0.25062315299E+04  0.00000000000E+00 0. -1.
         -2   -1    0    0    0  501 -0.00000000000E+00 -0.00000000000E+00 -0.31217744624E+02  0.31217744624E+02  0.00000000000E+00 0.  1.
         25    1    1    2    0    0  0.23062240222E+02 -0.78044196685E+02  0.62238999824E+03  0.64001333851E+03  0.12500000000E+03 0.  0.
          1    1    1    2  502    0 -0.34799729071E+02  0.51516489552E+01  0.18135710949E+04  0.18139122572E+04  0.00000000000E+00 0. -1.
         -1    1    1    2    0  501  0.11737488849E+02  0.72892547730E+02  0.39052692163E+02  0.83523678823E+02  0.00000000000E+00 0.  1.
<mgrwt>
<rscale>  0 0.50972907E+02</rscale>
<asrwt>0</asrwt>
<pdfrwt beam="1">  1        2 0.38557392E+00 0.35178980E+02</pdfrwt>
<pdfrwt beam="2">  1       -2 0.48027319E-02 0.73857664E+02</pdfrwt>
<totfact> 0.97611154E+02</totfact>
</mgrwt>
</event>
<event>
 5    1  0.8274494E-003  0.9750794E+02  0.7546771E-02  0.1477175E+00
         -1   -1    0    0    0  501 -0.00000000000E+00  0.00000000000E+00  0.12447536432E+02  0.12447536432E+02  0.00000000000E+00 0.  1.
          1   -1    0    0  502    0  0.00000000000E+00 -0.00000000000E+00 -0.17533467812E+04  0.17533467812E+04  0.00000000000E+00 0. -1.
         25    1    1    2    0    0  0.93357207190E+02 -0.12504238643E+02 -0.11131900884E+04  0.11241392694E+04  0.12500000000E+03 0.  0.
          2    1    1    2  502    0 -0.97133070874E+02  0.32504556168E+02 -0.39523768150E+03  0.40829426215E+03  0.00000000000E+00 0. -1.
         -2    1    1    2    0  501  0.37758636840E+01 -0.20000317525E+02 -0.23247147481E+03  0.23336078601E+03  0.00000000000E+00 0.  1.
<mgrwt>
<rscale>  0 0.44549294E+02</rscale>
<asrwt>0</asrwt>
<pdfrwt beam="2">  1        1 0.26974549E+00 0.97507942E+02</pdfrwt>
<pdfrwt beam="1">  1       -1 0.19150068E-02 0.20353620E+02</pdfrwt>
<totfact> 0.27150941E+03</totfact>
</mgrwt>
</event>
<event>
 5    1  0.8274494E-003  0.5171721E+02  0.7546771E-02  0.1489962E+00
          1   -1    0    0  501    0 -0.00000000000E+00  0.00000000000E+00  0.19941990896E+03  0.19941990896E+03  0.00000000000E+00 0. -1.
          2   -1    0    0  502    0  0.00000000000E+00 -0.00000000000E+00 -0.21063999569E+04  0.21063999569E+04  0.00000000000E+00 0. -1.
         25    1    1    2    0    0  0.11217716221E+02 -0.28685803456E+02 -0.75353123213E+03  0.76444949491E+03  0.12500000000E+03 0.  0.
          2    1    1    2  501    0  0.35076274496E+02  0.83842406657E-01  0.19182036657E+03  0.19500103870E+03  0.00000000000E+00 0. -1.
          1    1    1    2  502    0 -0.46293990717E+02  0.28601961049E+02 -0.13452691824E+04  0.13463693323E+04  0.00000000000E+00 0. -1.
<mgrwt>
<rscale>  0 0.42591691E+02</rscale>
<asrwt>0</asrwt>
<pdfrwt beam="2">  1        2 0.32406154E+00 0.51717206E+02</pdfrwt>
<pdfrwt beam="1">  1        1 0.30679985E-01 0.35076375E+02</pdfrwt>
<totfact> 0.15240679E+02</totfact>
</mgrwt>
</event>
<event>
 5    1  0.8274494E-003  0.4024403E+02  0.7546771E-02  0.1566758E+00
         -2   -1    0    0    0  501 -0.00000000000E+00  0.00000000000E+00  0.18172752903E+02  0.18172752903E+02  0.00000000000E+00 0.  1.
          2   -1    0    0  502    0  0.00000000000E+00 -0.00000000000E+00 -0.90987356484E+03  0.90987356484E+03  0.00000000000E+00 0. -1.
         25    1    1    2    0    0 -0.25521980694E+02 -0.58549672090E+02 -0.56995836717E+03  0.58698975793E+03  0.12500000000E+03 0.  0.
          3    1    1    2  502    0  0.11413673592E+02  0.35387709139E+02 -0.30875653403E+03  0.31098739397E+03  0.00000000000E+00 0. -1.
         -3    1    1    2    0  501  0.14108307102E+02  0.23161962951E+02 -0.12985910734E+02  0.30069165845E+02  0.00000000000E+00 0.  1.
<mgrwt>
<rscale>  0 0.33036914E+02</rscale>
<asrwt>0</asrwt>
<pdfrwt beam="2">  1        2 0.13998059E+00 0.40244029E+02</pdfrwt>
<pdfrwt beam="1">  1       -2 0.27958074E-02 0.27120488E+02</pdfrwt>
<totfact> 0.11462561E+04</totfact>
</mgrwt>
</event>
<event>
 5    1  0.8274494E-003  0.1486420E+03  0.7546771E-02  0.1376054E+00
          1   -1    0    0  501    0 -0.00000000000E+00  0.00000000000E+00  0.13755224543E+04  0.13755224543E+04  0.00000000000E+00 0. -1.
          2   -1    0    0  502    0  0.00000000000E+00 -0.00000000000E+00 -0.12367060222E+03  0.12367060222E+03  0.00000000000E+00 0. -1.
         25    1    1    2    0    0 -0.16922361311E+03  0.29790473420E+02  0.32967883090E+03  0.39222090088E+03  0.12500000000E+03 0.  0.
          2    1    1    2  501    0  0.14399143479E+03 -0.15753185025E+02  0.10070005542E+04  0.10173651322E+04  0.00000000000E+00 0. -1.
          1    1    1    2  502    0  0.25232178324E+02 -0.14037288395E+02 -0.84827533012E+02  0.89607023415E+02  0.00000000000E+00 0. -1.
<mgrwt>
<rscale>  0 0.65512510E+02</rscale>
<asrwt>0</asrwt>
<pdfrwt beam="2">  1        2 0.19026247E-01 0.28874007E+02</pdfrwt>
<pdfrwt beam="1">  1        1 0.21161883E+00 0.14864196E+03</pdfrwt>
<totfact> 0.33298193E+02</totfact>
</mgrwt>
</event>
<event>
 5    1  0.8274494E-003  0.8298564E+02  0.7546771E-02  0.1413271E+00
         -1   -1    0    0    0  501 -0.00000000000E+00  0.00000000000E+00  0.46049447660E+03  0.46049447660E+03  0.00000000000E+00 0.  1.
          1   -1    0    0  502    0  0.00000000000E+00 -0.00000000000E+00 -0.12787091987E+03  0.12787091987E+03  0.00000000000E+00 0. -1.
         25    1    1    2    0    0 -0.54359373625E+02  0.12791372809E+02  0.14724577907E+03  0.20105939464E+03  0.12500000000E+03 0.  0.
          2    1    1    2  502    0 -0.36304724308E+02 -0.12593469108E+02 -0.89746910358E+02  0.97627539097E+02  0.00000000000E+00 0. -1.
         -2    1    1    2    0  501  0.90664097932E+02 -0.19790370127E+00  0.27512468801E+03  0.28967846273E+03  0.00000000000E+00 0.  1.
<mgrwt>
<rscale>  0 0.56470195E+02</rscale>
<asrwt>0</asrwt>
<pdfrwt beam="2">  1        1 0.19672449E-01 0.38426924E+02</pdfrwt>
<pdfrwt beam="1">  1       -1 0.70845303E-01 0.82985641E+02</pdfrwt>
<totfact> 0.52615332E+02</totfact>
</mgrwt>
</event>
<event>
 5    1  0.8274494E-003  0.2577685E+03  0.7546771E-02  0.1335476E+00
          2   -1    0    0  502    0  0.00000000000E+00  0.00000000000E+00  0.24961648214E+03  0.24961648214E+03  0.00000000000E+00 0. -1.
          1   -1    0    0  501    0 -0.00000000000E+00 -0.00000000000E+00 -0.52022280404E+03  0.52022280404E+03  0.00000000000E+00 0. -1.
         25    1    1    2    0    0  0.24201791069E+03  0.67531866786E+02  0.27070798802E+02  0.28194157245E+03  0.12500000000E+03 0.  0.
          2    1    1    2  501    0  0.20001188289E+02 -0.12277581596E+02 -0.20227079596E+03  0.20362775214E+03  0.00000000000E+00 0. -1.
          1    1    1    2  502    0 -0.26201909898E+03 -0.55254285191E+02 -0.95406324741E+02  0.28426996159E+03  0.00000000000E+00 0. -1.
<mgrwt>
<rscale>  0 0.77778712E+02</rscale>
<asrwt>0</asrwt>
<pdfrwt beam="1">  1        2 0.38402536E-01 0.25776849E+03</pdfrwt>
<pdfrwt beam="2">  1        1 0.80034277E-01 0.23468842E+02</pdfrwt>
<totfact> 0.82543807E+02</totfact>
</mgrwt>
</event>
<event>
 5    1  0.8274494E-003  0.1373815E+03  0.7546771E-02  0.1341178E+00
          2   -1    0    0  502    0  0.00000000000E+00  0.00000000000E+00  0.63585908480E+03  0.63585908480E+03  0.00000000000E+00 0. -1.
          1   -1    0    0  501    0 -0.00000000000E+00 -0.00000000000E+00 -0.72740193105E+02  0.72740193105E+02  0.00000000000E+00 0. -1.
         25    1    1    2    0    0 -0.12713875975E+01  0.13479956972E+03  0.17325674430E+03  0.25261718047E+03  0.12500000000E+03 0.  0.
          2    1    1    2  501    0 -0.40617319294E+02 -0.13604230541E+03  0.12917015957E+03  0.19194323538E+03  0.00000000000E+00 0. -1.
          1    1    1    2  502    0  0.41888706892E+02  0.12427356848E+01  0.26069198783E+03  0.26403886205E+03  0.00000000000E+00 0. -1.
<mgrwt>
<rscale>  0 0.75876634E+02</rscale>
<asrwt>0</asrwt>
<pdfrwt beam="1">  1        2 0.97824471E-01 0.41907137E+02</pdfrwt>
<pdfrwt beam="2">  1        1 0.11190799E-01 0.13738146E+03</pdfrwt>
<totfact> 0.35550334E+03</totfact>
</mgrwt>
</event>
<event>
 5    1  0.8274494E-003  0.5288546E+02  0.7546771E-02  0.1534285E+00
         -2   -1    0    0    0  501 -0.00000000000E+00  0.00000000000E+00  0.90801622395E+01  0.90801622395E+01  0.00000000000E+00 0.  1.
          2   -1    0    0  502    0  0.00000000000E+00 -0.00000000000E+00 -0.18592702360E+04  0.18592702360E+04  0.00000000000E+00 0. -1.
         25    1    1    2    0    0  0.56985555820E+01 -0.69686787285E+02 -0.89603972955E+03  0.90741441403E+03  0.12500000000E+03 0.  0.
          1    1    1    2  502    0 -0.14530391825E+02  0.20858680000E+02 -0.76384752743E+03  0.76427041155E+03  0.00000000000E+00 0. -1.
         -1    1    1    2    0  501  0.88318362426E+01  0.48828107284E+02 -0.19030281675E+03  0.19666557263E+03  0.00000000000E+00 0.  1.
<mgrwt>
<rscale>  0 0.36665930E+02</rscale>
<asrwt>0</asrwt>
<pdfrwt beam="2">  1        2 0.28604164E+00 0.25420795E+02</pdfrwt>
<pdfrwt beam="1">  1       -2 0.13969477E-02 0.52885461E+02</pdfrwt>
<totfact> 0.11725361E+04</totfact>
</mgrwt>
</event>
<event>
 5    1  0.8274494E-003  0.2164153E+03  0.7546771E-02  0.1361323E+00
          2   -1    0    0  502    0  0.00000000000E+00  0.00000000000E+00  0.54573175947E+03  0.54573175947E+03  0.00000000000E+00 0. -1.
         -2   -1    0    0    0  501 -0.00000000000E+00 -0.00000000000E+00 -0.36348630472E+03  0.36348630472E+03  0.00000000000E+00 0.  1.
         25    1    1    2    0    0  0.17419792047E+03  0.14083051847E+03  0.12717659326E+03  0.28631632210E+03  0.12500000000E+03 0.  0.
          1    1    1    2  502    0  0.49738062224E+01 -0.21850229937E+02  0.29777102311E+03  0.29861304978E+03  0.00000000000E+00 0. -1.
         -1    1    1    2    0  501 -0.17917172669E+03 -0.11898028853E+03 -0.24270216162E+03  0.32428869231E+03  0.00000000000E+00 0.  1.
<mgrwt>
<rscale>  0 0.69639711E+02</rscale>
<asrwt>0</asrwt>
<pdfrwt beam="1">  1        2 0.83958732E-01 0.22409179E+02</pdfrwt>
<pdfrwt beam="2">  1       -2 0.55920970E-01 0.21641531E+03</pdfrwt>
<totfact> 0.18192345E+02</totfact>
</mgrwt>
</event>
<event>
 5    1  0.8274494E-003  0.6775858E+02  0.7546771E-02  0.1440429E+00
          3   -1    0    0  501    0 -0.00000000000E+00  0.00000000000E+00  0.34014717721E+03  0.34014717721E+03  0.00000000000E+00 0. -1.
          2   -1    0    0  502    0  0.00000000000E+00 -0.00000000000E+00 -0.26579512434E+04  0.26579512434E+04  0.00000000000E+00 0. -1.
         25    1    1    2    0    0  0.73556869578E+02  0.37421982195E+02  0.68390071991E+02  0.16466092360E+03  0.12500000000E+03 0.  0.
          2    1    1    2  501    0 -0.58206768601E+01 -0.37824194928E+02  0.22154134026E+03  0.22482240868E+03  0.00000000000E+00 0. -1.
          1    1    1    2  502    0 -0.67736192718E+02  0.40221273315E+00 -0.26077354785E+04  0.26086150884E+04  0.00000000000E+00 0. -1.
<mgrwt>
<rscale>  0 0.50922321E+02</rscale>
<asrwt>0</asrwt>
<pdfrwt beam="2">  1        2 0.40891556E+00 0.67758578E+02</pdfrwt>
<pdfrwt beam="1">  1        3 0.52330337E-01 0.38269440E+02</pdfrwt>
<totfact> 0.82176815E+00</totfact>
</mgrwt>
</event>
<event>
 5    1  0.8274494E-003  0.6581911E+02  0.7546771E-02  0.1428364E+00
          2   -1    0    0  502    0  0.00000000000E+00  0.00000000000E+00  0.54393673922E+03  0.54393673922E+03  0.00000000000E+00 0. -1.
          1   -1    0    0  501    0 -0.00000000000E+00 -0.00000000000E+00 -0.22268116882E+03  0.22268116882E+03  0.00000000000E+00 0. -1.
         25    1    1    2    0    0  0.11223568649E+02  0.10375829528E+03  0.35869147146E+02  0.16674335983E+03  0.12500000000E+03 0.  0.
          2    1    1    2  501    0 -0.17258577259E+02 -0.39543456217E+02 -0.15187358610E+03  0.15788327832E+03  0.00000000000E+00 0. -1.
          1    1    1    2  502    0  0.60350086096E+01 -0.64214839059E+02  0.43726000935E+03  0.44199126990E+03  0.00000000000E+00 0. -1.
<mgrwt>
<rscale>  0 0.53289825E+02</rscale>
<asrwt>0</asrwt>
<pdfrwt beam="1">  1        2 0.83682574E-01 0.65819110E+02</pdfrwt>
<pdfrwt beam="2">  1        1 0.34258642E-01 0.43145607E+02</pdfrwt>
<totfact> 0.98550289E+02</totfact>
</mgrwt>
</event>
<event>
 5    1  0.8274494E-003  0.7181371E+02  0.7546771E-02  0.1373555E+00
          2   -1    0    0  502    0  0.00000000000E+00  0.00000000000E+00  0.29549221175E+04  0.29549221175E+04  0.00000000000E+00 0. -1.
         -2   -1    0    0    0  501 -0.00000000000E+00 -0.00000000000E+00 -0.15688502406E+03  0.15688502406E+03  0.00000000000E+00 0.  1.
         25    1    1    2    0    0 -0.28563673543E+02  0.86842560589E+02  0.50137731971E+03  0.52474920724E+03  0.12500000000E+03 0.  0.
          1    1    1    2  502    0  0.57289257342E+02 -0.20963856382E+02  0.24325597153E+04  0.24333245387E+04  0.00000000000E+00 0. -1.
         -1    1    1    2    0  501 -0.28725583799E+02 -0.65878704207E+02 -0.13589994151E+03  0.15373339564E+03  0.00000000000E+00 0.  1.
<mgrwt>
<rscale>  0 0.66188787E+02</rscale>
<asrwt>0</asrwt>
<pdfrwt beam="1">  1        2 0.45460336E+00 0.61004445E+02</pdfrwt>
<pdfrwt beam="2">  1       -2 0.24136160E-01 0.71813710E+02</pdfrwt>
<totfact> 0.41099520E+01</totfact>
</mgrwt>
</event>
<event>
 5    1  0.8274494E-003  0.4132021E+02  0.7546771E-02  0.1564930E+00
          1   -1    0    0  501    0 -0.00000000000E+00  0.00000000000E+00  0.34268704376E+03  0.34268704376E+03  0.00000000000E+00 0. -1.
          2   -1    0    0  502    0  0.00000000000E+00 -0.00000000000E+00 -0.17458549614E+04  0.17458549614E+04  0.00000000000E+00 0. -1.
         25    1    1    2    0    0  0.16516191948E+02 -0.45318962956E+02 -0.15138381609E+02  0.13483606193E+03  0.12500000000E+03 0.  0.
          2    1    1    2  501    0 -0.33285339203E+02  0.24516739595E+02  0.28122014731E+03  0.28424242396E+03  0.00000000000E+00 0. -1.
          1    1    1    2  502    0  0.16769147255E+02  0.20802223361E+02 -0.16692496834E+04  0.16694635193E+04  0.00000000000E+00 0. -1.
<mgrwt>
<rscale>  0 0.33227389E+02</rscale>
<asrwt>0</asrwt>
<pdfrwt beam="2">  1        2 0.26859308E+00 0.26719596E+02</pdfrwt>
<pdfrwt beam="1">  1        1 0.52721083E-01 0.41320214E+02</pdfrwt>
<totfact> 0.12960439E+02</totfact>
</mgrwt>
</event>
<event>
 5    1  0.8274494E-003  0.1306245E+03  0.7546771E-02  0.1254430E+00
          1   -1    0    0  502    0  0.00000000000E+00  0.00000000000E+00  0.10510378148E+04  0.10510378148E+04  0.00000000000E+00 0. -1.
         -1   -1    0    0    0  501 -0.00000000000E+00 -0.00000000000E+00 -0.13205400607E+03  0.13205400607E+03  0.00000000000E+00 0.  1.
         25    1    1    2    0    0 -0.57695390180E+02  0.57524957500E+02  0.34888211958E+03  0.37944909032E+03  0.12500000000E+03 0.  0.
          2    1    1    2  502    0  0.15595034678E+03 -0.63188330236E+02  0.65339226537E+03  0.67471084784E+03  0.00000000000E+00 0. -1.
         -2    1    1    2    0  501 -0.98254956604E+02  0.56633727362E+01 -0.83290576231E+02  0.12893188270E+03  0.00000000000E+00 0.  1.
<mgrwt>
<rscale>  0 0.11338345E+03</rscale>
<asrwt>0</asrwt>
<pdfrwt beam="1">  1        1 0.16169812E+00 0.13062450E+03</pdfrwt>
<pdfrwt beam="2">  1       -1 0.20316002E-01 0.98418038E+02</pdfrwt>
<totfact> 0.29497482E+02</totfact>
</mgrwt>
</event>
<event>
 5    1  0.8274494E-003  0.1094395E+03  0.7546771E-02  0.1352238E+00
          2   -1    0    0  502    0  0.00000000000E+00  0.00000000000E+00  0.93269075597E+03  0.93269075597E+03  0.00000000000E+00 0. -1.
         -2   -1    0    0    0  501 -0.00000000000E+00 -0.00000000000E+00 -0.11478659022E+03  0.11478659022E+03  0.00000000000E+00 0.  1.
         25    1    1    2    0    0  0.13683367264E+03 -0.73855227978E+02 -0.53948158584E+01  0.19957994064E+03  0.12500000000E+03 0.  0.
          1    1    1    2  502    0 -0.95998338148E+02  0.48918954009E+02  0.76466564049E+03  0.77221906654E+03  0.00000000000E+00 0. -1.
         -1    1    1    2    0  501 -0.40835334495E+02  0.24936273969E+02  0.58633341124E+02  0.75678339002E+02  0.00000000000E+00 0.  1.
<mgrwt>
<rscale>  0 0.72362681E+02</rscale>
<asrwt>0</asrwt>
<pdfrwt beam="1">  1        2 0.14349088E+00 0.10943946E+03</pdfrwt>
<pdfrwt beam="2">  1       -2 0.17659476E-01 0.47847072E+02</pdfrwt>
<totfact> 0.73144462E+02</totfact>
</mgrwt>
</event>
<event>
 5    1  0.8274494E-003  0.8967019E+02  0.7546771E-02  0.1385442E+00
          2   -1    0    0  502    0  0.00000000000E+00  0.00000000000E+00  0.25017100607E+04  0.25017100607E+04  0.00000000000E+00 0. -1.
          1   -1    0    0  501    0 -0.00000000000E+00 -0.00000000000E+00 -0.42210652679E+02  0.42210652679E+02  0.00000000000E+00 0. -1.
         25    1    1    2    0    0  0.77498822120E+02 -0.93308885190E+02  0.67476512493E+03  0.69688276583E+03  0.12500000000E+03 0.  0.
          2    1    1    2  501    0 -0.42147563555E+02  0.13767277428E+02 -0.13770344782E+02  0.46428196571E+02  0.00000000000E+00 0. -1.
          1    1    1    2  502    0 -0.35351258565E+02  0.79541607762E+02  0.17985046278E+04  0.18006097510E+04  0.00000000000E+00 0. -1.
<mgrwt>
<rscale>  0 0.63054696E+02</rscale>
<asrwt>0</asrwt>
<pdfrwt beam="1">  1        2 0.38487836E+00 0.89670188E+02</pdfrwt>
<pdfrwt beam="2">  1        1 0.64939485E-02 0.44339092E+02</pdfrwt>
<totfact> 0.62747967E+02</totfact>
</mgrwt>
</event>
<event>
 5    1  0.8274494E-003  0.1133239E+03  0.7546771E-02  0.1331852E+00
          2   -1    0    0  502    0  0.00000000000E+00  0.00000000000E+00  0.32114392638E+03  0.32114392638E+03  0.00000000000E+00 0. -1.
          1   -1    0    0  501    0 -0.00000000000E+00 -0.00000000000E+00 -0.20128235435E+04  0.20128235435E+04  0.00000000000E+00 0. -1.
         25    1    1    2    0    0 -0.86336345987E+01 -0.63288918599E+02 -0.31360349715E+03  0.34358722370E+03  0.12500000000E+03 0.  0.
          2    1    1    2  501    0 -0.33560541268E+02 -0.43702585674E+02 -0.16729571190E+04  0.16738643159E+04  0.00000000000E+00 0. -1.
          1    1    1    2  502    0  0.42194175867E+02  0.10699150427E+03  0.29488099910E+03  0.31651593024E+03  0.00000000000E+00 0. -1.
<mgrwt>
<rscale>  0 0.79021318E+02</rscale>
<asrwt>0</asrwt>
<pdfrwt beam="1">  1        2 0.49406759E-01 0.11332390E+03</pdfrwt>
<pdfrwt beam="2">  1        1 0.30966516E+00 0.55101959E+02</pdfrwt>
<totfact> 0.55708939E+01</totfact>
</mgrwt>
</event>
<event>
 5    1  0.8274494E-003  0.1173252E+03  0.7546771E-02  0.1402329E+00
         -1   -1    0    0    0  501 -0.00000000000E+00  0.00000000000E+00  0.36223934587E+04  0.36223934587E+04  0.00000000000E+00 0.  1.
          1   -1    0    0  502    0  0.00000000000E+00 -0.00000000000E+00 -0.45479850311E+03  0.45479850311E+03  0.00000000000E+00 0. -1.
         25    1    1    2    0    0  0.10768864265E+03 -0.27517252502E+02 -0.82371166829E+02  0.18645120559E+03  0.12500000000E+03 0.  0.
          2    1    1    2  502    0  0.97055010927E+01  0.27974977772E+02 -0.31873589306E+03  0.32010836549E+03  0.00000000000E+00 0. -1.
         -2    1    1    2    0  501 -0.11739414374E+03 -0.45772526986E+00  0.35687020154E+04  0.35706323907E+04  0.00000000000E+00 0.  1.
<mgrwt>
<rscale>  0 0.58941389E+02</rscale>
<asrwt>0</asrwt>
<pdfrwt beam="2">  1        1 0.69969003E-01 0.29610744E+02</pdfrwt>
<pdfrwt beam="1">  1       -1 0.55729128E+00 0.11732523E+03</pdfrwt>
<totfact> 0.50455811E-02</totfact>
</mgrwt>
</event>
<event>
 5    1  0.8274494E-003  0.8081361E+02  0.7546771E-02  0.1340227E+00
          2   -1    0    0  502    0  0.00000000000E+00  0.00000000000E+00  0.14742750137E+04  0.14742750137E+04  0.00000000000E+00 0. -1.
          1   -1    0    0  501    0 -0.00000000000E+00 -0.00000000000E+00 -0.18205238924E+04  0.18205238924E+04  0.00000000000E+00 0. -1.
         25    1    1    2    0    0 -0.12956181998E+03  0.51529701359E+02  0.53565286412E+03  0.56744212582E+03  0.12500000000E+03 0.  0.
          2    1    1    2  501    0  0.53988999450E+02 -0.47378107215E+02 -0.18023606303E+04  0.18037913790E+04  0.00000000000E+00 0. -1.
          1    1    1    2  502    0  0.75572820529E+02 -0.41515941439E+01  0.92045888748E+03  0.92356540130E+03  0.00000000000E+00 0. -1.
<mgrwt>
<rscale>  0 0.76189319E+02</rscale>
<asrwt>0</asrwt>
<pdfrwt beam="1">  1        2 0.22681154E+00 0.80813609E+02</pdfrwt>
<pdfrwt beam="2">  1        1 0.28008060E+00 0.71829639E+02</pdfrwt>
<totfact> 0.10895850E+01</totfact>
</mgrwt>
</event>
<event>
 5    1  0.8274494E-003  0.5830300E+02  0.7546771E-02  0.1416112E+00
          1   -1    0    0  501    0 -0.00000000000E+00  0.00000000000E+00  0.18906887864E+03  0.18906887864E+03  0.00000000000E+00 0. -1.
          2   -1    0    0  502    0  0.00000000000E+00 -0.00000000000E+00 -0.17525731697E+04  0.17525731697E+04  0.00000000000E+00 0. -1.
         25    1    1    2    0    0  0.72067378760E+02 -0.81109718613E+02 -0.40051510380E+03  0.43337032883E+03  0.12500000000E+03 0.  0.
          2    1    1    2  501    0 -0.41832047645E+02  0.33358382246E+02  0.16788158411E+03  0.17620138524E+03  0.00000000000E+00 0. -1.
          1    1    1    2  502    0 -0.30235331115E+02  0.47751336367E+02 -0.13308707714E+04  0.13320703343E+04  0.00000000000E+00 0. -1.
<mgrwt>
<rscale>  0 0.55852099E+02</rscale>
<asrwt>0</asrwt>
<pdfrwt beam="2">  1        2 0.26962664E+00 0.58303005E+02</pdfrwt>
<pdfrwt beam="1">  1        1 0.29087520E-01 0.53504223E+02</pdfrwt>
<totfact> 0.24158266E+02</totfact>
</mgrwt>
</event>
<event>
 5    1  0.8274494E-003  0.9307189E+02  0.7546771E-02  0.1435203E+00
          1   -1    0    0  501    0 -0.00000000000E+00  0.00000000000E+00  0.31975240297E+03  0.31975240297E+03  0.00000000000E+00 0. -1.
          2   -1    0    0  502    0  0.00000000000E+00 -0.00000000000E+00 -0.26093578186E+04  0.26093578186E+04  0.00000000000E+00 0. -1.
         25    1    1    2    0    0  0.42459954422E+02  0.83998344602E+02  0.13281825270E+03  0.20524194960E+03  0.12500000000E+03 0.  0.
          2    1    1    2  501    0  0.22916338880E+02 -0.17729929506E+02  0.14847961782E+03  0.15128022308E+03  0.00000000000E+00 0. -1.
          1    1    1    2  502    0 -0.65376293303E+02 -0.66268415096E+02 -0.25709032862E+04  0.25725880489E+04  0.00000000000E+00 0. -1.
<mgrwt>
<rscale>  0 0.51929676E+02</rscale>
<asrwt>0</asrwt>
<pdfrwt beam="2">  1        2 0.40143967E+00 0.93071893E+02</pdfrwt>
<pdfrwt beam="1">  1        1 0.49192677E-01 0.28974281E+02</pdfrwt>
<totfact> 0.44690655E+01</totfact>
</mgrwt>
</event>
<event>
 5    1  0.8274494E-003  0.2397383E+03  0.7546771E-02  0.1221971E+00
          2   -1    0    0  502    0  0.00000000000E+00  0.00000000000E+00  0.27185233350E+04  0.27185233350E+04  0.00000000000E+00 0. -1.
          1   -1    0    0  501    0 -0.00000000000E+00 -0.00000000000E+00 -0.15074862040E+03  0.15074862040E+03  0.00000000000E+00 0. -1.
         25    1    1    2    0    0  0.25197712594E+03 -0.62172267141E+01  0.75324770807E+03  0.80407601359E+03  0.12500000000E+03 0.  0.
          2    1    1    2  501    0 -0.23031447361E+03 -0.65208318012E+02 -0.95831363737E+01  0.23955942476E+03  0.00000000000E+00 0. -1.
          1    1    1    2  502    0 -0.21662652333E+02  0.71425544726E+02  0.18241101429E+04  0.18256365171E+04  0.00000000000E+00 0. -1.
<mgrwt>
<rscale>  0 0.13376721E+03</rscale>
<asrwt>0</asrwt>
<pdfrwt beam="1">  1        2 0.41823432E+00 0.74638321E+02</pdfrwt>
<pdfrwt beam="2">  1        1 0.23192097E-01 0.23973834E+03</pdfrwt>
<totfact> 0.10407862E+02</totfact>
</mgrwt>
</event>
<event>
 5    1  0.8274494E-003  0.1188375E+03  0.7546771E-02  0.1277708E+00
          2   -1    0    0  502    0  0.00000000000E+00  0.00000000000E+00  0.97343372600E+03  0.97343372600E+03  0.00000000000E+00 0. -1.
          1   -1    0    0  501    0 -0.00000000000E+00 -0.00000000000E+00 -0.12037715015E+04  0.12037715015E+04  0.00000000000E+00 0. -1.
         25    1    1    2    0    0 -0.63493006350E+02  0.10934938264E+03 -0.60173196912E+03  0.62745120288E+03  0.12500000000E+03 0.  0.
          2    1    1    2  501    0  0.85923937128E+02  0.74943774395E+01 -0.58230706624E+03  0.58866001058E+03  0.00000000000E+00 0. -1.
          1    1    1    2  502    0 -0.22430930778E+02 -0.11684376008E+03  0.95370125982E+03  0.96109401408E+03  0.00000000000E+00 0. -1.
<mgrwt>
<rscale>  0 0.10124108E+03</rscale>
<asrwt>0</asrwt>
<pdfrwt beam="1">  1        2 0.14975904E+00 0.11883754E+03</pdfrwt>
<pdfrwt beam="2">  1        1 0.18519561E+00 0.86250152E+02</pdfrwt>
<totfact> 0.48444871E+01</totfact>
</mgrwt>
</event>
<event>
 5    1  0.8274494E-003  0.1070508E+03  0.7546771E-02  0.1348824E+00
          2   -1    0    0  502    0  0.00000000000E+00  0.00000000000E+00  0.11724105749E+04  0.11724105749E+04  0.00000000000E+00 0. -1.
          1   -1    0    0  501    0 -0.00000000000E+00 -0.00000000000E+00 -0.78362544788E+02  0.78362544788E+02  0.00000000000E+00 0. -1.
         25    1    1    2    0    0  0.50032423161E+02  0.11435918742E+03  0.15514083870E+03  0.23510624608E+03  0.12500000000E+03 0.  0.
          2    1    1    2  501    0 -0.49733005138E+02 -0.79174870448E+01 -0.17531334994E+02  0.53323598040E+02  0.00000000000E+00 0. -1.
          1    1    1    2  502    0 -0.29941802243E+00 -0.10644170038E+03  0.95643852642E+03  0.96234327558E+03  0.00000000000E+00 0. -1.
<mgrwt>
<rscale>  0 0.73423435E+02</rscale>
<asrwt>0</asrwt>
<pdfrwt beam="1">  1        2 0.18037084E+00 0.10705076E+03</pdfrwt>
<pdfrwt beam="2">  1        1 0.12055777E-01 0.50359293E+02</pdfrwt>
<totfact> 0.13545376E+03</totfact>
</mgrwt>
</event>
<event>
 5    1  0.8274494E-003  0.1192936E+03  0.7546771E-02  0.1433694E+00
         -2   -1    0    0    0  501 -0.00000000000E+00  0.00000000000E+00  0.36505567899E+02  0.36505567899E+02  0.00000000000E+00 0.  1.
          2   -1    0    0  502    0  0.00000000000E+00 -0.00000000000E+00 -0.10003160561E+04  0.10003160561E+04  0.00000000000E+00 0. -1.
         25    1    1    2    0    0 -0.70354157737E+02  0.95883003338E+02 -0.42408217310E+03  0.45783615779E+03  0.12500000000E+03 0.  0.
          1    1    1    2  502    0  0.88134452005E+02 -0.81508705916E+02 -0.54279963230E+03  0.55591617317E+03  0.00000000000E+00 0. -1.
         -1    1    1    2    0  501 -0.17780294268E+02 -0.14374297422E+02  0.30713172206E+01  0.23069293013E+02  0.00000000000E+00 0.  1.
<mgrwt>
<rscale>  0 0.52225678E+02</rscale>
<asrwt>0</asrwt>
<pdfrwt beam="2">  1        2 0.15389477E+00 0.11929364E+03</pdfrwt>
<pdfrwt beam="1">  1       -2 0.56162416E-02 0.22863930E+02</pdfrwt>
<totfact> 0.35018088E+03</totfact>
</mgrwt>
</event>
<event>
 5    1  0.8274494E-003  0.1289612E+03  0.7546771E-02  0.1346410E+00
          1   -1    0    0  502    0  0.00000000000E+00  0.00000000000E+00  0.10111330133E+04  0.10111330133E+04  0.00000000000E+00 0. -1.
         -1   -1    0    0    0  501 -0.00000000000E+00 -0.00000000000E+00 -0.57319198660E+02  0.57319198660E+02  0.00000000000E+00 0.  1.
         25    1    1    2    0    0  0.62957271756E+02  0.15189527781E+03  0.79857487471E+03  0.82485309237E+03  0.12500000000E+03 0.  0.
          2    1    1    2  502    0 -0.27780139234E+01 -0.42585832859E+02  0.96845542978E+02  0.10583161019E+03  0.00000000000E+00 0. -1.
         -2    1    1    2    0  501 -0.60179257832E+02 -0.10930944495E+03  0.58393396916E+02  0.13776750935E+03  0.00000000000E+00 0.  1.
<mgrwt>
<rscale>  0 0.74186194E+02</rscale>
<asrwt>0</asrwt>
<pdfrwt beam="1">  1        1 0.15555891E+00 0.42676346E+02</pdfrwt>
<pdfrwt beam="2">  1       -1 0.88183390E-02 0.12896117E+03</pdfrwt>
<totfact> 0.12539251E+03</totfact>
</mgrwt>
</event>
<event>
 5    1  0.8274494E-003  0.3918217E+02  0.7546771E-02  0.1540925E+00
          2   -1    0    0  502    0  0.00000000000E+00  0.00000000000E+00  0.14672595615E+04  0.14672595615E+04  0.00000000000E+00 0. -1.
          1   -1    0    0  501    0 -0.00000000000E+00 -0.00000000000E+00 -0.31247481806E+03  0.31247481806E+03  0.00000000000E+00 0. -1.
         25    1    1    2    0    0  0.98524564674E+01  0.98885459381E+01  0.40063560039E+03  0.41991515636E+03  0.12500000000E+03 0.  0.
          2    1    1    2  501    0 -0.12445369698E+02  0.30407164676E+02 -0.30155678800E+03  0.30334135768E+03  0.00000000000E+00 0. -1.
          1    1    1    2  502    0  0.25929132306E+01 -0.40295710614E+02  0.10557059311E+04  0.10564778655E+04  0.00000000000E+00 0. -1.
<mgrwt>
<rscale>  0 0.35879647E+02</rscale>
<asrwt>0</asrwt>
<pdfrwt beam="1">  1        2 0.22573224E+00 0.39182166E+02</pdfrwt>
<pdfrwt beam="2">  1        1 0.48073050E-01 0.32855485E+02</pdfrwt>
<totfact> 0.18900840E+02</totfact>
</mgrwt>
</event>
<event>
 5    1  0.8274494E-003  0.6911474E+02  0.7546771E-02  0.1385622E+00
         -1   -1    0    0    0  501 -0.00000000000E+00  0.00000000000E+00  0.71095876403E+03  0.71095876403E+03  0.00000000000E+00 0.  1.
          1   -1    0    0  502    0  0.00000000000E+00 -0.00000000000E+00 -0.26261774020E+03  0.26261774020E+03  0.00000000000E+00 0. -1.
         25    1    1    2    0    0  0.53967398815E+02  0.70763880136E+02 -0.83040581407E+02  0.17447276300E+03  0.12500000000E+03 0.  0.
          2    1    1    2  502    0  0.13525565815E+02 -0.55827178717E+02 -0.12580132324E+03  0.13829529183E+03  0.00000000000E+00 0. -1.
         -2    1    1    2    0  501 -0.67492964630E+02 -0.14936701420E+02  0.65718292847E+03  0.66080844940E+03  0.00000000000E+00 0.  1.
<mgrwt>
<rscale>  0 0.63008792E+02</rscale>
<asrwt>0</asrwt>
<pdfrwt beam="2">  1        1 0.40402730E-01 0.57442274E+02</pdfrwt>
<pdfrwt beam="1">  1       -1 0.10937827E+00 0.69114742E+02</pdfrwt>
<totfact> 0.91120634E+01</totfact>
</mgrwt>
</event>
<event>
 5    1  0.8274494E-003  0.7073137E+02  0.7546771E-02  0.1395424E+00
         -1   -1    0    0    0  501 -0.00000000000E+00  0.00000000000E+00  0.40626212366E+02  0.40626212366E+02  0.00000000000E+00 0.  1.
          1   -1    0    0  502    0  0.00000000000E+00 -0.00000000000E+00 -0.20870525681E+04  0.20870525681E+04  0.00000000000E+00 0. -1.
         25    1    1    2    0    0 -0.37056650636E+02  0.29188560027E+02 -0.42367713385E+03  0.44424371817E+03  0.12500000000E+03 0.  0.
          2    1    1    2  502    0  0.73251136112E+02  0.79816273794E+01 -0.16294568327E+04  0.16311220080E+04  0.00000000000E+00 0. -1.
         -2    1    1    2    0  501 -0.36194485476E+02 -0.37170187406E+02  0.67076107860E+01  0.52313054328E+02  0.00000000000E+00 0.  1.
<mgrwt>
<rscale>  0 0.60577482E+02</rscale>
<asrwt>0</asrwt>
<pdfrwt beam="2">  1        1 0.32108514E+00 0.70731367E+02</pdfrwt>
<pdfrwt beam="1">  1       -1 0.62501840E-02 0.51881245E+02</pdfrwt>
<totfact> 0.38327071E+02</totfact>
</mgrwt>
</event>
<event>
 5    1  0.8274494E-003  0.1407073E+03  0.7546771E-02  0.1354510E+00
          1   -1    0    0  501    0 -0.00000000000E+00  0.00000000000E+00  0.18388521433E+04  0.18388521433E+04  0.00000000000E+00 0. -1.
          2   -1    0    0  502    0  0.00000000000E+00 -0.00000000000E+00 -0.85011524773E+03  0.85011524773E+03  0.00000000000E+00 0. -1.
         25    1    1    2    0    0  0.91127263865E+02 -0.12660993556E+03  0.49703284670E+03  0.53572465381E+03  0.12500000000E+03 0.  0.
          2    1    1    2  501    0 -0.54628047699E+02  0.12718131007E+03  0.13184476733E+04  0.13256936209E+04  0.00000000000E+00 0. -1.
          1    1    1    2  502    0 -0.36499216166E+02 -0.57137451647E+00 -0.82674362448E+03  0.82754911629E+03  0.00000000000E+00 0. -1.
<mgrwt>
<rscale>  0 0.71668231E+02</rscale>
<asrwt>0</asrwt>
<pdfrwt beam="2">  1        2 0.13078696E+00 0.36503688E+02</pdfrwt>
<pdfrwt beam="1">  1        1 0.28290033E+00 0.14070730E+03</pdfrwt>
<totfact> 0.22549256E+01</totfact>
</mgrwt>
</event>
<event>
 5    1  0.8274494E-003  0.3751402E+02  0.7546771E-02  0.1540093E+00
          1   -1    0    0  501    0 -0.00000000000E+00  0.00000000000E+00  0.93399652548E+03  0.93399652548E+03  0.00000000000E+00 0. -1.
          2   -1    0    0  502    0  0.00000000000E+00 -0.00000000000E+00 -0.65457368504E+03  0.65457368504E+03  0.00000000000E+00 0. -1.
         25    1    1    2    0    0  0.10548334696E+02 -0.96667215150E+00  0.26586089764E+03  0.29397145902E+03  0.12500000000E+03 0.  0.
          2    1    1    2  501    0 -0.17147736825E+02  0.34832277175E+02  0.65303875613E+03  0.65419182922E+03  0.00000000000E+00 0. -1.
          1    1    1    2  502    0  0.65994021290E+01 -0.33865605023E+02 -0.63947681334E+03  0.64040692229E+03  0.00000000000E+00 0. -1.
<mgrwt>
<rscale>  0 0.35976831E+02</rscale>
<asrwt>0</asrwt>
<pdfrwt beam="2">  1        2 0.10070364E+00 0.34502628E+02</pdfrwt>
<pdfrwt beam="1">  1        1 0.14369177E+00 0.37514023E+02</pdfrwt>
<totfact> 0.13332475E+02</totfact>
</mgrwt>
</event>
<event>
 5    1  0.8274494E-003  0.6854989E+02  0.7546771E-02  0.1501452E+00
          2   -1    0    0  502    0  0.00000000000E+00  0.00000000000E+00  0.60160841448E+03  0.60160841448E+03  0.00000000000E+00 0. -1.
          1   -1    0    0  501    0 -0.00000000000E+00 -0.00000000000E+00 -0.94010441258E+03  0.94010441258E+03  0.00000000000E+00 0. -1.
         25    1    1    2    0    0  0.76062028543E+02  0.15796857430E+02 -0.61448449530E+03  0.63186325091E+03  0.12500000000E+03 0.  0.
          2    1    1    2  501    0 -0.79220593888E+01 -0.23123363691E+02 -0.31447436766E+03  0.31542285410E+03  0.00000000000E+00 0. -1.
          1    1    1    2  502    0 -0.68139969154E+02  0.73265062610E+01  0.59046286486E+03  0.59442672204E+03  0.00000000000E+00 0. -1.
<mgrwt>
<rscale>  0 0.40933473E+02</rscale>
<asrwt>0</asrwt>
<pdfrwt beam="1">  1        2 0.92555141E-01 0.68549891E+02</pdfrwt>
<pdfrwt beam="2">  1        1 0.14463145E+00 0.24442769E+02</pdfrwt>
<totfact> 0.14656717E+02</totfact>
</mgrwt>
</event>
<event>
 5    1  0.8274494E-003  0.6263170E+02  0.7546771E-02  0.1413281E+00
          1   -1    0    0  501    0 -0.00000000000E+00  0.00000000000E+00  0.21295774184E+03  0.21295774184E+03  0.00000000000E+00 0. -1.
          2   -1    0    0  502    0  0.00000000000E+00 -0.00000000000E+00 -0.34782100445E+04  0.34782100445E+04  0.00000000000E+00 0. -1.
         25    1    1    2    0    0 -0.85582385956E+02  0.53723698392E+02 -0.34817488842E+03  0.38348576698E+03  0.12500000000E+03 0.  0.
          2    1    1    2  501    0  0.24116657316E+02 -0.44836438790E+02  0.19166905148E+03  0.19831526593E+03  0.00000000000E+00 0. -1.
          1    1    1    2  502    0  0.61465728640E+02 -0.88872596022E+01 -0.31087464658E+04  0.31093667535E+04  0.00000000000E+00 0. -1.
<mgrwt>
<rscale>  0 0.56468008E+02</rscale>
<asrwt>0</asrwt>
<pdfrwt beam="2">  1        2 0.53510923E+00 0.62631699E+02</pdfrwt>
<pdfrwt beam="1">  1        1 0.32762730E-01 0.50910897E+02</pdfrwt>
<totfact> 0.24732577E+01</totfact>
</mgrwt>
</event>
<event>
 5    1  0.8274494E-003  0.9359639E+02  0.7546771E-02  0.1424693E+00
          2   -1    0    0  502    0  0.00000000000E+00  0.00000000000E+00  0.20233056778E+04  0.20233056778E+04  0.00000000000E+00 0. -1.
         -2   -1    0    0    0  501 -0.00000000000E+00 -0.00000000000E+00 -0.42765864652E+03  0.42765864652E+03  0.00000000000E+00 0.  1.
         25    1    1    2    0    0 -0.70723344639E+02  0.47138102144E+02 -0.76165344397E+02  0.16926296653E+03  0.12500000000E+03 0.  0.
          1    1    1    2  502    0  0.56391003507E+02 -0.74853120248E+02  0.19748445941E+04  0.19770670464E+04  0.00000000000E+00 0. -1.
         -1    1    1    2    0  501  0.14332341132E+02  0.27715018104E+02 -0.30303221849E+03  0.30463431139E+03  0.00000000000E+00 0.  1.
<mgrwt>
<rscale>  0 0.54040307E+02</rscale>
<asrwt>0</asrwt>
<pdfrwt beam="1">  1        2 0.31127779E+00 0.93596392E+02</pdfrwt>
<pdfrwt beam="2">  1       -2 0.65793639E-01 0.31201574E+02</pdfrwt>
<totfact> 0.18209834E+01</totfact>
</mgrwt>
</event>
<event>
 5    1  0.8274494E-003  0.4912094E+02  0.7546771E-02  0.1503148E+00
          1   -1    0    0  501    0 -0.00000000000E+00  0.00000000000E+00  0.19170287718E+03  0.19170287718E+03  0.00000000000E+00 0. -1.
          2   -1    0    0  502    0  0.00000000000E+00 -0.00000000000E+00 -0.15486982309E+04  0.15486982309E+04  0.00000000000E+00 0. -1.
         25    1    1    2    0    0 -0.87823866580E+01  0.22857069064E+02 -0.58514956874E+02  0.14017337871E+03  0.12500000000E+03 0.  0.
          2    1    1    2  501    0 -0.33620731139E+02  0.25439675125E+01  0.14856266010E+03  0.15234070142E+03  0.00000000000E+00 0. -1.
          1    1    1    2  502    0  0.42403117797E+02 -0.25401036576E+02 -0.14470430569E+04  0.14478870279E+04  0.00000000000E+00 0. -1.
<mgrwt>
<rscale>  0 0.40696473E+02</rscale>
<asrwt>0</asrwt>
<pdfrwt beam="2">  1        2 0.23826126E+00 0.49120939E+02</pdfrwt>
<pdfrwt beam="1">  1        1 0.29492751E-01 0.33716840E+02</pdfrwt>
<totfact> 0.30019544E+02</totfact>
</mgrwt>
</event>
<event>
 5    1  0.8274494E-003  0.5334736E+02  0.7546771E-02  0.1452845E+00
         -2   -1    0    0    0  501 -0.00000000000E+00  0.00000000000E+00  0.73895065799E+02  0.73895065799E+02  0.00000000000E+00 0.  1.
          2   -1    0    0  502    0  0.00000000000E+00 -0.00000000000E+00 -0.22715362032E+03  0.22715362032E+03  0.00000000000E+00 0. -1.
         25    1    1    2    0    0  0.55082475800E+02  0.13678958665E+02 -0.13783582873E+03  0.19453767946E+03  0.12500000000E+03 0.  0.
          1    1    1    2  502    0 -0.30285218286E+02 -0.50435700916E+02  0.20193303657E+01  0.58864523005E+02  0.00000000000E+00 0. -1.
         -1    1    1    2    0  501 -0.24797257514E+02  0.36756742251E+02 -0.17442056161E+02  0.47646483650E+02  0.00000000000E+00 0.  1.
<mgrwt>
<rscale>  0 0.48635151E+02</rscale>
<asrwt>0</asrwt>
<pdfrwt beam="2">  1        2 0.34946710E-01 0.53347364E+02</pdfrwt>
<pdfrwt beam="1">  1       -2 0.11368472E-01 0.44339171E+02</pdfrwt>
<totfact> 0.69262120E+03</totfact>
</mgrwt>
</event>
<event>
 5    1  0.8274494E-003  0.4338077E+02  0.7546771E-02  0.1598193E+00
          2   -1    0    0  502    0  0.00000000000E+00  0.00000000000E+00  0.19797279998E+04  0.19797279998E+04  0.00000000000E+00 0. -1.
          1   -1    0    0  501    0 -0.00000000000E+00 -0.00000000000E+00 -0.14850281222E+03  0.14850281222E+03  0.00000000000E+00 0. -1.
         25    1    1    2    0    0  0.36200891322E+02 -0.44789571249E+02  0.69018416747E+03  0.70377254512E+03  0.12500000000E+03 0.  0.
          2    1    1    2  501    0 -0.15964394554E+02  0.40277069759E+02 -0.13831110554E+03  0.14493814597E+03  0.00000000000E+00 0. -1.
          1    1    1    2  502    0 -0.20236496769E+02  0.45125014896E+01  0.12793521256E+04  0.12795201209E+04  0.00000000000E+00 0. -1.
<mgrwt>
<rscale>  0 0.29990592E+02</rscale>
<asrwt>0</asrwt>
<pdfrwt beam="1">  1        2 0.30457352E+00 0.20733511E+02</pdfrwt>
<pdfrwt beam="2">  1        1 0.22846588E-01 0.43380768E+02</pdfrwt>
<totfact> 0.28236362E+02</totfact>
</mgrwt>
</event>
<event>
 5    1  0.8274494E-003  0.1187240E+03  0.7546771E-02  0.1252777E+00
          2   -1    0    0  502    0  0.00000000000E+00  0.00000000000E+00  0.69789936001E+03  0.69789936001E+03  0.00000000000E+00 0. -1.
         -2   -1    0    0    0  501 -0.00000000000E+00 -0.00000000000E+00 -0.75749333494E+03  0.75749333494E+03  0.00000000000E+00 0.  1.
         25    1    1    2    0    0  0.23721151763E+02  0.21180956059E+03  0.10435549283E+03  0.26821829148E+03  0.12500000000E+03 0.  0.
          1    1    1    2  502    0  0.26650612787E+02 -0.10680009098E+03  0.50056805700E+03  0.51252794488E+03  0.00000000000E+00 0. -1.
         -1    1    1    2    0  501 -0.50371764550E+02 -0.10500946960E+03 -0.66451752476E+03  0.67464645859E+03  0.00000000000E+00 0.  1.
<mgrwt>
<rscale>  0 0.11431774E+03</rscale>
<asrwt>0</asrwt>
<pdfrwt beam="1">  1        2 0.10736913E+00 0.11007504E+03</pdfrwt>
<pdfrwt beam="2">  1       -2 0.11653744E+00 0.11872398E+03</pdfrwt>
<totfact> 0.26955581E+01</totfact>
</mgrwt>
</event>
<event>
 5    1  0.8274494E-003  0.3492136E+02  0.7546771E-02  0.1623726E+00
         -2   -1    0    0    0  501  0.00000000000E+00  0.00000000000E+00  0.43014870882E+03  0.43014870882E+03  0.00000000000E+00 0.  1.
         -1   -1    0    0    0  502 -0.00000000000E+00 -0.00000000000E+00 -0.17481389094E+03  0.17481389094E+03  0.00000000000E+00 0.  1.
         25    1    1    2    0    0  0.18261903779E+02 -0.52525753563E+02  0.16299767643E+03  0.21280435719E+03  0.12500000000E+03 0.  0.
         -2    1    1    2    0  502 -0.16658630549E+02  0.30448310075E+02 -0.14738490648E+03  0.15141638028E+03  0.00000000000E+00 0.  1.
         -1    1    1    2    0  501 -0.16032732295E+01  0.22077443488E+02  0.23972204793E+03  0.24074186229E+03  0.00000000000E+00 0.  1.
<mgrwt>
<rscale>  0 0.27802961E+02</rscale>
<asrwt>0</asrwt>
<pdfrwt beam="1">  1       -2 0.66176724E-01 0.22135582E+02</pdfrwt>
<pdfrwt beam="2">  1       -1 0.26894445E-01 0.34921359E+02</pdfrwt>
<totfact> 0.19091440E+02</totfact>
</mgrwt>
</event>
<event>
 5    1  0.8274494E-003  0.2071913E+03  0.7546771E-02  0.1304029E+00
          2   -1    0    0  502    0  0.00000000000E+00  0.00000000000E+00  0.16532198644E+04  0.16532198644E+04  0.00000000000E+00 0. -1.
          1   -1    0    0  501    0 -0.00000000000E+00 -0.00000000000E+00 -0.17599029996E+04  0.17599029996E+04  0.00000000000E+00 0. -1.
         25    1    1    2    0    0 -0.83413204427E+01 -0.19656571750E+03 -0.17852761784E+03  0.29360648708E+03  0.12500000000E+03 0.  0.
          2    1    1    2  501    0 -0.38248969740E+02 -0.57209507545E+01 -0.15168373010E+04  0.15173302576E+04  0.00000000000E+00 0. -1.
          1    1    1    2  502    0  0.46590290183E+02  0.20228666825E+03  0.15886817836E+04  0.16021861193E+04  0.00000000000E+00 0. -1.
<mgrwt>
<rscale>  0 0.89515416E+02</rscale>
<asrwt>0</asrwt>
<pdfrwt beam="1">  1        2 0.25434152E+00 0.20719131E+03</pdfrwt>
<pdfrwt beam="2">  1        1 0.27075431E+00 0.38674448E+02</pdfrwt>
<totfact> 0.95732373E+00</totfact>
</mgrwt>
</event>
<event>
 5    1  0.8274494E-003  0.4348639E+02  0.7546771E-02  0.1592200E+00
          1   -1    0    0  502    0  0.00000000000E+00  0.00000000000E+00  0.68244646464E+03  0.68244646464E+03  0.00000000000E+00 0. -1.
         -1   -1    0    0    0  501 -0.00000000000E+00 -0.00000000000E+00 -0.17973420905E+02  0.17973420905E+02  0.00000000000E+00 0.  1.
         25    1    1    2    0    0  0.61087563919E+00 -0.30640394218E+02  0.38762434308E+03  0.40843217096E+03  0.12500000000E+03 0.  0.
          2    1    1    2  502    0 -0.22645447495E+01  0.52023865314E+02  0.90524581459E+02  0.10443328288E+03  0.00000000000E+00 0. -1.
         -2    1    1    2    0  501  0.16536691103E+01 -0.21383471096E+02  0.18632411920E+03  0.18755443171E+03  0.00000000000E+00 0.  1.
<mgrwt>
<rscale>  0 0.30539588E+02</rscale>
<asrwt>0</asrwt>
<pdfrwt beam="1">  1        1 0.10499174E+00 0.43486390E+02</pdfrwt>
<pdfrwt beam="2">  1       -1 0.27651422E-02 0.21447318E+02</pdfrwt>
<totfact> 0.96126292E+03</totfact>
</mgrwt>
</event>
<event>
 5    1  0.8274494E-003  0.2176158E+03  0.7546771E-02  0.1323127E+00
          1   -1    0    0  501    0 -0.00000000000E+00  0.00000000000E+00  0.29140707471E+03  0.29140707471E+03  0.00000000000E+00 0. -1.
          2   -1    0    0  502    0  0.00000000000E+00 -0.00000000000E+00 -0.15421385775E+04  0.15421385775E+04  0.00000000000E+00 0. -1.
         25    1    1    2    0    0  0.19157474561E+03 -0.74541472884E+01 -0.15180695954E+03  0.27463940073E+03  0.12500000000E+03 0.  0.
          2    1    1    2  501    0  0.29958192933E+02  0.79410096309E+01  0.21966292100E+03  0.22183857153E+03  0.00000000000E+00 0. -1.
          1    1    1    2  502    0 -0.22153293854E+03 -0.48686234244E+00 -0.13185874642E+04  0.13370676799E+04  0.00000000000E+00 0. -1.
<mgrwt>
<rscale>  0 0.82125038E+02</rscale>
<asrwt>0</asrwt>
<pdfrwt beam="2">  1        2 0.23725209E+00 0.21761584E+03</pdfrwt>
<pdfrwt beam="1">  1        1 0.44831858E-01 0.30992789E+02</pdfrwt>
<totfact> 0.16310911E+02</totfact>
</mgrwt>
</event>
<event>
 5    1  0.8274494E-003  0.3657261E+02  0.7546771E-02  0.1545247E+00
          2   -1    0    0  502    0  0.00000000000E+00  0.00000000000E+00  0.34732969019E+04  0.34732969019E+04  0.00000000000E+00 0. -1.
         -2   -1    0    0    0  501 -0.00000000000E+00 -0.00000000000E+00 -0.62391415410E+01  0.62391415410E+01  0.00000000000E+00 0.  1.
         25    1    1    2    0    0 -0.61076041071E+01  0.62740762794E+02  0.13509859803E+04  0.13582200945E+04  0.12500000000E+03 0.  0.
          1    1    1    2  502    0 -0.10734761578E+02 -0.32500415175E+02  0.19975459044E+04  0.19978391207E+04  0.00000000000E+00 0. -1.
         -1    1    1    2    0  501  0.16842365685E+02 -0.30240347618E+02  0.11852587563E+03  0.12347682819E+03  0.00000000000E+00 0.  1.
<mgrwt>
<rscale>  0 0.35380555E+02</rscale>
<asrwt>0</asrwt>
<pdfrwt beam="1">  1        2 0.53435182E+00 0.34227359E+02</pdfrwt>
<pdfrwt beam="2">  1       -2 0.95987071E-03 0.36572605E+02</pdfrwt>
<totfact> 0.25556918E+03</totfact>
</mgrwt>
</event>
<event>
 5    1  0.8274494E-003  0.1209484E+03  0.7546771E-02  0.1342821E+00
          2   -1    0    0  502    0  0.00000000000E+00  0.00000000000E+00  0.11277845251E+04  0.11277845251E+04  0.00000000000E+00 0. -1.
          1   -1    0    0  501    0 -0.00000000000E+00 -0.00000000000E+00 -0.16539344248E+04  0.16539344248E+04  0.00000000000E+00 0. -1.
         25    1    1    2    0    0  0.98134837647E+01  0.14107818381E+03  0.39403153768E+03  0.43690412118E+03  0.12500000000E+03 0.  0.
          2    1    1    2  501    0  0.34243629818E+02 -0.32090786691E+02 -0.16273074230E+04  0.16279839968E+04  0.00000000000E+00 0. -1.
          3    1    1    2  502    0 -0.44057113582E+02 -0.10898739712E+03  0.70712598568E+03  0.71683083194E+03  0.00000000000E+00 0. -1.
<mgrwt>
<rscale>  0 0.75340128E+02</rscale>
<asrwt>0</asrwt>
<pdfrwt beam="1">  1        2 0.17350531E+00 0.12094842E+03</pdfrwt>
<pdfrwt beam="2">  1        1 0.25445145E+00 0.46930212E+02</pdfrwt>
<totfact> 0.21577682E+01</totfact>
</mgrwt>
</event>
<event>
 5    1  0.8274494E-003  0.8233077E+02  0.7546771E-02  0.1354968E+00
          2   -1    0    0  502    0  0.00000000000E+00  0.00000000000E+00  0.31539358391E+04  0.31539358391E+04  0.00000000000E+00 0. -1.
          1   -1    0    0  501    0 -0.00000000000E+00 -0.00000000000E+00 -0.25020465453E+03  0.25020465453E+03  0.00000000000E+00 0. -1.
         25    1    1    2    0    0  0.50519721384E+02 -0.10631839435E+03  0.11605353426E+03  0.20724204699E+03  0.12500000000E+03 0.  0.
          2    1    1    2  501    0 -0.57112862506E+02  0.24498234881E+02 -0.19931474336E+03  0.20877837411E+03  0.00000000000E+00 0. -1.
          1    1    1    2  502    0  0.65931411214E+01  0.81820159466E+02  0.29869923936E+04  0.29881200725E+04  0.00000000000E+00 0. -1.
<mgrwt>
<rscale>  0 0.71529525E+02</rscale>
<asrwt>0</asrwt>
<pdfrwt beam="1">  1        2 0.48522087E+00 0.82330766E+02</pdfrwt>
<pdfrwt beam="2">  1        1 0.38493026E-01 0.62145334E+02</pdfrwt>
<totfact> 0.30507819E+01</totfact>
</mgrwt>
</event>
<event>
 5    1  0.8274494E-003  0.7845486E+02  0.7546771E-02  0.1441471E+00
          1   -1    0    0  501    0 -0.00000000000E+00  0.00000000000E+00  0.23606926378E+03  0.23606926378E+03  0.00000000000E+00 0. -1.
          2   -1    0    0  502    0  0.00000000000E+00 -0.00000000000E+00 -0.77762383314E+03  0.77762383314E+03  0.00000000000E+00 0. -1.
         25    1    1    2    0    0  0.90565097584E+02 -0.82108688007E+01 -0.24081862038E+03  0.28616090437E+03  0.12500000000E+03 0.  0.
          2    1    1    2  501    0 -0.70445156665E+02  0.34110139082E+02  0.20567305608E+03  0.22006232682E+03  0.00000000000E+00 0. -1.
          1    1    1    2  502    0 -0.20119940919E+02 -0.25899270281E+02 -0.50640900506E+03  0.50746986574E+03  0.00000000000E+00 0. -1.
<mgrwt>
<rscale>  0 0.50724879E+02</rscale>
<asrwt>0</asrwt>
<pdfrwt beam="2">  1        2 0.11963443E+00 0.32796101E+02</pdfrwt>
<pdfrwt beam="1">  1        1 0.36318349E-01 0.78454856E+02</pdfrwt>
<totfact> 0.63542268E+02</totfact>
</mgrwt>
</event>
<event>
 5    1  0.8274494E-003  0.7354330E+02  0.7546771E-02  0.1474392E+00
          2   -1    0    0  502    0  0.00000000000E+00  0.00000000000E+00  0.20922682908E+04  0.20922682908E+04  0.00000000000E+00 0. -1.
         -2   -1    0    0    0  501 -0.00000000000E+00 -0.00000000000E+00 -0.10058719347E+02  0.10058719347E+02  0.00000000000E+00 0.  1.
         25    1    1    2    0    0 -0.84783689442E+02  0.47329082393E+01  0.14605149928E+04  0.14683118601E+04  0.12500000000E+03 0.  0.
          1    1    1    2  502    0  0.17350597011E+02  0.21367766952E+02  0.39742565277E+03  0.39837767779E+03  0.00000000000E+00 0. -1.
         -1    1    1    2    0  501  0.67433092432E+02 -0.26100675191E+02  0.22426892591E+03  0.23563747226E+03  0.00000000000E+00 0.  1.
<mgrwt>
<rscale>  0 0.44991979E+02</rscale>
<asrwt>0</asrwt>
<pdfrwt beam="1">  1        2 0.32188708E+00 0.27524983E+02</pdfrwt>
<pdfrwt beam="2">  1       -2 0.15474970E-02 0.73543305E+02</pdfrwt>
<totfact> 0.82355474E+03</totfact>
</mgrwt>
</event>
<event>
 5    1  0.8274494E-003  0.1688307E+03  0.7546771E-02  0.1403246E+00
         -2   -1    0    0    0  501 -0.00000000000E+00  0.00000000000E+00  0.14300820441E+03  0.14300820441E+03  0.00000000000E+00 0.  1.
          2   -1    0    0  502    0  0.00000000000E+00 -0.00000000000E+00 -0.67518567146E+03  0.67518567146E+03  0.00000000000E+00 0. -1.
         25    1    1    2    0    0 -0.93498636094E+02  0.12740308976E+03 -0.20616164483E+03  0.28827272856E+03  0.12500000000E+03 0.  0.
          1    1    1    2  502    0  0.91267809225E+02 -0.14770998561E+03 -0.40906843605E+03  0.44439288723E+03  0.00000000000E+00 0. -1.
         -1    1    1    2    0  501  0.22308268690E+01  0.20306895850E+02  0.83052613837E+02  0.85528260082E+02  0.00000000000E+00 0.  1.
<mgrwt>
<rscale>  0 0.58728631E+02</rscale>
<asrwt>0</asrwt>
<pdfrwt beam="2">  1        2 0.10387472E+00 0.16883066E+03</pdfrwt>
<pdfrwt beam="1">  1       -2 0.22001262E-01 0.20429063E+02</pdfrwt>
<totfact> 0.71497402E+02</totfact>
</mgrwt>
</event>
<event>
 5    1  0.8274494E-003  0.1269039E+03  0.7546771E-02  0.1405545E+00
          2   -1    0    0  502    0  0.00000000000E+00  0.00000000000E+00  0.55784447656E+03  0.55784447656E+03  0.00000000000E+00 0. -1.
          1   -1    0    0  501    0 -0.00000000000E+00 -0.00000000000E+00 -0.16195916130E+03  0.16195916130E+03  0.00000000000E+00 0. -1.
         25    1    1    2    0    0 -0.11300217390E+03  0.30999453374E+02  0.11985087509E+03  0.20909253854E+03  0.12500000000E+03 0.  0.
          2    1    1    2  501    0 -0.16290332731E+02 -0.21143674524E+02 -0.10493646849E+03  0.10827784783E+03  0.00000000000E+00 0. -1.
          1    1    1    2  502    0  0.12929250663E+03 -0.98557788498E+01  0.38097090866E+03  0.40243325148E+03  0.00000000000E+00 0. -1.
<mgrwt>
<rscale>  0 0.58200001E+02</rscale>
<asrwt>0</asrwt>
<pdfrwt beam="1">  1        2 0.85822226E-01 0.12690388E+03</pdfrwt>
<pdfrwt beam="2">  1        1 0.24916794E-01 0.26691383E+02</pdfrwt>
<totfact> 0.13606508E+03</totfact>
</mgrwt>
</event>
<event>
 5    1  0.8274494E-003  0.1052720E+03  0.7546771E-02  0.1431134E+00
          2   -1    0    0  502    0  0.00000000000E+00  0.00000000000E+00  0.63540485414E+03  0.63540485414E+03  0.00000000000E+00 0. -1.
          1   -1    0    0  501    0 -0.00000000000E+00 -0.00000000000E+00 -0.28142964595E+03  0.28142964595E+03  0.00000000000E+00 0. -1.
         25    1    1    2    0    0 -0.10477114043E+03  0.65508230033E+01  0.25120780419E+03  0.29958348759E+03  0.12500000000E+03 0.  0.
          2    1    1    2  501    0  0.37556554196E+01  0.26146780256E+02 -0.24869866858E+03  0.25009755461E+03  0.00000000000E+00 0. -1.
          1    1    1    2  502    0  0.10101548501E+03 -0.32697603260E+02  0.35146607257E+03  0.36715345789E+03  0.00000000000E+00 0. -1.
<mgrwt>
<rscale>  0 0.52733045E+02</rscale>
<asrwt>0</asrwt>
<pdfrwt beam="1">  1        2 0.97754592E-01 0.10527202E+03</pdfrwt>
<pdfrwt beam="2">  1        1 0.43296869E-01 0.26415129E+02</pdfrwt>
<totfact> 0.61840514E+02</totfact>
</mgrwt>
</event>
<event>
 5    1  0.8274494E-003  0.9252324E+02  0.7546771E-02  0.1435893E+00
         -1   -1    0    0    0  501 -0.00000000000E+00  0.00000000000E+00  0.13823666344E+03  0.13823666344E+03  0.00000000000E+00 0.  1.
          1   -1    0    0  502    0  0.00000000000E+00 -0.00000000000E+00 -0.15296689419E+04  0.15296689419E+04  0.00000000000E+00 0. -1.
         25    1    1    2    0    0 -0.25863840074E+02  0.11614868194E+03 -0.20564870142E+03  0.26846944507E+03  0.12500000000E+03 0.  0.
          2    1    1    2  502    0  0.26763816756E+02 -0.87167478900E+02 -0.12890016910E+04  0.12922228255E+04  0.00000000000E+00 0. -1.
         -2    1    1    2    0  501 -0.89997668169E+00 -0.28981203039E+02  0.10321811401E+03  0.10721333475E+03  0.00000000000E+00 0.  1.
<mgrwt>
<rscale>  0 0.51795052E+02</rscale>
<asrwt>0</asrwt>
<pdfrwt beam="2">  1        1 0.23533368E+00 0.92523239E+02</pdfrwt>
<pdfrwt beam="1">  1       -1 0.21267180E-01 0.28995174E+02</pdfrwt>
<totfact> 0.12813833E+02</totfact>
</mgrwt>
</event>
<event>
 5    1  0.8274494E-003  0.1196007E+03  0.7546771E-02  0.1281942E+00
          1   -1    0    0  502    0  0.00000000000E+00  0.00000000000E+00  0.17383128874E+04  0.17383128874E+04  0.00000000000E+00 0. -1.
         -1   -1    0    0    0  501 -0.00000000000E+00 -0.00000000000E+00 -0.68955882154E+02  0.68955882154E+02  0.00000000000E+00 0.  1.
         25    1    1    2    0    0 -0.65834414523E+02 -0.11015817481E+03  0.84421507877E+03  0.86301395865E+03  0.12500000000E+03 0.  0.
          2    1    1    2  502    0 -0.47237572992E+02  0.67410885221E+02  0.81909542936E+03  0.82322107489E+03  0.00000000000E+00 0. -1.
         -2    1    1    2    0  501  0.11307198751E+03  0.42747289591E+02  0.60464971336E+01  0.12103373602E+03  0.00000000000E+00 0.  1.
<mgrwt>
<rscale>  0 0.99221097E+02</rscale>
<asrwt>0</asrwt>
<pdfrwt beam="1">  1        1 0.26743272E+00 0.82314128E+02</pdfrwt>
<pdfrwt beam="2">  1       -1 0.10608599E-01 0.11960068E+03</pdfrwt>
<totfact> 0.30162182E+02</totfact>
</mgrwt>
</event>
<event>
 5    1  0.8274494E-003  0.5685062E+02  0.7546771E-02  0.1433320E+00
         -1   -1    0    0    0  501 -0.00000000000E+00  0.00000000000E+00  0.20188242461E+03  0.20188242461E+03  0.00000000000E+00 0.  1.
          1   -1    0    0  502    0  0.00000000000E+00 -0.00000000000E+00 -0.11304362676E+03  0.11304362676E+03  0.00000000000E+00 0. -1.
         25    1    1    2    0    0  0.18898888158E+02  0.34988394228E+01  0.52966087280E+02  0.13711242195E+03  0.12500000000E+03 0.  0.
          2    1    1    2  502    0  0.46432650958E+02  0.12602381938E+02 -0.49555211442E+02  0.69069024074E+02  0.00000000000E+00 0. -1.
         -2    1    1    2    0  501 -0.65331539115E+02 -0.16101221361E+02  0.85427922013E+02  0.10874460535E+03  0.00000000000E+00 0.  1.
<mgrwt>
<rscale>  0 0.52299373E+02</rscale>
<asrwt>0</asrwt>
<pdfrwt beam="2">  1        1 0.17391327E-01 0.48112484E+02</pdfrwt>
<pdfrwt beam="1">  1       -1 0.31058834E-01 0.56850618E+02</pdfrwt>
<totfact> 0.26872294E+03</totfact>
</mgrwt>
</event>
<event>
 5    1  0.8274494E-003  0.9403661E+02  0.7546771E-02  0.1299342E+00
          1   -1    0    0  501    0 -0.00000000000E+00  0.00000000000E+00  0.14086475597E+04  0.14086475597E+04  0.00000000000E+00 0. -1.
          2   -1    0    0  502    0  0.00000000000E+00 -0.00000000000E+00 -0.15300450951E+03  0.15300450951E+03  0.00000000000E+00 0. -1.
         25    1    1    2    0    0 -0.16644108448E+02  0.96760427704E+02 -0.68043344869E+02  0.17290027038E+03  0.12500000000E+03 0.  0.
          2    1    1    2  501    0  0.90581505142E+02 -0.25256181023E+02  0.12685843385E+04  0.12720648992E+04  0.00000000000E+00 0. -1.
          1    1    1    2  502    0 -0.73937396694E+02 -0.71504246681E+02  0.55102056561E+02  0.11668689970E+03  0.00000000000E+00 0. -1.
<mgrwt>
<rscale>  0 0.91465093E+02</rscale>
<asrwt>0</asrwt>
<pdfrwt beam="2">  1        2 0.23539156E-01 0.88963898E+02</pdfrwt>
<pdfrwt beam="1">  1        1 0.21671500E+00 0.94036609E+02</pdfrwt>
<totfact> 0.27488668E+02</totfact>
</mgrwt>
</event>
<event>
 5    1  0.8274494E-003  0.7156420E+02  0.7546771E-02  0.1362915E+00
         -1   -1    0    0    0  502 -0.00000000000E+00  0.00000000000E+00  0.18407416920E+04  0.18407416920E+04  0.00000000000E+00 0.  1.
         -2   -1    0    0    0  501  0.00000000000E+00 -0.00000000000E+00 -0.33945162846E+02  0.33945162846E+02  0.00000000000E+00 0.  1.
         25    1    1    2    0    0  0.10620154537E+00 -0.12995442490E+02  0.10890391081E+04  0.10962664237E+04  0.12500000000E+03 0.  0.
         -2    1    1    2    0  502 -0.57210471663E+02 -0.34618129130E+02  0.69839697915E+03  0.70159090175E+03  0.00000000000E+00 0.  1.
         -1    1    1    2    0  501  0.57104270118E+02  0.47613571621E+02  0.19360441858E+02  0.76829529330E+02  0.00000000000E+00 0.  1.
<mgrwt>
<rscale>  0 0.69176737E+02</rscale>
<asrwt>0</asrwt>
<pdfrwt beam="2">  1       -2 0.52223342E-02 0.71564199E+02</pdfrwt>
<pdfrwt beam="1">  1       -1 0.28319095E+00 0.66868924E+02</pdfrwt>
<totfact> 0.69957856E+01</totfact>
</mgrwt>
</event>
<event>
 5    1  0.8274494E-003  0.6951102E+02  0.7546771E-02  0.1386966E+00
         -2   -1    0    0    0  501 -0.00000000000E+00  0.00000000000E+00  0.77441296515E+02  0.77441296515E+02  0.00000000000E+00 0.  1.
          2   -1    0    0  502    0  0.00000000000E+00 -0.00000000000E+00 -0.16530405833E+04  0.16530405833E+04  0.00000000000E+00 0. -1.
         25    1    1    2    0    0  0.42988005198E+02 -0.41425804872E+01 -0.38071404301E+03  0.40303016278E+03  0.12500000000E+03 0.  0.
          1    1    1    2  502    0 -0.41547272317E+02  0.60622029794E+02 -0.12478484230E+04  0.12500107572E+04  0.00000000000E+00 0. -1.
         -1    1    1    2    0  501 -0.14407328812E+01 -0.56479449307E+02  0.52963179231E+02  0.77440959831E+02  0.00000000000E+00 0.  1.
<mgrwt>
<rscale>  0 0.62667543E+02</rscale>
<asrwt>0</asrwt>
<pdfrwt beam="2">  1        2 0.25431393E+00 0.69511015E+02</pdfrwt>
<pdfrwt beam="1">  1       -2 0.11914046E-01 0.56497822E+02</pdfrwt>
<totfact> 0.58483100E+02</totfact>
</mgrwt>
</event>
<event>
 5    1  0.8274494E-003  0.1171090E+03  0.7546771E-02  0.1309584E+00
          1   -1    0    0  502    0  0.00000000000E+00  0.00000000000E+00  0.11578516109E+04  0.11578516109E+04  0.00000000000E+00 0. -1.
         -1   -1    0    0    0  501 -0.00000000000E+00 -0.00000000000E+00 -0.20434314250E+04  0.20434314250E+04  0.00000000000E+00 0.  1.
         25    1    1    2    0    0 -0.67940103887E+02 -0.16806858999E+03  0.20535804273E+03  0.30109771565E+03  0.12500000000E+03 0.  0.
          2    1    1    2  502    0  0.29891434508E+02  0.57768602419E+02  0.90174582148E+03  0.90408862167E+03  0.00000000000E+00 0. -1.
         -2    1    1    2    0  501  0.38048669379E+02  0.11029998757E+03 -0.19926836783E+04  0.19960966986E+04  0.00000000000E+00 0.  1.
<mgrwt>
<rscale>  0 0.87276711E+02</rscale>
<asrwt>0</asrwt>
<pdfrwt beam="1">  1        1 0.17813102E+00 0.65043903E+02</pdfrwt>
<pdfrwt beam="2">  1       -1 0.31437407E+00 0.11710897E+03</pdfrwt>
<totfact> 0.48434647E-01</totfact>
</mgrwt>
</event>
<event>
 5    1  0.8274494E-003  0.4676273E+02  0.7546771E-02  0.1483891E+00
          2   -1    0    0  502    0  0.00000000000E+00  0.00000000000E+00  0.18959337566E+03  0.18959337566E+03  0.00000000000E+00 0. -1.
         -2   -1    0    0    0  501 -0.00000000000E+00 -0.00000000000E+00 -0.13515320854E+03  0.13515320854E+03  0.00000000000E+00 0.  1.
         25    1    1    2    0    0  0.31330803673E+02 -0.43905133147E+01  0.22897953764E+02  0.13095881854E+03  0.12500000000E+03 0.  0.
          1    1    1    2  502    0  0.28563484844E+01  0.40374933181E+02  0.10077563441E+03  0.10860028750E+03  0.00000000000E+00 0. -1.
         -1    1    1    2    0  501 -0.34187152157E+02 -0.35984419866E+02 -0.69233421048E+02  0.85187478163E+02  0.00000000000E+00 0.  1.
<mgrwt>
<rscale>  0 0.43505871E+02</rscale>
<asrwt>0</asrwt>
<pdfrwt beam="1">  1        2 0.29168212E-01 0.40475844E+02</pdfrwt>
<pdfrwt beam="2">  1       -2 0.20792801E-01 0.46762725E+02</pdfrwt>
<totfact> 0.31786019E+03</totfact>
</mgrwt>
</event>
<event>
 5    1  0.8274494E-003  0.2179115E+03  0.7546771E-02  0.1150494E+00
          1   -1    0    0  501    0 -0.00000000000E+00  0.00000000000E+00  0.64839512136E+03  0.64839512136E+03  0.00000000000E+00 0. -1.
          2   -1    0    0  502    0  0.00000000000E+00 -0.00000000000E+00 -0.19135601831E+04  0.19135601831E+04  0.00000000000E+00 0. -1.
         25    1    1    2    0    0  0.20860591407E+03 -0.28918008005E+03 -0.36578273310E+03  0.52589310123E+03  0.12500000000E+03 0.  0.
          2    1    1    2  501    0 -0.45854156646E+02  0.20788300339E+03  0.54248710795E+03  0.58276085067E+03  0.00000000000E+00 0. -1.
          1    1    1    2  502    0 -0.16275175742E+03  0.81297076663E+02 -0.14418694366E+04  0.14533013526E+04  0.00000000000E+00 0. -1.
<mgrwt>
<rscale>  0 0.19910786E+03</rscale>
<asrwt>0</asrwt>
<pdfrwt beam="2">  1        2 0.29439387E+00 0.18192677E+03</pdfrwt>
<pdfrwt beam="1">  1        1 0.99753096E-01 0.21791153E+03</pdfrwt>
<totfact> 0.37474594E+01</totfact>
</mgrwt>
</event>
<event>
 5    1  0.8274494E-003  0.6972467E+02  0.7546771E-02  0.1365367E+00
          2   -1    0    0  502    0  0.00000000000E+00  0.00000000000E+00  0.96033210908E+03  0.96033210908E+03  0.00000000000E+00 0. -1.
         -2   -1    0    0    0  501 -0.00000000000E+00 -0.00000000000E+00 -0.15736669860E+03  0.15736669860E+03  0.00000000000E+00 0.  1.
         25    1    1    2    0    0  0.17812938886E+02  0.56076264675E+02  0.50366066775E+03  0.52226517833E+03  0.12500000000E+03 0.  0.
          1    1    1    2  502    0  0.48646513377E+02 -0.66307198812E+02  0.43568436818E+03  0.44337793873E+03  0.00000000000E+00 0. -1.
         -1    1    1    2    0  501 -0.66459452263E+02  0.10230934137E+02 -0.13637962546E+03  0.15205569061E+03  0.00000000000E+00 0.  1.
<mgrwt>
<rscale>  0 0.68472249E+02</rscale>
<asrwt>0</asrwt>
<pdfrwt beam="1">  1        2 0.14774340E+00 0.69724666E+02</pdfrwt>
<pdfrwt beam="2">  1       -2 0.24210262E-01 0.67242329E+02</pdfrwt>
<totfact> 0.43223889E+02</totfact>
</mgrwt>
</event>
<event>
 5    1  0.1570273E-002  0.7925550E+02  0.7546771E-02  0.1344616E+00
          2   -1    0    0  502    0  0.00000000000E+00  0.00000000000E+00  0.80611587101E+03  0.80611587101E+03  0.00000000000E+00 0. -1.
          1   -1    0    0  501    0 -0.00000000000E+00 -0.00000000000E+00 -0.17461107101E+04  0.17461107101E+04  0.00000000000E+00 0. -1.
         25    1    1    2    0    0 -0.44750524831E+01  0.86272057081E+01 -0.40747532318E+03  0.42632803541E+03  0.12500000000E+03 0.  0.
          2    1    1    2  501    0 -0.53887632543E+02  0.45487417074E+02 -0.13262821744E+04  0.13281556340E+04  0.00000000000E+00 0. -1.
          1    1    1    2  502    0  0.58362685026E+02 -0.54114622782E+02  0.79376265840E+03  0.79774291177E+03  0.00000000000E+00 0. -1.
<mgrwt>
<rscale>  0 0.74759939E+02</rscale>
<asrwt>0</asrwt>
<pdfrwt beam="1">  1        2 0.12401783E+00 0.79255504E+02</pdfrwt>
<pdfrwt beam="2">  1        1 0.26863241E+00 0.70519374E+02</pdfrwt>
<totfact> 0.28800182E+01</totfact>
</mgrwt>
</event>
<event>
 5    1  0.8274494E-003  0.2358741E+03  0.7546771E-02  0.1235917E+00
          1   -1    0    0  501    0 -0.00000000000E+00  0.00000000000E+00  0.24982773120E+04  0.24982773120E+04  0.00000000000E+00 0. -1.
          2   -1    0    0  502    0  0.00000000000E+00 -0.00000000000E+00 -0.40561601216E+03  0.40561601216E+03  0.00000000000E+00 0. -1.
         25    1    1    2    0    0  0.64753794795E+02 -0.17240659519E+03  0.21438229670E+03  0.30903374758E+03  0.12500000000E+03 0.  0.
          2    1    1    2  501    0 -0.11538494081E+03  0.21422916582E+03  0.22268761638E+04  0.22401306366E+04  0.00000000000E+00 0. -1.
          1    1    1    2  502    0  0.50631146011E+02 -0.41822570627E+02 -0.34859716072E+03  0.35472893993E+03  0.00000000000E+00 0. -1.
<mgrwt>
<rscale>  0 0.12445890E+03</rscale>
<asrwt>0</asrwt>
<pdfrwt beam="2">  1        2 0.62402465E-01 0.65670696E+02</pdfrwt>
<pdfrwt beam="1">  1        1 0.38435034E+00 0.23587412E+03</pdfrwt>
<totfact> 0.17602196E+01</totfact>
</mgrwt>
</event>
<event>
 5    1  0.8274494E-003  0.4394269E+02  0.7546771E-02  0.1512584E+00
          2   -1    0    0  502    0  0.00000000000E+00  0.00000000000E+00  0.16986213507E+04  0.16986213507E+04  0.00000000000E+00 0. -1.
          3   -1    0    0  501    0 -0.00000000000E+00 -0.00000000000E+00 -0.27426800778E+02  0.27426800778E+02  0.00000000000E+00 0. -1.
         25    1    1    2    0    0 -0.44324316361E+02 -0.45756140793E+02  0.30392966077E+03  0.33474842515E+03  0.12500000000E+03 0.  0.
          2    1    1    2  501    0  0.92303938224E+01  0.41522694766E+02  0.26599452682E+02  0.50168368857E+02  0.00000000000E+00 0. -1.
          1    1    1    2  502    0  0.35093922539E+02  0.42334460273E+01  0.13406654365E+04  0.13411313575E+04  0.00000000000E+00 0. -1.
<mgrwt>
<rscale>  0 0.39411944E+02</rscale>
<asrwt>0</asrwt>
<pdfrwt beam="1">  1        2 0.26132628E+00 0.35348345E+02</pdfrwt>
<pdfrwt beam="2">  1        3 0.42195092E-02 0.43942689E+02</pdfrwt>
<totfact> 0.18866415E+03</totfact>
</mgrwt>
</event>
<event>
 5    1  0.8274494E-003  0.1326741E+03  0.7546771E-02  0.1264134E+00
          1   -1    0    0  502    0  0.00000000000E+00  0.00000000000E+00  0.52688473836E+03  0.52688473836E+03  0.00000000000E+00 0. -1.
         -1   -1    0    0    0  501 -0.00000000000E+00 -0.00000000000E+00 -0.14127462735E+03  0.14127462735E+03  0.00000000000E+00 0.  1.
         25    1    1    2    0    0 -0.23809546505E+01 -0.73668158637E+02  0.76075756269E+02  0.16384500979E+03  0.12500000000E+03 0.  0.
          2    1    1    2  502    0 -0.44216677809E+02  0.14840508250E+03  0.36755768047E+03  0.39884562374E+03  0.00000000000E+00 0. -1.
         -2    1    1    2    0  501  0.46597632459E+02 -0.74736923864E+02 -0.58023325717E+02  0.10546873218E+03  0.00000000000E+00 0.  1.
<mgrwt>
<rscale>  0 0.10809752E+03</rscale>
<asrwt>0</asrwt>
<pdfrwt beam="1">  1        1 0.81059189E-01 0.13267408E+03</pdfrwt>
<pdfrwt beam="2">  1       -1 0.21734558E-01 0.88073533E+02</pdfrwt>
<totfact> 0.73355244E+02</totfact>
</mgrwt>
</event>
<event>
 5    1  0.8274494E-003  0.8728471E+02  0.7546771E-02  0.1346241E+00
          1   -1    0    0  501    0 -0.00000000000E+00  0.00000000000E+00  0.10131342483E+04  0.10131342483E+04  0.00000000000E+00 0. -1.
          2   -1    0    0  502    0  0.00000000000E+00 -0.00000000000E+00 -0.48766385556E+03  0.48766385556E+03  0.00000000000E+00 0. -1.
         25    1    1    2    0    0  0.70046139375E+01  0.14671501080E+03 -0.11084949498E+03  0.22245666892E+03  0.12500000000E+03 0.  0.
          2    1    1    2  501    0  0.10308257182E+02 -0.85989925210E+02  0.95224116545E+03  0.95617140962E+03  0.00000000000E+00 0. -1.
          1    1    1    2  502    0 -0.17312871120E+02 -0.60725085593E+02 -0.31592127770E+03  0.32217002535E+03  0.00000000000E+00 0. -1.
<mgrwt>
<rscale>  0 0.74240013E+02</rscale>
<asrwt>0</asrwt>
<pdfrwt beam="2">  1        2 0.75025209E-01 0.63144846E+02</pdfrwt>
<pdfrwt beam="1">  1        1 0.15586681E+00 0.87284709E+02</pdfrwt>
<totfact> 0.15029966E+02</totfact>
</mgrwt>
</event>
<event>
 5    1  0.8274494E-003  0.4981549E+02  0.7546771E-02  0.1528692E+00
          2   -1    0    0  502    0  0.00000000000E+00  0.00000000000E+00  0.15785774381E+04  0.15785774381E+04  0.00000000000E+00 0. -1.
          1   -1    0    0  501    0 -0.00000000000E+00 -0.00000000000E+00 -0.16677756787E+03  0.16677756787E+03  0.00000000000E+00 0. -1.
         25    1    1    2    0    0 -0.12821616200E+02  0.17908210806E+02 -0.24805445608E+02  0.12932674893E+03  0.12500000000E+03 0.  0.
          2    1    1    2  501    0 -0.13951554932E+02  0.24276280969E+02 -0.87107245727E+02  0.91496753827E+02  0.00000000000E+00 0. -1.
          1    1    1    2  502    0  0.26773171132E+02 -0.42184491775E+02  0.15237125616E+04  0.15245315032E+04  0.00000000000E+00 0. -1.
<mgrwt>
<rscale>  0 0.37347278E+02</rscale>
<asrwt>0</asrwt>
<pdfrwt beam="1">  1        2 0.24285806E+00 0.49815487E+02</pdfrwt>
<pdfrwt beam="2">  1        1 0.25658088E-01 0.27999709E+02</pdfrwt>
<totfact> 0.33950828E+02</totfact>
</mgrwt>
</event>
<event>
 5    1  0.8274494E-003  0.7822332E+02  0.7546771E-02  0.1434597E+00
          2   -1    0    0  502    0  0.00000000000E+00  0.00000000000E+00  0.26446270857E+04  0.26446270857E+04  0.00000000000E+00 0. -1.
          1   -1    0    0  501    0 -0.00000000000E+00 -0.00000000000E+00 -0.33671951454E+03  0.33671951454E+03  0.00000000000E+00 0. -1.
         25    1    1    2    0    0 -0.83569679445E+02 -0.69857684707E+02 -0.19935781370E+02  0.16699228370E+03  0.12500000000E+03 0.  0.
          2    1    1    2  501    0  0.52387289517E+02  0.54790538560E+02 -0.23722999763E+03  0.24904719029E+03  0.00000000000E+00 0. -1.
          1    1    1    2  502    0  0.31182389927E+02  0.15067146147E+02  0.25650733502E+04  0.25653071263E+04  0.00000000000E+00 0. -1.
<mgrwt>
<rscale>  0 0.52048178E+02</rscale>
<asrwt>0</asrwt>
<pdfrwt beam="1">  1        2 0.40686569E+00 0.34631782E+02</pdfrwt>
<pdfrwt beam="2">  1        1 0.51803004E-01 0.78223317E+02</pdfrwt>
<totfact> 0.46878670E+01</totfact>
</mgrwt>
</event>
<event>
 5    1  0.8274494E-003  0.7987904E+02  0.7546771E-02  0.1462350E+00
         -1   -1    0    0    0  501 -0.00000000000E+00  0.00000000000E+00  0.30911861860E+02  0.30911861860E+02  0.00000000000E+00 0.  1.
          1   -1    0    0  502    0  0.00000000000E+00 -0.00000000000E+00 -0.11319899916E+04  0.11319899916E+04  0.00000000000E+00 0. -1.
         25    1    1    2    0    0  0.17139388779E+02  0.52608524411E+02 -0.59575048334E+03  0.61123240579E+03  0.12500000000E+03 0.  0.
          2    1    1    2  502    0  0.79691646798E+01  0.26455816196E+02 -0.45245328104E+03  0.45329613865E+03  0.00000000000E+00 0. -1.
         -2    1    1    2    0  501 -0.25108553459E+02 -0.79064340607E+02 -0.52874365339E+02  0.98373308994E+02  0.00000000000E+00 0.  1.
<mgrwt>
<rscale>  0 0.46979349E+02</rscale>
<asrwt>0</asrwt>
<pdfrwt beam="2">  1        1 0.17415229E+00 0.27630016E+02</pdfrwt>
<pdfrwt beam="1">  1       -1 0.47556716E-02 0.79879043E+02</pdfrwt>
<totfact> 0.25845693E+03</totfact>
</mgrwt>
</event>
<event>
 5    1  0.8274494E-003  0.4297162E+02  0.7546771E-02  0.1517943E+00
          1   -1    0    0  502    0  0.00000000000E+00  0.00000000000E+00  0.48659905375E+03  0.48659905375E+03  0.00000000000E+00 0. -1.
         -1   -1    0    0    0  501 -0.00000000000E+00 -0.00000000000E+00 -0.24339840652E+02  0.24339840652E+02  0.00000000000E+00 0.  1.
         25    1    1    2    0    0 -0.10119859142E+02 -0.26150494100E+01  0.28135720289E+03  0.30805214762E+03  0.12500000000E+03 0.  0.
          2    1    1    2  502    0  0.20085073230E+02 -0.39185122561E+02  0.12397050239E+03  0.13155823600E+03  0.00000000000E+00 0. -1.
         -2    1    1    2    0  501 -0.99652140883E+01  0.41800171971E+02  0.56931507821E+02  0.71328510790E+02  0.00000000000E+00 0.  1.
<mgrwt>
<rscale>  0 0.38707657E+02</rscale>
<asrwt>0</asrwt>
<pdfrwt beam="1">  1        1 0.74861386E-01 0.34866799E+02</pdfrwt>
<pdfrwt beam="2">  1       -1 0.37445912E-02 0.42971617E+02</pdfrwt>
<totfact> 0.10889450E+04</totfact>
</mgrwt>
</event>
<event>
 5    1  0.8274494E-003  0.4384671E+02  0.7546771E-02  0.1515510E+00
          2   -1    0    0  502    0  0.00000000000E+00  0.00000000000E+00  0.94481635533E+03  0.94481635533E+03  0.00000000000E+00 0. -1.
          1   -1    0    0  501    0 -0.00000000000E+00 -0.00000000000E+00 -0.10814489758E+04  0.10814489758E+04  0.00000000000E+00 0. -1.
         25    1    1    2    0    0 -0.17224719012E+02 -0.74539605673E+02  0.10766212937E+02  0.14694813745E+03  0.12500000000E+03 0.  0.
          2    1    1    2  501    0  0.13624207284E+01  0.43639265063E+02 -0.10125390871E+04  0.10134799675E+04  0.00000000000E+00 0. -1.
          1    1    1    2  502    0  0.15862298283E+02  0.30900340610E+02  0.86514025372E+03  0.86583722614E+03  0.00000000000E+00 0. -1.
<mgrwt>
<rscale>  0 0.39025212E+02</rscale>
<asrwt>0</asrwt>
<pdfrwt beam="1">  1        2 0.14535636E+00 0.34733896E+02</pdfrwt>
<pdfrwt beam="2">  1        1 0.16637677E+00 0.43846712E+02</pdfrwt>
<totfact> 0.68125363E+01</totfact>
</mgrwt>
</event>
<event>
 5    1  0.8274494E-003  0.1027456E+03  0.7546771E-02  0.1321935E+00
          1   -1    0    0  501    0 -0.00000000000E+00  0.00000000000E+00  0.16065146400E+04  0.16065146400E+04  0.00000000000E+00 0. -1.
          2   -1    0    0  502    0  0.00000000000E+00 -0.00000000000E+00 -0.11643951889E+04  0.11643951889E+04  0.00000000000E+00 0. -1.
         25    1    1    2    0    0 -0.12315212376E+03  0.52881047338E+02 -0.76947708465E+03  0.79100115965E+03  0.12500000000E+03 0.  0.
          2    1    1    2  501    0  0.63088912164E+02 -0.81055792421E+02  0.15912200187E+04  0.15945317182E+04  0.00000000000E+00 0. -1.
          1    1    1    2  502    0  0.60063211600E+02  0.28174745083E+02 -0.37962348288E+03  0.38537695105E+03  0.00000000000E+00 0. -1.
<mgrwt>
<rscale>  0 0.82561841E+02</rscale>
<asrwt>0</asrwt>
<pdfrwt beam="2">  1        2 0.17913772E+00 0.66343090E+02</pdfrwt>
<pdfrwt beam="1">  1        1 0.24715610E+00 0.10274555E+03</pdfrwt>
<totfact> 0.21014133E+01</totfact>
</mgrwt>
</event>
<event>
 5    1  0.8274494E-003  0.7077654E+02  0.7546771E-02  0.1430015E+00
          1   -1    0    0  501    0 -0.00000000000E+00  0.00000000000E+00  0.19691127694E+04  0.19691127694E+04  0.00000000000E+00 0. -1.
          2   -1    0    0  502    0  0.00000000000E+00 -0.00000000000E+00 -0.35220248586E+03  0.35220248586E+03  0.00000000000E+00 0. -1.
         25    1    1    2    0    0 -0.99635902208E+02 -0.24916738538E+02  0.62340271287E+02  0.17337666017E+03  0.12500000000E+03 0.  0.
          2    1    1    2  501    0  0.38607458730E+02 -0.89172859529E+01  0.18469358409E+04  0.18473608349E+04  0.00000000000E+00 0. -1.
          1    1    1    2  502    0  0.61028443478E+02  0.33834024491E+02 -0.29236582868E+03  0.30057776016E+03  0.00000000000E+00 0. -1.
<mgrwt>
<rscale>  0 0.52956991E+02</rscale>
<asrwt>0</asrwt>
<pdfrwt beam="2">  1        2 0.54184999E-01 0.70776539E+02</pdfrwt>
<pdfrwt beam="1">  1        1 0.30294042E+00 0.39623905E+02</pdfrwt>
<totfact> 0.56176966E+01</totfact>
</mgrwt>
</event>
<event>
 5    1  0.8274494E-003  0.5445084E+02  0.7546771E-02  0.1525991E+00
          2   -1    0    0  502    0  0.00000000000E+00  0.00000000000E+00  0.42740636079E+02  0.42740636079E+02  0.00000000000E+00 0. -1.
          1   -1    0    0  501    0 -0.00000000000E+00 -0.00000000000E+00 -0.80296739569E+03  0.80296739569E+03  0.00000000000E+00 0. -1.
         25    1    1    2    0    0  0.73145658237E+02 -0.10542157571E+02 -0.24500897371E+03  0.28480839454E+03  0.12500000000E+03 0.  0.
          2    1    1    2  501    0 -0.52954859518E+02 -0.59628456254E+01 -0.52881229064E+03  0.53149055627E+03  0.00000000000E+00 0. -1.
          1    1    1    2  502    0 -0.20190798719E+02  0.16505003196E+02  0.13594504738E+02  0.29409080953E+02  0.00000000000E+00 0. -1.
<mgrwt>
<rscale>  0 0.37682774E+02</rscale>
<asrwt>0</asrwt>
<pdfrwt beam="1">  1        2 0.65754829E-02 0.26078410E+02</pdfrwt>
<pdfrwt beam="2">  1        1 0.12353344E+00 0.54450843E+02</pdfrwt>
<totfact> 0.30190892E+03</totfact>
</mgrwt>
</event>
<event>
 5    1  0.8274494E-003  0.7352709E+02  0.7546771E-02  0.1402929E+00
          2   -1    0    0  502    0  0.00000000000E+00  0.00000000000E+00  0.23035918028E+04  0.23035918028E+04  0.00000000000E+00 0. -1.
         -2   -1    0    0    0  501 -0.00000000000E+00 -0.00000000000E+00 -0.68403402011E+02  0.68403402011E+02  0.00000000000E+00 0.  1.
         25    1    1    2    0    0 -0.69443373200E+02 -0.29499293539E+02  0.28682196290E+03  0.32184534920E+03  0.12500000000E+03 0.  0.
          1    1    1    2  502    0  0.37371034077E+02  0.63891126667E+02  0.19875567712E+04  0.19889345361E+04  0.00000000000E+00 0. -1.
         -1    1    1    2    0  501  0.32072339124E+02 -0.34391833128E+02 -0.39190333269E+02  0.61215319524E+02  0.00000000000E+00 0.  1.
<mgrwt>
<rscale>  0 0.58802007E+02</rscale>
<asrwt>0</asrwt>
<pdfrwt beam="1">  1        2 0.35439868E+00 0.73527093E+02</pdfrwt>
<pdfrwt beam="2">  1       -2 0.10523602E-01 0.47025877E+02</pdfrwt>
<totfact> 0.32899013E+02</totfact>
</mgrwt>
</event>
<event>
 5    1  0.8274494E-003  0.1476995E+03  0.7546771E-02  0.1395335E+00
          2   -1    0    0  502    0  0.00000000000E+00  0.00000000000E+00  0.20134667815E+03  0.20134667815E+03  0.00000000000E+00 0. -1.
          1   -1    0    0  501    0 -0.00000000000E+00 -0.00000000000E+00 -0.15914416645E+04  0.15914416645E+04  0.00000000000E+00 0. -1.
         25    1    1    2    0    0 -0.66957700697E+02  0.13627978196E+03 -0.79455299016E+03  0.81853220268E+03  0.12500000000E+03 0.  0.
          2    1    1    2  501    0 -0.18878818531E+02 -0.16178825711E+02 -0.75589234982E+03  0.75630113625E+03  0.00000000000E+00 0. -1.
          3    1    1    2  502    0  0.85836519228E+02 -0.12010095625E+03  0.16035035364E+03  0.21795500370E+03  0.00000000000E+00 0. -1.
<mgrwt>
<rscale>  0 0.60598993E+02</rscale>
<asrwt>0</asrwt>
<pdfrwt beam="1">  1        2 0.30976411E-01 0.14769945E+03</pdfrwt>
<pdfrwt beam="2">  1        1 0.24483719E+00 0.24862908E+02</pdfrwt>
<totfact> 0.18265977E+02</totfact>
</mgrwt>
</event>
<event>
 5    1  0.8274494E-003  0.8691129E+02  0.7546771E-02  0.1409132E+00
         -1   -1    0    0    0  501 -0.00000000000E+00  0.00000000000E+00  0.15814000238E+03  0.15814000238E+03  0.00000000000E+00 0.  1.
          1   -1    0    0  502    0  0.00000000000E+00 -0.00000000000E+00 -0.34694198257E+03  0.34694198257E+03  0.00000000000E+00 0. -1.
         25    1    1    2    0    0  0.87099128418E+02 -0.82273387901E+02 -0.64397926111E+02  0.18473565280E+03  0.12500000000E+03 0.  0.
          2    1    1    2  502    0 -0.24381953027E+02  0.29007457075E+02 -0.20303016612E+03  0.20653609988E+03  0.00000000000E+00 0. -1.
         -2    1    1    2    0  501 -0.62717175391E+02  0.53265930826E+02  0.78626112036E+02  0.11381023227E+03  0.00000000000E+00 0.  1.
<mgrwt>
<rscale>  0 0.57387865E+02</rscale>
<asrwt>0</asrwt>
<pdfrwt beam="2">  1        1 0.53375689E-01 0.37893432E+02</pdfrwt>
<pdfrwt beam="1">  1       -1 0.24329231E-01 0.86911289E+02</pdfrwt>
<totfact> 0.10471483E+03</totfact>
</mgrwt>
</event>
<event>
 5    1  0.8274494E-003  0.4255317E+02  0.7546771E-02  0.1506768E+00
          2   -1    0    0  502    0  0.00000000000E+00  0.00000000000E+00  0.32083564161E+03  0.32083564161E+03  0.00000000000E+00 0. -1.
          1   -1    0    0  501    0 -0.00000000000E+00 -0.00000000000E+00 -0.85989296390E+03  0.85989296390E+03  0.00000000000E+00 0. -1.
         25    1    1    2    0    0 -0.31324673506E+02 -0.93189878530E+01 -0.24955953949E+03  0.28102142704E+03  0.12500000000E+03 0.  0.
          2    1    1    2  501    0  0.12150024080E+02  0.42092964394E+02 -0.59260930505E+03  0.59422658066E+03  0.00000000000E+00 0. -1.
          1    1    1    2  502    0  0.19174649427E+02 -0.32773976541E+02  0.30311152225E+03  0.30548059781E+03  0.00000000000E+00 0. -1.
<mgrwt>
<rscale>  0 0.40196871E+02</rscale>
<asrwt>0</asrwt>
<pdfrwt beam="1">  1        2 0.49359329E-01 0.37971051E+02</pdfrwt>
<pdfrwt beam="2">  1        1 0.13229123E+00 0.42553166E+02</pdfrwt>
<totfact> 0.31266066E+02</totfact>
</mgrwt>
</event>
<event>
 5    1  0.8274494E-003  0.6056971E+02  0.7546771E-02  0.1446539E+00
          2   -1    0    0  502    0  0.00000000000E+00  0.00000000000E+00  0.11484974169E+04  0.11484974169E+04  0.00000000000E+00 0. -1.
          1   -1    0    0  501    0 -0.00000000000E+00 -0.00000000000E+00 -0.81135286312E+03  0.81135286312E+03  0.00000000000E+00 0. -1.
         25    1    1    2    0    0 -0.13828810000E+02 -0.87913351156E+02  0.80943186519E+02  0.17348427232E+03  0.12500000000E+03 0.  0.
          2    1    1    2  501    0  0.28315009041E+02  0.29527886923E+02 -0.76364850536E+03  0.76474353582E+03  0.00000000000E+00 0. -1.
          1    1    1    2  502    0 -0.14486199041E+02  0.58385464233E+02  0.10198498726E+04  0.10216224719E+04  0.00000000000E+00 0. -1.
<mgrwt>
<rscale>  0 0.49778635E+02</rscale>
<asrwt>0</asrwt>
<pdfrwt beam="1">  1        2 0.17669191E+00 0.60569707E+02</pdfrwt>
<pdfrwt beam="2">  1        1 0.12482352E+00 0.40910095E+02</pdfrwt>
<totfact> 0.79772188E+01</totfact>
</mgrwt>
</event>
<event>
 5    1  0.8274494E-003  0.1949139E+03  0.7546771E-02  0.1306285E+00
          2   -1    0    0  502    0  0.00000000000E+00  0.00000000000E+00  0.36506232537E+03  0.36506232537E+03  0.00000000000E+00 0. -1.
          1   -1    0    0  501    0 -0.00000000000E+00 -0.00000000000E+00 -0.25749597466E+04  0.25749597466E+04  0.00000000000E+00 0. -1.
         25    1    1    2    0    0  0.16273430460E+03  0.26924206489E+02 -0.47081709039E+03  0.51429670365E+03  0.12500000000E+03 0.  0.
          2    1    1    2  501    0 -0.19534547447E+03 -0.50552242293E+02 -0.20763140009E+04  0.20860956867E+04  0.00000000000E+00 0. -1.
          1    1    1    2  502    0  0.32611169862E+02  0.23628035805E+02  0.33723367003E+03  0.33962968168E+03  0.00000000000E+00 0. -1.
<mgrwt>
<rscale>  0 0.88596973E+02</rscale>
<asrwt>0</asrwt>
<pdfrwt beam="1">  1        2 0.56163436E-01 0.40271236E+02</pdfrwt>
<pdfrwt beam="2">  1        1 0.39614765E+00 0.19491390E+03</pdfrwt>
<totfact> 0.17898803E+01</totfact>
</mgrwt>
</event>
<event>
 5    1  0.8274494E-003  0.1502290E+03  0.7546771E-02  0.1362123E+00
          2   -1    0    0  502    0  0.00000000000E+00  0.00000000000E+00  0.24202719465E+03  0.24202719465E+03  0.00000000000E+00 0. -1.
          1   -1    0    0  501    0 -0.00000000000E+00 -0.00000000000E+00 -0.98777031255E+03  0.98777031255E+03  0.00000000000E+00 0. -1.
         25    1    1    2    0    0  0.56510176788E+02  0.15042319971E+03 -0.33800546200E+03  0.39457981630E+03  0.12500000000E+03 0.  0.
          2    1    1    2  501    0 -0.24815794860E+02 -0.14555550662E+03 -0.61143538827E+03  0.62901149688E+03  0.00000000000E+00 0. -1.
          1    1    1    2  502    0 -0.31694381929E+02 -0.48676930912E+01  0.20369773236E+03  0.20620619402E+03  0.00000000000E+00 0. -1.
<mgrwt>
<rscale>  0 0.69406357E+02</rscale>
<asrwt>0</asrwt>
<pdfrwt beam="1">  1        2 0.37234952E-01 0.32065999E+02</pdfrwt>
<pdfrwt beam="2">  1        1 0.15196467E+00 0.15022898E+03</pdfrwt>
<totfact> 0.30873487E+02</totfact>
</mgrwt>
</event>
<event>
 5    1  0.8274494E-003  0.5918969E+02  0.7546771E-02  0.1406903E+00
         -1   -1    0    0    0  501 -0.00000000000E+00  0.00000000000E+00  0.13509331114E+03  0.13509331114E+03  0.00000000000E+00 0.  1.
          1   -1    0    0  502    0  0.00000000000E+00 -0.00000000000E+00 -0.25226498736E+03  0.25226498736E+03  0.00000000000E+00 0. -1.
         25    1    1    2    0    0  0.68798720724E+01 -0.20212048408E+01  0.75764807155E+01  0.12543452861E+03  0.12500000000E+03 0.  0.
          2    1    1    2  502    0 -0.63475774965E+02  0.36744911029E+01 -0.17501703092E+03  0.18620858467E+03  0.00000000000E+00 0. -1.
         -2    1    1    2    0  501  0.56595902893E+02 -0.16532862621E+01  0.50268873983E+02  0.75715185209E+02  0.00000000000E+00 0.  1.
<mgrwt>
<rscale>  0 0.57890614E+02</rscale>
<asrwt>0</asrwt>
<pdfrwt beam="2">  1        1 0.38809998E-01 0.59189695E+02</pdfrwt>
<pdfrwt beam="1">  1       -1 0.20783587E-01 0.56620046E+02</pdfrwt>
<totfact> 0.19431474E+03</totfact>
</mgrwt>
</event>
<event>
 5    1  0.8274494E-003  0.4924652E+02  0.7546771E-02  0.1483914E+00
          2   -1    0    0  502    0  0.00000000000E+00  0.00000000000E+00  0.76428131573E+03  0.76428131573E+03  0.00000000000E+00 0. -1.
         -2   -1    0    0    0  501 -0.00000000000E+00 -0.00000000000E+00 -0.46011340437E+02  0.46011340437E+02  0.00000000000E+00 0.  1.
         25    1    1    2    0    0  0.14309277108E+02 -0.82810048050E+02  0.37382222510E+03  0.40302644510E+03  0.12500000000E+03 0.  0.
          1    1    1    2  502    0 -0.15462255210E+02  0.35179949197E+02  0.35614099716E+03  0.35820820764E+03  0.00000000000E+00 0. -1.
         -1    1    1    2    0  501  0.11529781014E+01  0.47630098853E+02 -0.11693246974E+02  0.49058003425E+02  0.00000000000E+00 0.  1.
<mgrwt>
<rscale>  0 0.43502239E+02</rscale>
<asrwt>0</asrwt>
<pdfrwt beam="1">  1        2 0.11758173E+00 0.38427987E+02</pdfrwt>
<pdfrwt beam="2">  1       -2 0.70786683E-02 0.49246525E+02</pdfrwt>
<totfact> 0.40191802E+03</totfact>
</mgrwt>
</event>
<event>
 5    1  0.8274494E-003  0.9414373E+02  0.7546771E-02  0.1316053E+00
          1   -1    0    0  501    0 -0.00000000000E+00  0.00000000000E+00  0.89199540054E+03  0.89199540054E+03  0.00000000000E+00 0. -1.
          2   -1    0    0  502    0  0.00000000000E+00 -0.00000000000E+00 -0.18550347291E+03  0.18550347291E+03  0.00000000000E+00 0. -1.
         25    1    1    2    0    0 -0.31981713492E+02 -0.97992346435E+02  0.29551559214E+03  0.33701601617E+03  0.12500000000E+03 0.  0.
          2    1    1    2  501    0 -0.43555456946E+02  0.87109242576E+02  0.56247670422E+03  0.57084598690E+03  0.00000000000E+00 0. -1.
          1    1    1    2  502    0  0.75537170439E+02  0.10883103859E+02 -0.15150036873E+03  0.16963687038E+03  0.00000000000E+00 0. -1.
<mgrwt>
<rscale>  0 0.84763083E+02</rscale>
<asrwt>0</asrwt>
<pdfrwt beam="2">  1        2 0.28538996E-01 0.76317141E+02</pdfrwt>
<pdfrwt beam="1">  1        1 0.13723006E+00 0.94143729E+02</pdfrwt>
<totfact> 0.50480394E+02</totfact>
</mgrwt>
</event>
<event>
 5    1  0.8274494E-003  0.1143088E+03  0.7546771E-02  0.1262232E+00
          1   -1    0    0  501    0 -0.00000000000E+00  0.00000000000E+00  0.96866552382E+03  0.96866552382E+03  0.00000000000E+00 0. -1.
          2   -1    0    0  502    0  0.00000000000E+00 -0.00000000000E+00 -0.66538109871E+03  0.66538109871E+03  0.00000000000E+00 0. -1.
         25    1    1    2    0    0  0.51063507491E+02 -0.46547637435E+02 -0.23756334898E+03  0.27719218807E+03  0.12500000000E+03 0.  0.
          2    1    1    2  501    0  0.10156385302E+03  0.23031182902E+02  0.93123109781E+03  0.93703629020E+03  0.00000000000E+00 0. -1.
          1    1    1    2  502    0 -0.15262736051E+03  0.23516454533E+02 -0.39038332372E+03  0.41981814426E+03  0.00000000000E+00 0. -1.
<mgrwt>
<rscale>  0 0.10910728E+03</rscale>
<asrwt>0</asrwt>
<pdfrwt beam="2">  1        2 0.10236632E+00 0.11430879E+03</pdfrwt>
<pdfrwt beam="1">  1        1 0.14902546E+00 0.10414246E+03</pdfrwt>
<totfact> 0.11221642E+02</totfact>
</mgrwt>
</event>
<event>
 5    1  0.8274494E-003  0.9257098E+02  0.7546771E-02  0.1367578E+00
          1   -1    0    0  501    0 -0.00000000000E+00  0.00000000000E+00  0.23134672990E+03  0.23134672990E+03  0.00000000000E+00 0. -1.
          2   -1    0    0  502    0  0.00000000000E+00 -0.00000000000E+00 -0.17670780651E+04  0.17670780651E+04  0.00000000000E+00 0. -1.
         25    1    1    2    0    0  0.51502438477E+02  0.12750897527E+03 -0.20637333766E+03  0.27771567194E+03  0.12500000000E+03 0.  0.
          2    1    1    2  501    0 -0.30904003495E+02 -0.38953513567E+02  0.19113670031E+03  0.19749853634E+03  0.00000000000E+00 0. -1.
          1    1    1    2  502    0 -0.20598434982E+02 -0.88555461701E+02 -0.15204946979E+04  0.15232105868E+04  0.00000000000E+00 0. -1.
<mgrwt>
<rscale>  0 0.67845115E+02</rscale>
<asrwt>0</asrwt>
<pdfrwt beam="2">  1        2 0.27185816E+00 0.92570976E+02</pdfrwt>
<pdfrwt beam="1">  1        1 0.35591805E-01 0.49723572E+02</pdfrwt>
<totfact> 0.17785609E+02</totfact>
</mgrwt>
</event>
<event>
 5    1  0.8274494E-003  0.5238717E+02  0.7546771E-02  0.1458375E+00
          2   -1    0    0  502    0  0.00000000000E+00  0.00000000000E+00  0.20675024717E+04  0.20675024717E+04  0.00000000000E+00 0. -1.
          1   -1    0    0  501    0 -0.00000000000E+00 -0.00000000000E+00 -0.79068678308E+02  0.79068678308E+02  0.00000000000E+00 0. -1.
         25    1    1    2    0    0  0.28909581725E+02 -0.11255037474E+02  0.93473479730E+03  0.94356588592E+03  0.12500000000E+03 0.  0.
          2    1    1    2  501    0  0.22529239686E+02  0.37051533842E+02 -0.67555367256E+02  0.80275216885E+02  0.00000000000E+00 0. -1.
          1    1    1    2  502    0 -0.51438821410E+02 -0.25796496369E+02  0.11212543634E+04  0.11227300473E+04  0.00000000000E+00 0. -1.
<mgrwt>
<rscale>  0 0.47662195E+02</rscale>
<asrwt>0</asrwt>
<pdfrwt beam="1">  1        2 0.31807726E+00 0.52387171E+02</pdfrwt>
<pdfrwt beam="2">  1        1 0.12164414E-01 0.43363381E+02</pdfrwt>
<totfact> 0.49747032E+02</totfact>
</mgrwt>
</event>
<event>
 5    1  0.8274494E-003  0.4648194E+02  0.7546771E-02  0.1545537E+00
          2   -1    0    0  502    0  0.00000000000E+00  0.00000000000E+00  0.49984745584E+03  0.49984745584E+03  0.00000000000E+00 0. -1.
         -2   -1    0    0    0  501 -0.00000000000E+00 -0.00000000000E+00 -0.24465903036E+03  0.24465903036E+03  0.00000000000E+00 0.  1.
         25    1    1    2    0    0  0.13102749827E+02 -0.32393813545E+02 -0.34295085952E+02  0.13424676581E+03  0.12500000000E+03 0.  0.
          1    1    1    2  502    0  0.10318228019E+02  0.45584631376E+02  0.44751978283E+03  0.44995375370E+03  0.00000000000E+00 0. -1.
         -1    1    1    2    0  501 -0.23420977845E+02 -0.13190817831E+02 -0.15803627140E+03  0.16030596669E+03  0.00000000000E+00 0.  1.
<mgrwt>
<rscale>  0 0.35347407E+02</rscale>
<asrwt>0</asrwt>
<pdfrwt beam="1">  1        2 0.76899609E-01 0.46481937E+02</pdfrwt>
<pdfrwt beam="2">  1       -2 0.37639851E-01 0.26880102E+02</pdfrwt>
<totfact> 0.41517498E+02</totfact>
</mgrwt>
</event>
<event>
 5    1  0.8274494E-003  0.5344628E+02  0.7546771E-02  0.1525576E+00
          2   -1    0    0  502    0  0.00000000000E+00  0.00000000000E+00  0.40044603541E+03  0.40044603541E+03  0.00000000000E+00 0. -1.
          1   -1    0    0  501    0 -0.00000000000E+00 -0.00000000000E+00 -0.12617549082E+04  0.12617549082E+04  0.00000000000E+00 0. -1.
         25    1    1    2    0    0  0.23734659698E+02 -0.61854285143E+02 -0.13509356515E+02  0.14211540865E+03  0.12500000000E+03 0.  0.
          2    1    1    2  501    0 -0.36814968446E+02  0.38644517203E+02 -0.11828118818E+04  0.11840154933E+04  0.00000000000E+00 0. -1.
          1    1    1    2  502    0  0.13080308748E+02  0.23209767940E+02  0.33501236556E+03  0.33607004164E+03  0.00000000000E+00 0. -1.
<mgrwt>
<rscale>  0 0.37734697E+02</rscale>
<asrwt>0</asrwt>
<pdfrwt beam="1">  1        2 0.61607083E-01 0.26641843E+02</pdfrwt>
<pdfrwt beam="2">  1        1 0.19411614E+00 0.53446277E+02</pdfrwt>
<totfact> 0.13004167E+02</totfact>
</mgrwt>
</event>
<event>
 5    1  0.8274494E-003  0.2358689E+03  0.7546771E-02  0.1219134E+00
          2   -1    0    0  502    0  0.00000000000E+00  0.00000000000E+00  0.13163299436E+04  0.13163299436E+04  0.00000000000E+00 0. -1.
          1   -1    0    0  501    0 -0.00000000000E+00 -0.00000000000E+00 -0.36174724006E+03  0.36174724006E+03  0.00000000000E+00 0. -1.
         25    1    1    2    0    0 -0.65711928393E+02 -0.27807945614E+03  0.48269496861E+03  0.57468745782E+03  0.12500000000E+03 0.  0.
          2    1    1    2  501    0  0.23562457109E+01  0.23231816937E+03 -0.27068367323E+03  0.35671688307E+03  0.00000000000E+00 0. -1.
          1    1    1    2  502    0  0.63355682682E+02  0.45761286774E+02  0.74257140815E+03  0.74667284274E+03  0.00000000000E+00 0. -1.
<mgrwt>
<rscale>  0 0.13577219E+03</rscale>
<asrwt>0</asrwt>
<pdfrwt beam="1">  1        2 0.20251230E+00 0.78153937E+02</pdfrwt>
<pdfrwt beam="2">  1        1 0.55653422E-01 0.23586894E+03</pdfrwt>
<totfact> 0.17702581E+02</totfact>
</mgrwt>
</event>
<event>
 5    1  0.8274494E-003  0.6139283E+02  0.7546771E-02  0.1532631E+00
          2   -1    0    0  502    0  0.00000000000E+00  0.00000000000E+00  0.13229405941E+04  0.13229405941E+04  0.00000000000E+00 0. -1.
         -2   -1    0    0    0  501 -0.00000000000E+00 -0.00000000000E+00 -0.47254242677E+03  0.47254242677E+03  0.00000000000E+00 0.  1.
         25    1    1    2    0    0  0.32404706727E+02  0.28895562355E+02 -0.70579810608E+02  0.14997175803E+03  0.12500000000E+03 0.  0.
          1    1    1    2  502    0  0.22029116494E+02  0.21867194624E+01  0.12804367247E+04  0.12806280762E+04  0.00000000000E+00 0. -1.
         -1    1    1    2    0  501 -0.54433823221E+02 -0.31082281818E+02 -0.35945874667E+03  0.36488318667E+03  0.00000000000E+00 0.  1.
<mgrwt>
<rscale>  0 0.36865655E+02</rscale>
<asrwt>0</asrwt>
<pdfrwt beam="1">  1        2 0.20352932E+00 0.22137383E+02</pdfrwt>
<pdfrwt beam="2">  1       -2 0.72698835E-01 0.61392827E+02</pdfrwt>
<totfact> 0.37369613E+01</totfact>
</mgrwt>
</event>
<event>
 5    1  0.8274494E-003  0.8800253E+02  0.7546771E-02  0.1487918E+00
          1   -1    0    0  501    0 -0.00000000000E+00  0.00000000000E+00  0.66698070149E+03  0.66698070149E+03  0.00000000000E+00 0. -1.
          2   -1    0    0  502    0  0.00000000000E+00 -0.00000000000E+00 -0.83866945321E+03  0.83866945321E+03  0.00000000000E+00 0. -1.
         25    1    1    2    0    0 -0.55531674266E+02 -0.54109400493E+02 -0.42758268824E+03  0.45217645820E+03  0.12500000000E+03 0.  0.
          2    1    1    2  501    0  0.74931156889E+02  0.46307343326E+02  0.65144352796E+03  0.65737182663E+03  0.00000000000E+00 0. -1.
          1    1    1    2  502    0 -0.19399482623E+02  0.78020571669E+01 -0.39554959144E+03  0.39610186987E+03  0.00000000000E+00 0. -1.
<mgrwt>
<rscale>  0 0.42896375E+02</rscale>
<asrwt>0</asrwt>
<pdfrwt beam="2">  1        2 0.12902607E+00 0.20909616E+02</pdfrwt>
<pdfrwt beam="1">  1        1 0.10261242E+00 0.88002528E+02</pdfrwt>
<totfact> 0.16034882E+02</totfact>
</mgrwt>
</event>
<event>
 5    1  0.8274494E-003  0.1059516E+03  0.7546771E-02  0.1386817E+00
          1   -1    0    0  501    0 -0.00000000000E+00  0.00000000000E+00  0.13128458104E+04  0.13128458104E+04  0.00000000000E+00 0. -1.
          2   -1    0    0  502    0  0.00000000000E+00 -0.00000000000E+00 -0.10073700045E+04  0.10073700045E+04  0.00000000000E+00 0. -1.
         25    1    1    2    0    0 -0.15861223000E+01 -0.88659344891E+02 -0.78496294845E+02  0.17219077654E+03  0.12500000000E+03 0.  0.
          2    1    1    2  501    0 -0.33427984854E+02  0.10095727198E+03  0.12633731535E+04  0.12678412858E+04  0.00000000000E+00 0. -1.
          1    1    1    2  502    0  0.35014107154E+02 -0.12297927085E+02 -0.87940105278E+03  0.88018375260E+03  0.00000000000E+00 0. -1.
<mgrwt>
<rscale>  0 0.62705434E+02</rscale>
<asrwt>0</asrwt>
<pdfrwt beam="2">  1        2 0.15498000E+00 0.37111005E+02</pdfrwt>
<pdfrwt beam="1">  1        1 0.20197628E+00 0.10595163E+03</pdfrwt>
<totfact> 0.40906777E+01</totfact>
</mgrwt>
</event>
<event>
 5    1  0.8274494E-003  0.5534015E+02  0.7546771E-02  0.1428395E+00
         -2   -1    0    0    0  501 -0.00000000000E+00  0.00000000000E+00  0.58092992696E+02  0.58092992696E+02  0.00000000000E+00 0.  1.
          2   -1    0    0  502    0  0.00000000000E+00 -0.00000000000E+00 -0.84358907350E+03  0.84358907350E+03  0.00000000000E+00 0. -1.
         25    1    1    2    0    0 -0.91366409239E+02 -0.49319522090E+02 -0.16931308846E+03  0.23467457877E+03  0.12500000000E+03 0.  0.
          1    1    1    2  502    0  0.50342789268E+02  0.18512425772E+02 -0.61328112196E+03  0.61562232001E+03  0.00000000000E+00 0. -1.
         -1    1    1    2    0  501  0.41023619971E+02  0.30807096318E+02 -0.29018703845E+01  0.51385167420E+02  0.00000000000E+00 0.  1.
<mgrwt>
<rscale>  0 0.53283437E+02</rscale>
<asrwt>0</asrwt>
<pdfrwt beam="2">  1        2 0.12978292E+00 0.55340148E+02</pdfrwt>
<pdfrwt beam="1">  1       -2 0.89373842E-02 0.51303163E+02</pdfrwt>
<totfact> 0.24943862E+03</totfact>
</mgrwt>
</event>
<event>
 5    1  0.8274494E-003  0.4868788E+03  0.7546771E-02  0.1210650E+00
          1   -1    0    0  501    0 -0.00000000000E+00  0.00000000000E+00  0.86915904071E+03  0.86915904071E+03  0.00000000000E+00 0. -1.
          2   -1    0    0  502    0  0.00000000000E+00 -0.00000000000E+00 -0.49602093617E+03  0.49602093617E+03  0.00000000000E+00 0. -1.
         25    1    1    2    0    0 -0.20933885885E+03 -0.47507394918E+03  0.46734149412E+03  0.70961333636E+03  0.12500000000E+03 0.  0.
          2    1    1    2  501    0  0.97168047158E+01  0.40264611182E+02  0.12325073914E+03  0.13002461269E+03  0.00000000000E+00 0. -1.
          1    1    1    2  502    0  0.19962205414E+03  0.43480933800E+03 -0.21745412872E+03  0.52554202782E+03  0.00000000000E+00 0. -1.
<mgrwt>
<rscale>  0 0.14200968E+03</rscale>
<asrwt>0</asrwt>
<pdfrwt beam="2">  1        2 0.76310913E-01 0.48687882E+03</pdfrwt>
<pdfrwt beam="1">  1        1 0.13371678E+00 0.41420468E+02</pdfrwt>
<totfact> 0.19088887E+02</totfact>
</mgrwt>
</event>
<event>
 5    1  0.8274494E-003  0.1353540E+03  0.7546771E-02  0.1330165E+00
          2   -1    0    0  502    0  0.00000000000E+00  0.00000000000E+00  0.57358846624E+03  0.57358846624E+03  0.00000000000E+00 0. -1.
          1   -1    0    0  501    0 -0.00000000000E+00 -0.00000000000E+00 -0.21235631523E+04  0.21235631523E+04  0.00000000000E+00 0. -1.
         25    1    1    2    0    0 -0.72087034998E+02  0.77062248300E+02 -0.45712664106E+03  0.48551508390E+03  0.12500000000E+03 0.  0.
          2    1    1    2  501    0  0.11889331690E+03 -0.78280023342E+02 -0.16481892447E+04  0.16543249890E+04  0.00000000000E+00 0. -1.
          1    1    1    2  502    0 -0.46806281907E+02  0.12177750422E+01  0.55534119962E+03  0.55731154572E+03  0.00000000000E+00 0. -1.
<mgrwt>
<rscale>  0 0.79608799E+02</rscale>
<asrwt>0</asrwt>
<pdfrwt beam="1">  1        2 0.88244378E-01 0.46822121E+02</pdfrwt>
<pdfrwt beam="2">  1        1 0.32670203E+00 0.13535399E+03</pdfrwt>
<totfact> 0.23067911E+01</totfact>
</mgrwt>
</event>
<event>
 5    1  0.8274494E-003  0.1158659E+03  0.7546771E-02  0.1322480E+00
          2   -1    0    0  502    0  0.00000000000E+00  0.00000000000E+00  0.27544656176E+02  0.27544656176E+02  0.00000000000E+00 0. -1.
          1   -1    0    0  501    0 -0.00000000000E+00 -0.00000000000E+00 -0.31989428858E+04  0.31989428858E+04  0.00000000000E+00 0. -1.
         25    1    1    2    0    0  0.51656735603E+02 -0.65731265055E+02 -0.91131655899E+03  0.92364056225E+03  0.12500000000E+03 0.  0.
          2    1    1    2  501    0  0.57910295860E+02  0.86001227371E+01 -0.20990626181E+04  0.20998789106E+04  0.00000000000E+00 0. -1.
          1    1    1    2  502    0 -0.10956703146E+03  0.57131142318E+02 -0.16101905253E+03  0.20296806912E+03  0.00000000000E+00 0. -1.
<mgrwt>
<rscale>  0 0.82361491E+02</rscale>
<asrwt>0</asrwt>
<pdfrwt beam="1">  1        2 0.42376427E-02 0.11586589E+03</pdfrwt>
<pdfrwt beam="2">  1        1 0.49214468E+00 0.58545405E+02</pdfrwt>
<totfact> 0.16954227E+02</totfact>
</mgrwt>
</event>
<event>
 5    1  0.8274494E-003  0.6649413E+02  0.7546771E-02  0.1481412E+00
          2   -1    0    0  502    0  0.00000000000E+00  0.00000000000E+00  0.37977225835E+03  0.37977225835E+03  0.00000000000E+00 0. -1.
         -2   -1    0    0    0  501 -0.00000000000E+00 -0.00000000000E+00 -0.56675052548E+03  0.56675052548E+03  0.00000000000E+00 0.  1.
         25    1    1    2    0    0 -0.28376414030E+02  0.36577095911E+02  0.48304321981E+02  0.14177944964E+03  0.12500000000E+03 0.  0.
          1    1    1    2  502    0  0.57328713786E+02 -0.37469665563E+02  0.28019946717E+03  0.28844808660E+03  0.00000000000E+00 0. -1.
         -1    1    1    2    0  501 -0.28952299756E+02  0.89256965193E+00 -0.51548205628E+03  0.51629524759E+03  0.00000000000E+00 0.  1.
<mgrwt>
<rscale>  0 0.43887044E+02</rscale>
<asrwt>0</asrwt>
<pdfrwt beam="1">  1        2 0.58426501E-01 0.66494131E+02</pdfrwt>
<pdfrwt beam="2">  1       -2 0.87192388E-01 0.28966055E+02</pdfrwt>
<totfact> 0.10534992E+02</totfact>
</mgrwt>
</event>
<event>
 5    1  0.8274494E-003  0.5861622E+02  0.7546771E-02  0.1504637E+00
          2   -1    0    0  502    0  0.00000000000E+00  0.00000000000E+00  0.82005150151E+03  0.82005150151E+03  0.00000000000E+00 0. -1.
          1   -1    0    0  501    0 -0.00000000000E+00 -0.00000000000E+00 -0.28238880473E+03  0.28238880473E+03  0.00000000000E+00 0. -1.
         25    1    1    2    0    0  0.58449804629E+02  0.50198245834E+01 -0.11030343219E+03  0.17672980918E+03  0.12500000000E+03 0.  0.
          2    1    1    2  501    0 -0.89655558142E+01  0.26492907093E+02 -0.13635724580E+03  0.13919609837E+03  0.00000000000E+00 0. -1.
          1    1    1    2  502    0 -0.49484248815E+02 -0.31512731677E+02  0.78432337477E+03  0.78651439869E+03  0.00000000000E+00 0. -1.
<mgrwt>
<rscale>  0 0.40489836E+02</rscale>
<asrwt>0</asrwt>
<pdfrwt beam="1">  1        2 0.12616177E+00 0.58616216E+02</pdfrwt>
<pdfrwt beam="2">  1        1 0.43444432E-01 0.27968828E+02</pdfrwt>
<totfact> 0.46582773E+02</totfact>
</mgrwt>
</event>
<event>
 5    1  0.8274494E-003  0.2474078E+02  0.7546771E-02  0.1679873E+00
          1   -1    0    0  502    0  0.00000000000E+00  0.00000000000E+00  0.15927629730E+04  0.15927629730E+04  0.00000000000E+00 0. -1.
         -1   -1    0    0    0  501 -0.00000000000E+00 -0.00000000000E+00 -0.29791678144E+02  0.29791678144E+02  0.00000000000E+00 0.  1.
         25    1    1    2    0    0 -0.42673051483E+02  0.18640165235E+02  0.28393513508E+03  0.31370783544E+03  0.12500000000E+03 0.  0.
          2    1    1    2  502    0  0.21696075152E+02 -0.69075525122E+01  0.12840852235E+04  0.12842870766E+04  0.00000000000E+00 0. -1.
         -2    1    1    2    0  501  0.20976976331E+02 -0.11732612723E+02 -0.50490637610E+01  0.24559739049E+02  0.00000000000E+00 0.  1.
<mgrwt>
<rscale>  0 0.23734499E+02</rscale>
<asrwt>0</asrwt>
<pdfrwt beam="1">  1        1 0.24504039E+00 0.22769145E+02</pdfrwt>
<pdfrwt beam="2">  1       -1 0.45833364E-02 0.24740782E+02</pdfrwt>
<totfact> 0.12567029E+03</totfact>
</mgrwt>
</event>
<event>
 5    1  0.8274494E-003  0.6598655E+02  0.7546771E-02  0.1410049E+00
          1   -1    0    0  501    0 -0.00000000000E+00  0.00000000000E+00  0.19306473922E+04  0.19306473922E+04  0.00000000000E+00 0. -1.
          2   -1    0    0  502    0  0.00000000000E+00 -0.00000000000E+00 -0.28885854648E+03  0.28885854648E+03  0.00000000000E+00 0. -1.
         25    1    1    2    0    0  0.14149569130E+02 -0.35518229730E+02 -0.44237064687E+02  0.13799881464E+03  0.12500000000E+03 0.  0.
          2    1    1    2  501    0  0.29249021054E+02  0.59437861665E+02  0.18800694197E+04  0.18812361328E+04  0.00000000000E+00 0. -1.
          3    1    1    2  502    0 -0.43398590184E+02 -0.23919631935E+02 -0.19404350928E+03  0.20027099120E+03  0.00000000000E+00 0. -1.
<mgrwt>
<rscale>  0 0.57182946E+02</rscale>
<asrwt>0</asrwt>
<pdfrwt beam="2">  1        2 0.44439778E-01 0.49553874E+02</pdfrwt>
<pdfrwt beam="1">  1        1 0.29702267E+00 0.65986553E+02</pdfrwt>
<totfact> 0.67809736E+01</totfact>
</mgrwt>
</event>
<event>
 5    1  0.8274494E-003  0.1346942E+03  0.7546771E-02  0.1262552E+00
          2   -1    0    0  502    0  0.00000000000E+00  0.00000000000E+00  0.11673453962E+04  0.11673453962E+04  0.00000000000E+00 0. -1.
          1   -1    0    0  501    0 -0.00000000000E+00 -0.00000000000E+00 -0.16494075148E+04  0.16494075148E+04  0.00000000000E+00 0. -1.
         25    1    1    2    0    0 -0.93113823641E+02 -0.33562563996E+02  0.54666538945E+02  0.16855284137E+03  0.12500000000E+03 0.  0.
          2    1    1    2  501    0  0.68035850721E+02  0.11802310501E+03 -0.15877042637E+04  0.15935379378E+04  0.00000000000E+00 0. -1.
          1    1    1    2  502    0  0.25077972920E+02 -0.84460541017E+02  0.10509756061E+04  0.10546621318E+04  0.00000000000E+00 0. -1.
<mgrwt>
<rscale>  0 0.10893680E+03</rscale>
<asrwt>0</asrwt>
<pdfrwt beam="1">  1        2 0.17959160E+00 0.88104981E+02</pdfrwt>
<pdfrwt beam="2">  1        1 0.25375500E+00 0.13469416E+03</pdfrwt>
<totfact> 0.18791552E+01</totfact>
</mgrwt>
</event>
<event>
 5    1  0.8274494E-003  0.5945668E+02  0.7546771E-02  0.1417614E+00
          1   -1    0    0  501    0 -0.00000000000E+00  0.00000000000E+00  0.29972286220E+02  0.29972286220E+02  0.00000000000E+00 0. -1.
          2   -1    0    0  502    0  0.00000000000E+00 -0.00000000000E+00 -0.25463728154E+04  0.25463728154E+04  0.00000000000E+00 0. -1.
         25    1    1    2    0    0 -0.48042928729E+02  0.40272284623E+02 -0.10471222104E+04  0.10564184320E+04  0.12500000000E+03 0.  0.
          2    1    1    2  501    0  0.59190841005E+02  0.10376005381E+02 -0.11447908759E+02  0.61174110223E+02  0.00000000000E+00 0. -1.
          1    1    1    2  502    0 -0.11147912276E+02 -0.50648290004E+02 -0.14578304100E+04  0.14587525594E+04  0.00000000000E+00 0. -1.
<mgrwt>
<rscale>  0 0.55528919E+02</rscale>
<asrwt>0</asrwt>
<pdfrwt beam="2">  1        2 0.39174965E+00 0.51860633E+02</pdfrwt>
<pdfrwt beam="1">  1        1 0.46111211E-02 0.59456675E+02</pdfrwt>
<totfact> 0.10422283E+03</totfact>
</mgrwt>
</event>
<event>
 5    1  0.8274494E-003  0.1087059E+03  0.7546771E-02  0.1365210E+00
          1   -1    0    0  501    0 -0.00000000000E+00  0.00000000000E+00  0.47162238279E+03  0.47162238279E+03  0.00000000000E+00 0. -1.
          2   -1    0    0  502    0  0.00000000000E+00 -0.00000000000E+00 -0.10385479296E+04  0.10385479296E+04  0.00000000000E+00 0. -1.
         25    1    1    2    0    0 -0.39973782747E+02  0.80529720926E+02 -0.23040814740E+03  0.27712064818E+03  0.12500000000E+03 0.  0.
          2    1    1    2  501    0  0.82314064134E+02 -0.72024440038E+02  0.44098608750E+03  0.45434772420E+03  0.00000000000E+00 0. -1.
          1    1    1    2  502    0 -0.42340281387E+02 -0.85052808882E+01 -0.77750348694E+03  0.77870194005E+03  0.00000000000E+00 0. -1.
<mgrwt>
<rscale>  0 0.68517042E+02</rscale>
<asrwt>0</asrwt>
<pdfrwt beam="2">  1        2 0.15977660E+00 0.43186100E+02</pdfrwt>
<pdfrwt beam="1">  1        1 0.72557290E-01 0.10870593E+03</pdfrwt>
<totfact> 0.18704079E+02</totfact>
</mgrwt>
</event>
<event>
 5    1  0.8274494E-003  0.1101887E+03  0.7546771E-02  0.1275619E+00
          1   -1    0    0  502    0  0.00000000000E+00  0.00000000000E+00  0.13088161051E+03  0.13088161051E+03  0.00000000000E+00 0. -1.
         -1   -1    0    0    0  501 -0.00000000000E+00 -0.00000000000E+00 -0.11820699986E+04  0.11820699986E+04  0.00000000000E+00 0.  1.
         25    1    1    2    0    0  0.49622821831E+02  0.29024642802E+02 -0.29845848163E+03  0.32864467072E+03  0.12500000000E+03 0.  0.
          2    1    1    2  502    0  0.80791609463E+02 -0.49781326061E+02  0.90301383225E+02  0.13099543655E+03  0.00000000000E+00 0. -1.
         -2    1    1    2    0  501 -0.13041443129E+03  0.20756683259E+02 -0.84303128964E+03  0.85331150180E+03  0.00000000000E+00 0.  1.
<mgrwt>
<rscale>  0 0.10225749E+03</rscale>
<asrwt>0</asrwt>
<pdfrwt beam="1">  1        1 0.20135632E-01 0.94897126E+02</pdfrwt>
<pdfrwt beam="2">  1       -1 0.18185693E+00 0.11018874E+03</pdfrwt>
<totfact> 0.58755242E+01</totfact>
</mgrwt>
</event>
<event>
 5    1  0.8274494E-003  0.5057174E+02  0.7546771E-02  0.1546651E+00
          2   -1    0    0  502    0  0.00000000000E+00  0.00000000000E+00  0.85229174605E+03  0.85229174605E+03  0.00000000000E+00 0. -1.
          1   -1    0    0  501    0 -0.00000000000E+00 -0.00000000000E+00 -0.67009419015E+03  0.67009419015E+03  0.00000000000E+00 0. -1.
         25    1    1    2    0    0  0.47092369190E+02 -0.36082067598E+02 -0.20515931169E+02  0.13987676816E+03  0.12500000000E+03 0.  0.
          2    1    1    2  501    0  0.20837784481E+01  0.24440496868E+02 -0.58883673062E+03  0.58934741482E+03  0.00000000000E+00 0. -1.
          1    1    1    2  502    0 -0.49176147638E+02  0.11641570730E+02  0.79155021769E+03  0.79316175323E+03  0.00000000000E+00 0. -1.
<mgrwt>
<rscale>  0 0.35220487E+02</rscale>
<asrwt>0</asrwt>
<pdfrwt beam="1">  1        2 0.13112181E+00 0.50571743E+02</pdfrwt>
<pdfrwt beam="2">  1        1 0.10309141E+00 0.24529167E+02</pdfrwt>
<totfact> 0.15844672E+02</totfact>
</mgrwt>
</event>
<event>
 5    1  0.8274494E-003  0.6338076E+02  0.7546771E-02  0.1534686E+00
          1   -1    0    0  501    0 -0.00000000000E+00  0.00000000000E+00  0.25094564084E+02  0.25094564084E+02  0.00000000000E+00 0. -1.
          2   -1    0    0  502    0  0.00000000000E+00 -0.00000000000E+00 -0.74634136991E+03  0.74634136991E+03  0.00000000000E+00 0. -1.
         25    1    1    2    0    0  0.82316132827E+01 -0.45112485831E+02 -0.24655740690E+03  0.28021143933E+03  0.12500000000E+03 0.  0.
          2    1    1    2  501    0  0.11604372925E+02 -0.17689017166E+02 -0.12934417407E+02  0.24796410081E+02  0.00000000000E+00 0. -1.
          1    1    1    2  502    0 -0.19835986208E+02  0.62801502997E+02 -0.46175498152E+03  0.46642808458E+03  0.00000000000E+00 0. -1.
<mgrwt>
<rscale>  0 0.36617799E+02</rscale>
<asrwt>0</asrwt>
<pdfrwt beam="2">  1        2 0.11482176E+00 0.63380765E+02</pdfrwt>
<pdfrwt beam="1">  1        1 0.38607017E-02 0.21155680E+02</pdfrwt>
<totfact> 0.98594740E+03</totfact>
</mgrwt>
</event>
<event>
 5    1  0.8274494E-003  0.1124636E+03  0.7546771E-02  0.1339456E+00
          1   -1    0    0  501    0 -0.00000000000E+00  0.00000000000E+00  0.43011435819E+03  0.43011435819E+03  0.00000000000E+00 0. -1.
          2   -1    0    0  502    0  0.00000000000E+00 -0.00000000000E+00 -0.56219847144E+03  0.56219847144E+03  0.00000000000E+00 0. -1.
         25    1    1    2    0    0  0.13290144974E+03  0.35836792323E+02 -0.25570555618E+01  0.18595324563E+03  0.12500000000E+03 0.  0.
          2    1    1    2  501    0 -0.89817987296E+02 -0.64884264287E+02  0.32783595000E+03  0.34605440137E+03  0.00000000000E+00 0. -1.
          1    1    1    2  502    0 -0.43083462448E+02  0.29047471964E+02 -0.45736300769E+03  0.46030518264E+03  0.00000000000E+00 0. -1.
<mgrwt>
<rscale>  0 0.76444202E+02</rscale>
<asrwt>0</asrwt>
<pdfrwt beam="2">  1        2 0.86492073E-01 0.51960950E+02</pdfrwt>
<pdfrwt beam="1">  1        1 0.66171440E-01 0.11246361E+03</pdfrwt>
<totfact> 0.42937852E+02</totfact>
</mgrwt>
</event>
<event>
 5    1  0.8274494E-003  0.9441712E+02  0.7546771E-02  0.1408835E+00
          1   -1    0    0  502    0  0.00000000000E+00  0.00000000000E+00  0.12417338552E+04  0.12417338552E+04  0.00000000000E+00 0. -1.
         -1   -1    0    0    0  501 -0.00000000000E+00 -0.00000000000E+00 -0.28234103603E+02  0.28234103603E+02  0.00000000000E+00 0.  1.
         25    1    1    2    0    0 -0.20794739554E+02 -0.70302524978E+02  0.27318630763E+03  0.30924201670E+03  0.12500000000E+03 0.  0.
          2    1    1    2  502    0 -0.65281709591E+00  0.97913398924E+02  0.90753275332E+03  0.91279962654E+03  0.00000000000E+00 0. -1.
         -2    1    1    2    0  501  0.21447556650E+02 -0.27610873946E+02  0.32780690684E+02  0.47926315610E+02  0.00000000000E+00 0.  1.
<mgrwt>
<rscale>  0 0.57454623E+02</rscale>
<asrwt>0</asrwt>
<pdfrwt beam="1">  1        1 0.19103594E+00 0.94417118E+02</pdfrwt>
<pdfrwt beam="2">  1       -1 0.43437092E-02 0.34962237E+02</pdfrwt>
<totfact> 0.20476595E+03</totfact>
</mgrwt>
</event>
<event>
 5    1  0.8274494E-003  0.1000682E+03  0.7546771E-02  0.1353102E+00
          2   -1    0    0  502    0  0.00000000000E+00  0.00000000000E+00  0.12598677243E+03  0.12598677243E+03  0.00000000000E+00 0. -1.
          1   -1    0    0  501    0 -0.00000000000E+00 -0.00000000000E+00 -0.40882657494E+03  0.40882657494E+03  0.00000000000E+00 0. -1.
         25    1    1    2    0    0  0.67677348109E+02  0.96806555093E+02 -0.51158738754E+02  0.17942672350E+03  0.12500000000E+03 0.  0.
          2    1    1    2  501    0 -0.86390889717E+02 -0.48349057994E+02 -0.27211170160E+03  0.28956138448E+03  0.00000000000E+00 0. -1.
          1    1    1    2  502    0  0.18713541608E+02 -0.48457497100E+02  0.40430637842E+02  0.65825239391E+02  0.00000000000E+00 0. -1.
<mgrwt>
<rscale>  0 0.72097720E+02</rscale>
<asrwt>0</asrwt>
<pdfrwt beam="1">  1        2 0.19382581E-01 0.51945410E+02</pdfrwt>
<pdfrwt beam="2">  1        1 0.62896395E-01 0.10006815E+03</pdfrwt>
<totfact> 0.21923152E+03</totfact>
</mgrwt>
</event>
<event>
 5    1  0.8274494E-003  0.6872519E+02  0.7546771E-02  0.1421990E+00
          2   -1    0    0  502    0  0.00000000000E+00  0.00000000000E+00  0.22241191297E+04  0.22241191297E+04  0.00000000000E+00 0. -1.
         -2   -1    0    0    0  501 -0.00000000000E+00 -0.00000000000E+00 -0.31884463926E+03  0.31884463926E+03  0.00000000000E+00 0.  1.
         25    1    1    2    0    0  0.27366483037E+02  0.38140008752E+01  0.21195068755E+03  0.24761172215E+03  0.12500000000E+03 0.  0.
          1    1    1    2  502    0 -0.66326086394E+02 -0.22894804339E+02  0.19921540740E+04  0.19933893690E+04  0.00000000000E+00 0. -1.
         -1    1    1    2    0  501  0.38959603357E+02  0.19080803464E+02 -0.29883027120E+03  0.30196267773E+03  0.00000000000E+00 0.  1.
<mgrwt>
<rscale>  0 0.54602020E+02</rscale>
<asrwt>0</asrwt>
<pdfrwt beam="1">  1        2 0.34217216E+00 0.68725189E+02</pdfrwt>
<pdfrwt beam="2">  1       -2 0.49053023E-01 0.43381191E+02</pdfrwt>
<totfact> 0.26794538E+01</totfact>
</mgrwt>
</event>
<event>
 5    1  0.8274494E-003  0.2647585E+02  0.7546771E-02  0.1685344E+00
          2   -1    0    0  502    0  0.00000000000E+00  0.00000000000E+00  0.11570458032E+04  0.11570458032E+04  0.00000000000E+00 0. -1.
         -2   -1    0    0    0  501 -0.00000000000E+00 -0.00000000000E+00 -0.14761834217E+03  0.14761834217E+03  0.00000000000E+00 0.  1.
         25    1    1    2    0    0  0.84805608511E-01 -0.61202941167E+01  0.17984948762E+03  0.21910797199E+03  0.12500000000E+03 0.  0.
          1    1    1    2  502    0  0.39932151474E+01  0.26368703671E+02  0.95654667705E+03  0.95691838715E+03  0.00000000000E+00 0. -1.
         -1    1    1    2    0  501 -0.40780207559E+01 -0.20248409554E+02 -0.12696870364E+03  0.12863778623E+03  0.00000000000E+00 0.  1.
<mgrwt>
<rscale>  0 0.23384999E+02</rscale>
<asrwt>0</asrwt>
<pdfrwt beam="1">  1        2 0.17800704E+00 0.26475848E+02</pdfrwt>
<pdfrwt beam="2">  1       -2 0.22710515E-01 0.20654983E+02</pdfrwt>
<totfact> 0.37464165E+02</totfact>
</mgrwt>
</event>
<event>
 5    1  0.8274494E-003  0.3532277E+02  0.7546771E-02  0.1631409E+00
          2   -1    0    0  502    0  0.00000000000E+00  0.00000000000E+00  0.20480680795E+02  0.20480680795E+02  0.00000000000E+00 0. -1.
          1   -1    0    0  501    0 -0.00000000000E+00 -0.00000000000E+00 -0.83417364263E+03  0.83417364263E+03  0.00000000000E+00 0. -1.
         25    1    1    2    0    0 -0.33074554699E+02 -0.11038677091E+02 -0.40830132072E+03  0.42842822860E+03  0.12500000000E+03 0.  0.
          2    1    1    2  501    0  0.21612488155E+02  0.28549811518E+02 -0.40363873911E+03  0.40522391723E+03  0.00000000000E+00 0. -1.
          3    1    1    2  502    0  0.11462066544E+02 -0.17511134428E+02 -0.17529020043E+01  0.21002177597E+02  0.00000000000E+00 0. -1.
<mgrwt>
<rscale>  0 0.27189459E+02</rscale>
<asrwt>0</asrwt>
<pdfrwt beam="1">  1        2 0.31508733E-02 0.20928899E+02</pdfrwt>
<pdfrwt beam="2">  1        1 0.12833443E+00 0.35322770E+02</pdfrwt>
<totfact> 0.70151468E+03</totfact>
</mgrwt>
</event>
<event>
 5    1  0.8274494E-003  0.6136664E+02  0.7546771E-02  0.1466671E+00
         -1   -1    0    0    0  502 -0.00000000000E+00  0.00000000000E+00  0.22154538970E+02  0.22154538970E+02  0.00000000000E+00 0.  1.
         -2   -1    0    0    0  501  0.00000000000E+00 -0.00000000000E+00 -0.12020316844E+04  0.12020316844E+04  0.00000000000E+00 0.  1.
         25    1    1    2    0    0  0.39228816187E+02 -0.20151950331E+02 -0.60774882663E+03  0.62203588111E+03  0.12500000000E+03 0.  0.
         -2    1    1    2    0  502 -0.63893009909E+02 -0.44842557408E+01 -0.56690527012E+02  0.85535028600E+02  0.00000000000E+00 0.  1.
         -1    1    1    2    0  501  0.24664193722E+02  0.24636206072E+02 -0.51543779174E+03  0.51661531361E+03  0.00000000000E+00 0.  1.
<mgrwt>
<rscale>  0 0.46252362E+02</rscale>
<asrwt>0</asrwt>
<pdfrwt beam="2">  1       -2 0.18492797E+00 0.34860653E+02</pdfrwt>
<pdfrwt beam="1">  1       -1 0.34083903E-02 0.61366636E+02</pdfrwt>
<totfact> 0.40382527E+02</totfact>
</mgrwt>
</event>
<event>
 5    1  0.8274494E-003  0.3878849E+02  0.7546771E-02  0.1564894E+00
         -2   -1    0    0    0  501 -0.00000000000E+00  0.00000000000E+00  0.88811159437E+02  0.88811159437E+02  0.00000000000E+00 0.  1.
          2   -1    0    0  502    0  0.00000000000E+00 -0.00000000000E+00 -0.13157168748E+04  0.13157168748E+04  0.00000000000E+00 0. -1.
         25    1    1    2    0    0 -0.82337526019E+01 -0.73578940635E+01 -0.85600036796E+02  0.15190226985E+03  0.12500000000E+03 0.  0.
          1    1    1    2  502    0  0.34554013362E+02  0.18210911419E+02 -0.11929844733E+04  0.11936237140E+04  0.00000000000E+00 0. -1.
         -1    1    1    2    0  501 -0.26320260760E+02 -0.10853017355E+02  0.51678794778E+02  0.59002050320E+02  0.00000000000E+00 0.  1.
<mgrwt>
<rscale>  0 0.33231167E+02</rscale>
<asrwt>0</asrwt>
<pdfrwt beam="2">  1        2 0.20241797E+00 0.38788488E+02</pdfrwt>
<pdfrwt beam="1">  1       -2 0.13663256E-01 0.28470056E+02</pdfrwt>
<totfact> 0.69443871E+02</totfact>
</mgrwt>
</event>
<event>
 5    1  0.8274494E-003  0.1570356E+03  0.7546771E-02  0.1325284E+00
          1   -1    0    0  501    0 -0.00000000000E+00  0.00000000000E+00  0.36055630438E+03  0.36055630438E+03  0.00000000000E+00 0. -1.
          2   -1    0    0  502    0  0.00000000000E+00 -0.00000000000E+00 -0.21910249657E+03  0.21910249657E+03  0.00000000000E+00 0. -1.
         25    1    1    2    0    0 -0.64158692698E+02  0.13631919073E+03  0.41161997040E+01  0.19580909762E+03  0.12500000000E+03 0.  0.
          2    1    1    2  501    0  0.10364936032E+03 -0.12162855436E+03  0.23114934588E+03  0.28101016926E+03  0.00000000000E+00 0. -1.
          1    1    1    2  502    0 -0.39490667618E+02 -0.14690636370E+02 -0.93811737773E+02  0.10283953408E+03  0.00000000000E+00 0. -1.
<mgrwt>
<rscale>  0 0.81342724E+02</rscale>
<asrwt>0</asrwt>
<pdfrwt beam="2">  1        2 0.33708077E-01 0.42134637E+02</pdfrwt>
<pdfrwt beam="1">  1        1 0.55470200E-01 0.15703562E+03</pdfrwt>
<totfact> 0.14072888E+03</totfact>
</mgrwt>
</event>
<event>
 5    1  0.8274494E-003  0.5850676E+02  0.7546771E-02  0.1465046E+00
         -1   -1    0    0    0  501 -0.00000000000E+00  0.00000000000E+00  0.49555688937E+03  0.49555688937E+03  0.00000000000E+00 0.  1.
          1   -1    0    0  502    0  0.00000000000E+00 -0.00000000000E+00 -0.64080048814E+03  0.64080048814E+03  0.00000000000E+00 0. -1.
         25    1    1    2    0    0  0.72784383592E+02  0.40289491936E+02 -0.17568433902E+02  0.15117691466E+03  0.12500000000E+03 0.  0.
          2    1    1    2  502    0 -0.36633609880E+02  0.51608912281E+01 -0.55384133771E+03  0.55507556560E+03  0.00000000000E+00 0. -1.
         -2    1    1    2    0  501 -0.36150773713E+02 -0.45450383164E+02  0.42616617284E+03  0.43010489726E+03  0.00000000000E+00 0.  1.
<mgrwt>
<rscale>  0 0.46523952E+02</rscale>
<asrwt>0</asrwt>
<pdfrwt beam="2">  1        1 0.98584690E-01 0.36995353E+02</pdfrwt>
<pdfrwt beam="1">  1       -1 0.76239522E-01 0.58506756E+02</pdfrwt>
<totfact> 0.65711436E+01</totfact>
</mgrwt>
</event>
<event>
 5    1  0.8274494E-003  0.5116487E+02  0.7546771E-02  0.1490154E+00
          2   -1    0    0  502    0  0.00000000000E+00  0.00000000000E+00  0.24193940697E+04  0.24193940697E+04  0.00000000000E+00 0. -1.
          1   -1    0    0  501    0 -0.00000000000E+00 -0.00000000000E+00 -0.14093909982E+02  0.14093909982E+02  0.00000000000E+00 0. -1.
         25    1    1    2    0    0 -0.15817653177E+01 -0.72401956444E+02  0.62075608037E+03  0.63734422144E+03  0.12500000000E+03 0.  0.
          2    1    1    2  501    0 -0.19937891428E+02  0.44284446263E+02  0.99422114875E+02  0.11064984691E+03  0.00000000000E+00 0. -1.
          1    1    1    2  502    0  0.21519656745E+02  0.28117510181E+02  0.16851219645E+04  0.16854939114E+04  0.00000000000E+00 0. -1.
<mgrwt>
<rscale>  0 0.42563121E+02</rscale>
<asrwt>0</asrwt>
<pdfrwt beam="1">  1        2 0.37221414E+00 0.35407485E+02</pdfrwt>
<pdfrwt beam="2">  1        1 0.21682958E-02 0.51164867E+02</pdfrwt>
<totfact> 0.34623577E+03</totfact>
</mgrwt>
</event>
<event>
 5    1  0.8274494E-003  0.1341775E+03  0.7546771E-02  0.1223951E+00
         -2   -1    0    0    0  501 -0.00000000000E+00  0.00000000000E+00  0.66100599242E+02  0.66100599242E+02  0.00000000000E+00 0.  1.
          2   -1    0    0  502    0  0.00000000000E+00 -0.00000000000E+00 -0.37046781819E+04  0.37046781819E+04  0.00000000000E+00 0. -1.
         25    1    1    2    0    0  0.15637239246E+02 -0.77480604240E+02 -0.16645605120E+03  0.22266653153E+03  0.12500000000E+03 0.  0.
          1    1    1    2  502    0  0.12647703546E+02 -0.13358006121E+03 -0.31988721160E+04  0.32016849332E+04  0.00000000000E+00 0. -1.
         -1    1    1    2    0  501 -0.28284942792E+02  0.21106066545E+03 -0.27324941550E+03  0.34642731642E+03  0.00000000000E+00 0.  1.
<mgrwt>
<rscale>  0 0.13239052E+03</rscale>
<asrwt>0</asrwt>
<pdfrwt beam="2">  1        2 0.56995067E+00 0.13417748E+03</pdfrwt>
<pdfrwt beam="1">  1       -2 0.10169320E-01 0.13062736E+03</pdfrwt>
<totfact> 0.52109366E+01</totfact>
</mgrwt>
</event>
<event>
 5    1  0.8274494E-003  0.1075479E+03  0.7546771E-02  0.1418083E+00
          1   -1    0    0  501    0 -0.00000000000E+00  0.00000000000E+00  0.29357883857E+03  0.29357883857E+03  0.00000000000E+00 0. -1.
          2   -1    0    0  502    0  0.00000000000E+00 -0.00000000000E+00 -0.22719383491E+04  0.22719383491E+04  0.00000000000E+00 0. -1.
         25    1    1    2    0    0 -0.42089627716E+02 -0.74124018190E+02 -0.12205523169E+03  0.19439235174E+03  0.12500000000E+03 0.  0.
          2    1    1    2  501    0  0.56101576988E+01 -0.28010753244E+02  0.25522167831E+03  0.25681546146E+03  0.00000000000E+00 0. -1.
          1    1    1    2  502    0  0.36479470017E+02  0.10213477143E+03 -0.21115259571E+04  0.21143093744E+04  0.00000000000E+00 0. -1.
<mgrwt>
<rscale>  0 0.55428557E+02</rscale>
<asrwt>0</asrwt>
<pdfrwt beam="2">  1        2 0.34952899E+00 0.10754787E+03</pdfrwt>
<pdfrwt beam="1">  1        1 0.45165974E-01 0.28567047E+02</pdfrwt>
<totfact> 0.72749882E+01</totfact>
</mgrwt>
</event>
<event>
 5    1  0.8274494E-003  0.2167582E+03  0.7546771E-02  0.1145549E+00
          1   -1    0    0  501    0 -0.00000000000E+00  0.00000000000E+00  0.97520947979E+03  0.97520947979E+03  0.00000000000E+00 0. -1.
          2   -1    0    0  502    0  0.00000000000E+00 -0.00000000000E+00 -0.25868138625E+04  0.25868138625E+04  0.00000000000E+00 0. -1.
         25    1    1    2    0    0  0.11753016733E+02 -0.24267091205E+01 -0.23829723763E+02  0.12781579736E+03  0.12500000000E+03 0.  0.
          2    1    1    2  501    0 -0.22618495810E+03 -0.29244733796E+02  0.90435469325E+03  0.93266944891E+03  0.00000000000E+00 0. -1.
          3    1    1    2  502    0  0.21443194137E+03  0.31671442917E+02 -0.24921293522E+04  0.25015380960E+04  0.00000000000E+00 0. -1.
<mgrwt>
<rscale>  0 0.20504767E+03</rscale>
<asrwt>0</asrwt>
<pdfrwt beam="2">  1        2 0.39797136E+00 0.21675825E+03</pdfrwt>
<pdfrwt beam="1">  1        1 0.15003223E+00 0.19396976E+03</pdfrwt>
<totfact> 0.86871995E+00</totfact>
</mgrwt>
</event>
<event>
 5    1  0.8274494E-003  0.1179634E+03  0.7546771E-02  0.1384812E+00
          1   -1    0    0  501    0 -0.00000000000E+00  0.00000000000E+00  0.36909158330E+03  0.36909158330E+03  0.00000000000E+00 0. -1.
          2   -1    0    0  502    0  0.00000000000E+00 -0.00000000000E+00 -0.23132903855E+04  0.23132903855E+04  0.00000000000E+00 0. -1.
         25    1    1    2    0    0 -0.20167742675E+02 -0.85336433675E+02 -0.11136138647E+03  0.18898519295E+03  0.12500000000E+03 0.  0.
          2    1    1    2  501    0 -0.20944818368E+02 -0.26626237939E+02  0.32776183744E+03  0.32950791196E+03  0.00000000000E+00 0. -1.
          1    1    1    2  502    0  0.41112561042E+02  0.11196267161E+03 -0.21605992531E+04  0.21638888639E+04  0.00000000000E+00 0. -1.
<mgrwt>
<rscale>  0 0.63215738E+02</rscale>
<asrwt>0</asrwt>
<pdfrwt beam="2">  1        2 0.35589084E+00 0.11796338E+03</pdfrwt>
<pdfrwt beam="1">  1        1 0.56783319E-01 0.33876865E+02</pdfrwt>
<totfact> 0.52376842E+01</totfact>
</mgrwt>
</event>
<event>
 5    1  0.8274494E-003  0.6411056E+02  0.7546771E-02  0.1479718E+00
          2   -1    0    0  502    0  0.00000000000E+00  0.00000000000E+00  0.13212266059E+04  0.13212266059E+04  0.00000000000E+00 0. -1.
         -2   -1    0    0    0  501 -0.00000000000E+00 -0.00000000000E+00 -0.39699616298E+03  0.39699616298E+03  0.00000000000E+00 0.  1.
         25    1    1    2    0    0  0.50450990015E+02 -0.25053196209E+01 -0.25665456586E+02  0.13724173812E+03  0.12500000000E+03 0.  0.
          1    1    1    2  502    0 -0.58438718972E+02 -0.26831031923E+02  0.12638867711E+04  0.12655215361E+04  0.00000000000E+00 0. -1.
         -3    1    1    2    0  501  0.79877289571E+01  0.29336351544E+02 -0.31399087159E+03  0.31545949467E+03  0.00000000000E+00 0.  1.
<mgrwt>
<rscale>  0 0.44150206E+02</rscale>
<asrwt>0</asrwt>
<pdfrwt beam="1">  1        2 0.20326563E+00 0.64110556E+02</pdfrwt>
<pdfrwt beam="2">  1       -2 0.61076333E-01 0.30404364E+02</pdfrwt>
<totfact> 0.49414445E+01</totfact>
</mgrwt>
</event>
<event>
 5    1  0.8274494E-003  0.8459904E+02  0.7546771E-02  0.1467297E+00
         -1   -1    0    0    0  502 -0.00000000000E+00  0.00000000000E+00  0.18570164382E+03  0.18570164382E+03  0.00000000000E+00 0.  1.
         -2   -1    0    0    0  501  0.00000000000E+00 -0.00000000000E+00 -0.11210297951E+04  0.11210297951E+04  0.00000000000E+00 0.  1.
         25    1    1    2    0    0  0.14039890886E+02  0.10810196182E+03  0.32353635358E+02  0.16898198249E+03  0.12500000000E+03 0.  0.
         -2    1    1    2    0  502  0.46752203206E+00 -0.25169453730E+02  0.81446623453E+02  0.85248298809E+02  0.00000000000E+00 0.  1.
         -1    1    1    2    0  501 -0.14507412918E+02 -0.82932508094E+02 -0.10491284101E+04  0.10525011576E+04  0.00000000000E+00 0.  1.
<mgrwt>
<rscale>  0 0.46148443E+02</rscale>
<asrwt>0</asrwt>
<pdfrwt beam="2">  1       -2 0.17246612E+00 0.84599035E+02</pdfrwt>
<pdfrwt beam="1">  1       -1 0.28569484E-01 0.25173795E+02</pdfrwt>
<totfact> 0.18326115E+01</totfact>
</mgrwt>
</event>
<event>
 5    1  0.8274494E-003  0.4973154E+02  0.7546771E-02  0.1468385E+00
          1   -1    0    0  502    0  0.00000000000E+00  0.00000000000E+00  0.12469294962E+04  0.12469294962E+04  0.00000000000E+00 0. -1.
         -1   -1    0    0    0  501 -0.00000000000E+00 -0.00000000000E+00 -0.21745719423E+02  0.21745719423E+02  0.00000000000E+00 0.  1.
         25    1    1    2    0    0  0.17392791687E+02 -0.14125321563E+02  0.29593533518E+03  0.32203222901E+03  0.12500000000E+03 0.  0.
          2    1    1    2  502    0  0.26195451625E+02  0.42273214161E+02  0.85280243343E+03  0.85425126092E+03  0.00000000000E+00 0. -1.
         -2    1    1    2    0  501 -0.43588243313E+02 -0.28147892598E+02  0.76446008192E+02  0.92391725718E+02  0.00000000000E+00 0.  1.
<mgrwt>
<rscale>  0 0.45968490E+02</rscale>
<asrwt>0</asrwt>
<pdfrwt beam="1">  1        1 0.19183525E+00 0.49731543E+02</pdfrwt>
<pdfrwt beam="2">  1       -1 0.33454963E-02 0.42490178E+02</pdfrwt>
<totfact> 0.31810361E+03</totfact>
</mgrwt>
</event>
<event>
 5    1  0.8274494E-003  0.4526210E+02  0.7546771E-02  0.1502673E+00
          2   -1    0    0  502    0  0.00000000000E+00  0.00000000000E+00  0.29361258763E+03  0.29361258763E+03  0.00000000000E+00 0. -1.
         -2   -1    0    0    0  501 -0.00000000000E+00 -0.00000000000E+00 -0.21613872182E+03  0.21613872182E+03  0.00000000000E+00 0.  1.
         25    1    1    2    0    0 -0.19638533861E+02 -0.39907458402E+02 -0.10947651588E+03  0.17201274597E+03  0.12500000000E+03 0.  0.
          1    1    1    2  502    0 -0.26491036186E+02  0.25414188922E+02  0.25312924750E+03  0.25577738746E+03  0.00000000000E+00 0. -1.
         -3    1    1    2    0  501  0.46129570047E+02  0.14493269480E+02 -0.66178865814E+02  0.81961176013E+02  0.00000000000E+00 0.  1.
<mgrwt>
<rscale>  0 0.40762624E+02</rscale>
<asrwt>0</asrwt>
<pdfrwt beam="1">  1        2 0.45171167E-01 0.36710434E+02</pdfrwt>
<pdfrwt beam="2">  1       -2 0.33252111E-01 0.45262104E+02</pdfrwt>
<totfact> 0.90525307E+02</totfact>
</mgrwt>
</event>
<event>
 5    1  0.8274494E-003  0.1602986E+03  0.7546771E-02  0.1274198E+00
          2   -1    0    0  502    0  0.00000000000E+00  0.00000000000E+00  0.18138192923E+04  0.18138192923E+04  0.00000000000E+00 0. -1.
          1   -1    0    0  501    0 -0.00000000000E+00 -0.00000000000E+00 -0.13591008725E+03  0.13591008725E+03  0.00000000000E+00 0. -1.
         25    1    1    2    0    0 -0.15297423019E+03 -0.12656480951E+03  0.12088007665E+04  0.12313586233E+04  0.12500000000E+03 0.  0.
          2    1    1    2  501    0  0.41453375169E+02  0.51521246455E+02 -0.10755001294E+03  0.12625302543E+03  0.00000000000E+00 0. -1.
          1    1    1    2  502    0  0.11152085502E+03  0.75043563051E+02  0.57665845150E+03  0.59211773082E+03  0.00000000000E+00 0. -1.
<mgrwt>
<rscale>  0 0.10295687E+03</rscale>
<asrwt>0</asrwt>
<pdfrwt beam="1">  1        2 0.27904910E+00 0.16029861E+03</pdfrwt>
<pdfrwt beam="2">  1        1 0.20909245E-01 0.66127310E+02</pdfrwt>
<totfact> 0.30739028E+02</totfact>
</mgrwt>
</event>
<event>
 5    1  0.8274494E-003  0.4321053E+02  0.7546771E-02  0.1493134E+00
          1   -1    0    0  501    0 -0.00000000000E+00  0.00000000000E+00  0.31676535754E+02  0.31676535754E+02  0.00000000000E+00 0. -1.
          2   -1    0    0  502    0  0.00000000000E+00 -0.00000000000E+00 -0.10731587545E+04  0.10731587545E+04  0.00000000000E+00 0. -1.
         25    1    1    2    0    0 -0.46316084825E+01 -0.17133940561E+02 -0.58383847954E+03  0.59733357005E+03  0.12500000000E+03 0.  0.
          2    1    1    2  501    0  0.34506374576E+02 -0.22264848057E+02  0.57596994151E+01  0.41467909071E+02  0.00000000000E+00 0. -1.
          1    1    1    2  502    0 -0.29874766093E+02  0.39398788618E+02 -0.46340343857E+03  0.46603381108E+03  0.00000000000E+00 0. -1.
<mgrwt>
<rscale>  0 0.42124601E+02</rscale>
<asrwt>0</asrwt>
<pdfrwt beam="2">  1        2 0.16510135E+00 0.43210529E+02</pdfrwt>
<pdfrwt beam="1">  1        1 0.48733131E-02 0.41065963E+02</pdfrwt>
<totfact> 0.51447993E+03</totfact>
</mgrwt>
</event>
<event>
 5    1  0.8274494E-003  0.5729783E+02  0.7546771E-02  0.1477524E+00
          1   -1    0    0  501    0 -0.00000000000E+00  0.00000000000E+00  0.39644203941E+03  0.39644203941E+03  0.00000000000E+00 0. -1.
          2   -1    0    0  502    0  0.00000000000E+00 -0.00000000000E+00 -0.34759044569E+02  0.34759044569E+02  0.00000000000E+00 0. -1.
         25    1    1    2    0    0  0.32967564717E+02 -0.32988279400E+02  0.22731197332E+03  0.26357317791E+03  0.12500000000E+03 0.  0.
          2    1    1    2  501    0 -0.19848666874E+02 -0.28281606751E+02  0.68467968755E+02  0.76692122167E+02  0.00000000000E+00 0. -1.
          1    1    1    2  502    0 -0.13118897843E+02  0.61269886150E+02  0.65903052770E+02  0.90935783902E+02  0.00000000000E+00 0. -1.
<mgrwt>
<rscale>  0 0.44494230E+02</rscale>
<asrwt>0</asrwt>
<pdfrwt beam="2">  1        2 0.53475456E-02 0.57297830E+02</pdfrwt>
<pdfrwt beam="1">  1        1 0.60991080E-01 0.34551684E+02</pdfrwt>
<totfact> 0.10683313E+04</totfact>
</mgrwt>
</event>
<event>
 5    1  0.8274494E-003  0.6702769E+02  0.7546771E-02  0.1526591E+00
          2   -1    0    0  502    0  0.00000000000E+00  0.00000000000E+00  0.26322808373E+04  0.26322808373E+04  0.00000000000E+00 0. -1.
          1   -1    0    0  501    0 -0.00000000000E+00 -0.00000000000E+00 -0.11570794643E+03  0.11570794643E+03  0.00000000000E+00 0. -1.
         25    1    1    2    0    0  0.71895070715E+02 -0.24438819061E+02  0.20138283310E+03  0.24888994061E+03  0.12500000000E+03 0.  0.
          2    1    1    2  501    0 -0.51073170923E+01  0.20473614976E+02 -0.90272574733E+02  0.92705940193E+02  0.00000000000E+00 0. -1.
          1    1    1    2  502    0 -0.66787753623E+02  0.39652040849E+01  0.24054626325E+04  0.24063929029E+04  0.00000000000E+00 0. -1.
<mgrwt>
<rscale>  0 0.37607893E+02</rscale>
<asrwt>0</asrwt>
<pdfrwt beam="1">  1        2 0.40496624E+00 0.67027694E+02</pdfrwt>
<pdfrwt beam="2">  1        1 0.17801224E-01 0.21101033E+02</pdfrwt>
<totfact> 0.14839801E+02</totfact>
</mgrwt>
</event>
<event>
 5    1  0.8274494E-003  0.3572601E+02  0.7546771E-02  0.1567152E+00
          1   -1    0    0  501    0 -0.00000000000E+00  0.00000000000E+00  0.29326578803E+03  0.29326578803E+03  0.00000000000E+00 0. -1.
          2   -1    0    0  502    0  0.00000000000E+00 -0.00000000000E+00 -0.26454079684E+03  0.26454079684E+03  0.00000000000E+00 0. -1.
         25    1    1    2    0    0 -0.12716131643E+02 -0.51962405773E+02  0.23297231445E+02  0.13794764446E+03  0.12500000000E+03 0.  0.
          2    1    1    2  501    0  0.25743436850E+02  0.24412490513E+02  0.21002707158E+03  0.21300250006E+03  0.00000000000E+00 0. -1.
          1    1    1    2  502    0 -0.13027305207E+02  0.27549915260E+02 -0.20459931183E+03  0.20685644035E+03  0.00000000000E+00 0. -1.
<mgrwt>
<rscale>  0 0.32996061E+02</rscale>
<asrwt>0</asrwt>
<pdfrwt beam="2">  1        2 0.40698584E-01 0.30474719E+02</pdfrwt>
<pdfrwt beam="1">  1        1 0.45117814E-01 0.35726008E+02</pdfrwt>
<totfact> 0.14852757E+03</totfact>
</mgrwt>
</event>
<event>
 5    1  0.8274494E-003  0.9468340E+02  0.7546771E-02  0.1387077E+00
          2   -1    0    0  502    0  0.00000000000E+00  0.00000000000E+00  0.28966030801E+03  0.28966030801E+03  0.00000000000E+00 0. -1.
          1   -1    0    0  501    0 -0.00000000000E+00 -0.00000000000E+00 -0.74336223188E+03  0.74336223188E+03  0.00000000000E+00 0. -1.
         25    1    1    2    0    0 -0.12646395858E+03  0.52933318448E+01  0.17737687269E+02  0.17877577501E+03  0.12500000000E+03 0.  0.
          2    1    1    2  501    0  0.92018990084E+02  0.17746705392E+02 -0.65723665439E+03  0.66388437244E+03  0.00000000000E+00 0. -1.
          1    1    1    2  502    0  0.34444968495E+02 -0.23040037237E+02  0.18579704326E+03  0.19036239244E+03  0.00000000000E+00 0. -1.
<mgrwt>
<rscale>  0 0.62639520E+02</rscale>
<asrwt>0</asrwt>
<pdfrwt beam="1">  1        2 0.44563125E-01 0.41440309E+02</pdfrwt>
<pdfrwt beam="2">  1        1 0.11436342E+00 0.94683405E+02</pdfrwt>
<totfact> 0.41216106E+02</totfact>
</mgrwt>
</event>
<event>
 5    1  0.8274494E-003  0.1038730E+03  0.7546771E-02  0.1273757E+00
          2   -1    0    0  502    0  0.00000000000E+00  0.00000000000E+00  0.44899071216E+03  0.44899071216E+03  0.00000000000E+00 0. -1.
          1   -1    0    0  501    0 -0.00000000000E+00 -0.00000000000E+00 -0.16501329724E+04  0.16501329724E+04  0.00000000000E+00 0. -1.
         25    1    1    2    0    0 -0.62284904729E+02 -0.42521182518E+02 -0.74751922717E+02  0.16401314054E+03  0.12500000000E+03 0.  0.
          2    1    1    2  501    0 -0.27548526423E+02  0.10015327344E+03 -0.15219062277E+04  0.15254468740E+04  0.00000000000E+00 0. -1.
          1    1    1    2  502    0  0.89833431152E+02 -0.57632090925E+02  0.39551589012E+03  0.40966367009E+03  0.00000000000E+00 0. -1.
<mgrwt>
<rscale>  0 0.10317531E+03</rscale>
<asrwt>0</asrwt>
<pdfrwt beam="1">  1        2 0.69075494E-01 0.10248230E+03</pdfrwt>
<pdfrwt beam="2">  1        1 0.25386661E+00 0.10387300E+03</pdfrwt>
<totfact> 0.60994035E+01</totfact>
</mgrwt>
</event>
<event>
 5    1  0.8274494E-003  0.5789752E+02  0.7546771E-02  0.1416420E+00
         -2   -1    0    0    0  501  0.00000000000E+00  0.00000000000E+00  0.63547185595E+03  0.63547185595E+03  0.00000000000E+00 0.  1.
         -3   -1    0    0    0  502 -0.00000000000E+00 -0.00000000000E+00 -0.47468547278E+02  0.47468547278E+02  0.00000000000E+00 0.  1.
         25    1    1    2    0    0 -0.17820689240E+02  0.38373869002E+02  0.47626411438E+03  0.49420910295E+03  0.12500000000E+03 0.  0.
         -2    1    1    2    0  502  0.64824881319E+02 -0.12302339982E+02  0.11741245210E+03  0.13468220638E+03  0.00000000000E+00 0.  1.
         -1    1    1    2    0  501 -0.47004192079E+02 -0.26071529020E+02 -0.56732578014E+01  0.54049093911E+02  0.00000000000E+00 0.  1.
<mgrwt>
<rscale>  0 0.55785502E+02</rscale>
<asrwt>0</asrwt>
<pdfrwt beam="1">  1       -2 0.97764895E-01 0.53750523E+02</pdfrwt>
<pdfrwt beam="2">  1       -3 0.73028539E-02 0.57897524E+02</pdfrwt>
<totfact> 0.40004561E+02</totfact>
</mgrwt>
</event>
<event>
 5    1  0.8274494E-003  0.1465512E+03  0.7546771E-02  0.1385818E+00
          1   -1    0    0  501    0 -0.00000000000E+00  0.00000000000E+00  0.15288830585E+03  0.15288830585E+03  0.00000000000E+00 0. -1.
          2   -1    0    0  502    0  0.00000000000E+00 -0.00000000000E+00 -0.20135091341E+04  0.20135091341E+04  0.00000000000E+00 0. -1.
         25    1    1    2    0    0 -0.69204091576E+02  0.12997743717E+03 -0.64886171570E+03  0.67700064000E+03  0.12500000000E+03 0.  0.
          2    1    1    2  501    0  0.25074383226E+02  0.10140976741E+02  0.13346357409E+03  0.13617668564E+03  0.00000000000E+00 0. -1.
          1    1    1    2  502    0  0.44129708350E+02 -0.14011841391E+03 -0.13452226866E+04  0.13532201143E+04  0.00000000000E+00 0. -1.
<mgrwt>
<rscale>  0 0.62959003E+02</rscale>
<asrwt>0</asrwt>
<pdfrwt beam="2">  1        2 0.30977062E+00 0.14655124E+03</pdfrwt>
<pdfrwt beam="1">  1        1 0.23521279E-01 0.27047442E+02</pdfrwt>
<totfact> 0.20456235E+02</totfact>
</mgrwt>
</event>
<event>
 5    1  0.8274494E-003  0.1358842E+03  0.7546771E-02  0.1274826E+00
          2   -1    0    0  502    0  0.00000000000E+00  0.00000000000E+00  0.20154491964E+04  0.20154491964E+04  0.00000000000E+00 0. -1.
          1   -1    0    0  501    0 -0.00000000000E+00 -0.00000000000E+00 -0.39536708586E+03  0.39536708586E+03  0.00000000000E+00 0. -1.
         25    1    1    2    0    0 -0.13381740917E+03  0.12709647693E+03  0.23886567082E+03  0.32671458820E+03  0.12500000000E+03 0.  0.
          2    1    1    2  501    0  0.12452149144E+03 -0.50116033663E+02 -0.33772006794E+03  0.36341720233E+03  0.00000000000E+00 0. -1.
          1    1    1    2  502    0  0.92959177279E+01 -0.76980443264E+02  0.17189365076E+04  0.17206844917E+04  0.00000000000E+00 0. -1.
<mgrwt>
<rscale>  0 0.10264707E+03</rscale>
<asrwt>0</asrwt>
<pdfrwt beam="1">  1        2 0.31006910E+00 0.77539685E+02</pdfrwt>
<pdfrwt beam="2">  1        1 0.60825707E-01 0.13588424E+03</pdfrwt>
<totfact> 0.70856378E+01</totfact>
</mgrwt>
</event>
<event>
 5    1  0.8274494E-003  0.4837108E+02  0.7546771E-02  0.1465291E+00
          1   -1    0    0  501    0 -0.00000000000E+00  0.00000000000E+00  0.25949810990E+02  0.25949810990E+02  0.00000000000E+00 0. -1.
          2   -1    0    0  502    0  0.00000000000E+00 -0.00000000000E+00 -0.14453324710E+04  0.14453324710E+04  0.00000000000E+00 0. -1.
         25    1    1    2    0    0 -0.23834477539E+02 -0.70219922789E+01 -0.56941612461E+03  0.58350416765E+03  0.12500000000E+03 0.  0.
          2    1    1    2  501    0  0.25056296858E+02 -0.41375640717E+02 -0.13924353770E+02  0.50335368131E+02  0.00000000000E+00 0. -1.
          1    1    1    2  502    0 -0.12218193192E+01  0.48397632995E+02 -0.83604218162E+03  0.83744274621E+03  0.00000000000E+00 0. -1.
<mgrwt>
<rscale>  0 0.46482899E+02</rscale>
<asrwt>0</asrwt>
<pdfrwt beam="2">  1        2 0.22235880E+00 0.44668421E+02</pdfrwt>
<pdfrwt beam="1">  1        1 0.39922793E-02 0.48371083E+02</pdfrwt>
<totfact> 0.43784672E+03</totfact>
</mgrwt>
</event>
<event>
 5    1  0.8274494E-003  0.6527774E+02  0.7546771E-02  0.1411771E+00
          1   -1    0    0  501    0 -0.00000000000E+00  0.00000000000E+00  0.28790419503E+03  0.28790419503E+03  0.00000000000E+00 0. -1.
          2   -1    0    0  502    0  0.00000000000E+00 -0.00000000000E+00 -0.11035687183E+03  0.11035687183E+03  0.00000000000E+00 0. -1.
         25    1    1    2    0    0  0.10128721435E+03  0.82814826925E+01  0.18069817866E+03  0.24208369321E+03  0.12500000000E+03 0.  0.
          2    1    1    2  501    0 -0.53054229229E+02  0.25044877273E+01  0.57275831768E+02  0.78112384438E+02  0.00000000000E+00 0. -1.
          1    1    1    2  502    0 -0.48232985119E+02 -0.10785970420E+02 -0.60426687232E+02  0.78064989215E+02  0.00000000000E+00 0. -1.
<mgrwt>
<rscale>  0 0.56800565E+02</rscale>
<asrwt>0</asrwt>
<pdfrwt beam="2">  1        2 0.16977980E-01 0.49424265E+02</pdfrwt>
<pdfrwt beam="1">  1        1 0.44292953E-01 0.65277738E+02</pdfrwt>
<totfact> 0.38984939E+03</totfact>
</mgrwt>
</event>
<event>
 5    1  0.8274494E-003  0.1779609E+03  0.7546771E-02  0.1268591E+00
          2   -1    0    0  502    0  0.00000000000E+00  0.00000000000E+00  0.46910321600E+03  0.46910321600E+03  0.00000000000E+00 0. -1.
          1   -1    0    0  501    0 -0.00000000000E+00 -0.00000000000E+00 -0.49803380345E+03  0.49803380345E+03  0.00000000000E+00 0. -1.
         25    1    1    2    0    0  0.18887367469E+03 -0.76518851755E+02 -0.22135850298E+03  0.32581127437E+03  0.12500000000E+03 0.  0.
          2    1    1    2  501    0 -0.12749515680E+02  0.61568965998E+02 -0.20068425014E+03  0.21030324767E+03  0.00000000000E+00 0. -1.
          1    1    1    2  502    0 -0.17612415901E+03  0.14949885757E+02  0.39311216567E+03  0.43102249741E+03  0.00000000000E+00 0. -1.
<mgrwt>
<rscale>  0 0.10577960E+03</rscale>
<asrwt>0</asrwt>
<pdfrwt beam="1">  1        2 0.72169725E-01 0.17796093E+03</pdfrwt>
<pdfrwt beam="2">  1        1 0.76620586E-01 0.62875176E+02</pdfrwt>
<totfact> 0.43113718E+02</totfact>
</mgrwt>
</event>
<event>
 5    1  0.8274494E-003  0.5387189E+02  0.7546771E-02  0.1537496E+00
          1   -1    0    0  501    0 -0.00000000000E+00  0.00000000000E+00  0.68179680049E+03  0.68179680049E+03  0.00000000000E+00 0. -1.
          2   -1    0    0  502    0  0.00000000000E+00 -0.00000000000E+00 -0.87966481986E+03  0.87966481986E+03  0.00000000000E+00 0. -1.
         25    1    1    2    0    0 -0.28056517951E+02 -0.40833418280E+02  0.16741857422E+03  0.21472893434E+03  0.12500000000E+03 0.  0.
          2    1    1    2  501    0  0.20932224905E+02 -0.12608669427E+02  0.48956906124E+03  0.49017854126E+03  0.00000000000E+00 0. -1.
          1    1    1    2  502    0  0.71242930461E+01  0.53442087707E+02 -0.85485565484E+03  0.85655414476E+03  0.00000000000E+00 0. -1.
<mgrwt>
<rscale>  0 0.36282694E+02</rscale>
<asrwt>0</asrwt>
<pdfrwt beam="2">  1        2 0.13533305E+00 0.53871889E+02</pdfrwt>
<pdfrwt beam="1">  1        1 0.10489182E+00 0.24436378E+02</pdfrwt>
<totfact> 0.14863666E+02</totfact>
</mgrwt>
</event>
<event>
 5    1  0.8274494E-003  0.7722768E+02  0.7546771E-02  0.1509967E+00
         -1   -1    0    0    0  501 -0.00000000000E+00  0.00000000000E+00  0.17143441797E+03  0.17143441797E+03  0.00000000000E+00 0.  1.
          1   -1    0    0  502    0  0.00000000000E+00 -0.00000000000E+00 -0.82240125778E+03  0.82240125778E+03  0.00000000000E+00 0. -1.
         25    1    1    2    0    0 -0.19593444737E+02 -0.88953759456E+02  0.65650191349E+02  0.16802268306E+03  0.12500000000E+03 0.  0.
          2    1    1    2  502    0  0.77280516129E+01  0.18958002143E+02 -0.74793692067E+03  0.74821705803E+03  0.00000000000E+00 0. -1.
         -2    1    1    2    0  501  0.11865393124E+02  0.69995757314E+02  0.31319889510E+02  0.77595934654E+02  0.00000000000E+00 0.  1.
<mgrwt>
<rscale>  0 0.39762468E+02</rscale>
<asrwt>0</asrwt>
<pdfrwt beam="2">  1        1 0.12652327E+00 0.20472631E+02</pdfrwt>
<pdfrwt beam="1">  1       -1 0.26374526E-01 0.77227681E+02</pdfrwt>
<totfact> 0.31587573E+02</totfact>
</mgrwt>
</event>
<event>
 5    1  0.8274494E-003  0.3366165E+02  0.7546771E-02  0.1571602E+00
          1   -1    0    0  502    0  0.00000000000E+00  0.00000000000E+00  0.18305289067E+03  0.18305289067E+03  0.00000000000E+00 0. -1.
         -1   -1    0    0    0  501 -0.00000000000E+00 -0.00000000000E+00 -0.12473661911E+04  0.12473661911E+04  0.00000000000E+00 0.  1.
         25    1    1    2    0    0  0.50262657606E+02 -0.38949042528E+02 -0.32787412097E+02  0.14402561250E+03  0.12500000000E+03 0.  0.
          2    1    1    2  502    0 -0.20177844329E+02  0.24130174312E+02  0.12524603639E+03  0.12913551156E+03  0.00000000000E+00 0. -1.
         -2    1    1    2    0  501 -0.30084813278E+02  0.14818868216E+02 -0.11567719248E+04  0.11572579577E+04  0.00000000000E+00 0.  1.
<mgrwt>
<rscale>  0 0.32539571E+02</rscale>
<asrwt>0</asrwt>
<pdfrwt beam="1">  1        1 0.28161985E-01 0.31454900E+02</pdfrwt>
<pdfrwt beam="2">  1       -1 0.19190248E+00 0.33661646E+02</pdfrwt>
<totfact> 0.35608188E+01</totfact>
</mgrwt>
</event>
<event>
 5    1  0.8274494E-003  0.1088579E+03  0.7546771E-02  0.1300191E+00
         -2   -1    0    0    0  501  0.00000000000E+00  0.00000000000E+00  0.44268689907E+02  0.44268689907E+02  0.00000000000E+00 0.  1.
         -1   -1    0    0    0  502 -0.00000000000E+00 -0.00000000000E+00 -0.93633452319E+03  0.93633452319E+03  0.00000000000E+00 0.  1.
         25    1    1    2    0    0  0.85961227922E+01 -0.13225862952E+03 -0.52523672989E+03  0.55593602225E+03  0.12500000000E+03 0.  0.
         -2    1    1    2    0  502 -0.65072000829E+02  0.81025545091E+02 -0.31694638711E+03  0.33354837213E+03  0.00000000000E+00 0.  1.
         -1    1    1    2    0  501  0.56475878036E+02  0.51233084427E+02 -0.49882716275E+02  0.91118818709E+02  0.00000000000E+00 0.  1.
<mgrwt>
<rscale>  0 0.91107754E+02</rscale>
<asrwt>0</asrwt>
<pdfrwt beam="1">  1       -2 0.68105683E-02 0.76251910E+02</pdfrwt>
<pdfrwt beam="2">  1       -1 0.14405145E+00 0.10885790E+03</pdfrwt>
<totfact> 0.36339944E+02</totfact>
</mgrwt>
</event>
<event>
 5    1  0.8274494E-003  0.1247397E+03  0.7546771E-02  0.1306545E+00
          1   -1    0    0  501    0 -0.00000000000E+00  0.00000000000E+00  0.74856579185E+03  0.74856579185E+03  0.00000000000E+00 0. -1.
          2   -1    0    0  502    0  0.00000000000E+00 -0.00000000000E+00 -0.52932996170E+03  0.52932996170E+03  0.00000000000E+00 0. -1.
         25    1    1    2    0    0  0.18550377881E+02 -0.17179928680E+03 -0.95350817232E+02  0.23361483218E+03  0.12500000000E+03 0.  0.
          2    1    1    2  501    0  0.19662878598E+02  0.59618941279E+02  0.66830010659E+03  0.67124219133E+03  0.00000000000E+00 0. -1.
          1    1    1    2  502    0 -0.38213256479E+02  0.11218034553E+03 -0.35371345921E+03  0.37303873005E+03  0.00000000000E+00 0. -1.
<mgrwt>
<rscale>  0 0.88492248E+02</rscale>
<asrwt>0</asrwt>
<pdfrwt beam="2">  1        2 0.81435379E-01 0.12473969E+03</pdfrwt>
<pdfrwt beam="1">  1        1 0.11516397E+00 0.62777758E+02</pdfrwt>
<totfact> 0.22060248E+02</totfact>
</mgrwt>
</event>
<event>
 5    1  0.8274494E-003  0.2455990E+02  0.7546771E-02  0.1684434E+00
         -2   -1    0    0    0  501 -0.00000000000E+00  0.00000000000E+00  0.42915827963E+03  0.42915827963E+03  0.00000000000E+00 0.  1.
          2   -1    0    0  502    0  0.00000000000E+00 -0.00000000000E+00 -0.45532532123E+03  0.45532532123E+03  0.00000000000E+00 0. -1.
         25    1    1    2    0    0 -0.17647922895E+02  0.97345528358E+01  0.23462457240E+03  0.26660814068E+03  0.12500000000E+03 0.  0.
          1    1    1    2  502    0 -0.45486718857E+01 -0.21908974454E+02 -0.43814918331E+03  0.43872018465E+03  0.00000000000E+00 0. -1.
         -1    1    1    2    0  501  0.22196594781E+02  0.12174421618E+02  0.17735756931E+03  0.17915527553E+03  0.00000000000E+00 0.  1.
<mgrwt>
<rscale>  0 0.23442630E+02</rscale>
<asrwt>0</asrwt>
<pdfrwt beam="2">  1        2 0.70050050E-01 0.22376183E+02</pdfrwt>
<pdfrwt beam="1">  1       -2 0.66024351E-01 0.24559903E+02</pdfrwt>
<totfact> 0.15702271E+02</totfact>
</mgrwt>
</event>
<event>
 5    1  0.8274494E-003  0.1449957E+03  0.7546771E-02  0.1345538E+00
          2   -1    0    0  502    0  0.00000000000E+00  0.00000000000E+00  0.12203650746E+03  0.12203650746E+03  0.00000000000E+00 0. -1.
          1   -1    0    0  501    0 -0.00000000000E+00 -0.00000000000E+00 -0.56054050599E+03  0.56054050599E+03  0.00000000000E+00 0. -1.
         25    1    1    2    0    0  0.76278581667E+02  0.15733027865E+03 -0.17612393115E+03  0.27787745092E+03  0.12500000000E+03 0.  0.
          2    1    1    2  501    0 -0.58564644735E+02 -0.12343822091E+03 -0.31284721377E+03  0.34137983414E+03  0.00000000000E+00 0. -1.
          1    1    1    2  502    0 -0.17713936933E+02 -0.33892057743E+02  0.50467146388E+02  0.63319728397E+02  0.00000000000E+00 0. -1.
<mgrwt>
<rscale>  0 0.74464304E+02</rscale>
<asrwt>0</asrwt>
<pdfrwt beam="1">  1        2 0.18774847E-01 0.38242060E+02</pdfrwt>
<pdfrwt beam="2">  1        1 0.86237003E-01 0.14499566E+03</pdfrwt>
<totfact> 0.14759659E+03</totfact>
</mgrwt>
</event>
<event>
 5    1  0.8274494E-003  0.5465253E+02  0.7546771E-02  0.1453516E+00
          2   -1    0    0  502    0  0.00000000000E+00  0.00000000000E+00  0.23579605464E+02  0.23579605464E+02  0.00000000000E+00 0. -1.
          1   -1    0    0  501    0 -0.00000000000E+00 -0.00000000000E+00 -0.23720898591E+04  0.23720898591E+04  0.00000000000E+00 0. -1.
         25    1    1    2    0    0 -0.50450302092E+01 -0.22452723851E+02 -0.27157891487E+03  0.29984943578E+03  0.12500000000E+03 0.  0.
          2    1    1    2  501    0 -0.30709216035E+02  0.46462518579E+02 -0.20348314257E+04  0.20355934645E+04  0.00000000000E+00 0. -1.
          1    1    1    2  502    0  0.35754246244E+02 -0.24009794728E+02 -0.42099913042E+02  0.60226564284E+02  0.00000000000E+00 0. -1.
<mgrwt>
<rscale>  0 0.48515613E+02</rscale>
<asrwt>0</asrwt>
<pdfrwt beam="1">  1        2 0.36276303E-02 0.43067811E+02</pdfrwt>
<pdfrwt beam="2">  1        1 0.36493704E+00 0.54652526E+02</pdfrwt>
<totfact> 0.65455213E+02</totfact>
</mgrwt>
</event>
<event>
 5    1  0.8274494E-003  0.1652315E+03  0.7546771E-02  0.1214443E+00
          1   -1    0    0  501    0 -0.00000000000E+00  0.00000000000E+00  0.88594733662E+03  0.88594733662E+03  0.00000000000E+00 0. -1.
          2   -1    0    0  502    0  0.00000000000E+00 -0.00000000000E+00 -0.21161809851E+04  0.21161809851E+04  0.00000000000E+00 0. -1.
         25    1    1    2    0    0 -0.14392778333E+03 -0.18864660309E+03 -0.67399261781E+03  0.72539216740E+03  0.12500000000E+03 0.  0.
          2    1    1    2  501    0  0.29770672227E+02  0.16199078407E+03  0.84990252662E+03  0.86571450941E+03  0.00000000000E+00 0. -1.
          1    1    1    2  502    0  0.11415711110E+03  0.26655819018E+02 -0.14061435573E+04  0.14110216450E+04  0.00000000000E+00 0. -1.
<mgrwt>
<rscale>  0 0.13917522E+03</rscale>
<asrwt>0</asrwt>
<pdfrwt beam="2">  1        2 0.32556630E+00 0.11722789E+03</pdfrwt>
<pdfrwt beam="1">  1        1 0.13629959E+00 0.16523152E+03</pdfrwt>
<totfact> 0.19596028E+01</totfact>
</mgrwt>
</event>
<event>
 5    1  0.8274494E-003  0.7845017E+02  0.7546771E-02  0.1406887E+00
          2   -1    0    0  502    0  0.00000000000E+00  0.00000000000E+00  0.15873829236E+03  0.15873829236E+03  0.00000000000E+00 0. -1.
          1   -1    0    0  501    0 -0.00000000000E+00 -0.00000000000E+00 -0.65304327052E+03  0.65304327052E+03  0.00000000000E+00 0. -1.
         25    1    1    2    0    0 -0.54794619179E+02 -0.61601015774E+01 -0.84379785548E+02  0.16057815963E+03  0.12500000000E+03 0.  0.
          2    1    1    2  501    0 -0.20898122025E+02  0.37264785801E+02 -0.51570058058E+03  0.51746737538E+03  0.00000000000E+00 0. -1.
          1    1    1    2  502    0  0.75692741204E+02 -0.31104684224E+02  0.10577538797E+03  0.13373602787E+03  0.00000000000E+00 0. -1.
<mgrwt>
<rscale>  0 0.57894354E+02</rscale>
<asrwt>0</asrwt>
<pdfrwt beam="1">  1        2 0.24421276E-01 0.78450173E+02</pdfrwt>
<pdfrwt beam="2">  1        1 0.10046819E+00 0.42724651E+02</pdfrwt>
<totfact> 0.97057860E+02</totfact>
</mgrwt>
</event>
<event>
 5    1  0.8274494E-003  0.2858141E+02  0.7546771E-02  0.1640547E+00
          2   -1    0    0  502    0  0.00000000000E+00  0.00000000000E+00  0.89241725457E+03  0.89241725457E+03  0.00000000000E+00 0. -1.
          1   -1    0    0  501    0 -0.00000000000E+00 -0.00000000000E+00 -0.89646171797E+03  0.89646171797E+03  0.00000000000E+00 0. -1.
         25    1    1    2    0    0 -0.34481463452E+02 -0.17242654737E+02  0.12942648855E+03  0.18401765242E+03  0.12500000000E+03 0.  0.
          2    1    1    2  501    0  0.27856503519E+02 -0.63882860860E+01 -0.86872640465E+03  0.86919638812E+03  0.00000000000E+00 0. -1.
          1    1    1    2  502    0  0.66249599336E+01  0.23630940823E+02  0.73525545270E+03  0.73566493200E+03  0.00000000000E+00 0. -1.
<mgrwt>
<rscale>  0 0.26484824E+02</rscale>
<asrwt>0</asrwt>
<pdfrwt beam="1">  1        2 0.13729496E+00 0.24542035E+02</pdfrwt>
<pdfrwt beam="2">  1        1 0.13791719E+00 0.28581408E+02</pdfrwt>
<totfact> 0.10274552E+02</totfact>
</mgrwt>
</event>
<event>
 5    1  0.8274494E-003  0.6164293E+02  0.7546771E-02  0.1413865E+00
          1   -1    0    0  501    0 -0.00000000000E+00  0.00000000000E+00  0.99796840625E+02  0.99796840625E+02  0.00000000000E+00 0. -1.
          2   -1    0    0  502    0  0.00000000000E+00 -0.00000000000E+00 -0.14038649031E+04  0.14038649031E+04  0.00000000000E+00 0. -1.
         25    1    1    2    0    0  0.74479019712E+01  0.35489710733E+02 -0.96311711337E+03  0.97187168128E+03  0.12500000000E+03 0.  0.
          2    1    1    2  501    0  0.52367658113E+01  0.51226927736E+02  0.83655365107E+02  0.98233609079E+02  0.00000000000E+00 0. -1.
          1    1    1    2  502    0 -0.12684667783E+02 -0.86716638469E+02 -0.42460631419E+03  0.43355645334E+03  0.00000000000E+00 0. -1.
<mgrwt>
<rscale>  0 0.56340347E+02</rscale>
<asrwt>0</asrwt>
<pdfrwt beam="2">  1        2 0.21597919E+00 0.61642926E+02</pdfrwt>
<pdfrwt beam="1">  1        1 0.15353362E-01 0.51493901E+02</pdfrwt>
<totfact> 0.78427054E+02</totfact>
</mgrwt>
</event>
<event>
 5    1  0.8274494E-003  0.4398535E+02  0.7546771E-02  0.1538560E+00
         -2   -1    0    0    0  501 -0.00000000000E+00  0.00000000000E+00  0.34338397679E+02  0.34338397679E+02  0.00000000000E+00 0.  1.
          2   -1    0    0  502    0  0.00000000000E+00 -0.00000000000E+00 -0.89251683849E+03  0.89251683849E+03  0.00000000000E+00 0. -1.
         25    1    1    2    0    0 -0.96592424219E+01  0.30435396496E+02 -0.22039902109E+03  0.25538273791E+03  0.12500000000E+03 0.  0.
          1    1    1    2  502    0  0.26794056724E+02  0.12863639506E+02 -0.62139882442E+03  0.62210922970E+03  0.00000000000E+00 0. -1.
         -1    1    1    2    0  501 -0.17134814303E+02 -0.43299036003E+02 -0.16380595304E+02  0.49363268555E+02  0.00000000000E+00 0.  1.
<mgrwt>
<rscale>  0 0.36157029E+02</rscale>
<asrwt>0</asrwt>
<pdfrwt beam="2">  1        2 0.13731028E+00 0.29721956E+02</pdfrwt>
<pdfrwt beam="1">  1       -2 0.52828305E-02 0.43985352E+02</pdfrwt>
<totfact> 0.51453481E+03</totfact>
</mgrwt>
</event>
<event>
 5    1  0.8274494E-003  0.5092699E+02  0.7546771E-02  0.1553595E+00
          1   -1    0    0  501    0 -0.00000000000E+00  0.00000000000E+00  0.15291871976E+04  0.15291871976E+04  0.00000000000E+00 0. -1.
          2   -1    0    0  502    0  0.00000000000E+00 -0.00000000000E+00 -0.44461065557E+03  0.44461065557E+03  0.00000000000E+00 0. -1.
         25    1    1    2    0    0  0.30841778544E+02 -0.46630389836E+02  0.13990191947E+03  0.19576300884E+03  0.12500000000E+03 0.  0.
          2    1    1    2  501    0 -0.23001640560E+02 -0.36900124052E+01  0.13596984703E+04  0.13598980189E+04  0.00000000000E+00 0. -1.
          1    1    1    2  502    0 -0.78401379836E+01  0.50320402242E+02 -0.41502384771E+03  0.41813682547E+03  0.00000000000E+00 0. -1.
<mgrwt>
<rscale>  0 0.34443897E+02</rscale>
<asrwt>0</asrwt>
<pdfrwt beam="2">  1        2 0.68401640E-01 0.50926989E+02</pdfrwt>
<pdfrwt beam="1">  1        1 0.23525957E+00 0.23295743E+02</pdfrwt>
<totfact> 0.86719147E+01</totfact>
</mgrwt>
</event>
<event>
 5    1  0.8274494E-003  0.5594285E+02  0.7546771E-02  0.1473451E+00
          2   -1    0    0  502    0  0.00000000000E+00  0.00000000000E+00  0.29542907911E+04  0.29542907911E+04  0.00000000000E+00 0. -1.
         -2   -1    0    0    0  501 -0.00000000000E+00 -0.00000000000E+00 -0.52826536377E+03  0.52826536377E+03  0.00000000000E+00 0.  1.
         25    1    1    2    0    0 -0.10330982452E+02  0.19929107236E+02  0.50302209187E+03  0.51880644120E+03  0.12500000000E+03 0.  0.
          3    1    1    2  502    0  0.59192338451E+01  0.35944016592E+02  0.24417311277E+04  0.24420028480E+04  0.00000000000E+00 0. -1.
         -1    1    1    2    0  501  0.44117486069E+01 -0.55873123828E+02 -0.51872779220E+03  0.52174686572E+03  0.00000000000E+00 0.  1.
<mgrwt>
<rscale>  0 0.45143041E+02</rscale>
<asrwt>0</asrwt>
<pdfrwt beam="1">  1        2 0.45450626E+00 0.36428144E+02</pdfrwt>
<pdfrwt beam="2">  1       -2 0.81271596E-01 0.55942850E+02</pdfrwt>
<totfact> 0.44135606E+00</totfact>
</mgrwt>
</event>
<event>
 5    1  0.8274494E-003  0.4946933E+02  0.7546771E-02  0.1564300E+00
          2   -1    0    0  502    0  0.00000000000E+00  0.00000000000E+00  0.29301721848E+03  0.29301721848E+03  0.00000000000E+00 0. -1.
          1   -1    0    0  501    0 -0.00000000000E+00 -0.00000000000E+00 -0.52400564351E+03  0.52400564351E+03  0.00000000000E+00 0. -1.
         25    1    1    2    0    0  0.10925522384E+02 -0.62614852786E+02  0.85861441799E+02  0.16442984527E+03  0.12500000000E+03 0.  0.
          2    1    1    2  501    0  0.67852785966E+01  0.48889225474E+02 -0.48270965296E+03  0.48522655063E+03  0.00000000000E+00 0. -1.
          1    1    1    2  502    0 -0.17710800980E+02  0.13725627312E+02  0.16585978613E+03  0.16736646609E+03  0.00000000000E+00 0. -1.
<mgrwt>
<rscale>  0 0.33293394E+02</rscale>
<asrwt>0</asrwt>
<pdfrwt beam="1">  1        2 0.45079573E-01 0.22406814E+02</pdfrwt>
<pdfrwt beam="2">  1        1 0.80616252E-01 0.49469330E+02</pdfrwt>
<totfact> 0.65930845E+02</totfact>
</mgrwt>
</event>
<event>
 5    1  0.8274494E-003  0.3720750E+02  0.7546771E-02  0.1533577E+00
          2   -1    0    0  502    0  0.00000000000E+00  0.00000000000E+00  0.27820970755E+02  0.27820970755E+02  0.00000000000E+00 0. -1.
          1   -1    0    0  501    0 -0.00000000000E+00 -0.00000000000E+00 -0.16470738000E+04  0.16470738000E+04  0.00000000000E+00 0. -1.
         25    1    1    2    0    0 -0.24097361267E+02  0.91533479966E+01 -0.98312655464E+03  0.99137646182E+03  0.12500000000E+03 0.  0.
          2    1    1    2  501    0  0.58457032574E+01 -0.40531843315E+02 -0.64487856680E+03  0.64617750540E+03  0.00000000000E+00 0. -1.
          1    1    1    2  502    0  0.18251658009E+02  0.31378495318E+02  0.87522922154E+01  0.37340803520E+02  0.00000000000E+00 0. -1.
<mgrwt>
<rscale>  0 0.36751247E+02</rscale>
<asrwt>0</asrwt>
<pdfrwt beam="1">  1        2 0.42801488E-02 0.36300592E+02</pdfrwt>
<pdfrwt beam="2">  1        1 0.25339600E+00 0.37207496E+02</pdfrwt>
<totfact> 0.15196003E+03</totfact>
</mgrwt>
</event>
<event>
 5    1  0.8274494E-003  0.4971781E+02  0.7546771E-02  0.1517206E+00
         -2   -1    0    0    0  501 -0.00000000000E+00  0.00000000000E+00  0.14175545791E+02  0.14175545791E+02  0.00000000000E+00 0.  1.
          2   -1    0    0  502    0  0.00000000000E+00 -0.00000000000E+00 -0.15959147447E+04  0.15959147447E+04  0.00000000000E+00 0. -1.
         25    1    1    2    0    0 -0.46621784257E+01 -0.24995607255E+02 -0.52621776407E+03  0.54145789450E+03  0.12500000000E+03 0.  0.
          1    1    1    2  502    0  0.20505771945E+01 -0.30215651543E+02 -0.94082610471E+03  0.94131341740E+03  0.00000000000E+00 0. -1.
         -1    1    1    2    0  501  0.26116012312E+01  0.55211258798E+02 -0.11469533016E+03  0.12731897863E+03  0.00000000000E+00 0.  1.
<mgrwt>
<rscale>  0 0.38803496E+02</rscale>
<asrwt>0</asrwt>
<pdfrwt beam="2">  1        2 0.24552510E+00 0.30285153E+02</pdfrwt>
<pdfrwt beam="1">  1       -2 0.21808554E-02 0.49717806E+02</pdfrwt>
<totfact> 0.80933296E+03</totfact>
</mgrwt>
</event>
<event>
 5    1  0.8274494E-003  0.6316080E+02  0.7546771E-02  0.1450951E+00
          2   -1    0    0  502    0  0.00000000000E+00  0.00000000000E+00  0.20880781237E+04  0.20880781237E+04  0.00000000000E+00 0. -1.
         -2   -1    0    0    0  501 -0.00000000000E+00 -0.00000000000E+00 -0.59136290208E+02  0.59136290208E+02  0.00000000000E+00 0.  1.
         25    1    1    2    0    0 -0.96022497308E+02 -0.14314610186E+02  0.95023781838E+03  0.96332867680E+03  0.12500000000E+03 0.  0.
          1    1    1    2  502    0  0.58321300442E+02  0.97629665122E+01  0.11235592393E+04  0.11251142403E+04  0.00000000000E+00 0. -1.
         -1    1    1    2    0  501  0.37701196865E+02  0.45516436736E+01 -0.44855224143E+02  0.58771496817E+02  0.00000000000E+00 0.  1.
<mgrwt>
<rscale>  0 0.48974779E+02</rscale>
<asrwt>0</asrwt>
<pdfrwt beam="1">  1        2 0.32124273E+00 0.63160802E+02</pdfrwt>
<pdfrwt beam="2">  1       -2 0.90978924E-02 0.37974962E+02</pdfrwt>
<totfact> 0.52651086E+02</totfact>
</mgrwt>
</event>
<event>
 5    1  0.8274494E-003  0.2319377E+03  0.7546771E-02  0.1230759E+00
          1   -1    0    0  502    0  0.00000000000E+00  0.00000000000E+00  0.35581608069E+04  0.35581608069E+04  0.00000000000E+00 0. -1.
         -1   -1    0    0    0  501 -0.00000000000E+00 -0.00000000000E+00 -0.27664466649E+03  0.27664466649E+03  0.00000000000E+00 0.  1.
         25    1    1    2    0    0 -0.12141710174E+03  0.14587694163E+03  0.21000119194E+03  0.30943124488E+03  0.12500000000E+03 0.  0.
          2    1    1    2  502    0 -0.70294076685E+02  0.41738052646E+01  0.32326568294E+04  0.32334237047E+04  0.00000000000E+00 0. -1.
         -2    1    1    2    0  501  0.19171117842E+03 -0.15005074689E+03 -0.16114188088E+03  0.29195052380E+03  0.00000000000E+00 0.  1.
<mgrwt>
<rscale>  0 0.12779892E+03</rscale>
<asrwt>0</asrwt>
<pdfrwt beam="1">  1        1 0.54740932E+00 0.70417880E+02</pdfrwt>
<pdfrwt beam="2">  1       -1 0.42560721E-01 0.23193774E+03</pdfrwt>
<totfact> 0.20533958E+00</totfact>
</mgrwt>
</event>
<event>
 5    1  0.8274494E-003  0.1664749E+03  0.7546771E-02  0.1218600E+00
          2   -1    0    0  502    0  0.00000000000E+00  0.00000000000E+00  0.26187531082E+03  0.26187531082E+03  0.00000000000E+00 0. -1.
         -2   -1    0    0    0  501 -0.00000000000E+00 -0.00000000000E+00 -0.33241197043E+03  0.33241197043E+03  0.00000000000E+00 0.  1.
         25    1    1    2    0    0 -0.48530145453E+02 -0.22757211028E+03  0.37619299716E+02  0.26680414560E+03  0.12500000000E+03 0.  0.
          1    1    1    2  502    0  0.72413998498E+02  0.11880784598E+03  0.37533441408E+02  0.14411055016E+03  0.00000000000E+00 0. -1.
         -1    1    1    2    0  501 -0.23883853044E+02  0.10876426431E+03 -0.14568940073E+03  0.18337258549E+03  0.00000000000E+00 0.  1.
<mgrwt>
<rscale>  0 0.13615409E+03</rscale>
<asrwt>0</asrwt>
<pdfrwt beam="1">  1        2 0.40288509E-01 0.16647489E+03</pdfrwt>
<pdfrwt beam="2">  1       -2 0.51140303E-01 0.11135575E+03</pdfrwt>
<totfact> 0.46734219E+02</totfact>
</mgrwt>
</event>
<event>
 5    1  0.8274494E-003  0.2017453E+03  0.7546771E-02  0.1157193E+00
          1   -1    0    0  501    0 -0.00000000000E+00  0.00000000000E+00  0.89197912565E+03  0.89197912565E+03  0.00000000000E+00 0. -1.
          2   -1    0    0  502    0  0.00000000000E+00 -0.00000000000E+00 -0.36101663239E+03  0.36101663239E+03  0.00000000000E+00 0. -1.
         25    1    1    2    0    0  0.13109619981E+03  0.58138149998E+02 -0.12469512727E+03  0.22746457494E+03  0.12500000000E+03 0.  0.
          2    1    1    2  501    0  0.17925648444E+03 -0.92565013167E+02  0.68291130561E+03  0.71208778968E+03  0.00000000000E+00 0. -1.
          1    1    1    2  502    0 -0.31035268425E+03  0.34426863169E+02 -0.27253685090E+02  0.31344339342E+03  0.00000000000E+00 0. -1.
<mgrwt>
<rscale>  0 0.19141269E+03</rscale>
<asrwt>0</asrwt>
<pdfrwt beam="2">  1        2 0.55541020E-01 0.18160926E+03</pdfrwt>
<pdfrwt beam="1">  1        1 0.13722756E+00 0.20174531E+03</pdfrwt>
<totfact> 0.24091373E+02</totfact>
</mgrwt>
</event>
<event>
 5    1  0.8274494E-003  0.5768407E+02  0.7546771E-02  0.1519853E+00
          1   -1    0    0  501    0 -0.00000000000E+00  0.00000000000E+00  0.18403471458E+04  0.18403471458E+04  0.00000000000E+00 0. -1.
          2   -1    0    0  502    0  0.00000000000E+00 -0.00000000000E+00 -0.12894050481E+04  0.12894050481E+04  0.00000000000E+00 0. -1.
         25    1    1    2    0    0 -0.19141270443E+02  0.26195815719E+02 -0.17415635347E+03  0.21681338623E+03  0.12500000000E+03 0.  0.
          2    1    1    2  501    0  0.29403306923E+02 -0.49696772952E+02  0.18184099838E+04  0.18193265767E+04  0.00000000000E+00 0. -1.
          1    1    1    2  502    0 -0.10262036480E+02  0.23500957233E+02 -0.10933115326E+04  0.10936122310E+04  0.00000000000E+00 0. -1.
<mgrwt>
<rscale>  0 0.38460873E+02</rscale>
<asrwt>0</asrwt>
<pdfrwt beam="2">  1        2 0.19837001E+00 0.25643798E+02</pdfrwt>
<pdfrwt beam="1">  1        1 0.28313033E+00 0.57684074E+02</pdfrwt>
<totfact> 0.14758694E+01</totfact>
</mgrwt>
</event>
<event>
 5    1  0.8274494E-003  0.1115434E+03  0.7546771E-02  0.1267473E+00
          2   -1    0    0  502    0  0.00000000000E+00  0.00000000000E+00  0.13870092627E+04  0.13870092627E+04  0.00000000000E+00 0. -1.
          1   -1    0    0  501    0 -0.00000000000E+00 -0.00000000000E+00 -0.10083695148E+04  0.10083695148E+04  0.00000000000E+00 0. -1.
         25    1    1    2    0    0 -0.11419535180E+03  0.60625353193E+02 -0.24412878648E+02  0.18148553790E+03  0.12500000000E+03 0.  0.
          2    1    1    2  501    0  0.88975959358E+02  0.48649426152E+02 -0.90016507930E+03  0.90585907182E+03  0.00000000000E+00 0. -1.
          1    1    1    2  502    0  0.25219392442E+02 -0.10927477935E+03  0.13032177058E+04  0.13080341677E+04  0.00000000000E+00 0. -1.
<mgrwt>
<rscale>  0 0.10635477E+03</rscale>
<asrwt>0</asrwt>
<pdfrwt beam="1">  1        2 0.21338604E+00 0.11154335E+03</pdfrwt>
<pdfrwt beam="2">  1        1 0.15513377E+00 0.10140753E+03</pdfrwt>
<totfact> 0.38678774E+01</totfact>
</mgrwt>
</event>
<event>
 5    1  0.8274494E-003  0.4562353E+02  0.7546771E-02  0.1475560E+00
         -2   -1    0    0    0  501 -0.00000000000E+00  0.00000000000E+00  0.73587376413E+02  0.73587376413E+02  0.00000000000E+00 0.  1.
          2   -1    0    0  502    0  0.00000000000E+00 -0.00000000000E+00 -0.38268841191E+03  0.38268841191E+03  0.00000000000E+00 0. -1.
         25    1    1    2    0    0  0.60084034592E+01 -0.22530125377E+01 -0.18057444344E+03  0.21971187178E+03  0.12500000000E+03 0.  0.
          1    1    1    2  502    0 -0.51461435957E+02 -0.16875536587E+01 -0.16832329769E+03  0.17602232749E+03  0.00000000000E+00 0. -1.
         -1    1    1    2    0  501  0.45453032498E+02  0.39405661965E+01  0.39796705638E+02  0.60541589052E+02  0.00000000000E+00 0.  1.
<mgrwt>
<rscale>  0 0.44805481E+02</rscale>
<asrwt>0</asrwt>
<pdfrwt beam="2">  1        2 0.58875140E-01 0.44002103E+02</pdfrwt>
<pdfrwt beam="1">  1       -2 0.11321135E-01 0.45623527E+02</pdfrwt>
<totfact> 0.40884870E+03</totfact>
</mgrwt>
</event>
<event>
 5    1  0.8274494E-003  0.9584284E+02  0.7546771E-02  0.1369341E+00
          2   -1    0    0  502    0  0.00000000000E+00  0.00000000000E+00  0.40056315304E+03  0.40056315304E+03  0.00000000000E+00 0. -1.
          1   -1    0    0  501    0 -0.00000000000E+00 -0.00000000000E+00 -0.39291222890E+03  0.39291222890E+03  0.00000000000E+00 0. -1.
         25    1    1    2    0    0 -0.11357079259E+03 -0.26404520512E+02 -0.13506303629E+03  0.21785900809E+03  0.12500000000E+03 0.  0.
          2    1    1    2  501    0  0.36607865095E+02 -0.29997824776E+02 -0.20740071251E+03  0.21273236902E+03  0.00000000000E+00 0. -1.
          3    1    1    2  502    0  0.76962927493E+02  0.56402345288E+02  0.35011467294E+03  0.36288400484E+03  0.00000000000E+00 0. -1.
<mgrwt>
<rscale>  0 0.67350696E+02</rscale>
<asrwt>0</asrwt>
<pdfrwt beam="1">  1        2 0.61625101E-01 0.95842836E+02</pdfrwt>
<pdfrwt beam="2">  1        1 0.60448035E-01 0.47328694E+02</pdfrwt>
<totfact> 0.69141544E+02</totfact>
</mgrwt>
</event>
<event>
 5    1  0.8274494E-003  0.9196165E+02  0.7546771E-02  0.1364733E+00
         -2   -1    0    0    0  501 -0.00000000000E+00  0.00000000000E+00  0.21232167218E+03  0.21232167218E+03  0.00000000000E+00 0.  1.
          2   -1    0    0  502    0  0.00000000000E+00 -0.00000000000E+00 -0.32523866570E+03  0.32523866570E+03  0.00000000000E+00 0. -1.
         25    1    1    2    0    0 -0.43752493961E+01 -0.46231078674E+02 -0.79526417550E+02  0.15526076945E+03  0.12500000000E+03 0.  0.
          1    1    1    2  502    0 -0.13223757504E+02 -0.49517462111E+02 -0.19060947382E+03  0.19737988329E+03  0.00000000000E+00 0. -1.
         -1    1    1    2    0  501  0.17599006900E+02  0.95748540785E+02  0.15721889786E+03  0.18491968514E+03  0.00000000000E+00 0.  1.
<mgrwt>
<rscale>  0 0.68653402E+02</rscale>
<asrwt>0</asrwt>
<pdfrwt beam="2">  1        2 0.50036718E-01 0.51252774E+02</pdfrwt>
<pdfrwt beam="1">  1       -2 0.32664873E-01 0.91961649E+02</pdfrwt>
<totfact> 0.85986862E+02</totfact>
</mgrwt>
</event>
<event>
 5    1  0.8274494E-003  0.5217730E+02  0.7546771E-02  0.1503304E+00
         -2   -1    0    0    0  501 -0.00000000000E+00  0.00000000000E+00  0.27317258225E+02  0.27317258225E+02  0.00000000000E+00 0.  1.
          2   -1    0    0  502    0  0.00000000000E+00 -0.00000000000E+00 -0.15428684522E+04  0.15428684522E+04  0.00000000000E+00 0. -1.
         25    1    1    2    0    0  0.73734526033E+02  0.37250212314E+02 -0.94122065747E+03  0.95307171016E+03  0.12500000000E+03 0.  0.
          1    1    1    2  502    0 -0.29631004143E+02 -0.11286986060E+02 -0.56401618685E+03  0.56490676354E+03  0.00000000000E+00 0. -1.
         -1    1    1    2    0  501 -0.44103521889E+02 -0.25963226254E+02 -0.10314349679E+02  0.52207236758E+02  0.00000000000E+00 0.  1.
<mgrwt>
<rscale>  0 0.40674732E+02</rscale>
<asrwt>0</asrwt>
<pdfrwt beam="2">  1        2 0.23736441E+00 0.31707924E+02</pdfrwt>
<pdfrwt beam="1">  1       -2 0.42026546E-02 0.52177300E+02</pdfrwt>
<totfact> 0.33649976E+03</totfact>
</mgrwt>
</event>
<event>
 5    1  0.8274494E-003  0.1216522E+03  0.7546771E-02  0.1255545E+00
          1   -1    0    0  501    0 -0.00000000000E+00  0.00000000000E+00  0.98245589533E+02  0.98245589533E+02  0.00000000000E+00 0. -1.
          2   -1    0    0  502    0  0.00000000000E+00 -0.00000000000E+00 -0.16555737886E+04  0.16555737886E+04  0.00000000000E+00 0. -1.
         25    1    1    2    0    0 -0.95896550523E+02 -0.88426165507E+02 -0.66046852780E+03  0.68473280289E+03  0.12500000000E+03 0.  0.
          2    1    1    2  501    0  0.95858827676E+02 -0.41647817151E+02  0.48216456517E+02  0.11510118243E+03  0.00000000000E+00 0. -1.
          1    1    1    2  502    0  0.37722846886E-01  0.13007398266E+03 -0.94507612783E+03  0.95398539286E+03  0.00000000000E+00 0. -1.
<mgrwt>
<rscale>  0 0.11275870E+03</rscale>
<asrwt>0</asrwt>
<pdfrwt beam="2">  1        2 0.25470366E+00 0.12165224E+03</pdfrwt>
<pdfrwt beam="1">  1        1 0.15114706E-01 0.10451534E+03</pdfrwt>
<totfact> 0.58285925E+02</totfact>
</mgrwt>
</event>
<event>
 5    1  0.8274494E-003  0.1743484E+03  0.7546771E-02  0.1287538E+00
          2   -1    0    0  502    0  0.00000000000E+00  0.00000000000E+00  0.28927763074E+03  0.28927763074E+03  0.00000000000E+00 0. -1.
          1   -1    0    0  501    0 -0.00000000000E+00 -0.00000000000E+00 -0.57121572806E+03  0.57121572806E+03  0.00000000000E+00 0. -1.
         25    1    1    2    0    0 -0.97291773523E+02 -0.14322993189E+03 -0.18017254172E+03  0.27940588286E+03  0.12500000000E+03 0.  0.
          2    1    1    2  501    0  0.13930780704E+03  0.11001391460E+03 -0.31481358459E+03  0.36141018186E+03  0.00000000000E+00 0. -1.
          1    1    1    2  502    0 -0.42016033515E+02  0.33216017285E+02  0.21304802900E+03  0.21967729408E+03  0.00000000000E+00 0. -1.
<mgrwt>
<rscale>  0 0.96633659E+02</rscale>
<asrwt>0</asrwt>
<pdfrwt beam="1">  1        2 0.44504251E-01 0.53559788E+02</pdfrwt>
<pdfrwt beam="2">  1        1 0.87879343E-01 0.17434841E+03</pdfrwt>
<totfact> 0.58456469E+02</totfact>
</mgrwt>
</event>
<event>
 5    1  0.8274494E-003  0.5639525E+02  0.7546771E-02  0.1524261E+00
          1   -1    0    0  502    0  0.00000000000E+00  0.00000000000E+00  0.11466914294E+03  0.11466914294E+03  0.00000000000E+00 0. -1.
         -1   -1    0    0    0  501 -0.00000000000E+00 -0.00000000000E+00 -0.57335671017E+03  0.57335671017E+03  0.00000000000E+00 0.  1.
         25    1    1    2    0    0  0.36723976018E+02 -0.62818685004E+02  0.13822259097E+02  0.14529587897E+03  0.12500000000E+03 0.  0.
          2    1    1    2  502    0 -0.14808175203E+02  0.49840720426E+02  0.15344666782E+02  0.54211052970E+02  0.00000000000E+00 0. -1.
         -2    1    1    2    0  501 -0.21915800816E+02  0.12977964577E+02 -0.48785449311E+03  0.48851892117E+03  0.00000000000E+00 0.  1.
<mgrwt>
<rscale>  0 0.37899829E+02</rscale>
<asrwt>0</asrwt>
<pdfrwt beam="1">  1        1 0.17641406E-01 0.56395252E+02</pdfrwt>
<pdfrwt beam="2">  1       -1 0.88208725E-01 0.25470176E+02</pdfrwt>
<totfact> 0.40979741E+02</totfact>
</mgrwt>
</event>
<event>
 5    1  0.8274494E-003  0.2401087E+03  0.7546771E-02  0.1259782E+00
          1   -1    0    0  501    0 -0.00000000000E+00  0.00000000000E+00  0.12470980482E+04  0.12470980482E+04  0.00000000000E+00 0. -1.
          2   -1    0    0  502    0  0.00000000000E+00 -0.00000000000E+00 -0.26022545348E+04  0.26022545348E+04  0.00000000000E+00 0. -1.
         25    1    1    2    0    0  0.11846491781E+03  0.15634626298E+03  0.14651013451E+02  0.23306167187E+03  0.12500000000E+03 0.  0.
          2    1    1    2  501    0  0.46012133646E+02  0.21495452856E+02  0.11167788749E+04  0.11179330151E+04  0.00000000000E+00 0. -1.
          1    1    1    2  502    0 -0.16447705146E+03 -0.17784171584E+03 -0.24865863749E+04  0.24983578959E+04  0.00000000000E+00 0. -1.
<mgrwt>
<rscale>  0 0.11042668E+03</rscale>
<asrwt>0</asrwt>
<pdfrwt beam="2">  1        2 0.40034685E+00 0.24010873E+03</pdfrwt>
<pdfrwt beam="1">  1        1 0.19186124E+00 0.50785539E+02</pdfrwt>
<totfact> 0.59906440E+00</totfact>
</mgrwt>
</event>
<event>
 5    1  0.8274494E-003  0.6130036E+02  0.7546771E-02  0.1513323E+00
         -2   -1    0    0    0  501 -0.00000000000E+00  0.00000000000E+00  0.10595475616E+02  0.10595475616E+02  0.00000000000E+00 0.  1.
          2   -1    0    0  502    0  0.00000000000E+00 -0.00000000000E+00 -0.13170907032E+04  0.13170907032E+04  0.00000000000E+00 0. -1.
         25    1    1    2    0    0 -0.28453077764E+02  0.38822095834E+02 -0.65186925338E+03  0.66548873489E+03  0.12500000000E+03 0.  0.
          1    1    1    2  502    0  0.18623540490E+01  0.25144257771E+02 -0.28672801623E+03  0.28783442697E+03  0.00000000000E+00 0. -1.
         -1    1    1    2    0  501  0.26590723715E+02 -0.63966353604E+02 -0.36789795797E+03  0.37436301695E+03  0.00000000000E+00 0.  1.
<mgrwt>
<rscale>  0 0.39313791E+02</rscale>
<asrwt>0</asrwt>
<pdfrwt beam="2">  1        2 0.20262927E+00 0.25213133E+02</pdfrwt>
<pdfrwt beam="1">  1       -2 0.16300737E-02 0.61300362E+02</pdfrwt>
<totfact> 0.17464638E+04</totfact>
</mgrwt>
</event>
<event>
 5    1  0.8274494E-003  0.5766941E+02  0.7546771E-02  0.1424677E+00
         -2   -1    0    0    0  501  0.00000000000E+00  0.00000000000E+00  0.48234152496E+03  0.48234152496E+03  0.00000000000E+00 0.  1.
         -1   -1    0    0    0  502 -0.00000000000E+00 -0.00000000000E+00 -0.28983547621E+03  0.28983547621E+03  0.00000000000E+00 0.  1.
         25    1    1    2    0    0  0.32179600368E+01 -0.43108784790E+02 -0.65553624518E+02  0.14761775056E+03  0.12500000000E+03 0.  0.
         -2    1    1    2    0  502  0.47301952428E+02  0.39544830187E+02 -0.17655146695E+03  0.18700718911E+03  0.00000000000E+00 0.  1.
         -1    1    1    2    0  501 -0.50519912465E+02  0.35639546022E+01  0.43461114021E+03  0.43755206150E+03  0.00000000000E+00 0.  1.
<mgrwt>
<rscale>  0 0.54043445E+02</rscale>
<asrwt>0</asrwt>
<pdfrwt beam="1">  1       -2 0.74206388E-01 0.50645467E+02</pdfrwt>
<pdfrwt beam="2">  1       -1 0.44590073E-01 0.57669405E+02</pdfrwt>
<totfact> 0.65553341E+01</totfact>
</mgrwt>
</event>
<event>
 5    1  0.8274494E-003  0.5519714E+02  0.7546771E-02  0.1550587E+00
         -2   -1    0    0    0  501 -0.00000000000E+00  0.00000000000E+00  0.17093109914E+02  0.17093109914E+02  0.00000000000E+00 0.  1.
          2   -1    0    0  502    0  0.00000000000E+00 -0.00000000000E+00 -0.73349056255E+03  0.73349056255E+03  0.00000000000E+00 0. -1.
         25    1    1    2    0    0  0.60519316644E+02 -0.16579014363E+02 -0.40172046584E+03  0.42537252389E+03  0.12500000000E+03 0.  0.
          1    1    1    2  502    0 -0.44240359372E+02  0.31245875566E+02 -0.27084535292E+03  0.27620774669E+03  0.00000000000E+00 0. -1.
         -1    1    1    2    0  501 -0.16278957272E+02 -0.14666861204E+02 -0.43831633874E+02  0.49003401877E+02  0.00000000000E+00 0.  1.
<mgrwt>
<rscale>  0 0.34777314E+02</rscale>
<asrwt>0</asrwt>
<pdfrwt beam="2">  1        2 0.11284471E+00 0.55197143E+02</pdfrwt>
<pdfrwt beam="1">  1       -2 0.26297091E-02 0.21911670E+02</pdfrwt>
<totfact> 0.15355552E+04</totfact>
</mgrwt>
</event>
<event>
 5    1  0.8274494E-003  0.1428546E+03  0.7546771E-02  0.1224534E+00
          1   -1    0    0  501    0 -0.00000000000E+00  0.00000000000E+00  0.23268125124E+03  0.23268125124E+03  0.00000000000E+00 0. -1.
          2   -1    0    0  502    0  0.00000000000E+00 -0.00000000000E+00 -0.10340123692E+04  0.10340123692E+04  0.00000000000E+00 0. -1.
         25    1    1    2    0    0  0.51055257747E+02 -0.12493220289E+03 -0.39042965372E+02  0.18805331108E+03  0.12500000000E+03 0.  0.
          2    1    1    2  501    0 -0.14943720953E+03  0.52871101779E+02  0.11314580846E+03  0.19475319502E+03  0.00000000000E+00 0. -1.
          1    1    1    2  502    0  0.98381951785E+02  0.72061101115E+02 -0.87543396109E+03  0.88388711437E+03  0.00000000000E+00 0. -1.
<mgrwt>
<rscale>  0 0.13198909E+03</rscale>
<asrwt>0</asrwt>
<pdfrwt beam="2">  1        2 0.15907883E+00 0.12195003E+03</pdfrwt>
<pdfrwt beam="1">  1        1 0.35797115E-01 0.14285458E+03</pdfrwt>
<totfact> 0.42821871E+02</totfact>
</mgrwt>
</event>
<event>
 5    1  0.8274494E-003  0.1976166E+03  0.7546771E-02  0.1296598E+00
         -2   -1    0    0    0  501 -0.00000000000E+00  0.00000000000E+00  0.40119802821E+03  0.40119802821E+03  0.00000000000E+00 0.  1.
          2   -1    0    0  502    0  0.00000000000E+00 -0.00000000000E+00 -0.13433007052E+04  0.13433007052E+04  0.00000000000E+00 0. -1.
         25    1    1    2    0    0 -0.12141958073E+03 -0.11359001569E+03 -0.24124959767E+03  0.31854634612E+03  0.12500000000E+03 0.  0.
          1    1    1    2  502    0  0.13612631033E+03  0.15444549022E+03 -0.10520890742E+04  0.10720425374E+04  0.00000000000E+00 0. -1.
         -1    1    1    2    0  501 -0.14706729608E+02 -0.40855474526E+02  0.35123599496E+03  0.35390984989E+03  0.00000000000E+00 0.  1.
<mgrwt>
<rscale>  0 0.92633046E+02</rscale>
<asrwt>0</asrwt>
<pdfrwt beam="2">  1        2 0.20666165E+00 0.19761663E+03</pdfrwt>
<pdfrwt beam="1">  1       -2 0.61722773E-01 0.43421857E+02</pdfrwt>
<totfact> 0.43539666E+01</totfact>
</mgrwt>
</event>
<event>
 5    1  0.8274494E-003  0.1401352E+03  0.7546771E-02  0.1219099E+00
          2   -1    0    0  502    0  0.00000000000E+00  0.00000000000E+00  0.34833371839E+04  0.34833371839E+04  0.00000000000E+00 0. -1.
          1   -1    0    0  501    0 -0.00000000000E+00 -0.00000000000E+00 -0.19631317388E+03  0.19631317388E+03  0.00000000000E+00 0. -1.
         25    1    1    2    0    0 -0.15862446028E+03  0.21398877027E+03  0.70195338518E+03  0.76112841765E+03  0.12500000000E+03 0.  0.
          2    1    1    2  501    0  0.87570730653E+02 -0.10322773975E+03 -0.13739481686E+03  0.19287803094E+03  0.00000000000E+00 0. -1.
          1    1    1    2  502    0  0.71053729626E+02 -0.11076103052E+03  0.27224654417E+04  0.27256439092E+04  0.00000000000E+00 0. -1.
<mgrwt>
<rscale>  0 0.13579681E+03</rscale>
<asrwt>0</asrwt>
<pdfrwt beam="1">  1        2 0.53589798E+00 0.13159270E+03</pdfrwt>
<pdfrwt beam="2">  1        1 0.30202029E-01 0.14013524E+03</pdfrwt>
<totfact> 0.23971166E+01</totfact>
</mgrwt>
</event>
<event>
 5    1  0.8274494E-003  0.6626599E+02  0.7546771E-02  0.1418805E+00
          2   -1    0    0  502    0  0.00000000000E+00  0.00000000000E+00  0.61765820577E+03  0.61765820577E+03  0.00000000000E+00 0. -1.
          1   -1    0    0  501    0 -0.00000000000E+00 -0.00000000000E+00 -0.72887037627E+03  0.72887037627E+03  0.00000000000E+00 0. -1.
         25    1    1    2    0    0 -0.84346479748E+02 -0.28948896224E+01 -0.24696883399E+02  0.15283208132E+03  0.12500000000E+03 0.  0.
          2    1    1    2  501    0  0.27612745121E+02  0.36923155336E+02 -0.63729361556E+03  0.63895925967E+03  0.00000000000E+00 0. -1.
          1    1    1    2  502    0  0.56733734627E+02 -0.34028265713E+02  0.55077832845E+03  0.55473724105E+03  0.00000000000E+00 0. -1.
<mgrwt>
<rscale>  0 0.55274534E+02</rscale>
<asrwt>0</asrwt>
<pdfrwt beam="1">  1        2 0.95024339E-01 0.66265992E+02</pdfrwt>
<pdfrwt beam="2">  1        1 0.11213390E+00 0.46106215E+02</pdfrwt>
<totfact> 0.19828401E+02</totfact>
</mgrwt>
</event>
<event>
 5    1  0.8274494E-003  0.5513050E+02  0.7546771E-02  0.1491857E+00
         -2   -1    0    0    0  501 -0.00000000000E+00  0.00000000000E+00  0.28270421355E+02  0.28270421355E+02  0.00000000000E+00 0.  1.
          2   -1    0    0  502    0  0.00000000000E+00 -0.00000000000E+00 -0.22086943554E+04  0.22086943554E+04  0.00000000000E+00 0. -1.
         25    1    1    2    0    0  0.34338132097E+02 -0.74956935338E+02 -0.20674761022E+03  0.25527871788E+03  0.12500000000E+03 0.  0.
          1    1    1    2  502    0 -0.96390783808E+01  0.53873763353E+02 -0.19042934934E+04  0.19050797892E+04  0.00000000000E+00 0. -1.
         -1    1    1    2    0  501 -0.24699053717E+02  0.21083171986E+02 -0.69382830411E+02  0.76606269661E+02  0.00000000000E+00 0.  1.
<mgrwt>
<rscale>  0 0.42311857E+02</rscale>
<asrwt>0</asrwt>
<pdfrwt beam="2">  1        2 0.33979901E+00 0.55130502E+02</pdfrwt>
<pdfrwt beam="1">  1       -2 0.43492971E-02 0.32473734E+02</pdfrwt>
<totfact> 0.13489780E+03</totfact>
</mgrwt>
</event>
<event>
 5    1  0.8274494E-003  0.1299422E+03  0.7546771E-02  0.1326736E+00
          2   -1    0    0  502    0  0.00000000000E+00  0.00000000000E+00  0.16114582630E+03  0.16114582630E+03  0.00000000000E+00 0. -1.
          1   -1    0    0  501    0 -0.00000000000E+00 -0.00000000000E+00 -0.81206319322E+03  0.81206319322E+03  0.00000000000E+00 0. -1.
         25    1    1    2    0    0  0.13660152165E+03 -0.74087412055E+02  0.72910167709E+00  0.19943533270E+03  0.12500000000E+03 0.  0.
          2    1    1    2  501    0 -0.50073850231E+02 -0.44305386239E+01 -0.65495822005E+03  0.65688453335E+03  0.00000000000E+00 0. -1.
          1    1    1    2  502    0 -0.86527671414E+02  0.78517950679E+02  0.33117514489E+01  0.11688915346E+03  0.00000000000E+00 0. -1.
<mgrwt>
<rscale>  0 0.80821581E+02</rscale>
<asrwt>0</asrwt>
<pdfrwt beam="1">  1        2 0.24791666E-01 0.12994223E+03</pdfrwt>
<pdfrwt beam="2">  1        1 0.12493280E+00 0.50269475E+02</pdfrwt>
<totfact> 0.71090111E+02</totfact>
</mgrwt>
</event>
<event>
 5    1  0.8274494E-003  0.5747365E+02  0.7546771E-02  0.1517047E+00
          1   -1    0    0  501    0 -0.00000000000E+00  0.00000000000E+00  0.30060600996E+03  0.30060600996E+03  0.00000000000E+00 0. -1.
          2   -1    0    0  502    0  0.00000000000E+00 -0.00000000000E+00 -0.32685666316E+04  0.32685666316E+04  0.00000000000E+00 0. -1.
         25    1    1    2    0    0  0.27831079328E+00 -0.39845081319E+02 -0.17542646199E+03  0.21905969855E+03  0.12500000000E+03 0.  0.
          2    1    1    2  501    0 -0.22528099489E+02 -0.13427371978E+02  0.27790065322E+03  0.27913541990E+03  0.00000000000E+00 0. -1.
          1    1    1    2  502    0  0.22249788696E+02  0.53272453298E+02 -0.30704348128E+04  0.30709775231E+04  0.00000000000E+00 0. -1.
<mgrwt>
<rscale>  0 0.38824103E+02</rscale>
<asrwt>0</asrwt>
<pdfrwt beam="2">  1        2 0.50285645E+00 0.57473646E+02</pdfrwt>
<pdfrwt beam="1">  1        1 0.46247075E-01 0.26226124E+02</pdfrwt>
<totfact> 0.22235350E+01</totfact>
</mgrwt>
</event>
<event>
 5    1  0.8274494E-003  0.4684013E+02  0.7546771E-02  0.1513293E+00
          1   -1    0    0  501    0 -0.00000000000E+00  0.00000000000E+00  0.15930847595E+04  0.15930847595E+04  0.00000000000E+00 0. -1.
          2   -1    0    0  502    0  0.00000000000E+00 -0.00000000000E+00 -0.19359313314E+04  0.19359313314E+04  0.00000000000E+00 0. -1.
         25    1    1    2    0    0 -0.97089200984E+01 -0.29553316266E+02 -0.21989701044E+03  0.25484771302E+03  0.12500000000E+03 0.  0.
          2    1    1    2  501    0 -0.32138456851E+02  0.75067274240E+01  0.15751072244E+04  0.15754529506E+04  0.00000000000E+00 0. -1.
          1    1    1    2  502    0  0.41847376949E+02  0.22046588842E+02 -0.16980567858E+04  0.16987154273E+04  0.00000000000E+00 0. -1.
<mgrwt>
<rscale>  0 0.39317790E+02</rscale>
<asrwt>0</asrwt>
<pdfrwt beam="2">  1        2 0.29783559E+00 0.46840134E+02</pdfrwt>
<pdfrwt beam="1">  1        1 0.24508996E+00 0.33003505E+02</pdfrwt>
<totfact> 0.10262103E+01</totfact>
</mgrwt>
</event>
<event>
 5    1  0.8274494E-003  0.7769207E+02  0.7546771E-02  0.1361391E+00
         -2   -1    0    0    0  501 -0.00000000000E+00  0.00000000000E+00  0.37256949620E+02  0.37256949620E+02  0.00000000000E+00 0.  1.
          2   -1    0    0  502    0  0.00000000000E+00 -0.00000000000E+00 -0.11995716247E+04  0.11995716247E+04  0.00000000000E+00 0. -1.
         25    1    1    2    0    0 -0.32316399611E+02  0.21054461780E+02 -0.45498772604E+03  0.47341997306E+03  0.12500000000E+03 0.  0.
          1    1    1    2  502    0  0.40511520745E+02 -0.82900146171E+02 -0.69336715631E+03  0.69947954295E+03  0.00000000000E+00 0. -1.
         -1    1    1    2    0  501 -0.81951211348E+01  0.61845684392E+02 -0.13959792772E+02  0.63929058358E+02  0.00000000000E+00 0.  1.
<mgrwt>
<rscale>  0 0.69619821E+02</rscale>
<asrwt>0</asrwt>
<pdfrwt beam="2">  1        2 0.18454949E+00 0.77692066E+02</pdfrwt>
<pdfrwt beam="1">  1       -2 0.57318382E-02 0.62386286E+02</pdfrwt>
<totfact> 0.30286043E+03</totfact>
</mgrwt>
</event>
<event>
 5    1  0.8274494E-003  0.1576993E+03  0.7546771E-02  0.1366739E+00
          1   -1    0    0  501    0 -0.00000000000E+00  0.00000000000E+00  0.45096733342E+03  0.45096733342E+03  0.00000000000E+00 0. -1.
          2   -1    0    0  502    0  0.00000000000E+00 -0.00000000000E+00 -0.99597790909E+03  0.99597790909E+03  0.00000000000E+00 0. -1.
         25    1    1    2    0    0 -0.36683662994E+02  0.16056381228E+03 -0.25965792461E+02  0.20838822261E+03  0.12500000000E+03 0.  0.
          2    1    1    2  501    0  0.61318311440E+02 -0.14453083349E+03  0.34236448652E+03  0.37664643737E+03  0.00000000000E+00 0. -1.
          3    1    1    2  502    0 -0.24634648446E+02 -0.16032978786E+02 -0.86140926973E+03  0.86191058254E+03  0.00000000000E+00 0. -1.
<mgrwt>
<rscale>  0 0.68082191E+02</rscale>
<asrwt>0</asrwt>
<pdfrwt beam="2">  1        2 0.15322737E+00 0.29392555E+02</pdfrwt>
<pdfrwt beam="1">  1        1 0.69379591E-01 0.15769928E+03</pdfrwt>
<totfact> 0.21208223E+02</totfact>
</mgrwt>
</event>
<event>
 5    1  0.8274494E-003  0.3739187E+02  0.7546771E-02  0.1538221E+00
          2   -1    0    0  502    0  0.00000000000E+00  0.00000000000E+00  0.32944038021E+04  0.32944038021E+04  0.00000000000E+00 0. -1.
          1   -1    0    0  501    0 -0.00000000000E+00 -0.00000000000E+00 -0.14898851790E+02  0.14898851790E+02  0.00000000000E+00 0. -1.
         25    1    1    2    0    0  0.25321063420E+02 -0.42376328307E+02  0.60108086033E+03  0.61592216238E+03  0.12500000000E+03 0.  0.
          2    1    1    2  501    0  0.10986984567E+02  0.33273121120E+02  0.34440985955E+02  0.49132432593E+02  0.00000000000E+00 0. -1.
          1    1    1    2  502    0 -0.36308047987E+02  0.91032071874E+01  0.26439831041E+04  0.26442480590E+04  0.00000000000E+00 0. -1.
<mgrwt>
<rscale>  0 0.36196934E+02</rscale>
<asrwt>0</asrwt>
<pdfrwt beam="1">  1        2 0.50683077E+00 0.37391871E+02</pdfrwt>
<pdfrwt beam="2">  1        1 0.22921337E-02 0.35040183E+02</pdfrwt>
<totfact> 0.10235340E+03</totfact>
</mgrwt>
</event>
<event>
 5    1  0.8274494E-003  0.3804743E+02  0.7546771E-02  0.1574998E+00
          2   -1    0    0  502    0  0.00000000000E+00  0.00000000000E+00  0.52646983466E+03  0.52646983466E+03  0.00000000000E+00 0. -1.
          1   -1    0    0  501    0 -0.00000000000E+00 -0.00000000000E+00 -0.15850159378E+03  0.15850159378E+03  0.00000000000E+00 0. -1.
         25    1    1    2    0    0  0.95120161212E+01  0.13594163780E+02  0.72115439740E+02  0.14526154477E+03  0.12500000000E+03 0.  0.
          2    1    1    2  501    0  0.98877423998E+00 -0.38736018204E+02 -0.11839109133E+03  0.12457089262E+03  0.00000000000E+00 0. -1.
          1    1    1    2  502    0 -0.10500790361E+02  0.25141854424E+02  0.41424389247E+03  0.41513899105E+03  0.00000000000E+00 0. -1.
<mgrwt>
<rscale>  0 0.32197278E+02</rscale>
<asrwt>0</asrwt>
<pdfrwt beam="1">  1        2 0.80995358E-01 0.27246641E+02</pdfrwt>
<pdfrwt beam="2">  1        1 0.24384861E-01 0.38047432E+02</pdfrwt>
<totfact> 0.15450286E+03</totfact>
</mgrwt>
</event>
<event>
 5    1  0.8274494E-003  0.1119284E+03  0.7546771E-02  0.1353488E+00
         -2   -1    0    0    0  501 -0.00000000000E+00  0.00000000000E+00  0.14122333255E+03  0.14122333255E+03  0.00000000000E+00 0.  1.
          2   -1    0    0  502    0  0.00000000000E+00 -0.00000000000E+00 -0.92091154344E+03  0.92091154344E+03  0.00000000000E+00 0. -1.
         25    1    1    2    0    0  0.11819799716E+03  0.75665382097E+02 -0.29036582590E+02  0.19016871380E+03  0.12500000000E+03 0.  0.
          1    1    1    2  502    0 -0.23028150170E+02 -0.40154563528E+02 -0.76759002284E+03  0.76898447828E+03  0.00000000000E+00 0. -1.
         -1    1    1    2    0  501 -0.95169846990E+02 -0.35510818570E+02  0.16938394542E+02  0.10298168391E+03  0.00000000000E+00 0.  1.
<mgrwt>
<rscale>  0 0.71979650E+02</rscale>
<asrwt>0</asrwt>
<pdfrwt beam="2">  1        2 0.14167870E+00 0.46289142E+02</pdfrwt>
<pdfrwt beam="1">  1       -2 0.21726667E-01 0.11192841E+03</pdfrwt>
<totfact> 0.56944675E+02</totfact>
</mgrwt>
</event>
<event>
 5    1  0.8274494E-003  0.1887617E+03  0.7546771E-02  0.1289053E+00
          2   -1    0    0  502    0  0.00000000000E+00  0.00000000000E+00  0.18676251330E+04  0.18676251330E+04  0.00000000000E+00 0. -1.
          1   -1    0    0  501    0 -0.00000000000E+00 -0.00000000000E+00 -0.24998605393E+03  0.24998605393E+03  0.00000000000E+00 0. -1.
         25    1    1    2    0    0  0.12487846278E+03  0.16480647179E+03 -0.12707993697E+03  0.27300204027E+03  0.12500000000E+03 0.  0.
          2    1    1    2  501    0  0.20109313838E+02 -0.44432638282E+02 -0.31735557609E+02  0.58187537020E+02  0.00000000000E+00 0. -1.
          1    1    1    2  502    0 -0.14498777661E+03 -0.12037383351E+03  0.17764545736E+04  0.17864216096E+04  0.00000000000E+00 0. -1.
<mgrwt>
<rscale>  0 0.95948754E+02</rscale>
<asrwt>0</asrwt>
<pdfrwt beam="1">  1        2 0.28732693E+00 0.18876174E+03</pdfrwt>
<pdfrwt beam="2">  1        1 0.38459394E-01 0.48771342E+02</pdfrwt>
<totfact> 0.13454302E+02</totfact>
</mgrwt>
</event>
<event>
 5    1  0.8274494E-003  0.1602445E+03  0.7546771E-02  0.1199672E+00
          1   -1    0    0  502    0  0.00000000000E+00  0.00000000000E+00  0.17355442135E+03  0.17355442135E+03  0.00000000000E+00 0. -1.
         -1   -1    0    0    0  501 -0.00000000000E+00 -0.00000000000E+00 -0.52583505766E+03  0.52583505766E+03  0.00000000000E+00 0.  1.
         25    1    1    2    0    0 -0.14738340920E+02 -0.21413373298E+03 -0.15820374137E+03  0.29448921555E+03  0.12500000000E+03 0.  0.
          2    1    1    2  502    0 -0.94174282449E+02  0.10579343496E+03  0.18270528677E+02  0.14281056885E+03  0.00000000000E+00 0. -1.
         -2    1    1    2    0  501  0.10891262337E+03  0.10834029801E+03 -0.21234742362E+03  0.26208969461E+03  0.00000000000E+00 0.  1.
<mgrwt>
<rscale>  0 0.15065373E+03</rscale>
<asrwt>0</asrwt>
<pdfrwt beam="1">  1        1 0.26700680E-01 0.14163702E+03</pdfrwt>
<pdfrwt beam="2">  1       -1 0.80897701E-01 0.16024445E+03</pdfrwt>
<totfact> 0.28324780E+02</totfact>
</mgrwt>
</event>
<event>
 5    1  0.8274494E-003  0.1487321E+03  0.7546771E-02  0.1219571E+00
          1   -1    0    0  502    0  0.00000000000E+00  0.00000000000E+00  0.20672529726E+04  0.20672529726E+04  0.00000000000E+00 0. -1.
         -1   -1    0    0    0  501 -0.00000000000E+00 -0.00000000000E+00 -0.11352273746E+04  0.11352273746E+04  0.00000000000E+00 0.  1.
         25    1    1    2    0    0  0.95392936953E+01 -0.10010650993E+02  0.32375251376E+03  0.34732103510E+03  0.12500000000E+03 0.  0.
          2    1    1    2  502    0  0.23522871088E+01  0.15826655529E+03  0.17231503604E+04  0.17304048660E+04  0.00000000000E+00 0. -1.
         -2    1    1    2    0  501 -0.11891580804E+02 -0.14825590430E+03 -0.11148772762E+04  0.11247544460E+04  0.00000000000E+00 0.  1.
<mgrwt>
<rscale>  0 0.13546087E+03</rscale>
<asrwt>0</asrwt>
<pdfrwt beam="1">  1        1 0.31803892E+00 0.12337386E+03</pdfrwt>
<pdfrwt beam="2">  1       -1 0.17465037E+00 0.14873205E+03</pdfrwt>
<totfact> 0.89061759E-01</totfact>
</mgrwt>
</event>
<event>
 5    1  0.8274494E-003  0.1026944E+03  0.7546771E-02  0.1420086E+00
          1   -1    0    0  502    0  0.00000000000E+00  0.00000000000E+00  0.17193327527E+04  0.17193327527E+04  0.00000000000E+00 0. -1.
         -1   -1    0    0    0  501 -0.00000000000E+00 -0.00000000000E+00 -0.54300064558E+03  0.54300064558E+03  0.00000000000E+00 0.  1.
         25    1    1    2    0    0  0.18090177707E+02 -0.11480126889E+03  0.40751160260E+02  0.17547718636E+03  0.12500000000E+03 0.  0.
          2    1    1    2  502    0  0.21173895884E+02  0.20481943319E+02  0.16055956880E+04  0.16058659213E+04  0.00000000000E+00 0. -1.
         -2    1    1    2    0  501 -0.39264073590E+02  0.94319325574E+02 -0.47001474121E+03  0.48099029055E+03  0.00000000000E+00 0.  1.
<mgrwt>
<rscale>  0 0.55002683E+02</rscale>
<asrwt>0</asrwt>
<pdfrwt beam="1">  1        1 0.26451273E+00 0.29459190E+02</pdfrwt>
<pdfrwt beam="2">  1       -1 0.83538561E-01 0.10269444E+03</pdfrwt>
<totfact> 0.10274679E+01</totfact>
</mgrwt>
</event>
<event>
 5    1  0.8274494E-003  0.1117150E+03  0.7546771E-02  0.1428187E+00
          2   -1    0    0  502    0  0.00000000000E+00  0.00000000000E+00  0.58729694640E+03  0.58729694640E+03  0.00000000000E+00 0. -1.
         -2   -1    0    0    0  501 -0.00000000000E+00 -0.00000000000E+00 -0.90124881700E+02  0.90124881700E+02  0.00000000000E+00 0.  1.
         25    1    1    2    0    0  0.50985886170E+01 -0.10049174409E+03  0.60281898624E+02  0.17141614142E+03  0.12500000000E+03 0.  0.
          1    1    1    2  502    0  0.15156774615E+02 -0.20449892605E+02  0.36078663330E+03  0.36168345371E+03  0.00000000000E+00 0. -1.
         -1    1    1    2    0  501 -0.20255363232E+02  0.12094163670E+03  0.76103532776E+02  0.14432223297E+03  0.00000000000E+00 0.  1.
<mgrwt>
<rscale>  0 0.53325754E+02</rscale>
<asrwt>0</asrwt>
<pdfrwt beam="1">  1        2 0.90353374E-01 0.25454389E+02</pdfrwt>
<pdfrwt beam="2">  1       -2 0.13865367E-01 0.11171496E+03</pdfrwt>
<totfact> 0.20342845E+03</totfact>
</mgrwt>
</event>
<event>
 5    1  0.8274494E-003  0.4948742E+02  0.7546771E-02  0.1510553E+00
          1   -1    0    0  501    0 -0.00000000000E+00  0.00000000000E+00  0.80479014506E+03  0.80479014506E+03  0.00000000000E+00 0. -1.
          2   -1    0    0  502    0  0.00000000000E+00 -0.00000000000E+00 -0.45876737393E+03  0.45876737393E+03  0.00000000000E+00 0. -1.
         25    1    1    2    0    0 -0.71658750536E+01  0.52265434410E+02 -0.24029106843E+03  0.27594894993E+03  0.12500000000E+03 0.  0.
          2    1    1    2  501    0 -0.27635556745E+02 -0.15776930409E+02  0.78346516828E+03  0.78411115630E+03  0.00000000000E+00 0. -1.
          1    1    1    2  502    0  0.34801431798E+02 -0.36488504001E+02 -0.19715132872E+03  0.20349741275E+03  0.00000000000E+00 0. -1.
<mgrwt>
<rscale>  0 0.39683566E+02</rscale>
<asrwt>0</asrwt>
<pdfrwt beam="2">  1        2 0.70579596E-01 0.49487420E+02</pdfrwt>
<pdfrwt beam="1">  1        1 0.12381387E+00 0.31821935E+02</pdfrwt>
<totfact> 0.24287769E+02</totfact>
</mgrwt>
</event>
<event>
 5    1  0.8274494E-003  0.1408698E+03  0.7546771E-02  0.1233704E+00
          2   -1    0    0  502    0  0.00000000000E+00  0.00000000000E+00  0.13546461410E+04  0.13546461410E+04  0.00000000000E+00 0. -1.
          1   -1    0    0  501    0 -0.00000000000E+00 -0.00000000000E+00 -0.98237079058E+02  0.98237079058E+02  0.00000000000E+00 0. -1.
         25    1    1    2    0    0 -0.11669271180E+03  0.48536835914E+02  0.45625314745E+03  0.48965799083E+03  0.12500000000E+03 0.  0.
          2    1    1    2  501    0  0.50747224476E+02 -0.13965865110E+03 -0.65289336697E+01  0.14873616438E+03  0.00000000000E+00 0. -1.
          1    1    1    2  502    0  0.65945487321E+02  0.91121815187E+02  0.80668484820E+03  0.81448906488E+03  0.00000000000E+00 0. -1.
<mgrwt>
<rscale>  0 0.12587768E+03</rscale>
<asrwt>0</asrwt>
<pdfrwt beam="1">  1        2 0.20840709E+00 0.11248108E+03</pdfrwt>
<pdfrwt beam="2">  1        1 0.15113398E-01 0.14086984E+03</pdfrwt>
<totfact> 0.85038356E+02</totfact>
</mgrwt>
</event>
<event>
 5    1  0.8274494E-003  0.7254662E+02  0.7546771E-02  0.1422207E+00
          2   -1    0    0  502    0  0.00000000000E+00  0.00000000000E+00  0.20299158016E+04  0.20299158016E+04  0.00000000000E+00 0. -1.
         -2   -1    0    0    0  501 -0.00000000000E+00 -0.00000000000E+00 -0.42706151004E+02  0.42706151004E+02  0.00000000000E+00 0.  1.
         25    1    1    2    0    0 -0.42719396020E+02  0.80661954800E+02  0.45725310643E+03  0.48273875035E+03  0.12500000000E+03 0.  0.
          1    1    1    2  502    0  0.39996900797E+02 -0.91394027987E+01  0.15164999787E+04  0.15170548659E+04  0.00000000000E+00 0. -1.
         -1    1    1    2    0  501  0.27224952228E+01 -0.71522552001E+02  0.13456565491E+02  0.72828336380E+02  0.00000000000E+00 0.  1.
<mgrwt>
<rscale>  0 0.54556655E+02</rscale>
<asrwt>0</asrwt>
<pdfrwt beam="1">  1        2 0.31229467E+00 0.41027805E+02</pdfrwt>
<pdfrwt beam="2">  1       -2 0.65701786E-02 0.72546622E+02</pdfrwt>
<totfact> 0.10254571E+03</totfact>
</mgrwt>
</event>
<event>
 5    1  0.8274494E-003  0.1043256E+03  0.7546771E-02  0.1309842E+00
          1   -1    0    0  501    0 -0.00000000000E+00  0.00000000000E+00  0.14632190022E+04  0.14632190022E+04  0.00000000000E+00 0. -1.
          2   -1    0    0  502    0  0.00000000000E+00 -0.00000000000E+00 -0.48497782115E+03  0.48497782115E+03  0.00000000000E+00 0. -1.
         25    1    1    2    0    0 -0.16229513795E+03 -0.66713723238E+02  0.11407921077E+04  0.11609573919E+04  0.12500000000E+03 0.  0.
          2    1    1    2  501    0  0.62565876458E+02  0.37304461639E+02  0.30227419494E+03  0.31092732379E+03  0.00000000000E+00 0. -1.
          3    1    1    2  502    0  0.99729261495E+02  0.29409261599E+02 -0.46482512161E+03  0.47631210770E+03  0.00000000000E+00 0. -1.
<mgrwt>
<rscale>  0 0.87174507E+02</rscale>
<asrwt>0</asrwt>
<pdfrwt beam="2">  1        2 0.74611973E-01 0.10432558E+03</pdfrwt>
<pdfrwt beam="1">  1        1 0.22511061E+00 0.72843063E+02</pdfrwt>
<totfact> 0.76402184E+01</totfact>
</mgrwt>
</event>
<event>
 5    1  0.8274494E-003  0.1397170E+03  0.7546771E-02  0.1232013E+00
         -2   -1    0    0    0  501 -0.00000000000E+00  0.00000000000E+00  0.63487233430E+03  0.63487233430E+03  0.00000000000E+00 0.  1.
          2   -1    0    0  502    0  0.00000000000E+00 -0.00000000000E+00 -0.37809037159E+03  0.37809037159E+03  0.00000000000E+00 0. -1.
         25    1    1    2    0    0  0.99755916175E+01  0.58807104348E+02  0.98638138743E+02  0.17003608548E+03  0.12500000000E+03 0.  0.
          1    1    1    2  502    0  0.82908755431E+02 -0.12728388511E+03 -0.31830928735E+03  0.35269796080E+03  0.00000000000E+00 0. -1.
         -1    1    1    2    0  501 -0.92884347048E+02  0.68476780763E+02  0.47645311132E+03  0.49022865962E+03  0.00000000000E+00 0.  1.
<mgrwt>
<rscale>  0 0.12697632E+03</rscale>
<asrwt>0</asrwt>
<pdfrwt beam="2">  1        2 0.58167749E-01 0.13971699E+03</pdfrwt>
<pdfrwt beam="1">  1       -2 0.97672667E-01 0.11539745E+03</pdfrwt>
<totfact> 0.79892204E+01</totfact>
</mgrwt>
</event>
<event>
 5    1  0.8274494E-003  0.7956149E+02  0.7546771E-02  0.1464176E+00
          1   -1    0    0  501    0 -0.00000000000E+00  0.00000000000E+00  0.68932387301E+03  0.68932387301E+03  0.00000000000E+00 0. -1.
          2   -1    0    0  502    0  0.00000000000E+00 -0.00000000000E+00 -0.41837811281E+04  0.41837811281E+04  0.00000000000E+00 0. -1.
         25    1    1    2    0    0 -0.51325013649E+02  0.37164224304E+02 -0.68438777080E+03  0.69858933388E+03  0.12500000000E+03 0.  0.
          2    1    1    2  501    0 -0.25098722932E+02 -0.10932851179E+02  0.68148085975E+03  0.68203052375E+03  0.00000000000E+00 0. -1.
          1    1    1    2  502    0  0.76423736581E+02 -0.26231373124E+02 -0.34915503441E+04  0.34924851435E+04  0.00000000000E+00 0. -1.
<mgrwt>
<rscale>  0 0.46670287E+02</rscale>
<asrwt>0</asrwt>
<pdfrwt beam="2">  1        2 0.64365864E+00 0.79561491E+02</pdfrwt>
<pdfrwt beam="1">  1        1 0.10604983E+00 0.27376507E+02</pdfrwt>
<totfact> 0.18226716E+00</totfact>
</mgrwt>
</event>
<event>
 5    1  0.8274494E-003  0.2716249E+03  0.7546771E-02  0.1216694E+00
         -1   -1    0    0    0  501 -0.00000000000E+00  0.00000000000E+00  0.86381963681E+03  0.86381963681E+03  0.00000000000E+00 0.  1.
          1   -1    0    0  502    0  0.00000000000E+00 -0.00000000000E+00 -0.49455310436E+03  0.49455310436E+03  0.00000000000E+00 0. -1.
         25    1    1    2    0    0 -0.24365049413E+03 -0.19675096180E+03  0.64295896847E+03  0.72601497188E+03  0.12500000000E+03 0.  0.
          2    1    1    2  502    0  0.17454135868E+03  0.20527616233E+03 -0.40341634075E+03  0.48512651206E+03  0.00000000000E+00 0. -1.
         -2    1    1    2    0  501  0.69109135454E+02 -0.85252005347E+01  0.12972390474E+03  0.14723125724E+03  0.00000000000E+00 0.  1.
<mgrwt>
<rscale>  0 0.13752835E+03</rscale>
<asrwt>0</asrwt>
<pdfrwt beam="2">  1        1 0.76085093E-01 0.27162486E+03</pdfrwt>
<pdfrwt beam="1">  1       -1 0.13289533E+00 0.69632978E+02</pdfrwt>
<totfact> 0.25926939E+01</totfact>
</mgrwt>
</event>
<event>
 5    1  0.8274494E-003  0.1463489E+03  0.7546771E-02  0.1363510E+00
          1   -1    0    0  501    0 -0.00000000000E+00  0.00000000000E+00  0.12861042981E+04  0.12861042981E+04  0.00000000000E+00 0. -1.
          2   -1    0    0  502    0  0.00000000000E+00 -0.00000000000E+00 -0.20338519765E+04  0.20338519765E+04  0.00000000000E+00 0. -1.
         25    1    1    2    0    0 -0.52046887719E+02 -0.15674360402E+03 -0.13003746226E+03  0.24456528272E+03  0.12500000000E+03 0.  0.
          2    1    1    2  501    0  0.68697573997E+02  0.12879042853E+03  0.12243615774E+04  0.12330318744E+04  0.00000000000E+00 0. -1.
          1    1    1    2  502    0 -0.16650686278E+02  0.27953175495E+02 -0.18420717935E+04  0.18423591175E+04  0.00000000000E+00 0. -1.
<mgrwt>
<rscale>  0 0.69004961E+02</rscale>
<asrwt>0</asrwt>
<pdfrwt beam="2">  1        2 0.31290030E+00 0.32536524E+02</pdfrwt>
<pdfrwt beam="1">  1        1 0.19786220E+00 0.14634890E+03</pdfrwt>
<totfact> 0.13072389E+01</totfact>
</mgrwt>
</event>
<event>
 5    1  0.8274494E-003  0.9672995E+02  0.7546771E-02  0.1312351E+00
          1   -1    0    0  501    0 -0.00000000000E+00  0.00000000000E+00  0.12914696066E+04  0.12914696066E+04  0.00000000000E+00 0. -1.
          2   -1    0    0  502    0  0.00000000000E+00 -0.00000000000E+00 -0.33699768519E+03  0.33699768519E+03  0.00000000000E+00 0. -1.
         25    1    1    2    0    0  0.79026906098E+02  0.22995236276E+02 -0.91432080670E+02  0.17538203487E+03  0.12500000000E+03 0.  0.
          2    1    1    2  501    0 -0.81149449254E+02  0.53772702106E+02  0.12402766122E+04  0.12440911588E+04  0.00000000000E+00 0. -1.
          1    1    1    2  502    0  0.21225431563E+01 -0.76767938382E+02 -0.19437261004E+03  0.20899409821E+03  0.00000000000E+00 0. -1.
<mgrwt>
<rscale>  0 0.86189306E+02</rscale>
<asrwt>0</asrwt>
<pdfrwt beam="2">  1        2 0.51845798E-01 0.76797276E+02</pdfrwt>
<pdfrwt beam="1">  1        1 0.19868763E+00 0.96729948E+02</pdfrwt>
<totfact> 0.14148074E+02</totfact>
</mgrwt>
</event>
<event>
 5    1  0.8274494E-003  0.1729776E+03  0.7546771E-02  0.1316487E+00
          2   -1    0    0  502    0  0.00000000000E+00  0.00000000000E+00  0.50400467799E+03  0.50400467799E+03  0.00000000000E+00 0. -1.
          1   -1    0    0  501    0 -0.00000000000E+00 -0.00000000000E+00 -0.87367336005E+03  0.87367336005E+03  0.00000000000E+00 0. -1.
         25    1    1    2    0    0 -0.88375265974E+02  0.17506429574E+03 -0.13242983427E+03  0.26761979800E+03  0.12500000000E+03 0.  0.
          2    1    1    2  501    0  0.10167675991E+03 -0.13588659292E+03 -0.66193797889E+03  0.68334853299E+03  0.00000000000E+00 0. -1.
          1    1    1    2  502    0 -0.13301493931E+02 -0.39177702827E+02  0.42469913109E+03  0.42670970705E+03  0.00000000000E+00 0. -1.
<mgrwt>
<rscale>  0 0.84597894E+02</rscale>
<asrwt>0</asrwt>
<pdfrwt beam="1">  1        2 0.77539182E-01 0.41374172E+02</pdfrwt>
<pdfrwt beam="2">  1        1 0.13441128E+00 0.17297757E+03</pdfrwt>
<totfact> 0.17821796E+02</totfact>
</mgrwt>
</event>
<event>
 5    1  0.8274494E-003  0.7619139E+02  0.7546771E-02  0.1414890E+00
         -2   -1    0    0    0  501 -0.00000000000E+00  0.00000000000E+00  0.27474950061E+03  0.27474950061E+03  0.00000000000E+00 0.  1.
          2   -1    0    0  502    0  0.00000000000E+00 -0.00000000000E+00 -0.13618675347E+04  0.13618675347E+04  0.00000000000E+00 0. -1.
         25    1    1    2    0    0 -0.13279056667E+01  0.11631448263E+03  0.60247754783E+01  0.17085701660E+03  0.12500000000E+03 0.  0.
          1    1    1    2  502    0 -0.52281495136E+01 -0.75506471882E+02 -0.12760239072E+04  0.12782666281E+04  0.00000000000E+00 0. -1.
         -1    1    1    2    0  501  0.65560551803E+01 -0.40808010749E+02  0.18288109769E+03  0.18749339053E+03  0.00000000000E+00 0.  1.
<mgrwt>
<rscale>  0 0.56116740E+02</rscale>
<asrwt>0</asrwt>
<pdfrwt beam="2">  1        2 0.20951808E+00 0.76191391E+02</pdfrwt>
<pdfrwt beam="1">  1       -2 0.42269154E-01 0.41331291E+02</pdfrwt>
<totfact> 0.94846968E+01</totfact>
</mgrwt>
</event>
<event>
 5    1  0.8274494E-003  0.5407197E+02  0.7546771E-02  0.1437183E+00
          2   -1    0    0  502    0  0.00000000000E+00  0.00000000000E+00  0.33731970285E+04  0.33731970285E+04  0.00000000000E+00 0. -1.
          1   -1    0    0  501    0 -0.00000000000E+00 -0.00000000000E+00 -0.12003090240E+02  0.12003090240E+02  0.00000000000E+00 0. -1.
         25    1    1    2    0    0 -0.49079518791E+02  0.16421206505E+02  0.86569954995E+03  0.87620726199E+03  0.12500000000E+03 0.  0.
          2    1    1    2  501    0  0.32781512351E+02  0.36601771254E+02  0.87442043056E+02  0.10030168545E+03  0.00000000000E+00 0. -1.
          1    1    1    2  502    0  0.16298006441E+02 -0.53022977759E+02  0.24080523452E+04  0.24086911713E+04  0.00000000000E+00 0. -1.
<mgrwt>
<rscale>  0 0.51544780E+02</rscale>
<asrwt>0</asrwt>
<pdfrwt beam="1">  1        2 0.51895263E+00 0.54071972E+02</pdfrwt>
<pdfrwt beam="2">  1        1 0.18466320E-02 0.49135702E+02</pdfrwt>
<totfact> 0.12032405E+03</totfact>
</mgrwt>
</event>
<event>
 5    1  0.8784691E-003  0.4537853E+02  0.7546771E-02  0.1481251E+00
         -2   -1    0    0    0  501 -0.00000000000E+00  0.00000000000E+00  0.19555093508E+02  0.19555093508E+02  0.00000000000E+00 0.  1.
          2   -1    0    0  502    0  0.00000000000E+00 -0.00000000000E+00 -0.67045406906E+03  0.67045406906E+03  0.00000000000E+00 0. -1.
         25    1    1    2    0    0 -0.15115955427E+00 -0.36492606914E+02 -0.35441549656E+03  0.37758055751E+03  0.12500000000E+03 0.  0.
          1    1    1    2  502    0 -0.42270524350E+02  0.34038812197E+02 -0.13637449218E+03  0.14677683769E+03  0.00000000000E+00 0. -1.
         -1    1    1    2    0  501  0.42421683905E+02  0.24537947168E+01 -0.16010898681E+03  0.16565176736E+03  0.00000000000E+00 0.  1.
<mgrwt>
<rscale>  0 0.43911857E+02</rscale>
<asrwt>0</asrwt>
<pdfrwt beam="2">  1        2 0.10314677E+00 0.45378525E+02</pdfrwt>
<pdfrwt beam="1">  1       -2 0.30084763E-02 0.42492592E+02</pdfrwt>
<totfact> 0.15768709E+04</totfact>
</mgrwt>
</event>
<event>
 5    1  0.8274494E-003  0.6063635E+02  0.7546771E-02  0.1486677E+00
         -2   -1    0    0    0  501 -0.00000000000E+00  0.00000000000E+00  0.26748337080E+02  0.26748337080E+02  0.00000000000E+00 0.  1.
          2   -1    0    0  502    0  0.00000000000E+00 -0.00000000000E+00 -0.18264564545E+04  0.18264564545E+04  0.00000000000E+00 0. -1.
         25    1    1    2    0    0  0.17129301417E+02  0.55330218686E+02 -0.79617249420E+03  0.80800401397E+03  0.12500000000E+03 0.  0.
          1    1    1    2  502    0 -0.45045800914E+02 -0.42772091996E+02 -0.10116318282E+04  0.10135371388E+04  0.00000000000E+00 0. -1.
         -1    1    1    2    0  501  0.27916499497E+02 -0.12558126691E+02  0.80962048964E+01  0.31663638829E+02  0.00000000000E+00 0.  1.
<mgrwt>
<rscale>  0 0.43082983E+02</rscale>
<asrwt>0</asrwt>
<pdfrwt beam="2">  1        2 0.28099341E+00 0.60636350E+02</pdfrwt>
<pdfrwt beam="1">  1       -2 0.41151272E-02 0.30611068E+02</pdfrwt>
<totfact> 0.22087151E+03</totfact>
</mgrwt>
</event>
<event>
 5    1  0.8274494E-003  0.5411633E+02  0.7546771E-02  0.1512000E+00
          2   -1    0    0  502    0  0.00000000000E+00  0.00000000000E+00  0.58891991795E+03  0.58891991795E+03  0.00000000000E+00 0. -1.
          1   -1    0    0  501    0 -0.00000000000E+00 -0.00000000000E+00 -0.12653412219E+04  0.12653412219E+04  0.00000000000E+00 0. -1.
         25    1    1    2    0    0  0.69564687937E+02  0.36225290677E+02  0.22750262762E+02  0.14931206230E+03  0.12500000000E+03 0.  0.
          2    1    1    2  501    0 -0.17671964020E+02 -0.22761673031E+02 -0.12004581164E+04  0.12008039312E+04  0.00000000000E+00 0. -1.
          1    1    1    2  502    0 -0.51892723917E+02 -0.13463617646E+02  0.50128654962E+03  0.50414514638E+03  0.00000000000E+00 0. -1.
<mgrwt>
<rscale>  0 0.39489804E+02</rscale>
<asrwt>0</asrwt>
<pdfrwt beam="1">  1        2 0.90603065E-01 0.54116333E+02</pdfrwt>
<pdfrwt beam="2">  1        1 0.19466788E+00 0.28816524E+02</pdfrwt>
<totfact> 0.91123431E+01</totfact>
</mgrwt>
</event>
<event>
 5    1  0.8274494E-003  0.2472532E+03  0.7546771E-02  0.1231895E+00
          2   -1    0    0  502    0  0.00000000000E+00  0.00000000000E+00  0.25187454488E+03  0.25187454488E+03  0.00000000000E+00 0. -1.
          1   -1    0    0  501    0 -0.00000000000E+00 -0.00000000000E+00 -0.12615910982E+04  0.12615910982E+04  0.00000000000E+00 0. -1.
         25    1    1    2    0    0 -0.18031147457E+03  0.91634676704E+02 -0.51089220200E+03  0.56351129882E+03  0.12500000000E+03 0.  0.
          2    1    1    2  501    0 -0.21900361120E+02  0.61504479027E+02 -0.65092517703E+03  0.65419111340E+03  0.00000000000E+00 0. -1.
          1    1    1    2  502    0  0.20221183569E+03 -0.15313915573E+03  0.15210082574E+03  0.29576323082E+03  0.00000000000E+00 0. -1.
<mgrwt>
<rscale>  0 0.12705308E+03</rscale>
<asrwt>0</asrwt>
<pdfrwt beam="1">  1        2 0.38749930E-01 0.24725320E+03</pdfrwt>
<pdfrwt beam="2">  1        1 0.19409094E+00 0.65287263E+02</pdfrwt>
<totfact> 0.20969806E+02</totfact>
</mgrwt>
</event>
<event>
 5    1  0.8274494E-003  0.1113102E+03  0.7546771E-02  0.1390004E+00
          2   -1    0    0  502    0  0.00000000000E+00  0.00000000000E+00  0.15714157574E+04  0.15714157574E+04  0.00000000000E+00 0. -1.
          1   -1    0    0  501    0 -0.00000000000E+00 -0.00000000000E+00 -0.21651028370E+03  0.21651028370E+03  0.00000000000E+00 0. -1.
         25    1    1    2    0    0 -0.61398018363E+02 -0.10827237480E+03  0.70609588048E+03  0.72779737306E+03  0.12500000000E+03 0.  0.
          2    1    1    2  501    0  0.78668856609E+02  0.78488564261E+02 -0.19026894431E+03  0.22034408294E+03  0.00000000000E+00 0. -1.
          1    1    1    2  502    0 -0.17270838247E+02  0.29783810542E+02  0.83907853758E+03  0.83978458514E+03  0.00000000000E+00 0. -1.
<mgrwt>
<rscale>  0 0.61905590E+02</rscale>
<asrwt>0</asrwt>
<pdfrwt beam="1">  1        2 0.24175626E+00 0.34429017E+02</pdfrwt>
<pdfrwt beam="2">  1        1 0.33309275E-01 0.11131024E+03</pdfrwt>
<totfact> 0.26772571E+02</totfact>
</mgrwt>
</event>
<event>
 5    1  0.8274494E-003  0.1121928E+03  0.7546771E-02  0.1449969E+00
          2   -1    0    0  502    0  0.00000000000E+00  0.00000000000E+00  0.11592328887E+04  0.11592328887E+04  0.00000000000E+00 0. -1.
          1   -1    0    0  501    0 -0.00000000000E+00 -0.00000000000E+00 -0.18509795682E+03  0.18509795682E+03  0.00000000000E+00 0. -1.
         25    1    1    2    0    0  0.10834332426E+03 -0.49237451901E+02  0.48491719981E+03  0.51471574024E+03  0.12500000000E+03 0.  0.
          2    1    1    2  501    0 -0.92242529977E+02  0.63536673703E+02 -0.15157035890E+03  0.18846529373E+03  0.00000000000E+00 0. -1.
          1    1    1    2  502    0 -0.16100794281E+02 -0.14299221801E+02  0.64078809093E+03  0.64114981151E+03  0.00000000000E+00 0. -1.
<mgrwt>
<rscale>  0 0.49152161E+02</rscale>
<asrwt>0</asrwt>
<pdfrwt beam="1">  1        2 0.17834352E+00 0.21533772E+02</pdfrwt>
<pdfrwt beam="2">  1        1 0.28476609E-01 0.11219284E+03</pdfrwt>
<totfact> 0.53744921E+02</totfact>
</mgrwt>
</event>
<event>
 5    1  0.8274494E-003  0.5895657E+02  0.7546771E-02  0.1465257E+00
          1   -1    0    0  501    0 -0.00000000000E+00  0.00000000000E+00  0.13303544017E+03  0.13303544017E+03  0.00000000000E+00 0. -1.
          2   -1    0    0  502    0  0.00000000000E+00 -0.00000000000E+00 -0.50171545826E+03  0.50171545826E+03  0.00000000000E+00 0. -1.
         25    1    1    2    0    0 -0.35557793744E+02  0.27794160850E+01  0.19855232548E+02  0.13149643383E+03  0.12500000000E+03 0.  0.
          2    1    1    2  501    0 -0.10676880691E+02  0.35067889700E+02  0.49258847672E+02  0.61401846416E+02  0.00000000000E+00 0. -1.
          1    1    1    2  502    0  0.46234674435E+02 -0.37847305785E+02 -0.43779409831E+03  0.44185261818E+03  0.00000000000E+00 0. -1.
<mgrwt>
<rscale>  0 0.46488542E+02</rscale>
<asrwt>0</asrwt>
<pdfrwt beam="2">  1        2 0.77186993E-01 0.58956565E+02</pdfrwt>
<pdfrwt beam="1">  1        1 0.20466991E-01 0.36657232E+02</pdfrwt>
<totfact> 0.19858241E+03</totfact>
</mgrwt>
</event>
<event>
 5    1  0.8274494E-003  0.1152766E+03  0.7546771E-02  0.1346696E+00
          2   -1    0    0  502    0  0.00000000000E+00  0.00000000000E+00  0.17542355729E+04  0.17542355729E+04  0.00000000000E+00 0. -1.
          1   -1    0    0  501    0 -0.00000000000E+00 -0.00000000000E+00 -0.42703991637E+03  0.42703991637E+03  0.00000000000E+00 0. -1.
         25    1    1    2    0    0  0.13639306272E+03 -0.66140595516E+02 -0.14684414814E+03  0.24528728009E+03  0.12500000000E+03 0.  0.
          2    1    1    2  501    0 -0.47196489522E+02 -0.63783162039E+01 -0.22655788688E+03  0.23150954116E+03  0.00000000000E+00 0. -1.
          1    1    1    2  502    0 -0.89196573195E+02  0.72518911720E+02  0.17005976916E+04  0.17044786681E+04  0.00000000000E+00 0. -1.
<mgrwt>
<rscale>  0 0.74095262E+02</rscale>
<asrwt>0</asrwt>
<pdfrwt beam="1">  1        2 0.26988239E+00 0.11527656E+03</pdfrwt>
<pdfrwt beam="2">  1        1 0.65698449E-01 0.47625535E+02</pdfrwt>
<totfact> 0.84803234E+01</totfact>
</mgrwt>
</event>
<event>
 5    1  0.8274494E-003  0.1175081E+03  0.7546771E-02  0.1385816E+00
          2   -1    0    0  502    0  0.00000000000E+00  0.00000000000E+00  0.28542531554E+03  0.28542531554E+03  0.00000000000E+00 0. -1.
          1   -1    0    0  501    0 -0.00000000000E+00 -0.00000000000E+00 -0.32036641579E+04  0.32036641579E+04  0.00000000000E+00 0. -1.
         25    1    1    2    0    0  0.47313879314E+02 -0.76181727891E+02 -0.96241509401E+03  0.97463330131E+03  0.12500000000E+03 0.  0.
          2    1    1    2  501    0  0.31822325483E+02 -0.11191740407E+02 -0.22225681612E+04  0.22228241375E+04  0.00000000000E+00 0. -1.
          1    1    1    2  502    0 -0.79136204798E+02  0.87373468298E+02  0.26674441277E+03  0.29163203462E+03  0.00000000000E+00 0. -1.
<mgrwt>
<rscale>  0 0.62959510E+02</rscale>
<asrwt>0</asrwt>
<pdfrwt beam="1">  1        2 0.43911586E-01 0.11750807E+03</pdfrwt>
<pdfrwt beam="2">  1        1 0.49287142E+00 0.33733002E+02</pdfrwt>
<totfact> 0.11972158E+01</totfact>
</mgrwt>
</event>
<event>
 5    1  0.8274494E-003  0.6336835E+02  0.7546771E-02  0.1398167E+00
         -2   -1    0    0    0  501  0.00000000000E+00  0.00000000000E+00  0.32023356001E+03  0.32023356001E+03  0.00000000000E+00 0.  1.
         -1   -1    0    0    0  502 -0.00000000000E+00 -0.00000000000E+00 -0.12628668742E+03  0.12628668742E+03  0.00000000000E+00 0.  1.
         25    1    1    2    0    0  0.75007088886E+02  0.41842243468E+01  0.10172554836E+03  0.17781073732E+03  0.12500000000E+03 0.  0.
         -2    1    1    2    0  502 -0.28290395449E+02 -0.49091653697E+02 -0.72317407625E+02  0.91870258425E+02  0.00000000000E+00 0.  1.
         -1    1    1    2    0  501 -0.46716693436E+02  0.44907429351E+02  0.16453873186E+03  0.17683925169E+03  0.00000000000E+00 0.  1.
<mgrwt>
<rscale>  0 0.59920281E+02</rscale>
<asrwt>0</asrwt>
<pdfrwt beam="1">  1       -2 0.49266701E-01 0.63368346E+02</pdfrwt>
<pdfrwt beam="2">  1       -1 0.19428721E-01 0.56659835E+02</pdfrwt>
<totfact> 0.58662154E+02</totfact>
</mgrwt>
</event>
<event>
 5    1  0.8274494E-003  0.1191083E+03  0.7546771E-02  0.1335711E+00
          1   -1    0    0  501    0 -0.00000000000E+00  0.00000000000E+00  0.33950357525E+03  0.33950357525E+03  0.00000000000E+00 0. -1.
          2   -1    0    0  502    0  0.00000000000E+00 -0.00000000000E+00 -0.85590500478E+03  0.85590500478E+03  0.00000000000E+00 0. -1.
         25    1    1    2    0    0  0.32323249771E+02  0.11543219064E+03 -0.77065056512E+03  0.78987130384E+03  0.12500000000E+03 0.  0.
          2    1    1    2  501    0  0.18305941718E+02 -0.11783524468E+03  0.30882886001E+03  0.33105213663E+03  0.00000000000E+00 0. -1.
          1    1    1    2  502    0 -0.50629191488E+02  0.24030540472E+01 -0.54579724412E+02  0.74485139567E+02  0.00000000000E+00 0. -1.
<mgrwt>
<rscale>  0 0.77699062E+02</rscale>
<asrwt>0</asrwt>
<pdfrwt beam="2">  1        2 0.13167769E+00 0.50686188E+02</pdfrwt>
<pdfrwt beam="1">  1        1 0.52231320E-01 0.11910827E+03</pdfrwt>
<totfact> 0.35786849E+02</totfact>
</mgrwt>
</event>
<event>
 5    1  0.8274494E-003  0.5801086E+02  0.7546771E-02  0.1412246E+00
          1   -1    0    0  502    0  0.00000000000E+00  0.00000000000E+00  0.44364072276E+03  0.44364072276E+03  0.00000000000E+00 0. -1.
         -1   -1    0    0    0  501 -0.00000000000E+00 -0.00000000000E+00 -0.17120505659E+03  0.17120505659E+03  0.00000000000E+00 0.  1.
         25    1    1    2    0    0 -0.21224820281E+02  0.19506502658E+02  0.46460412261E+01  0.12836503551E+03  0.12500000000E+03 0.  0.
          2    1    1    2  502    0  0.34636960610E+02  0.43250336704E+02  0.36544759772E+03  0.36962448153E+03  0.00000000000E+00 0. -1.
         -2    1    1    2    0  501 -0.13412140329E+02 -0.62756839362E+02 -0.97657972773E+02  0.11685626231E+03  0.00000000000E+00 0.  1.
<mgrwt>
<rscale>  0 0.56695716E+02</rscale>
<asrwt>0</asrwt>
<pdfrwt beam="1">  1        1 0.68252418E-01 0.55410384E+02</pdfrwt>
<pdfrwt beam="2">  1       -1 0.26339240E-01 0.58010862E+02</pdfrwt>
<totfact> 0.67409095E+02</totfact>
</mgrwt>
</event>
<event>
 5    1  0.8274494E-003  0.1370759E+03  0.7546771E-02  0.1359181E+00
          1   -1    0    0  502    0  0.00000000000E+00  0.00000000000E+00  0.16097489409E+04  0.16097489409E+04  0.00000000000E+00 0. -1.
         -1   -1    0    0    0  501 -0.00000000000E+00 -0.00000000000E+00 -0.15167165002E+03  0.15167165002E+03  0.00000000000E+00 0.  1.
         25    1    1    2    0    0 -0.51934946878E+02  0.91722087762E+02  0.27369959889E+03  0.31882071846E+03  0.12500000000E+03 0.  0.
          2    1    1    2  502    0 -0.21506244180E+02  0.28897267925E+02  0.12745427905E+04  0.12750517226E+04  0.00000000000E+00 0. -1.
         -2    1    1    2    0  501  0.73441191058E+02 -0.12061935569E+03 -0.90165098511E+02  0.16754814980E+03  0.00000000000E+00 0.  1.
<mgrwt>
<rscale>  0 0.70268916E+02</rscale>
<asrwt>0</asrwt>
<pdfrwt beam="1">  1        1 0.24765367E+00 0.36021808E+02</pdfrwt>
<pdfrwt beam="2">  1       -1 0.23334101E-01 0.13707587E+03</pdfrwt>
<totfact> 0.11573492E+02</totfact>
</mgrwt>
</event>
<event>
 5    1  0.1359606E-002  0.9284994E+02  0.7546771E-02  0.1423111E+00
          2   -1    0    0  502    0  0.00000000000E+00  0.00000000000E+00  0.83978497471E+03  0.83978497471E+03  0.00000000000E+00 0. -1.
          1   -1    0    0  501    0 -0.00000000000E+00 -0.00000000000E+00 -0.18107613876E+04  0.18107613876E+04  0.00000000000E+00 0. -1.
         25    1    1    2    0    0 -0.29886312499E+02  0.54231559252E+02 -0.44345301667E+03  0.46487614661E+03  0.12500000000E+03 0.  0.
          2    1    1    2  501    0 -0.22092167479E+02  0.22921873829E+02 -0.13537994239E+04  0.13541736802E+04  0.00000000000E+00 0. -1.
          1    1    1    2  502    0  0.51978479979E+02 -0.77153433081E+02  0.82627602765E+03  0.83149653546E+03  0.00000000000E+00 0. -1.
<mgrwt>
<rscale>  0 0.54368105E+02</rscale>
<asrwt>0</asrwt>
<pdfrwt beam="1">  1        2 0.12919769E+00 0.92849939E+02</pdfrwt>
<pdfrwt beam="2">  1        1 0.27857867E+00 0.31835140E+02</pdfrwt>
<totfact> 0.27397014E+01</totfact>
</mgrwt>
</event>
<event>
 5    1  0.8274494E-003  0.4485503E+02  0.7546771E-02  0.1530113E+00
         -2   -1    0    0    0  501 -0.00000000000E+00  0.00000000000E+00  0.27598934033E+02  0.27598934033E+02  0.00000000000E+00 0.  1.
          2   -1    0    0  502    0  0.00000000000E+00 -0.00000000000E+00 -0.24928693661E+04  0.24928693661E+04  0.00000000000E+00 0. -1.
         25    1    1    2    0    0  0.58939706163E+02  0.39789382463E+02 -0.24164313549E+03  0.28120008685E+03  0.12500000000E+03 0.  0.
          1    1    1    2  502    0 -0.42395615713E+02 -0.13803076131E+02 -0.21999826586E+04  0.22004344142E+04  0.00000000000E+00 0. -1.
         -1    1    1    2    0  501 -0.16544090450E+02 -0.25986306332E+02 -0.23644638033E+02  0.38833799110E+02  0.00000000000E+00 0.  1.
<mgrwt>
<rscale>  0 0.37172483E+02</rscale>
<asrwt>0</asrwt>
<pdfrwt beam="2">  1        2 0.38351845E+00 0.44855033E+02</pdfrwt>
<pdfrwt beam="1">  1       -2 0.42459889E-02 0.30805763E+02</pdfrwt>
<totfact> 0.10273820E+03</totfact>
</mgrwt>
</event>
<event>
 5    1  0.8274494E-003  0.9489482E+02  0.7546771E-02  0.1468186E+00
          2   -1    0    0  502    0  0.00000000000E+00  0.00000000000E+00  0.27370663828E+04  0.27370663828E+04  0.00000000000E+00 0. -1.
         -2   -1    0    0    0  501 -0.00000000000E+00 -0.00000000000E+00 -0.77016993820E+02  0.77016993820E+02  0.00000000000E+00 0.  1.
         25    1    1    2    0    0  0.78510366457E+02  0.19225897220E+02  0.57614730398E+03  0.59506657497E+03  0.12500000000E+03 0.  0.
          1    1    1    2  502    0 -0.88312104312E+02 -0.39255913433E+02  0.21485029128E+04  0.21506754337E+04  0.00000000000E+00 0. -1.
         -1    1    1    2    0  501  0.98017378553E+01  0.20030016213E+02 -0.64600827859E+02  0.68341367959E+02  0.00000000000E+00 0.  1.
<mgrwt>
<rscale>  0 0.46001346E+02</rscale>
<asrwt>0</asrwt>
<pdfrwt beam="1">  1        2 0.42108706E+00 0.94894820E+02</pdfrwt>
<pdfrwt beam="2">  1       -2 0.11848770E-01 0.22299677E+02</pdfrwt>
<totfact> 0.14687920E+02</totfact>
</mgrwt>
</event>
<event>
 5    1  0.8274494E-003  0.1561284E+03  0.7546771E-02  0.1384628E+00
          2   -1    0    0  502    0  0.00000000000E+00  0.00000000000E+00  0.45960026289E+03  0.45960026289E+03  0.00000000000E+00 0. -1.
         -2   -1    0    0    0  501 -0.00000000000E+00 -0.00000000000E+00 -0.40551986343E+03  0.40551986343E+03  0.00000000000E+00 0.  1.
         25    1    1    2    0    0 -0.92780608101E+02 -0.11122911090E+03 -0.28279957250E+03  0.34143923992E+03  0.12500000000E+03 0.  0.
          1    1    1    2  502    0  0.11734012968E+03  0.10388576342E+03  0.41386305113E+03  0.44254218213E+03  0.00000000000E+00 0. -1.
         -1    1    1    2    0  501 -0.24559521579E+02  0.73433474826E+01 -0.76983079169E+02  0.81138704271E+02  0.00000000000E+00 0.  1.
<mgrwt>
<rscale>  0 0.63262736E+02</rscale>
<asrwt>0</asrwt>
<pdfrwt beam="1">  1        2 0.70707733E-01 0.15612840E+03</pdfrwt>
<pdfrwt beam="2">  1       -2 0.62387671E-01 0.25633861E+02</pdfrwt>
<totfact> 0.17171033E+02</totfact>
</mgrwt>
</event>
<event>
 5    1  0.8274494E-003  0.1142918E+03  0.7546771E-02  0.1389720E+00
         -2   -1    0    0    0  501 -0.00000000000E+00  0.00000000000E+00  0.48493639587E+03  0.48493639587E+03  0.00000000000E+00 0.  1.
          2   -1    0    0  502    0  0.00000000000E+00 -0.00000000000E+00 -0.33364102767E+03  0.33364102767E+03  0.00000000000E+00 0. -1.
         25    1    1    2    0    0 -0.12999186190E+03  0.58847150487E+02  0.12047901154E+03  0.22472441679E+03  0.12500000000E+03 0.  0.
          1    1    1    2  502    0  0.30704610208E+02 -0.13663461324E+02 -0.27092364475E+03  0.27300015485E+03  0.00000000000E+00 0. -1.
         -1    1    1    2    0  501  0.99287251690E+02 -0.45183689163E+02  0.30174000142E+03  0.32085285189E+03  0.00000000000E+00 0.  1.
<mgrwt>
<rscale>  0 0.61976298E+02</rscale>
<asrwt>0</asrwt>
<pdfrwt beam="2">  1        2 0.51329389E-01 0.33607488E+02</pdfrwt>
<pdfrwt beam="1">  1       -2 0.74605599E-01 0.11429183E+03</pdfrwt>
<totfact> 0.16449171E+02</totfact>
</mgrwt>
</event>
<event>
 5    1  0.8274494E-003  0.4763333E+02  0.7546771E-02  0.1500429E+00
          1   -1    0    0  501    0 -0.00000000000E+00  0.00000000000E+00  0.10708992412E+03  0.10708992412E+03  0.00000000000E+00 0. -1.
          2   -1    0    0  502    0  0.00000000000E+00 -0.00000000000E+00 -0.24857332964E+04  0.24857332964E+04  0.00000000000E+00 0. -1.
         25    1    1    2    0    0 -0.99126411980E+01 -0.92903230173E+01 -0.68067532022E+03  0.69219105897E+03  0.12500000000E+03 0.  0.
          2    1    1    2  501    0  0.21900727293E+02  0.42624128427E+02  0.95481677836E+02  0.10683262134E+03  0.00000000000E+00 0. -1.
          1    1    1    2  502    0 -0.11988086095E+02 -0.33333805410E+02 -0.17934497299E+04  0.17937995402E+04  0.00000000000E+00 0. -1.
<mgrwt>
<rscale>  0 0.41077502E+02</rscale>
<asrwt>0</asrwt>
<pdfrwt beam="2">  1        2 0.38242049E+00 0.35423958E+02</pdfrwt>
<pdfrwt beam="1">  1        1 0.16475374E-01 0.47633333E+02</pdfrwt>
<totfact> 0.22434429E+02</totfact>
</mgrwt>
</event>
<event>
 5    1  0.8274494E-003  0.2243294E+03  0.7546771E-02  0.1308454E+00
          1   -1    0    0  501    0 -0.00000000000E+00  0.00000000000E+00  0.15706869593E+04  0.15706869593E+04  0.00000000000E+00 0. -1.
          2   -1    0    0  502    0  0.00000000000E+00 -0.00000000000E+00 -0.81663113687E+03  0.81663113687E+03  0.00000000000E+00 0. -1.
         25    1    1    2    0    0  0.61302238283E+02 -0.23990722655E+03  0.64478035086E+03  0.70191177695E+03  0.12500000000E+03 0.  0.
          2    1    1    2  501    0 -0.58929526626E+02  0.20568335950E+03  0.88420211733E+03  0.90972068119E+03  0.00000000000E+00 0. -1.
          1    1    1    2  502    0 -0.23727116574E+01  0.34223867043E+02 -0.77492664573E+03  0.77568563806E+03  0.00000000000E+00 0. -1.
<mgrwt>
<rscale>  0 0.87725988E+02</rscale>
<asrwt>0</asrwt>
<pdfrwt beam="2">  1        2 0.12563556E+00 0.34306017E+02</pdfrwt>
<pdfrwt beam="1">  1        1 0.24164415E+00 0.22432942E+03</pdfrwt>
<totfact> 0.33682816E+01</totfact>
</mgrwt>
</event>
<event>
 5    1  0.8274494E-003  0.6765120E+02  0.7546771E-02  0.1398558E+00
          2   -1    0    0  502    0  0.00000000000E+00  0.00000000000E+00  0.17197914740E+03  0.17197914740E+03  0.00000000000E+00 0. -1.
         -2   -1    0    0    0  501 -0.00000000000E+00 -0.00000000000E+00 -0.39736599522E+03  0.39736599522E+03  0.00000000000E+00 0.  1.
         25    1    1    2    0    0  0.73114985395E+02  0.28371621920E+02 -0.14493194987E+02  0.14827610300E+03  0.12500000000E+03 0.  0.
          1    1    1    2  502    0 -0.64296784214E+02  0.23796729927E+02  0.91357818348E+02  0.11422176583E+03  0.00000000000E+00 0. -1.
         -1    1    1    2    0  501 -0.88182011812E+01 -0.52168351846E+02 -0.30225147118E+03  0.30684727380E+03  0.00000000000E+00 0.  1.
<mgrwt>
<rscale>  0 0.59827386E+02</rscale>
<asrwt>0</asrwt>
<pdfrwt beam="1">  1        2 0.26458331E-01 0.67651203E+02</pdfrwt>
<pdfrwt beam="2">  1       -2 0.61133229E-01 0.52908389E+02</pdfrwt>
<totfact> 0.50434372E+02</totfact>
</mgrwt>
</event>
<event>
 5    1  0.8274494E-003  0.7738685E+02  0.7546771E-02  0.1388502E+00
          2   -1    0    0  502    0  0.00000000000E+00  0.00000000000E+00  0.89014047501E+03  0.89014047501E+03  0.00000000000E+00 0. -1.
          1   -1    0    0  501    0 -0.00000000000E+00 -0.00000000000E+00 -0.46033015015E+03  0.46033015015E+03  0.00000000000E+00 0. -1.
         25    1    1    2    0    0  0.49691206070E+01 -0.40931544869E+02  0.86374908283E+02  0.15743477477E+03  0.12500000000E+03 0.  0.
          2    1    1    2  501    0  0.35832951568E+02  0.70044061939E+02 -0.42032869524E+03  0.42762879121E+03  0.00000000000E+00 0. -1.
          1    1    1    2  502    0 -0.40802072175E+02 -0.29112517070E+02  0.76376411181E+03  0.76540705918E+03  0.00000000000E+00 0. -1.
<mgrwt>
<rscale>  0 0.62280704E+02</rscale>
<asrwt>0</asrwt>
<pdfrwt beam="1">  1        2 0.13694469E+00 0.50123325E+02</pdfrwt>
<pdfrwt beam="2">  1        1 0.70820023E-01 0.77386848E+02</pdfrwt>
<totfact> 0.23474354E+02</totfact>
</mgrwt>
</event>
<event>
 5    1  0.8274494E-003  0.1022163E+03  0.7546771E-02  0.1356947E+00
         -2   -1    0    0    0  501 -0.00000000000E+00  0.00000000000E+00  0.26511176461E+02  0.26511176461E+02  0.00000000000E+00 0.  1.
          2   -1    0    0  502    0  0.00000000000E+00 -0.00000000000E+00 -0.38884275116E+04  0.38884275116E+04  0.00000000000E+00 0. -1.
         25    1    1    2    0    0 -0.12467709176E+03  0.79459458883E+02 -0.83666623828E+03  0.85877446229E+03  0.12500000000E+03 0.  0.
          1    1    1    2  502    0  0.85439821734E+02 -0.49735730332E+02 -0.29985218957E+04  0.30001511904E+04  0.00000000000E+00 0. -1.
         -3    1    1    2    0  501  0.39237270024E+02 -0.29723728551E+02 -0.26728201151E+02  0.56013035400E+02  0.00000000000E+00 0.  1.
<mgrwt>
<rscale>  0 0.70933474E+02</rscale>
<asrwt>0</asrwt>
<pdfrwt beam="2">  1        2 0.59821967E+00 0.10221628E+03</pdfrwt>
<pdfrwt beam="1">  1       -2 0.40786422E-02 0.49224622E+02</pdfrwt>
<totfact> 0.14804238E+02</totfact>
</mgrwt>
</event>
<event>
 5    1  0.8274494E-003  0.2110930E+03  0.7546771E-02  0.1310575E+00
          1   -1    0    0  502    0  0.00000000000E+00  0.00000000000E+00  0.25711558501E+03  0.25711558501E+03  0.00000000000E+00 0. -1.
         -1   -1    0    0    0  501 -0.00000000000E+00 -0.00000000000E+00 -0.81234477625E+03  0.81234477625E+03  0.00000000000E+00 0.  1.
         25    1    1    2    0    0  0.18905343214E+03  0.13976341051E+03 -0.22793680324E+03  0.35050705755E+03  0.12500000000E+03 0.  0.
          2    1    1    2  502    0 -0.17753690202E+03 -0.10590675982E+03  0.14040011240E+03  0.24989554801E+03  0.00000000000E+00 0. -1.
         -2    1    1    2    0  501 -0.11516530121E+02 -0.33856650687E+02 -0.46769250039E+03  0.46905775570E+03  0.00000000000E+00 0.  1.
<mgrwt>
<rscale>  0 0.86885312E+02</rscale>
<asrwt>0</asrwt>
<pdfrwt beam="1">  1        1 0.39556244E-01 0.21109302E+03</pdfrwt>
<pdfrwt beam="2">  1       -1 0.12497612E+00 0.35761757E+02</pdfrwt>
<totfact> 0.72021888E+01</totfact>
</mgrwt>
</event>
<event>
 5    1  0.8274494E-003  0.2125326E+03  0.7546771E-02  0.1239068E+00
         -2   -1    0    0    0  501 -0.00000000000E+00  0.00000000000E+00  0.23719755279E+03  0.23719755279E+03  0.00000000000E+00 0.  1.
          2   -1    0    0  502    0  0.00000000000E+00 -0.00000000000E+00 -0.31464496872E+04  0.31464496872E+04  0.00000000000E+00 0. -1.
         25    1    1    2    0    0  0.17533894369E+03 -0.19412793135E+03  0.43732208939E+02  0.29320113405E+03  0.12500000000E+03 0.  0.
          1    1    1    2  502    0 -0.10558927184E+03  0.18334193319E+03 -0.29988301798E+04  0.30062843854E+04  0.00000000000E+00 0. -1.
         -1    1    1    2    0  501 -0.69749671851E+02  0.10785998168E+02  0.45845836456E+02  0.84161720515E+02  0.00000000000E+00 0.  1.
<mgrwt>
<rscale>  0 0.12247563E+03</rscale>
<asrwt>0</asrwt>
<pdfrwt beam="2">  1        2 0.48406918E+00 0.21253263E+03</pdfrwt>
<pdfrwt beam="1">  1       -2 0.36491931E-01 0.70578711E+02</pdfrwt>
<totfact> 0.12512309E+01</totfact>
</mgrwt>
</event>
<event>
 5    1  0.8274494E-003  0.6420952E+02  0.7546771E-02  0.1489713E+00
          1   -1    0    0  501    0 -0.00000000000E+00  0.00000000000E+00  0.98128694969E+03  0.98128694969E+03  0.00000000000E+00 0. -1.
          2   -1    0    0  502    0  0.00000000000E+00 -0.00000000000E+00 -0.75512955145E+03  0.75512955145E+03  0.00000000000E+00 0. -1.
         25    1    1    2    0    0 -0.61582617197E+02  0.56238629015E+02  0.94258583230E+01  0.15056244199E+03  0.12500000000E+03 0.  0.
          2    1    1    2  501    0  0.57374263321E+02 -0.28252153556E+02  0.89986496012E+03  0.90213465554E+03  0.00000000000E+00 0. -1.
          1    1    1    2  502    0  0.42083538764E+01 -0.27986475459E+02 -0.68313342021E+03  0.68371940360E+03  0.00000000000E+00 0. -1.
<mgrwt>
<rscale>  0 0.42628639E+02</rscale>
<asrwt>0</asrwt>
<pdfrwt beam="2">  1        2 0.11617378E+00 0.28301114E+02</pdfrwt>
<pdfrwt beam="1">  1        1 0.15096722E+00 0.64209516E+02</pdfrwt>
<totfact> 0.10231260E+02</totfact>
</mgrwt>
</event>
<event>
 5    1  0.8274494E-003  0.4458873E+02  0.7546771E-02  0.1590147E+00
          1   -1    0    0  501    0 -0.00000000000E+00  0.00000000000E+00  0.27065428606E+03  0.27065428606E+03  0.00000000000E+00 0. -1.
          2   -1    0    0  502    0  0.00000000000E+00 -0.00000000000E+00 -0.15406786476E+03  0.15406786476E+03  0.00000000000E+00 0. -1.
         25    1    1    2    0    0 -0.58547766123E+02  0.24240943711E+02 -0.22982103043E+02  0.14201634177E+03  0.12500000000E+03 0.  0.
          2    1    1    2  501    0  0.20609990715E+02 -0.48804211549E+01  0.20420362999E+03  0.20529908117E+03  0.00000000000E+00 0. -1.
          1    1    1    2  502    0  0.37937775409E+02 -0.19360522556E+02 -0.64635105658E+02  0.77406727873E+02  0.00000000000E+00 0. -1.
<mgrwt>
<rscale>  0 0.30730881E+02</rscale>
<asrwt>0</asrwt>
<pdfrwt beam="2">  1        2 0.23702748E-01 0.44588731E+02</pdfrwt>
<pdfrwt beam="1">  1        1 0.41639121E-01 0.21179949E+02</pdfrwt>
<totfact> 0.28628431E+03</totfact>
</mgrwt>
</event>
<event>
 5    1  0.8274494E-003  0.4101927E+02  0.7546771E-02  0.1593960E+00
         -1   -1    0    0    0  502 -0.00000000000E+00  0.00000000000E+00  0.13110787111E+04  0.13110787111E+04  0.00000000000E+00 0.  1.
         -2   -1    0    0    0  501  0.00000000000E+00 -0.00000000000E+00 -0.95145209606E+03  0.95145209606E+03  0.00000000000E+00 0.  1.
         25    1    1    2    0    0 -0.10303351508E+02  0.36979310836E+02 -0.32083305734E+02  0.13464013885E+03  0.12500000000E+03 0.  0.
         -2    1    1    2    0  502  0.22376776009E+02  0.23087596935E+01  0.12592132720E+04  0.12594141951E+04  0.00000000000E+00 0.  1.
         -1    1    1    2    0  501 -0.12073424501E+02 -0.39288070529E+02 -0.86750335123E+03  0.86847647318E+03  0.00000000000E+00 0.  1.
<mgrwt>
<rscale>  0 0.30376829E+02</rscale>
<asrwt>0</asrwt>
<pdfrwt beam="2">  1       -2 0.14637724E+00 0.41019274E+02</pdfrwt>
<pdfrwt beam="1">  1       -1 0.20170442E+00 0.22495566E+02</pdfrwt>
<totfact> 0.56280398E-01</totfact>
</mgrwt>
</event>
<event>
 5    1  0.8274494E-003  0.5382090E+02  0.7546771E-02  0.1451602E+00
          2   -1    0    0  502    0  0.00000000000E+00  0.00000000000E+00  0.10798940421E+04  0.10798940421E+04  0.00000000000E+00 0. -1.
         -2   -1    0    0    0  501 -0.00000000000E+00 -0.00000000000E+00 -0.11652895195E+03  0.11652895195E+03  0.00000000000E+00 0.  1.
         25    1    1    2    0    0 -0.44094908224E+02  0.23672663704E+02  0.12048299648E+03  0.18068178762E+03  0.12500000000E+03 0.  0.
          1    1    1    2  502    0  0.32544675439E+02  0.30132543118E+02  0.91996315086E+03  0.92103166341E+03  0.00000000000E+00 0. -1.
         -1    1    1    2    0  501  0.11550232785E+02 -0.53805206821E+02 -0.77081057194E+02  0.94709543007E+02  0.00000000000E+00 0.  1.
<mgrwt>
<rscale>  0 0.48857757E+02</rscale>
<asrwt>0</asrwt>
<pdfrwt beam="1">  1        2 0.16613754E+00 0.44352295E+02</pdfrwt>
<pdfrwt beam="2">  1       -2 0.17927532E-01 0.53820901E+02</pdfrwt>
<totfact> 0.61939399E+02</totfact>
</mgrwt>
</event>
<event>
 5    1  0.8274494E-003  0.5716712E+02  0.7546771E-02  0.1492528E+00
          2   -1    0    0  502    0  0.00000000000E+00  0.00000000000E+00  0.34067302207E+03  0.34067302207E+03  0.00000000000E+00 0. -1.
          1   -1    0    0  501    0 -0.00000000000E+00 -0.00000000000E+00 -0.82417340735E+03  0.82417340735E+03  0.00000000000E+00 0. -1.
         25    1    1    2    0    0 -0.47877107123E+02 -0.15505919216E+02  0.17806762283E+03  0.22330635732E+03  0.12500000000E+03 0.  0.
          2    1    1    2  501    0  0.76987313528E+01 -0.30205494150E+02 -0.79461934121E+03  0.79523049474E+03  0.00000000000E+00 0. -1.
          1    1    1    2  502    0  0.40178375770E+02  0.45711413367E+02  0.13305133309E+03  0.14630957737E+03  0.00000000000E+00 0. -1.
<mgrwt>
<rscale>  0 0.42213345E+02</rscale>
<asrwt>0</asrwt>
<pdfrwt beam="1">  1        2 0.52411234E-01 0.57167122E+02</pdfrwt>
<pdfrwt beam="2">  1        1 0.12679591E+00 0.31171178E+02</pdfrwt>
<totfact> 0.31942122E+02</totfact>
</mgrwt>
</event>
<event>
 5    1  0.8274494E-003  0.9648555E+02  0.7546771E-02  0.1357236E+00
          2   -1    0    0  502    0  0.00000000000E+00  0.00000000000E+00  0.30345497732E+04  0.30345497732E+04  0.00000000000E+00 0. -1.
         -2   -1    0    0    0  501 -0.00000000000E+00 -0.00000000000E+00 -0.92584440540E+02  0.92584440540E+02  0.00000000000E+00 0.  1.
         25    1    1    2    0    0  0.11359518054E+03  0.22492871190E+02  0.17539538797E+03  0.24453698374E+03  0.12500000000E+03 0.  0.
          1    1    1    2  502    0 -0.92936174221E+02  0.25250421883E+02  0.28119291593E+04  0.28135778491E+04  0.00000000000E+00 0. -1.
         -1    1    1    2    0  501 -0.20659006314E+02 -0.47743293073E+02 -0.45359214646E+02  0.69019380819E+02  0.00000000000E+00 0.  1.
<mgrwt>
<rscale>  0 0.70847052E+02</rscale>
<asrwt>0</asrwt>
<pdfrwt beam="1">  1        2 0.46685374E+00 0.96485554E+02</pdfrwt>
<pdfrwt beam="2">  1       -2 0.14243762E-01 0.52021309E+02</pdfrwt>
<totfact> 0.80412970E+01</totfact>
</mgrwt>
</event>
<event>
 5    1  0.8274494E-003  0.3369265E+02  0.7546771E-02  0.1590488E+00
         -2   -1    0    0    0  501 -0.00000000000E+00  0.00000000000E+00  0.17128569983E+03  0.17128569983E+03  0.00000000000E+00 0.  1.
          2   -1    0    0  502    0  0.00000000000E+00 -0.00000000000E+00 -0.15139209294E+04  0.15139209294E+04  0.00000000000E+00 0. -1.
         25    1    1    2    0    0 -0.22475239638E+02  0.16321544993E+02 -0.20791125857E+02  0.12972586536E+03  0.12500000000E+03 0.  0.
          1    1    1    2  502    0  0.21487495349E+02  0.17907606944E+02 -0.14360138336E+04  0.14362862267E+04  0.00000000000E+00 0. -1.
         -1    1    1    2    0  501  0.98774428869E+00 -0.34229151937E+02  0.11416972984E+03  0.11919453718E+03  0.00000000000E+00 0.  1.
<mgrwt>
<rscale>  0 0.30698989E+02</rscale>
<asrwt>0</asrwt>
<pdfrwt beam="2">  1        2 0.23291092E+00 0.27971322E+02</pdfrwt>
<pdfrwt beam="1">  1       -2 0.26351646E-01 0.33692649E+02</pdfrwt>
<totfact> 0.19951556E+02</totfact>
</mgrwt>
</event>
<event>
 5    1  0.8274494E-003  0.1093851E+03  0.7546771E-02  0.1374762E+00
          2   -1    0    0  502    0  0.00000000000E+00  0.00000000000E+00  0.85960583279E+03  0.85960583279E+03  0.00000000000E+00 0. -1.
          1   -1    0    0  501    0 -0.00000000000E+00 -0.00000000000E+00 -0.18219030635E+03  0.18219030635E+03  0.00000000000E+00 0. -1.
         25    1    1    2    0    0  0.11900062273E+03 -0.72710309815E+02  0.28926036042E+03  0.34459322900E+03  0.12500000000E+03 0.  0.
          2    1    1    2  501    0 -0.39238976557E+02  0.57289859905E+01 -0.14687232015E+03  0.15213151215E+03  0.00000000000E+00 0. -1.
          1    1    1    2  502    0 -0.79761646174E+02  0.66981323824E+02  0.53502748617E+03  0.54507139799E+03  0.00000000000E+00 0. -1.
<mgrwt>
<rscale>  0 0.65860955E+02</rscale>
<asrwt>0</asrwt>
<pdfrwt beam="1">  1        2 0.13224705E+00 0.10938510E+03</pdfrwt>
<pdfrwt beam="2">  1        1 0.28029278E-01 0.39654994E+02</pdfrwt>
<totfact> 0.72342159E+02</totfact>
</mgrwt>
</event>
<event>
 5    1  0.8274494E-003  0.5510118E+02  0.7546771E-02  0.1559033E+00
         -2   -1    0    0    0  501 -0.00000000000E+00  0.00000000000E+00  0.79155890878E+02  0.79155890878E+02  0.00000000000E+00 0.  1.
          2   -1    0    0  502    0  0.00000000000E+00 -0.00000000000E+00 -0.38533004971E+03  0.38533004971E+03  0.00000000000E+00 0. -1.
         25    1    1    2    0    0  0.56054382461E+01 -0.68703015411E+02 -0.11773665141E+03  0.18503633251E+03  0.12500000000E+03 0.  0.
          1    1    1    2  502    0  0.83852956556E+01  0.53314122164E+02 -0.22824367005E+03  0.23453759128E+03  0.00000000000E+00 0. -1.
         -1    1    1    2    0  501 -0.13990733902E+02  0.15388893248E+02  0.39806162622E+02  0.44912016802E+02  0.00000000000E+00 0.  1.
<mgrwt>
<rscale>  0 0.33852573E+02</rscale>
<asrwt>0</asrwt>
<pdfrwt beam="2">  1        2 0.59281546E-01 0.55101175E+02</pdfrwt>
<pdfrwt beam="1">  1       -2 0.12177829E-01 0.20798045E+02</pdfrwt>
<totfact> 0.33903600E+03</totfact>
</mgrwt>
</event>
<event>
 5    1  0.8274494E-003  0.1053712E+03  0.7546771E-02  0.1388141E+00
          2   -1    0    0  502    0  0.00000000000E+00  0.00000000000E+00  0.21307742240E+04  0.21307742240E+04  0.00000000000E+00 0. -1.
          1   -1    0    0  501    0 -0.00000000000E+00 -0.00000000000E+00 -0.21729743773E+03  0.21729743773E+03  0.00000000000E+00 0. -1.
         25    1    1    2    0    0  0.38415287697E+02 -0.59545168297E+02  0.31751724481E+03  0.34851622939E+03  0.12500000000E+03 0.  0.
          2    1    1    2  501    0 -0.49184219404E+02  0.94858551269E+02 -0.18744910894E+03  0.21576468810E+03  0.00000000000E+00 0. -1.
          1    1    1    2  502    0  0.10768931707E+02 -0.35313382972E+02  0.17834086504E+04  0.17837907442E+04  0.00000000000E+00 0. -1.
<mgrwt>
<rscale>  0 0.62371378E+02</rscale>
<asrwt>0</asrwt>
<pdfrwt beam="1">  1        2 0.32781141E+00 0.36918896E+02</pdfrwt>
<pdfrwt beam="2">  1        1 0.33430376E-01 0.10537121E+03</pdfrwt>
<totfact> 0.14268051E+02</totfact>
</mgrwt>
</event>
<event>
 5    1  0.8274494E-003  0.6659143E+02  0.7546771E-02  0.1399547E+00
          2   -1    0    0  502    0  0.00000000000E+00  0.00000000000E+00  0.24493007059E+04  0.24493007059E+04  0.00000000000E+00 0. -1.
          1   -1    0    0  501    0 -0.00000000000E+00 -0.00000000000E+00 -0.24236490713E+03  0.24236490713E+03  0.00000000000E+00 0. -1.
         25    1    1    2    0    0 -0.18593202456E+02  0.37137659272E+02  0.21282477537E+03  0.25028842947E+03  0.12500000000E+03 0.  0.
          2    1    1    2  501    0 -0.47777541026E+02 -0.23694673180E+02 -0.21992855457E+03  0.22630223172E+03  0.00000000000E+00 0. -1.
          1    1    1    2  502    0  0.66370743482E+02 -0.13442986092E+02  0.22140395780E+04  0.22150749519E+04  0.00000000000E+00 0. -1.
<mgrwt>
<rscale>  0 0.59593182E+02</rscale>
<asrwt>0</asrwt>
<pdfrwt beam="1">  1        2 0.37681548E+00 0.66591432E+02</pdfrwt>
<pdfrwt beam="2">  1        1 0.37286910E-01 0.53330394E+02</pdfrwt>
<totfact> 0.79327881E+01</totfact>
</mgrwt>
</event>
<event>
 5    1  0.8274494E-003  0.6165773E+02  0.7546771E-02  0.1507435E+00
          1   -1    0    0  501    0 -0.00000000000E+00  0.00000000000E+00  0.26897869687E+03  0.26897869687E+03  0.00000000000E+00 0. -1.
          2   -1    0    0  502    0  0.00000000000E+00 -0.00000000000E+00 -0.19563046747E+03  0.19563046747E+03  0.00000000000E+00 0. -1.
         25    1    1    2    0    0  0.26330175706E+00 -0.55667327523E+02  0.30717153098E+02  0.14024073651E+03  0.12500000000E+03 0.  0.
          2    1    1    2  501    0  0.25781084169E+02  0.57159845142E+02  0.17685016554E+03  0.18763766479E+03  0.00000000000E+00 0. -1.
          1    1    1    2  502    0 -0.26044385926E+02 -0.14925176181E+01 -0.13421908924E+03  0.13673076305E+03  0.00000000000E+00 0. -1.
<mgrwt>
<rscale>  0 0.40105764E+02</rscale>
<asrwt>0</asrwt>
<pdfrwt beam="2">  1        2 0.30096995E-01 0.26087116E+02</pdfrwt>
<pdfrwt beam="1">  1        1 0.41381338E-01 0.61657727E+02</pdfrwt>
<totfact> 0.22317283E+03</totfact>
</mgrwt>
</event>
<event>
 5    1  0.8274494E-003  0.7352483E+02  0.7546771E-02  0.1405772E+00
          1   -1    0    0  501    0 -0.00000000000E+00  0.00000000000E+00  0.79993888169E+02  0.79993888169E+02  0.00000000000E+00 0. -1.
          2   -1    0    0  502    0  0.00000000000E+00 -0.00000000000E+00 -0.14846157751E+04  0.14846157751E+04  0.00000000000E+00 0. -1.
         25    1    1    2    0    0 -0.67600781451E+02  0.94624725612E+02 -0.30837272081E+03  0.35248040980E+03  0.12500000000E+03 0.  0.
          2    1    1    2  501    0  0.32693748478E+02 -0.32340932702E+02  0.47523110941E+02  0.66130652432E+02  0.00000000000E+00 0. -1.
          1    1    1    2  502    0  0.34907032973E+02 -0.62283792909E+02 -0.11437722771E+04  0.11459986010E+04  0.00000000000E+00 0. -1.
<mgrwt>
<rscale>  0 0.58148057E+02</rscale>
<asrwt>0</asrwt>
<pdfrwt beam="2">  1        2 0.22840242E+00 0.73524826E+02</pdfrwt>
<pdfrwt beam="1">  1        1 0.12306752E-01 0.45987141E+02</pdfrwt>
<totfact> 0.92290820E+02</totfact>
</mgrwt>
</event>
<event>
 5    1  0.8274494E-003  0.5181788E+02  0.7546771E-02  0.1463047E+00
         -1   -1    0    0    0  501 -0.00000000000E+00  0.00000000000E+00  0.21210920587E+03  0.21210920587E+03  0.00000000000E+00 0.  1.
          1   -1    0    0  502    0  0.00000000000E+00 -0.00000000000E+00 -0.13443092558E+04  0.13443092558E+04  0.00000000000E+00 0. -1.
         25    1    1    2    0    0 -0.46262580891E+02  0.12940208019E+02 -0.75324158953E+01  0.13412461617E+03  0.12500000000E+03 0.  0.
          2    1    1    2  502    0  0.42944837908E+02  0.29308233781E+02 -0.12699208700E+04  0.12709847551E+04  0.00000000000E+00 0. -1.
         -2    1    1    2    0  501  0.33177429832E+01 -0.42248441800E+02  0.14525323600E+03  0.15130909035E+03  0.00000000000E+00 0.  1.
<mgrwt>
<rscale>  0 0.46861120E+02</rscale>
<asrwt>0</asrwt>
<pdfrwt beam="2">  1        1 0.20681681E+00 0.51817878E+02</pdfrwt>
<pdfrwt beam="1">  1       -1 0.32632185E-01 0.42378512E+02</pdfrwt>
<totfact> 0.91331250E+01</totfact>
</mgrwt>
</event>
<event>
 5    1  0.8274494E-003  0.9795466E+02  0.7546771E-02  0.1340860E+00
          1   -1    0    0  502    0  0.00000000000E+00  0.00000000000E+00  0.72674260371E+03  0.72674260371E+03  0.00000000000E+00 0. -1.
         -1   -1    0    0    0  501 -0.00000000000E+00 -0.00000000000E+00 -0.86631598556E+03  0.86631598556E+03  0.00000000000E+00 0.  1.
         25    1    1    2    0    0 -0.10848960228E+03  0.10857033813E+03 -0.27413217619E+02  0.19983492344E+03  0.12500000000E+03 0.  0.
          2    1    1    2  502    0  0.59779341950E+02 -0.75392166980E+02  0.63575271074E+03  0.64299226883E+03  0.00000000000E+00 0. -1.
         -2    1    1    2    0  501  0.48710260334E+02 -0.33178171147E+02 -0.74791287497E+03  0.75023139701E+03  0.00000000000E+00 0.  1.
<mgrwt>
<rscale>  0 0.75980784E+02</rscale>
<asrwt>0</asrwt>
<pdfrwt beam="1">  1        1 0.11180656E+00 0.97954661E+02</pdfrwt>
<pdfrwt beam="2">  1       -1 0.13327938E+00 0.58936241E+02</pdfrwt>
<totfact> 0.15845803E+01</totfact>
</mgrwt>
</event>
<event>
 5    1  0.8274494E-003  0.5879588E+02  0.7546771E-02  0.1417884E+00
          1   -1    0    0  501    0 -0.00000000000E+00  0.00000000000E+00  0.29040938441E+02  0.29040938441E+02  0.00000000000E+00 0. -1.
          2   -1    0    0  502    0  0.00000000000E+00 -0.00000000000E+00 -0.45663995366E+04  0.45663995366E+04  0.00000000000E+00 0. -1.
         25    1    1    2    0    0  0.25549343129E+02  0.54626982437E+01 -0.21687017867E+04  0.21724582964E+04  0.12500000000E+03 0.  0.
          2    1    1    2  501    0  0.34949235971E+02 -0.38954027128E+02  0.97339565863E+00  0.52343221372E+02  0.00000000000E+00 0. -1.
          1    1    1    2  502    0 -0.60498579100E+02  0.33491328884E+02 -0.23696302071E+04  0.23706389573E+04  0.00000000000E+00 0. -1.
<mgrwt>
<rscale>  0 0.55471015E+02</rscale>
<asrwt>0</asrwt>
<pdfrwt beam="2">  1        2 0.70252246E+00 0.58795880E+02</pdfrwt>
<pdfrwt beam="1">  1        1 0.44678401E-02 0.52334170E+02</pdfrwt>
<totfact> 0.48673315E+01</totfact>
</mgrwt>
</event>
<event>
 5    1  0.8274494E-003  0.6524411E+02  0.7546771E-02  0.1494668E+00
          2   -1    0    0  502    0  0.00000000000E+00  0.00000000000E+00  0.45718487375E+03  0.45718487375E+03  0.00000000000E+00 0. -1.
          1   -1    0    0  501    0 -0.00000000000E+00 -0.00000000000E+00 -0.37883316368E+03  0.37883316368E+03  0.00000000000E+00 0. -1.
         25    1    1    2    0    0  0.36818373916E+02  0.14814736659E+02  0.16575543521E+03  0.21136445629E+03  0.12500000000E+03 0.  0.
          2    1    1    2  501    0 -0.63706567160E+02 -0.15901898593E+02 -0.35231377811E+03  0.35838023846E+03  0.00000000000E+00 0. -1.
          1    1    1    2  502    0  0.26888193244E+02  0.10871619342E+01  0.26491005297E+03  0.26627334268E+03  0.00000000000E+00 0. -1.
<mgrwt>
<rscale>  0 0.41901426E+02</rscale>
<asrwt>0</asrwt>
<pdfrwt beam="1">  1        2 0.70336134E-01 0.26910163E+02</pdfrwt>
<pdfrwt beam="2">  1        1 0.58282026E-01 0.65244107E+02</pdfrwt>
<totfact> 0.63211049E+02</totfact>
</mgrwt>
</event>
<event>
 5    1  0.8274494E-003  0.5372063E+02  0.7546771E-02  0.1442182E+00
          1   -1    0    0  501    0 -0.00000000000E+00  0.00000000000E+00  0.73065502634E+03  0.73065502634E+03  0.00000000000E+00 0. -1.
          2   -1    0    0  502    0  0.00000000000E+00 -0.00000000000E+00 -0.14055501191E+04  0.14055501191E+04  0.00000000000E+00 0. -1.
         25    1    1    2    0    0 -0.47168040477E+02 -0.85063335724E+02 -0.11756858539E+02  0.15882008327E+03  0.12500000000E+03 0.  0.
          2    1    1    2  501    0  0.36619007822E+02  0.38603046457E+02  0.65561544979E+03  0.65777105814E+03  0.00000000000E+00 0. -1.
          1    1    1    2  502    0  0.10549032655E+02  0.46460289267E+02 -0.13187536840E+04  0.13196140040E+04  0.00000000000E+00 0. -1.
<mgrwt>
<rscale>  0 0.50590548E+02</rscale>
<asrwt>0</asrwt>
<pdfrwt beam="2">  1        2 0.21623848E+00 0.47642844E+02</pdfrwt>
<pdfrwt beam="1">  1        1 0.11240847E+00 0.53720629E+02</pdfrwt>
<totfact> 0.68346847E+01</totfact>
</mgrwt>
</event>
<event>
 5    1  0.8274494E-003  0.3244720E+03  0.7546771E-02  0.1263861E+00
          2   -1    0    0  502    0  0.00000000000E+00  0.00000000000E+00  0.76671435483E+03  0.76671435483E+03  0.00000000000E+00 0. -1.
         -2   -1    0    0    0  501 -0.00000000000E+00 -0.00000000000E+00 -0.85474870840E+03  0.85474870840E+03  0.00000000000E+00 0.  1.
         25    1    1    2    0    0 -0.28520144106E+03 -0.73882534374E+02 -0.97225453731E+02  0.33447911702E+03  0.12500000000E+03 0.  0.
          1    1    1    2  502    0  0.32115767326E+03  0.77198637991E+02  0.60541972703E+03  0.68966290801E+03  0.00000000000E+00 0. -1.
         -1    1    1    2    0  501 -0.35956232197E+02 -0.33161036172E+01 -0.59622862687E+03  0.59732103820E+03  0.00000000000E+00 0.  1.
<mgrwt>
<rscale>  0 0.10824187E+03</rscale>
<asrwt>0</asrwt>
<pdfrwt beam="1">  1        2 0.11795606E+00 0.32447201E+03</pdfrwt>
<pdfrwt beam="2">  1       -2 0.13149980E+00 0.36108824E+02</pdfrwt>
<totfact> 0.18138857E+01</totfact>
</mgrwt>
</event>
<event>
 5    1  0.8274494E-003  0.6355396E+02  0.7546771E-02  0.1514287E+00
          2   -1    0    0  502    0  0.00000000000E+00  0.00000000000E+00  0.59753319455E+03  0.59753319455E+03  0.00000000000E+00 0. -1.
          1   -1    0    0  501    0 -0.00000000000E+00 -0.00000000000E+00 -0.98797244270E+03  0.98797244270E+03  0.00000000000E+00 0. -1.
         25    1    1    2    0    0  0.82162296612E+02 -0.24139393792E+02  0.16506831372E+03  0.22406673451E+03  0.12500000000E+03 0.  0.
          2    1    1    2  501    0 -0.22031967552E+02  0.99181195105E+01 -0.95595106323E+03  0.95625635265E+03  0.00000000000E+00 0. -1.
          1    1    1    2  502    0 -0.60130329060E+02  0.14221274282E+02  0.40044350136E+03  0.40518255009E+03  0.00000000000E+00 0. -1.
<mgrwt>
<rscale>  0 0.39186187E+02</rscale>
<asrwt>0</asrwt>
<pdfrwt beam="1">  1        2 0.91928184E-01 0.63553963E+02</pdfrwt>
<pdfrwt beam="2">  1        1 0.15199576E+00 0.24161471E+02</pdfrwt>
<totfact> 0.13726480E+02</totfact>
</mgrwt>
</event>
<event>
 5    1  0.1364038E-002  0.5531673E+02  0.7546771E-02  0.1466754E+00
         -2   -1    0    0    0  501 -0.00000000000E+00  0.00000000000E+00  0.18369396975E+02  0.18369396975E+02  0.00000000000E+00 0. -1.
          2   -1    0    0  502    0  0.00000000000E+00 -0.00000000000E+00 -0.83634857866E+03  0.83634857866E+03  0.00000000000E+00 0.  1.
         25    1    1    2    0    0 -0.47520318381E+02 -0.22598382228E+02 -0.57144612675E+03  0.58731979647E+03  0.12500000000E+03 0.  0.
          3    1    1    2  502    0 -0.82586155770E+01  0.37757759070E+02 -0.14984786767E+03  0.15475217784E+03  0.00000000000E+00 0. -1.
         -3    1    1    2    0  501  0.55778933958E+02 -0.15159376843E+02 -0.96685187264E+02  0.11264600133E+03  0.00000000000E+00 0.  1.
<mgrwt>
<rscale>  0 0.46238659E+02</rscale>
<asrwt>0</asrwt>
<pdfrwt beam="2">  1        2 0.12866903E+00 0.38650396E+02</pdfrwt>
<pdfrwt beam="1">  1       -2 0.28260606E-02 0.55316731E+02</pdfrwt>
<totfact> 0.13952384E+04</totfact>
</mgrwt>
</event>
<event>
 5    1  0.8274494E-003  0.3751750E+02  0.7546771E-02  0.1545015E+00
          1   -1    0    0  501    0 -0.00000000000E+00  0.00000000000E+00  0.62659524353E+03  0.62659524353E+03  0.00000000000E+00 0. -1.
          2   -1    0    0  502    0  0.00000000000E+00 -0.00000000000E+00 -0.26646529181E+03  0.26646529181E+03  0.00000000000E+00 0. -1.
         25    1    1    2    0    0  0.36696633224E+02 -0.43987951391E+02 -0.44249852780E+02  0.14444594916E+03  0.12500000000E+03 0.  0.
          2    1    1    2  501    0 -0.11529420606E+01  0.33395566576E+02  0.57400764955E+03  0.57497945605E+03  0.00000000000E+00 0. -1.
          1    1    1    2  502    0 -0.35543691163E+02  0.10592384815E+02 -0.16962784505E+03  0.17363513013E+03  0.00000000000E+00 0. -1.
<mgrwt>
<rscale>  0 0.35407127E+02</rscale>
<asrwt>0</asrwt>
<pdfrwt beam="2">  1        2 0.40994660E-01 0.37517500E+02</pdfrwt>
<pdfrwt beam="1">  1        1 0.96399268E-01 0.33415463E+02</pdfrwt>
<totfact> 0.58977603E+02</totfact>
</mgrwt>
</event>
<event>
 5    1  0.8274494E-003  0.4905028E+02  0.7546771E-02  0.1569147E+00
          2   -1    0    0  502    0  0.00000000000E+00  0.00000000000E+00  0.19291054124E+04  0.19291054124E+04  0.00000000000E+00 0. -1.
          1   -1    0    0  501    0 -0.00000000000E+00 -0.00000000000E+00 -0.69466103953E+03  0.69466103953E+03  0.00000000000E+00 0. -1.
         25    1    1    2    0    0 -0.33292193675E+01 -0.54936139379E+02  0.54418659546E+02  0.14702194944E+03  0.12500000000E+03 0.  0.
          2    1    1    2  501    0 -0.18845355266E+02  0.11196213543E+02 -0.64784516343E+03  0.64821590415E+03  0.00000000000E+00 0. -1.
          1    1    1    2  502    0  0.22174574634E+02  0.43739925836E+02  0.18278708767E+04  0.18285285983E+04  0.00000000000E+00 0. -1.
<mgrwt>
<rscale>  0 0.32790247E+02</rscale>
<asrwt>0</asrwt>
<pdfrwt beam="1">  1        2 0.29678545E+00 0.49050280E+02</pdfrwt>
<pdfrwt beam="2">  1        1 0.10687093E+00 0.21920370E+02</pdfrwt>
<totfact> 0.42089286E+01</totfact>
</mgrwt>
</event>
<event>
 5    1  0.8274494E-003  0.1532382E+03  0.7546771E-02  0.1255619E+00
          1   -1    0    0  502    0  0.00000000000E+00  0.00000000000E+00  0.96485076425E+03  0.96485076425E+03  0.00000000000E+00 0. -1.
         -1   -1    0    0    0  501 -0.00000000000E+00 -0.00000000000E+00 -0.54119447258E+03  0.54119447258E+03  0.00000000000E+00 0.  1.
         25    1    1    2    0    0  0.58577522540E+02 -0.12089711872E+03 -0.42527751218E+02  0.18836413960E+03  0.12500000000E+03 0.  0.
          2    1    1    2  502    0 -0.73124831187E+02 -0.39077934129E+02  0.87475029627E+03  0.87867081817E+03  0.00000000000E+00 0. -1.
         -2    1    1    2    0  501  0.14547308648E+02  0.15997505285E+03 -0.40856625338E+03  0.43901027907E+03  0.00000000000E+00 0.  1.
<mgrwt>
<rscale>  0 0.11271743E+03</rscale>
<asrwt>0</asrwt>
<pdfrwt beam="1">  1        1 0.14843858E+00 0.82911555E+02</pdfrwt>
<pdfrwt beam="2">  1       -1 0.83260688E-01 0.15323822E+03</pdfrwt>
<totfact> 0.28388852E+01</totfact>
</mgrwt>
</event>
<event>
 5    1  0.8274494E-003  0.7629663E+02  0.7546771E-02  0.1421067E+00
          1   -1    0    0  501    0 -0.00000000000E+00  0.00000000000E+00  0.13319777522E+03  0.13319777522E+03  0.00000000000E+00 0. -1.
          2   -1    0    0  502    0  0.00000000000E+00 -0.00000000000E+00 -0.47412503644E+03  0.47412503644E+03  0.00000000000E+00 0. -1.
         25    1    1    2    0    0  0.79502828749E+02 -0.40540205313E+02 -0.86132469889E+02  0.17609091514E+03  0.12500000000E+03 0.  0.
          2    1    1    2  501    0 -0.36704398882E+01  0.39182384514E+02  0.79357853153E+02  0.88579908796E+02  0.00000000000E+00 0. -1.
          1    1    1    2  502    0 -0.75832388860E+02  0.13578207992E+01 -0.33415264448E+03  0.34265198773E+03  0.00000000000E+00 0. -1.
<mgrwt>
<rscale>  0 0.54795730E+02</rscale>
<asrwt>0</asrwt>
<pdfrwt beam="2">  1        2 0.72942314E-01 0.76296634E+02</pdfrwt>
<pdfrwt beam="1">  1        1 0.20491965E-01 0.39353925E+02</pdfrwt>
<totfact> 0.21063986E+03</totfact>
</mgrwt>
</event>
<event>
 5    1  0.8274494E-003  0.5640261E+02  0.7546771E-02  0.1432932E+00
          2   -1    0    0  502    0  0.00000000000E+00  0.00000000000E+00  0.13601629835E+03  0.13601629835E+03  0.00000000000E+00 0. -1.
         -2   -1    0    0    0  501 -0.00000000000E+00 -0.00000000000E+00 -0.20681279559E+03  0.20681279559E+03  0.00000000000E+00 0.  1.
         25    1    1    2    0    0  0.27059867616E+02 -0.38218058985E+02  0.58489785191E+01  0.13361162755E+03  0.12500000000E+03 0.  0.
          1    1    1    2  502    0  0.31883177953E+02  0.36728642123E+02  0.49855771118E+02  0.69650040217E+02  0.00000000000E+00 0. -1.
         -1    1    1    2    0  501 -0.58943045569E+02  0.14894168622E+01 -0.12650124688E+03  0.13956742617E+03  0.00000000000E+00 0.  1.
<mgrwt>
<rscale>  0 0.52375927E+02</rscale>
<asrwt>0</asrwt>
<pdfrwt beam="1">  1        2 0.20925584E-01 0.48636716E+02</pdfrwt>
<pdfrwt beam="2">  1       -2 0.31817353E-01 0.56402610E+02</pdfrwt>
<totfact> 0.22130088E+03</totfact>
</mgrwt>
</event>
<event>
 5    1  0.8274494E-003  0.1108425E+03  0.7546771E-02  0.1452825E+00
          2   -1    0    0  502    0  0.00000000000E+00  0.00000000000E+00  0.13041852006E+04  0.13041852006E+04  0.00000000000E+00 0. -1.
         -2   -1    0    0    0  501 -0.00000000000E+00 -0.00000000000E+00 -0.63129951517E+03  0.63129951517E+03  0.00000000000E+00 0.  1.
         25    1    1    2    0    0  0.30852428256E+02 -0.11674922413E+03  0.72724871245E+03  0.74772852254E+03  0.12500000000E+03 0.  0.
          1    1    1    2  502    0 -0.20341336399E+02  0.64622068834E+01  0.56155161081E+03  0.56195706392E+03  0.00000000000E+00 0. -1.
         -1    1    1    2    0  501 -0.10511091857E+02  0.11028701725E+03 -0.61591463780E+03  0.62579912934E+03  0.00000000000E+00 0.  1.
<mgrwt>
<rscale>  0 0.48638757E+02</rscale>
<asrwt>0</asrwt>
<pdfrwt beam="1">  1        2 0.20064388E+00 0.21343151E+02</pdfrwt>
<pdfrwt beam="2">  1       -2 0.97123003E-01 0.11084252E+03</pdfrwt>
<totfact> 0.20066662E+01</totfact>
</mgrwt>
</event>
<event>
 5    1  0.8274494E-003  0.1040883E+03  0.7546771E-02  0.1369522E+00
          1   -1    0    0  501    0 -0.00000000000E+00  0.00000000000E+00  0.34907858079E+03  0.34907858079E+03  0.00000000000E+00 0. -1.
          2   -1    0    0  502    0  0.00000000000E+00 -0.00000000000E+00 -0.27350721898E+03  0.27350721898E+03  0.00000000000E+00 0. -1.
         25    1    1    2    0    0  0.12194860171E+03 -0.19214758660E+02  0.50576222918E+02  0.18282128633E+03  0.12500000000E+03 0.  0.
          2    1    1    2  501    0 -0.10010129090E+03 -0.18417368992E+02  0.21870423489E+03  0.24122812913E+03  0.00000000000E+00 0. -1.
          1    1    1    2  502    0 -0.21847310807E+02  0.37632127651E+02 -0.19370909600E+03  0.19853638431E+03  0.00000000000E+00 0. -1.
<mgrwt>
<rscale>  0 0.67300195E+02</rscale>
<asrwt>0</asrwt>
<pdfrwt beam="2">  1        2 0.42078033E-01 0.43514159E+02</pdfrwt>
<pdfrwt beam="1">  1        1 0.53704397E-01 0.10408833E+03</pdfrwt>
<totfact> 0.11725804E+03</totfact>
</mgrwt>
</event>
<event>
 5    1  0.8274494E-003  0.1037463E+03  0.7546771E-02  0.1295989E+00
          1   -1    0    0  501    0 -0.00000000000E+00  0.00000000000E+00  0.67842674950E+03  0.67842674950E+03  0.00000000000E+00 0. -1.
          2   -1    0    0  502    0  0.00000000000E+00 -0.00000000000E+00 -0.41393080154E+03  0.41393080154E+03  0.00000000000E+00 0. -1.
         25    1    1    2    0    0 -0.74858578080E+02 -0.10096292329E+03  0.75778982838E+01  0.17742531706E+03  0.12500000000E+03 0.  0.
          2    1    1    2  501    0  0.83123210780E+02 -0.30243201932E+01  0.57458598272E+03  0.58057528902E+03  0.00000000000E+00 0. -1.
          1    1    1    2  502    0 -0.82646327000E+01  0.10398724348E+03 -0.31766793305E+03  0.33435694496E+03  0.00000000000E+00 0. -1.
<mgrwt>
<rscale>  0 0.92894717E+02</rscale>
<asrwt>0</asrwt>
<pdfrwt beam="2">  1        2 0.63681662E-01 0.10374626E+03</pdfrwt>
<pdfrwt beam="1">  1        1 0.10437335E+00 0.83178210E+02</pdfrwt>
<totfact> 0.32707517E+02</totfact>
</mgrwt>
</event>
<event>
 5    1  0.8274494E-003  0.8093636E+02  0.7546771E-02  0.1418156E+00
          1   -1    0    0  501    0 -0.00000000000E+00  0.00000000000E+00  0.43811336075E+03  0.43811336075E+03  0.00000000000E+00 0. -1.
          2   -1    0    0  502    0  0.00000000000E+00 -0.00000000000E+00 -0.60793439215E+03  0.60793439215E+03  0.00000000000E+00 0. -1.
         25    1    1    2    0    0 -0.38539242782E+02 -0.10281119147E+03  0.11335189922E+03  0.20131832351E+03  0.12500000000E+03 0.  0.
          2    1    1    2  501    0  0.10807483744E+02  0.76921770820E+02  0.27474934181E+03  0.28551875832E+03  0.00000000000E+00 0. -1.
          1    1    1    2  502    0  0.27731759039E+02  0.25889420646E+02 -0.55792227243E+03  0.55921067106E+03  0.00000000000E+00 0. -1.
<mgrwt>
<rscale>  0 0.55412865E+02</rscale>
<asrwt>0</asrwt>
<pdfrwt beam="2">  1        2 0.93528367E-01 0.37938273E+02</pdfrwt>
<pdfrwt beam="1">  1        1 0.67402056E-01 0.80936356E+02</pdfrwt>
<totfact> 0.39015513E+02</totfact>
</mgrwt>
</event>
<event>
 5    1  0.8274494E-003  0.5433858E+02  0.7546771E-02  0.1441288E+00
          2   -1    0    0  502    0  0.00000000000E+00  0.00000000000E+00  0.43762892908E+03  0.43762892908E+03  0.00000000000E+00 0. -1.
          1   -1    0    0  501    0 -0.00000000000E+00 -0.00000000000E+00 -0.14578935002E+03  0.14578935002E+03  0.00000000000E+00 0. -1.
         25    1    1    2    0    0  0.62081417020E+02  0.48354085675E+02  0.10777910403E+03  0.18284844874E+03  0.12500000000E+03 0.  0.
          2    1    1    2  501    0 -0.84697771740E+01 -0.46653495637E+02 -0.10043332073E+03  0.11106366505E+03  0.00000000000E+00 0. -1.
          3    1    1    2  502    0 -0.53611639846E+02 -0.17005900385E+01  0.28449379576E+03  0.28950616532E+03  0.00000000000E+00 0. -1.
<mgrwt>
<rscale>  0 0.50759465E+02</rscale>
<asrwt>0</asrwt>
<pdfrwt beam="1">  1        2 0.67327527E-01 0.54338584E+02</pdfrwt>
<pdfrwt beam="2">  1        1 0.22429131E-01 0.47416092E+02</pdfrwt>
<totfact> 0.20750471E+03</totfact>
</mgrwt>
</event>
<event>
 5    1  0.8274494E-003  0.6811263E+02  0.7546771E-02  0.1367123E+00
          1   -1    0    0  501    0 -0.00000000000E+00  0.00000000000E+00  0.20765563387E+04  0.20765563387E+04  0.00000000000E+00 0. -1.
          2   -1    0    0  502    0  0.00000000000E+00 -0.00000000000E+00 -0.27781081505E+02  0.27781081505E+02  0.00000000000E+00 0. -1.
         25    1    1    2    0    0 -0.53535927458E+02 -0.86152309333E+01  0.51417557535E+03  0.53192277637E+03  0.12500000000E+03 0.  0.
          2    1    1    2  501    0  0.30017475787E+02 -0.61141492705E+02  0.14779687428E+04  0.14795374059E+04  0.00000000000E+00 0. -1.
          1    1    1    2  502    0  0.23518451671E+02  0.69756723638E+02  0.56630939127E+02  0.92877237944E+02  0.00000000000E+00 0. -1.
<mgrwt>
<rscale>  0 0.67973558E+02</rscale>
<asrwt>0</asrwt>
<pdfrwt beam="2">  1        2 0.42740142E-02 0.67834765E+02</pdfrwt>
<pdfrwt beam="1">  1        1 0.31947008E+00 0.68112635E+02</pdfrwt>
<totfact> 0.82702046E+02</totfact>
</mgrwt>
</event>
<event>
 5    1  0.8274494E-003  0.7590158E+02  0.7546771E-02  0.1453408E+00
          1   -1    0    0  501    0 -0.00000000000E+00  0.00000000000E+00  0.12375753039E+03  0.12375753039E+03  0.00000000000E+00 0. -1.
          2   -1    0    0  502    0  0.00000000000E+00 -0.00000000000E+00 -0.69127645218E+03  0.69127645218E+03  0.00000000000E+00 0. -1.
         25    1    1    2    0    0 -0.47265663195E+02  0.44710595369E+02 -0.98138033385E+02  0.17172406311E+03  0.12500000000E+03 0.  0.
          2    1    1    2  501    0  0.72968104545E+02 -0.27315845851E+02  0.68976376131E+02  0.10405883038E+03  0.00000000000E+00 0. -1.
          1    1    1    2  502    0 -0.25702441350E+02 -0.17394749518E+02 -0.53835726454E+03  0.53925108909E+03  0.00000000000E+00 0. -1.
<mgrwt>
<rscale>  0 0.48534854E+02</rscale>
<asrwt>0</asrwt>
<pdfrwt beam="2">  1        2 0.10635022E+00 0.31035348E+02</pdfrwt>
<pdfrwt beam="1">  1        1 0.19039621E-01 0.75901585E+02</pdfrwt>
<totfact> 0.16069037E+03</totfact>
</mgrwt>
</event>
<event>
 5    1  0.8274494E-003  0.9563394E+02  0.7546771E-02  0.1357845E+00
         -3   -1    0    0    0  501 -0.00000000000E+00  0.00000000000E+00  0.56208138936E+03  0.56208138936E+03  0.00000000000E+00 0.  1.
          1   -1    0    0  502    0  0.00000000000E+00 -0.00000000000E+00 -0.92303960064E+02  0.92303960064E+02  0.00000000000E+00 0. -1.
         25    1    1    2    0    0 -0.11238959582E+03 -0.47020528243E+02  0.25631306838E+03  0.31010278997E+03  0.12500000000E+03 0.  0.
          2    1    1    2  502    0  0.49240044682E+02 -0.17375044814E+02 -0.46000852739E+02  0.69588451882E+02  0.00000000000E+00 0. -1.
         -2    1    1    2    0  501  0.63149551135E+02  0.64395573057E+02  0.25946521365E+03  0.27469410757E+03  0.00000000000E+00 0.  1.
<mgrwt>
<rscale>  0 0.70665325E+02</rscale>
<asrwt>0</asrwt>
<pdfrwt beam="2">  1        1 0.14200610E-01 0.52215651E+02</pdfrwt>
<pdfrwt beam="1">  1       -3 0.86474058E-01 0.95633936E+02</pdfrwt>
<totfact> 0.24668689E+02</totfact>
</mgrwt>
</event>
<event>
 5    1  0.8274494E-003  0.9120127E+02  0.7546771E-02  0.1325558E+00
          2   -1    0    0  502    0  0.00000000000E+00  0.00000000000E+00  0.16654603750E+04  0.16654603750E+04  0.00000000000E+00 0. -1.
         -2   -1    0    0    0  501 -0.00000000000E+00 -0.00000000000E+00 -0.44823345575E+03  0.44823345575E+03  0.00000000000E+00 0.  1.
         25    1    1    2    0    0  0.56656671614E+02  0.44739279770E+02 -0.86000026620E+02  0.16802555214E+03  0.12500000000E+03 0.  0.
          1    1    1    2  502    0  0.40708006085E+02 -0.59839718835E+02  0.16160631495E+04  0.16176829222E+04  0.00000000000E+00 0. -1.
         -1    1    1    2    0  501 -0.97364677699E+02  0.15100439065E+02 -0.31283620361E+03  0.32798535640E+03  0.00000000000E+00 0.  1.
<mgrwt>
<rscale>  0 0.81243841E+02</rscale>
<asrwt>0</asrwt>
<pdfrwt beam="1">  1        2 0.25622467E+00 0.72373571E+02</pdfrwt>
<pdfrwt beam="2">  1       -2 0.68958994E-01 0.91201271E+02</pdfrwt>
<totfact> 0.25448725E+01</totfact>
</mgrwt>
</event>
<event>
 5    1  0.8274494E-003  0.3461900E+03  0.7546771E-02  0.1134245E+00
          1   -1    0    0  501    0 -0.00000000000E+00  0.00000000000E+00  0.18649932325E+04  0.18649932325E+04  0.00000000000E+00 0. -1.
          2   -1    0    0  502    0  0.00000000000E+00 -0.00000000000E+00 -0.18606219011E+04  0.18606219011E+04  0.00000000000E+00 0. -1.
         25    1    1    2    0    0  0.81541540992E+02  0.24911894601E+03 -0.27669767903E+03  0.40111828399E+03  0.12500000000E+03 0.  0.
          2    1    1    2  501    0 -0.49566705427E+02  0.13006727087E+03  0.17762278483E+04  0.17816732928E+04  0.00000000000E+00 0. -1.
          1    1    1    2  502    0 -0.31974835564E+02 -0.37918621688E+03 -0.14951588378E+04  0.15428235568E+04  0.00000000000E+00 0. -1.
<mgrwt>
<rscale>  0 0.21951492E+03</rscale>
<asrwt>0</asrwt>
<pdfrwt beam="2">  1        2 0.28624952E+00 0.34618997E+03</pdfrwt>
<pdfrwt beam="1">  1        1 0.28692204E+00 0.13919179E+03</pdfrwt>
<totfact> 0.52711577E+00</totfact>
</mgrwt>
</event>
<event>
 5    1  0.8274494E-003  0.8840314E+02  0.7546771E-02  0.1368350E+00
          1   -1    0    0  501    0 -0.00000000000E+00  0.00000000000E+00  0.60826878133E+03  0.60826878133E+03  0.00000000000E+00 0. -1.
          2   -1    0    0  502    0  0.00000000000E+00 -0.00000000000E+00 -0.42439092079E+02  0.42439092079E+02  0.00000000000E+00 0. -1.
         25    1    1    2    0    0 -0.24681616311E+01  0.12967325821E+03  0.35820383441E+03  0.40094417655E+03  0.12500000000E+03 0.  0.
          2    1    1    2  501    0 -0.19052662346E+01 -0.51700266476E+02  0.12880154415E+03  0.13880340547E+03  0.00000000000E+00 0. -1.
          1    1    1    2  502    0  0.43734278657E+01 -0.77972991738E+02  0.78824310686E+02  0.11096029140E+03  0.00000000000E+00 0. -1.
<mgrwt>
<rscale>  0 0.67628161E+02</rscale>
<asrwt>0</asrwt>
<pdfrwt beam="2">  1        2 0.65290915E-02 0.88403136E+02</pdfrwt>
<pdfrwt beam="1">  1        1 0.93579806E-01 0.51735361E+02</pdfrwt>
<totfact> 0.50280863E+03</totfact>
</mgrwt>
</event>
<event>
 5    1  0.8274494E-003  0.4682889E+02  0.7546771E-02  0.1519035E+00
          1   -1    0    0  502    0  0.00000000000E+00  0.00000000000E+00  0.19147515643E+04  0.19147515643E+04  0.00000000000E+00 0. -1.
         -1   -1    0    0    0  501 -0.00000000000E+00 -0.00000000000E+00 -0.11047428771E+03  0.11047428771E+03  0.00000000000E+00 0.  1.
         25    1    1    2    0    0 -0.32978662027E+02 -0.58019213485E+01  0.11418328828E+04  0.11491425441E+04  0.12500000000E+03 0.  0.
          2    1    1    2  502    0  0.44372804363E+01 -0.31449989858E+02  0.76376352024E+03  0.76442364313E+03  0.00000000000E+00 0. -1.
         -2    1    1    2    0  501  0.28541381591E+02  0.37251911207E+02 -0.10131912645E+03  0.11165966477E+03  0.00000000000E+00 0.  1.
<mgrwt>
<rscale>  0 0.38566239E+02</rscale>
<asrwt>0</asrwt>
<pdfrwt beam="1">  1        1 0.29457714E+00 0.31761475E+02</pdfrwt>
<pdfrwt beam="2">  1       -1 0.16996046E-01 0.46828894E+02</pdfrwt>
<totfact> 0.12196045E+02</totfact>
</mgrwt>
</event>
<event>
 5    1  0.8274494E-003  0.1346224E+03  0.7546771E-02  0.1227278E+00
          2   -1    0    0  502    0  0.00000000000E+00  0.00000000000E+00  0.68401681296E+03  0.68401681296E+03  0.00000000000E+00 0. -1.
          1   -1    0    0  501    0 -0.00000000000E+00 -0.00000000000E+00 -0.19480488561E+04  0.19480488561E+04  0.00000000000E+00 0. -1.
         25    1    1    2    0    0  0.12817329273E+03 -0.10524231977E+03 -0.18312876883E+03  0.27688532791E+03  0.12500000000E+03 0.  0.
          2    1    1    2  501    0  0.55940104649E+01  0.12564357028E+03 -0.17085198309E+04  0.17131426129E+04  0.00000000000E+00 0. -1.
          1    1    1    2  502    0 -0.13376730319E+03 -0.20401250519E+02  0.62761655655E+03  0.64203772824E+03  0.00000000000E+00 0. -1.
<mgrwt>
<rscale>  0 0.13011994E+03</rscale>
<asrwt>0</asrwt>
<pdfrwt beam="1">  1        2 0.10523336E+00 0.13462242E+03</pdfrwt>
<pdfrwt beam="2">  1        1 0.29969982E+00 0.12576804E+03</pdfrwt>
<totfact> 0.24062806E+01</totfact>
</mgrwt>
</event>
<event>
 5    1  0.8274494E-003  0.5619418E+02  0.7546771E-02  0.1438784E+00
          1   -1    0    0  501    0 -0.00000000000E+00  0.00000000000E+00  0.26545736143E+03  0.26545736143E+03  0.00000000000E+00 0. -1.
          2   -1    0    0  502    0  0.00000000000E+00 -0.00000000000E+00 -0.73376358280E+03  0.73376358280E+03  0.00000000000E+00 0. -1.
         25    1    1    2    0    0 -0.31147095085E+02  0.92590607653E+02  0.89992351816E+02  0.18239184615E+03  0.12500000000E+03 0.  0.
          2    1    1    2  501    0  0.28828109464E+02 -0.36760492523E+02  0.12386448228E+03  0.13238128144E+03  0.00000000000E+00 0. -1.
          1    1    1    2  502    0  0.23189856205E+01 -0.55830115130E+02 -0.68216305547E+03  0.68444781663E+03  0.00000000000E+00 0. -1.
<mgrwt>
<rscale>  0 0.51236442E+02</rscale>
<asrwt>0</asrwt>
<pdfrwt beam="2">  1        2 0.11288670E+00 0.56194185E+02</pdfrwt>
<pdfrwt beam="1">  1        1 0.40839594E-01 0.46716097E+02</pdfrwt>
<totfact> 0.57570538E+02</totfact>
</mgrwt>
</event>
<event>
 5    1  0.8274494E-003  0.4220729E+02  0.7546771E-02  0.1543947E+00
          2   -1    0    0  502    0  0.00000000000E+00  0.00000000000E+00  0.42380970550E+03  0.42380970550E+03  0.00000000000E+00 0. -1.
         -2   -1    0    0    0  501 -0.00000000000E+00 -0.00000000000E+00 -0.12644278702E+03  0.12644278702E+03  0.00000000000E+00 0.  1.
         25    1    1    2    0    0 -0.14732269584E+02  0.47739639017E+02  0.31742151768E+03  0.34478621316E+03  0.12500000000E+03 0.  0.
          1    1    1    2  502    0  0.33888611890E+02 -0.24771281839E+02  0.85772899959E+02  0.95493689776E+02  0.00000000000E+00 0. -1.
         -1    1    1    2    0  501 -0.19156342306E+02 -0.22968357178E+02 -0.10582749916E+03  0.10997258958E+03  0.00000000000E+00 0.  1.
<mgrwt>
<rscale>  0 0.35529585E+02</rscale>
<asrwt>0</asrwt>
<pdfrwt beam="1">  1        2 0.65201492E-01 0.42207289E+02</pdfrwt>
<pdfrwt beam="2">  1       -2 0.19452737E-01 0.29908375E+02</pdfrwt>
<totfact> 0.15232865E+03</totfact>
</mgrwt>
</event>
<event>
 5    1  0.8274494E-003  0.4767012E+02  0.7546771E-02  0.1490581E+00
          2   -1    0    0  502    0  0.00000000000E+00  0.00000000000E+00  0.15757147050E+03  0.15757147050E+03  0.00000000000E+00 0. -1.
          1   -1    0    0  501    0 -0.00000000000E+00 -0.00000000000E+00 -0.69426531105E+03  0.69426531105E+03  0.00000000000E+00 0. -1.
         25    1    1    2    0    0 -0.14472699894E+02  0.78559030652E+02 -0.19702133913E+03  0.24662398183E+03  0.12500000000E+03 0.  0.
          2    1    1    2  501    0  0.20564637921E+02 -0.31824327603E+02 -0.46746932039E+03  0.46900240689E+03  0.00000000000E+00 0. -1.
          1    1    1    2  502    0 -0.60919380266E+01 -0.46734703048E+02  0.12779681897E+03  0.13621039284E+03  0.00000000000E+00 0. -1.
<mgrwt>
<rscale>  0 0.42499954E+02</rscale>
<asrwt>0</asrwt>
<pdfrwt beam="1">  1        2 0.24241765E-01 0.47670122E+02</pdfrwt>
<pdfrwt beam="2">  1        1 0.10681005E+00 0.37890529E+02</pdfrwt>
<totfact> 0.89001759E+02</totfact>
</mgrwt>
</event>
<event>
 5    1  0.8274494E-003  0.9161717E+02  0.7546771E-02  0.1389422E+00
          1   -1    0    0  501    0 -0.00000000000E+00  0.00000000000E+00  0.40840983026E+03  0.40840983026E+03  0.00000000000E+00 0. -1.
          2   -1    0    0  502    0  0.00000000000E+00 -0.00000000000E+00 -0.26102375301E+04  0.26102375301E+04  0.00000000000E+00 0. -1.
         25    1    1    2    0    0  0.45443323006E+02 -0.32542393299E+02 -0.32290923291E+03  0.35074132301E+03  0.12500000000E+03 0.  0.
          2    1    1    2  501    0 -0.56116755889E+02  0.73190315412E+02  0.38890604405E+03  0.39969216112E+03  0.00000000000E+00 0. -1.
          1    1    1    2  502    0  0.10673432884E+02 -0.40647922114E+02 -0.22678245110E+04  0.22682138762E+04  0.00000000000E+00 0. -1.
<mgrwt>
<rscale>  0 0.62050732E+02</rscale>
<asrwt>0</asrwt>
<pdfrwt beam="2">  1        2 0.40157501E+00 0.42025894E+02</pdfrwt>
<pdfrwt beam="1">  1        1 0.62832281E-01 0.91617167E+02</pdfrwt>
<totfact> 0.37251022E+01</totfact>
</mgrwt>
</event>
<event>
 5    1  0.8274494E-003  0.1096015E+03  0.7546771E-02  0.1282353E+00
          1   -1    0    0  501    0 -0.00000000000E+00  0.00000000000E+00  0.93934056547E+03  0.93934056547E+03  0.00000000000E+00 0. -1.
          2   -1    0    0  502    0  0.00000000000E+00 -0.00000000000E+00 -0.24112535461E+03  0.24112535461E+03  0.00000000000E+00 0. -1.
         25    1    1    2    0    0 -0.61017874460E+02 -0.13655352757E+03  0.16721328593E+03  0.25681769777E+03  0.12500000000E+03 0.  0.
          2    1    1    2  501    0  0.94221065942E+02  0.53467937106E+02  0.71282083095E+03  0.72100621815E+03  0.00000000000E+00 0. -1.
          1    1    1    2  502    0 -0.33203191482E+02  0.83085590459E+02 -0.18181890602E+03  0.20264200417E+03  0.00000000000E+00 0. -1.
<mgrwt>
<rscale>  0 0.99027916E+02</rscale>
<asrwt>0</asrwt>
<pdfrwt beam="2">  1        2 0.37096209E-01 0.89474394E+02</pdfrwt>
<pdfrwt beam="1">  1        1 0.14451393E+00 0.10960150E+03</pdfrwt>
<totfact> 0.35028549E+02</totfact>
</mgrwt>
</event>
<event>
 5    1  0.8274494E-003  0.8372140E+02  0.7546771E-02  0.1348207E+00
          2   -1    0    0  502    0  0.00000000000E+00  0.00000000000E+00  0.33444105922E+03  0.33444105922E+03  0.00000000000E+00 0. -1.
          1   -1    0    0  501    0 -0.00000000000E+00 -0.00000000000E+00 -0.57099396267E+03  0.57099396267E+03  0.00000000000E+00 0. -1.
         25    1    1    2    0    0 -0.21764882050E+02 -0.23170869406E+02 -0.26854059395E+03  0.29790879457E+03  0.12500000000E+03 0.  0.
          2    1    1    2  501    0 -0.39348186699E+02  0.80393820624E+02 -0.27506649669E+03  0.28926289737E+03  0.00000000000E+00 0. -1.
          3    1    1    2  502    0  0.61113068750E+02 -0.57222951217E+02  0.30705418720E+03  0.31826332995E+03  0.00000000000E+00 0. -1.
<mgrwt>
<rscale>  0 0.73617200E+02</rscale>
<asrwt>0</asrwt>
<pdfrwt beam="1">  1        2 0.51452471E-01 0.83721403E+02</pdfrwt>
<pdfrwt beam="2">  1        1 0.87845224E-01 0.64732457E+02</pdfrwt>
<totfact> 0.52050516E+02</totfact>
</mgrwt>
</event>
<event>
 5    1  0.8274494E-003  0.6320445E+02  0.7546771E-02  0.1401591E+00
         -1   -1    0    0    0  502 -0.00000000000E+00  0.00000000000E+00  0.77539536736E+03  0.77539536736E+03  0.00000000000E+00 0.  1.
         -2   -1    0    0    0  501  0.00000000000E+00 -0.00000000000E+00 -0.76740830616E+03  0.76740830616E+03  0.00000000000E+00 0.  1.
         25    1    1    2    0    0  0.20121860026E+01 -0.31174709972E+02  0.24239595952E+03  0.27451177138E+03  0.12500000000E+03 0.  0.
         -2    1    1    2    0  502 -0.56536706242E+02  0.40324043783E+02  0.51358447824E+03  0.51825808624E+03  0.00000000000E+00 0.  1.
         -1    1    1    2    0  501  0.54524520240E+02 -0.91493338113E+01 -0.74799337656E+03  0.75003381590E+03  0.00000000000E+00 0.  1.
<mgrwt>
<rscale>  0 0.59113230E+02</rscale>
<asrwt>0</asrwt>
<pdfrwt beam="2">  1       -2 0.11806282E+00 0.55286830E+02</pdfrwt>
<pdfrwt beam="1">  1       -1 0.11929160E+00 0.63204454E+02</pdfrwt>
<totfact> 0.33245264E+00</totfact>
</mgrwt>
</event>
<event>
 5    1  0.8274494E-003  0.7199727E+02  0.7546771E-02  0.1403365E+00
          2   -1    0    0  502    0  0.00000000000E+00  0.00000000000E+00  0.50184304652E+03  0.50184304652E+03  0.00000000000E+00 0. -1.
          1   -1    0    0  501    0 -0.00000000000E+00 -0.00000000000E+00 -0.13903759415E+03  0.13903759415E+03  0.00000000000E+00 0. -1.
         25    1    1    2    0    0  0.75407830638E+02  0.55644398040E+02  0.17813390390E+03  0.23693739188E+03  0.12500000000E+03 0.  0.
          2    1    1    2  501    0 -0.28566141201E+02 -0.65465927059E+02 -0.95755716853E+02  0.11946116247E+03  0.00000000000E+00 0. -1.
          1    1    1    2  502    0 -0.46841689437E+02  0.98215290194E+01  0.28042726533E+03  0.28448208632E+03  0.00000000000E+00 0. -1.
<mgrwt>
<rscale>  0 0.58701016E+02</rscale>
<asrwt>0</asrwt>
<pdfrwt beam="1">  1        2 0.77206622E-01 0.47860279E+02</pdfrwt>
<pdfrwt beam="2">  1        1 0.21390399E-01 0.71997266E+02</pdfrwt>
<totfact> 0.19383998E+03</totfact>
</mgrwt>
</event>
<event>
 5    1  0.8274494E-003  0.5871774E+02  0.7546771E-02  0.1472203E+00
         -2   -1    0    0    0  501 -0.00000000000E+00  0.00000000000E+00  0.40168634095E+03  0.40168634095E+03  0.00000000000E+00 0.  1.
          2   -1    0    0  502    0  0.00000000000E+00 -0.00000000000E+00 -0.23365470591E+03  0.23365470591E+03  0.00000000000E+00 0. -1.
         25    1    1    2    0    0  0.15363753327E+02  0.20722360005E+02  0.42029556171E+02  0.13437613148E+03  0.12500000000E+03 0.  0.
          1    1    1    2  502    0 -0.30703472926E+02 -0.52200630283E+02 -0.18157128031E+03  0.19140464698E+03  0.00000000000E+00 0. -1.
         -1    1    1    2    0  501  0.15339719598E+02  0.31478270278E+02  0.30757335918E+03  0.30956026840E+03  0.00000000000E+00 0.  1.
<mgrwt>
<rscale>  0 0.45344431E+02</rscale>
<asrwt>0</asrwt>
<pdfrwt beam="2">  1        2 0.35946878E-01 0.58717736E+02</pdfrwt>
<pdfrwt beam="1">  1       -2 0.61797899E-01 0.35016974E+02</pdfrwt>
<totfact> 0.35593079E+02</totfact>
</mgrwt>
</event>
<event>
 5    1  0.8274494E-003  0.9011979E+02  0.7546771E-02  0.1416632E+00
          2   -1    0    0  502    0  0.00000000000E+00  0.00000000000E+00  0.27948811814E+04  0.27948811814E+04  0.00000000000E+00 0. -1.
          1   -1    0    0  501    0 -0.00000000000E+00 -0.00000000000E+00 -0.17173966665E+02  0.17173966665E+02  0.00000000000E+00 0. -1.
         25    1    1    2    0    0 -0.67185865329E+02 -0.29800624369E+02  0.46044701278E+03  0.48274058178E+03  0.12500000000E+03 0.  0.
          2    1    1    2  501    0  0.95646433948E+02  0.49257454015E+02  0.48752531975E+03  0.49925491935E+03  0.00000000000E+00 0. -1.
          1    1    1    2  502    0 -0.28460568619E+02 -0.19456829646E+02  0.18297348822E+04  0.18300596469E+04  0.00000000000E+00 0. -1.
<mgrwt>
<rscale>  0 0.55739936E+02</rscale>
<asrwt>0</asrwt>
<pdfrwt beam="1">  1        2 0.42998136E+00 0.34475675E+02</pdfrwt>
<pdfrwt beam="2">  1        1 0.26421509E-02 0.90119786E+02</pdfrwt>
<totfact> 0.18447627E+03</totfact>
</mgrwt>
</event>
<event>
 5    1  0.8274494E-003  0.1652932E+03  0.7546771E-02  0.1297994E+00
          2   -1    0    0  502    0  0.00000000000E+00  0.00000000000E+00  0.11923207693E+04  0.11923207693E+04  0.00000000000E+00 0. -1.
          1   -1    0    0  501    0 -0.00000000000E+00 -0.00000000000E+00 -0.25368560103E+04  0.25368560103E+04  0.00000000000E+00 0. -1.
         25    1    1    2    0    0  0.10413822295E+03 -0.17853377787E+03  0.25322966387E+03  0.34995620009E+03  0.12500000000E+03 0.  0.
          2    1    1    2  501    0 -0.59165000539E+02  0.15396547796E+03 -0.24850194018E+04  0.24904873605E+04  0.00000000000E+00 0. -1.
          1    1    1    2  502    0 -0.44973222412E+02  0.24568299904E+02  0.88725449696E+03  0.88873321896E+03  0.00000000000E+00 0. -1.
<mgrwt>
<rscale>  0 0.92036300E+02</rscale>
<asrwt>0</asrwt>
<pdfrwt beam="1">  1        2 0.18343397E+00 0.51246386E+02</pdfrwt>
<pdfrwt beam="2">  1        1 0.39028553E+00 0.16529323E+03</pdfrwt>
<totfact> 0.49526658E+00</totfact>
</mgrwt>
</event>
<event>
 5    1  0.8274494E-003  0.5755848E+02  0.7546771E-02  0.1432343E+00
          2   -1    0    0  502    0  0.00000000000E+00  0.00000000000E+00  0.19082069676E+03  0.19082069676E+03  0.00000000000E+00 0. -1.
         -2   -1    0    0    0  501 -0.00000000000E+00 -0.00000000000E+00 -0.80364898731E+03  0.80364898731E+03  0.00000000000E+00 0.  1.
         25    1    1    2    0    0 -0.54172655398E+02 -0.15066189219E+02  0.66244829630E+02  0.15223351833E+03  0.12500000000E+03 0.  0.
          1    1    1    2  502    0  0.28208408015E+02  0.55286228722E+02  0.68899520944E+02  0.92733086627E+02  0.00000000000E+00 0. -1.
         -1    1    1    2    0  501  0.25964247383E+02 -0.40220039503E+02 -0.74797264112E+03  0.74950307911E+03  0.00000000000E+00 0.  1.
<mgrwt>
<rscale>  0 0.52492654E+02</rscale>
<asrwt>0</asrwt>
<pdfrwt beam="1">  1        2 0.29357030E-01 0.57558478E+02</pdfrwt>
<pdfrwt beam="2">  1       -2 0.12363831E+00 0.47872682E+02</pdfrwt>
<totfact> 0.96295777E+01</totfact>
</mgrwt>
</event>
<event>
 5    1  0.8274494E-003  0.5008330E+02  0.7546771E-02  0.1534515E+00
          1   -1    0    0  502    0  0.00000000000E+00  0.00000000000E+00  0.34515824100E+03  0.34515824100E+03  0.00000000000E+00 0. -1.
         -1   -1    0    0    0  501 -0.00000000000E+00 -0.00000000000E+00 -0.15914280352E+03  0.15914280352E+03  0.00000000000E+00 0.  1.
         25    1    1    2    0    0 -0.30942777679E+02  0.57357831412E+02  0.18286730309E+03  0.23089570557E+03  0.12500000000E+03 0.  0.
          2    1    1    2  502    0  0.59421713185E+01 -0.47695624369E+02  0.13268623242E+03  0.14112341499E+03  0.00000000000E+00 0. -1.
         -2    1    1    2    0  501  0.25000606361E+02 -0.96622070429E+01 -0.12953809803E+03  0.13228192395E+03  0.00000000000E+00 0.  1.
<mgrwt>
<rscale>  0 0.36638386E+02</rscale>
<asrwt>0</asrwt>
<pdfrwt beam="1">  1        1 0.53101268E-01 0.50083304E+02</pdfrwt>
<pdfrwt beam="2">  1       -1 0.24483508E-01 0.26802772E+02</pdfrwt>
<totfact> 0.99722923E+02</totfact>
</mgrwt>
</event>
<event>
 5    1  0.8823795E-003  0.7699841E+02  0.7546771E-02  0.1412476E+00
         -2   -1    0    0    0  501 -0.00000000000E+00  0.00000000000E+00  0.11887014494E+02  0.11887014494E+02  0.00000000000E+00 0.  1.
          2   -1    0    0  502    0  0.00000000000E+00 -0.00000000000E+00 -0.41879173538E+04  0.41879173538E+04  0.00000000000E+00 0. -1.
         25    1    1    2    0    0 -0.86920686958E+02 -0.76928995176E+02 -0.69324450453E+03  0.71392311854E+03  0.12500000000E+03 0.  0.
          3    1    1    2  502    0  0.51598236743E+02  0.54819178668E+02 -0.30850418033E+04  0.30859602150E+04  0.00000000000E+00 0. -1.
         -3    1    1    2    0  501  0.35322450215E+02  0.22109816508E+02 -0.39774403150E+03  0.39992103479E+03  0.00000000000E+00 0.  1.
<mgrwt>
<rscale>  0 0.56644895E+02</rscale>
<asrwt>0</asrwt>
<pdfrwt beam="2">  1        2 0.64429566E+00 0.76998405E+02</pdfrwt>
<pdfrwt beam="1">  1       -2 0.18287695E-02 0.41671567E+02</pdfrwt>
<totfact> 0.28668114E+02</totfact>
</mgrwt>
</event>
<event>
 5    1  0.8274494E-003  0.7142378E+02  0.7546771E-02  0.1368803E+00
          2   -1    0    0  502    0  0.00000000000E+00  0.00000000000E+00  0.52283517325E+04  0.52283517325E+04  0.00000000000E+00 0. -1.
          1   -1    0    0  501    0 -0.00000000000E+00 -0.00000000000E+00 -0.13146540781E+02  0.13146540781E+02  0.00000000000E+00 0. -1.
         25    1    1    2    0    0 -0.28297866957E+02 -0.20841051281E+02  0.77878791243E+03  0.78953830258E+03  0.12500000000E+03 0.  0.
          2    1    1    2  501    0  0.84607625372E+02 -0.91401920686E+01  0.23293046535E+03  0.24798910273E+03  0.00000000000E+00 0. -1.
          1    1    1    2  502    0 -0.56309758415E+02  0.29981243350E+02  0.42034868139E+04  0.42039708680E+04  0.00000000000E+00 0. -1.
<mgrwt>
<rscale>  0 0.67501132E+02</rscale>
<asrwt>0</asrwt>
<pdfrwt beam="1">  1        2 0.80436015E+00 0.63793917E+02</pdfrwt>
<pdfrwt beam="2">  1        1 0.20225489E-02 0.71423782E+02</pdfrwt>
<totfact> 0.27203299E+01</totfact>
</mgrwt>
</event>
<event>
 5    1  0.8274494E-003  0.6045940E+02  0.7546771E-02  0.1489725E+00
         -1   -1    0    0    0  502 -0.00000000000E+00  0.00000000000E+00  0.10512504507E+04  0.10512504507E+04  0.00000000000E+00 0.  1.
         -2   -1    0    0    0  501  0.00000000000E+00 -0.00000000000E+00 -0.98306233124E+02  0.98306233124E+02  0.00000000000E+00 0.  1.
         25    1    1    2    0    0  0.53508427504E+02  0.22022056698E+02  0.59638914571E+03  0.61208915683E+03  0.12500000000E+03 0.  0.
         -2    1    1    2    0  502 -0.62420924182E+02  0.66800250033E+01  0.44223546364E+03  0.44666900476E+03  0.00000000000E+00 0.  1.
         -1    1    1    2    0  501  0.89124966780E+01 -0.28702081702E+02 -0.85680391813E+02  0.90798522192E+02  0.00000000000E+00 0.  1.
<mgrwt>
<rscale>  0 0.42626823E+02</rscale>
<asrwt>0</asrwt>
<pdfrwt beam="2">  1       -2 0.15124037E-01 0.30053986E+02</pdfrwt>
<pdfrwt beam="1">  1       -1 0.16173083E+00 0.60459403E+02</pdfrwt>
<totfact> 0.76617499E+01</totfact>
</mgrwt>
</event>
<event>
 5    1  0.8274494E-003  0.1026284E+03  0.7546771E-02  0.1314684E+00
          2   -1    0    0  502    0  0.00000000000E+00  0.00000000000E+00  0.57516381795E+03  0.57516381795E+03  0.00000000000E+00 0. -1.
          1   -1    0    0  501    0 -0.00000000000E+00 -0.00000000000E+00 -0.24057294822E+04  0.24057294822E+04  0.00000000000E+00 0. -1.
         25    1    1    2    0    0  0.54409850186E+02 -0.37874935478E+02 -0.18119358629E+03  0.22989358026E+03  0.12500000000E+03 0.  0.
          2    1    1    2  501    0  0.48583636182E+02  0.51603963947E+02 -0.21947086556E+04  0.21958527778E+04  0.00000000000E+00 0. -1.
          1    1    1    2  502    0 -0.10299348637E+03 -0.13729028470E+02  0.54533657761E+03  0.55514694211E+03  0.00000000000E+00 0. -1.
<mgrwt>
<rscale>  0 0.85286814E+02</rscale>
<asrwt>0</asrwt>
<pdfrwt beam="1">  1        2 0.88486743E-01 0.10262840E+03</pdfrwt>
<pdfrwt beam="2">  1        1 0.37011222E+00 0.70875516E+02</pdfrwt>
<totfact> 0.16381526E+01</totfact>
</mgrwt>
</event>
<event>
 5    1  0.8274494E-003  0.5980704E+02  0.7546771E-02  0.1461395E+00
          2   -1    0    0  502    0  0.00000000000E+00  0.00000000000E+00  0.74872930483E+03  0.74872930483E+03  0.00000000000E+00 0. -1.
          1   -1    0    0  501    0 -0.00000000000E+00 -0.00000000000E+00 -0.19114302179E+03  0.19114302179E+03  0.00000000000E+00 0. -1.
         25    1    1    2    0    0  0.27695158956E+02 -0.48482085088E+02  0.18371379056E+02  0.13813052513E+03  0.12500000000E+03 0.  0.
          2    1    1    2  501    0  0.74127525786E+01  0.60657335121E+02 -0.12360259115E+03  0.13788350787E+03  0.00000000000E+00 0. -1.
          1    1    1    2  502    0 -0.35107911534E+02 -0.12175250033E+02  0.66281749513E+03  0.66385829362E+03  0.00000000000E+00 0. -1.
<mgrwt>
<rscale>  0 0.47142111E+02</rscale>
<asrwt>0</asrwt>
<pdfrwt beam="1">  1        2 0.11518912E+00 0.37159146E+02</pdfrwt>
<pdfrwt beam="2">  1        1 0.29406619E-01 0.59807042E+02</pdfrwt>
<totfact> 0.84931560E+02</totfact>
</mgrwt>
</event>
<event>
 5    1  0.8274494E-003  0.1587747E+03  0.7546771E-02  0.1270708E+00
          2   -1    0    0  502    0  0.00000000000E+00  0.00000000000E+00  0.25828563356E+04  0.25828563356E+04  0.00000000000E+00 0. -1.
         -2   -1    0    0    0  501 -0.00000000000E+00 -0.00000000000E+00 -0.21220651506E+04  0.21220651506E+04  0.00000000000E+00 0.  1.
         25    1    1    2    0    0 -0.14061648637E+03  0.72439718023E+01  0.11627789083E+04  0.11779241321E+04  0.12500000000E+03 0.  0.
          1    1    1    2  502    0  0.12711434131E+01  0.69032730812E+02  0.14086744904E+04  0.14103655390E+04  0.00000000000E+00 0. -1.
         -1    1    1    2    0  501  0.13934534295E+03 -0.76276702615E+02 -0.21106622138E+04  0.21166318151E+04  0.00000000000E+00 0.  1.
<mgrwt>
<rscale>  0 0.10470200E+03</rscale>
<asrwt>0</asrwt>
<pdfrwt beam="1">  1        2 0.39736251E+00 0.69044433E+02</pdfrwt>
<pdfrwt beam="2">  1       -2 0.32647156E+00 0.15877469E+03</pdfrwt>
<totfact> 0.12034029E-01</totfact>
</mgrwt>
</event>
<event>
 5    1  0.8274494E-003  0.8485506E+02  0.7546771E-02  0.1488318E+00
          2   -1    0    0  502    0  0.00000000000E+00  0.00000000000E+00  0.32198233565E+03  0.32198233565E+03  0.00000000000E+00 0. -1.
          1   -1    0    0  501    0 -0.00000000000E+00 -0.00000000000E+00 -0.42335664439E+03  0.42335664439E+03  0.00000000000E+00 0. -1.
         25    1    1    2    0    0  0.72327297708E+02  0.48685534102E+01  0.67155537186E+02  0.15934179295E+03  0.12500000000E+03 0.  0.
          2    1    1    2  501    0 -0.84456759645E+02  0.13034115118E+02 -0.37184341272E+03  0.38153683438E+03  0.00000000000E+00 0. -1.
          1    1    1    2  502    0  0.12129461937E+02 -0.17902668529E+02  0.20331356680E+03  0.20446035271E+03  0.00000000000E+00 0. -1.
<mgrwt>
<rscale>  0 0.42836534E+02</rscale>
<asrwt>0</asrwt>
<pdfrwt beam="1">  1        2 0.49535745E-01 0.21624740E+02</pdfrwt>
<pdfrwt beam="2">  1        1 0.65131791E-01 0.84855061E+02</pdfrwt>
<totfact> 0.77658578E+02</totfact>
</mgrwt>
</event>
<event>
 5    1  0.8274494E-003  0.1133208E+03  0.7546771E-02  0.1405865E+00
         -2   -1    0    0    0  501 -0.00000000000E+00  0.00000000000E+00  0.15504995109E+04  0.15504995109E+04  0.00000000000E+00 0.  1.
          2   -1    0    0  502    0  0.00000000000E+00 -0.00000000000E+00 -0.18968593015E+03  0.18968593015E+03  0.00000000000E+00 0. -1.
         25    1    1    2    0    0 -0.95139028053E+02  0.10005709617E+03  0.98288350499E+02  0.21059073340E+03  0.12500000000E+03 0.  0.
          1    1    1    2  502    0  0.84258780733E+01 -0.28600158469E+02 -0.12957812606E+03  0.13296411260E+03  0.00000000000E+00 0. -1.
         -1    1    1    2    0  501  0.86713149980E+02 -0.71456937698E+02  0.13921033563E+04  0.13966305951E+04  0.00000000000E+00 0.  1.
<mgrwt>
<rscale>  0 0.58126744E+02</rscale>
<asrwt>0</asrwt>
<pdfrwt beam="2">  1        2 0.29182452E-01 0.29815507E+02</pdfrwt>
<pdfrwt beam="1">  1       -2 0.23853838E+00 0.11332084E+03</pdfrwt>
<totfact> 0.15524453E+01</totfact>
</mgrwt>
</event>
<event>
 5    1  0.8274494E-003  0.2024244E+03  0.7546771E-02  0.1235008E+00
          2   -1    0    0  502    0  0.00000000000E+00  0.00000000000E+00  0.70280672135E+03  0.70280672135E+03  0.00000000000E+00 0. -1.
          1   -1    0    0  501    0 -0.00000000000E+00 -0.00000000000E+00 -0.46367224337E+03  0.46367224337E+03  0.00000000000E+00 0. -1.
         25    1    1    2    0    0 -0.10673278037E+03 -0.20465623227E+03  0.17909101755E+03  0.31776508993E+03  0.12500000000E+03 0.  0.
          2    1    1    2  501    0 -0.35126202461E+02  0.68788404107E+02 -0.36891834724E+03  0.37691702213E+03  0.00000000000E+00 0. -1.
          3    1    1    2  502    0  0.14185898283E+03  0.13586782816E+03  0.42896180767E+03  0.47179685266E+03  0.00000000000E+00 0. -1.
<mgrwt>
<rscale>  0 0.12503935E+03</rscale>
<asrwt>0</asrwt>
<pdfrwt beam="1">  1        2 0.10812411E+00 0.20242442E+03</pdfrwt>
<pdfrwt beam="2">  1        1 0.71334191E-01 0.77237909E+02</pdfrwt>
<totfact> 0.29491028E+02</totfact>
</mgrwt>
</event>
<event>
 5    1  0.8274494E-003  0.1461285E+03  0.7546771E-02  0.1334527E+00
          2   -1    0    0  502    0  0.00000000000E+00  0.00000000000E+00  0.33980105190E+04  0.33980105190E+04  0.00000000000E+00 0. -1.
          1   -1    0    0  501    0 -0.00000000000E+00 -0.00000000000E+00 -0.24692794544E+03  0.24692794544E+03  0.00000000000E+00 0. -1.
         25    1    1    2    0    0  0.15474350111E+03  0.50114155426E+01  0.15039174997E+02  0.19955410847E+03  0.12500000000E+03 0.  0.
          2    1    1    2  501    0 -0.12851774320E+02 -0.39715549314E+02 -0.15020170869E+03  0.15589434324E+03  0.00000000000E+00 0. -1.
          1    1    1    2  502    0 -0.14189172679E+03  0.34704133771E+02  0.32862451073E+04  0.32894900128E+04  0.00000000000E+00 0. -1.
<mgrwt>
<rscale>  0 0.78101663E+02</rscale>
<asrwt>0</asrwt>
<pdfrwt beam="1">  1        2 0.52277082E+00 0.14612854E+03</pdfrwt>
<pdfrwt beam="2">  1        1 0.37988917E-01 0.41743179E+02</pdfrwt>
<totfact> 0.19821423E+01</totfact>
</mgrwt>
</event>
<event>
 5    1  0.8274494E-003  0.4006286E+02  0.7546771E-02  0.1513603E+00
          2   -1    0    0  502    0  0.00000000000E+00  0.00000000000E+00  0.48156949729E+03  0.48156949729E+03  0.00000000000E+00 0. -1.
          1   -1    0    0  501    0 -0.00000000000E+00 -0.00000000000E+00 -0.17067640292E+03  0.17067640292E+03  0.00000000000E+00 0. -1.
         25    1    1    2    0    0 -0.78550027254E+00 -0.10553239356E+02 -0.25951130471E+02  0.12810327492E+03  0.12500000000E+03 0.  0.
          2    1    1    2  501    0  0.37639990080E+02  0.21709333278E+02 -0.87690255118E+02  0.97865442559E+02  0.00000000000E+00 0. -1.
          1    1    1    2  502    0 -0.36854489807E+02 -0.11156093922E+02  0.42453447995E+03  0.42627718273E+03  0.00000000000E+00 0. -1.
<mgrwt>
<rscale>  0 0.39276716E+02</rscale>
<asrwt>0</asrwt>
<pdfrwt beam="1">  1        2 0.74087614E-01 0.38505998E+02</pdfrwt>
<pdfrwt beam="2">  1        1 0.26257908E-01 0.40062861E+02</pdfrwt>
<totfact> 0.15472514E+03</totfact>
</mgrwt>
</event>
<event>
 5    1  0.8274494E-003  0.7134493E+02  0.7546771E-02  0.1497571E+00
          2   -1    0    0  502    0  0.00000000000E+00  0.00000000000E+00  0.53769487181E+03  0.53769487181E+03  0.00000000000E+00 0. -1.
          1   -1    0    0  501    0 -0.00000000000E+00 -0.00000000000E+00 -0.66547977597E+02  0.66547977597E+02  0.00000000000E+00 0. -1.
         25    1    1    2    0    0 -0.38811320691E+02  0.31000238515E+02  0.24421476000E+03  0.27880671155E+03  0.12500000000E+03 0.  0.
          2    1    1    2  501    0  0.59428032324E+02 -0.43519854503E+02 -0.20794437909E+02  0.76538078169E+02  0.00000000000E+00 0. -1.
          1    1    1    2  502    0 -0.20616711632E+02  0.12519615987E+02  0.24772657212E+03  0.24889805969E+03  0.00000000000E+00 0. -1.
<mgrwt>
<rscale>  0 0.41483276E+02</rscale>
<asrwt>0</asrwt>
<pdfrwt beam="1">  1        2 0.82722285E-01 0.24120315E+02</pdfrwt>
<pdfrwt beam="2">  1        1 0.10238151E-01 0.71344932E+02</pdfrwt>
<totfact> 0.46336390E+03</totfact>
</mgrwt>
</event>
<event>
 5    1  0.8274494E-003  0.6945427E+02  0.7546771E-02  0.1495443E+00
          2   -1    0    0  502    0  0.00000000000E+00  0.00000000000E+00  0.52602652180E+03  0.52602652180E+03  0.00000000000E+00 0. -1.
          1   -1    0    0  501    0 -0.00000000000E+00 -0.00000000000E+00 -0.18481508676E+03  0.18481508676E+03  0.00000000000E+00 0. -1.
         25    1    1    2    0    0 -0.40096727285E+02  0.77521429875E+02  0.40329891964E+01  0.15250765433E+03  0.12500000000E+03 0.  0.
          2    1    1    2  501    0  0.42167725428E+02 -0.52463234530E+02 -0.99940093785E+02  0.12049286448E+03  0.00000000000E+00 0. -1.
          1    1    1    2  502    0 -0.20709981432E+01 -0.25058195345E+02  0.43711853962E+03  0.43784108974E+03  0.00000000000E+00 0. -1.
<mgrwt>
<rscale>  0 0.41789144E+02</rscale>
<asrwt>0</asrwt>
<pdfrwt beam="1">  1        2 0.80927157E-01 0.25143631E+02</pdfrwt>
<pdfrwt beam="2">  1        1 0.28433090E-01 0.69454270E+02</pdfrwt>
<totfact> 0.13089139E+03</totfact>
</mgrwt>
</event>
<event>
 5    1  0.8274494E-003  0.9762311E+02  0.7546771E-02  0.1349285E+00
          2   -1    0    0  502    0  0.00000000000E+00  0.00000000000E+00  0.32718010265E+03  0.32718010265E+03  0.00000000000E+00 0. -1.
          1   -1    0    0  501    0 -0.00000000000E+00 -0.00000000000E+00 -0.14817091966E+03  0.14817091966E+03  0.00000000000E+00 0. -1.
         25    1    1    2    0    0  0.10841545563E+03 -0.18756491706E+02  0.19467784143E+03  0.25618387721E+03  0.12500000000E+03 0.  0.
          2    1    1    2  501    0 -0.75093907737E+02  0.62520575694E+02 -0.85800779291E+02  0.13003726809E+03  0.00000000000E+00 0. -1.
          1    1    1    2  502    0 -0.33321547893E+02 -0.43764083989E+02  0.70132120848E+02  0.89129877011E+02  0.00000000000E+00 0. -1.
<mgrwt>
<rscale>  0 0.73279069E+02</rscale>
<asrwt>0</asrwt>
<pdfrwt beam="1">  1        2 0.50335400E-01 0.55005642E+02</pdfrwt>
<pdfrwt beam="2">  1        1 0.22795526E-01 0.97623114E+02</pdfrwt>
<totfact> 0.28115545E+03</totfact>
</mgrwt>
</event>
<event>
 5    1  0.8274494E-003  0.8622338E+02  0.7546771E-02  0.1347886E+00
          2   -1    0    0  502    0  0.00000000000E+00  0.00000000000E+00  0.10928779248E+04  0.10928779248E+04  0.00000000000E+00 0. -1.
          1   -1    0    0  501    0 -0.00000000000E+00 -0.00000000000E+00 -0.98595390666E+03  0.98595390666E+03  0.00000000000E+00 0. -1.
         25    1    1    2    0    0 -0.11190010613E+02  0.12493271282E+03 -0.29776673452E+03  0.34644397420E+03  0.12500000000E+03 0.  0.
          2    1    1    2  501    0  0.43843888185E+02 -0.45278722775E+02 -0.66061228252E+03  0.66361211342E+03  0.00000000000E+00 0. -1.
          1    1    1    2  502    0 -0.32653877572E+02 -0.79653990043E+02  0.10653030352E+04  0.10687757439E+04  0.00000000000E+00 0. -1.
<mgrwt>
<rscale>  0 0.73718605E+02</rscale>
<asrwt>0</asrwt>
<pdfrwt beam="1">  1        2 0.16813507E+00 0.86223379E+02</pdfrwt>
<pdfrwt beam="2">  1        1 0.15168522E+00 0.63027369E+02</pdfrwt>
<totfact> 0.60705414E+01</totfact>
</mgrwt>
</event>
<event>
 5    1  0.8274494E-003  0.3942088E+02  0.7546771E-02  0.1523955E+00
         -1   -1    0    0    0  501 -0.00000000000E+00  0.00000000000E+00  0.27828547544E+02  0.27828547544E+02  0.00000000000E+00 0.  1.
          1   -1    0    0  502    0  0.00000000000E+00 -0.00000000000E+00 -0.48912741957E+03  0.48912741957E+03  0.00000000000E+00 0. -1.
         25    1    1    2    0    0  0.33554289686E+02  0.38633593118E+01 -0.31986136863E+03  0.34507551498E+03  0.12500000000E+03 0.  0.
          2    1    1    2  502    0 -0.70802444805E+01 -0.35818611210E+02 -0.11947560485E+03  0.12493007214E+03  0.00000000000E+00 0. -1.
         -2    1    1    2    0  501 -0.26474045206E+02  0.31955251898E+02 -0.21961898551E+02  0.46950379992E+02  0.00000000000E+00 0.  1.
<mgrwt>
<rscale>  0 0.37938406E+02</rscale>
<asrwt>0</asrwt>
<pdfrwt beam="2">  1        1 0.75250365E-01 0.36511680E+02</pdfrwt>
<pdfrwt beam="1">  1       -1 0.42813154E-02 0.39420882E+02</pdfrwt>
<totfact> 0.88411358E+03</totfact>
</mgrwt>
</event>
<event>
 5    1  0.8274494E-003  0.5898605E+02  0.7546771E-02  0.1424382E+00
          2   -1    0    0  502    0  0.00000000000E+00  0.00000000000E+00  0.36846296005E+04  0.36846296005E+04  0.00000000000E+00 0. -1.
          1   -1    0    0  501    0 -0.00000000000E+00 -0.00000000000E+00 -0.15075751588E+03  0.15075751588E+03  0.00000000000E+00 0. -1.
         25    1    1    2    0    0 -0.70744106347E+02  0.61607238417E+02  0.99026412347E+02  0.18501732554E+03  0.12500000000E+03 0.  0.
          2    1    1    2  501    0  0.55796943275E+02 -0.14284682415E+02 -0.99879410448E+02  0.11529634713E+03  0.00000000000E+00 0. -1.
          1    1    1    2  502    0  0.14947163072E+02 -0.47322556002E+02  0.35347250827E+04  0.35350734437E+04  0.00000000000E+00 0. -1.
<mgrwt>
<rscale>  0 0.54104553E+02</rscale>
<asrwt>0</asrwt>
<pdfrwt beam="1">  1        2 0.56686602E+00 0.49627029E+02</pdfrwt>
<pdfrwt beam="2">  1        1 0.23193467E-01 0.58986055E+02</pdfrwt>
<totfact> 0.29247512E+01</totfact>
</mgrwt>
</event>
<event>
 5    1  0.8274494E-003  0.1332372E+03  0.7546771E-02  0.1367386E+00
          2   -1    0    0  502    0  0.00000000000E+00  0.00000000000E+00  0.16411247994E+04  0.16411247994E+04  0.00000000000E+00 0. -1.
          1   -1    0    0  501    0 -0.00000000000E+00 -0.00000000000E+00 -0.30770230211E+03  0.30770230211E+03  0.00000000000E+00 0. -1.
         25    1    1    2    0    0  0.62116532078E+02  0.88917865963E+02 -0.40164832432E+02  0.17030286025E+03  0.12500000000E+03 0.  0.
          2    1    1    2  501    0 -0.78161707376E+02 -0.11957500163E+03 -0.17705311373E+03  0.22749777712E+03  0.00000000000E+00 0. -1.
          1    1    1    2  502    0  0.16045175299E+02  0.30657135663E+02  0.15506404435E+04  0.15510264642E+04  0.00000000000E+00 0. -1.
<mgrwt>
<rscale>  0 0.67899125E+02</rscale>
<asrwt>0</asrwt>
<pdfrwt beam="1">  1        2 0.25248073E+00 0.34602133E+02</pdfrwt>
<pdfrwt beam="2">  1        1 0.47338817E-01 0.13323719E+03</pdfrwt>
<totfact> 0.16078800E+02</totfact>
</mgrwt>
</event>
<event>
 5    1  0.8274494E-003  0.9856137E+02  0.7546771E-02  0.1300420E+00
          2   -1    0    0  502    0  0.00000000000E+00  0.00000000000E+00  0.90228994273E+03  0.90228994273E+03  0.00000000000E+00 0. -1.
          1   -1    0    0  501    0 -0.00000000000E+00 -0.00000000000E+00 -0.11464049827E+03  0.11464049827E+03  0.00000000000E+00 0. -1.
         25    1    1    2    0    0 -0.35112976706E+02  0.60450197896E+02  0.30541270081E+03  0.33732634848E+03  0.12500000000E+03 0.  0.
          2    1    1    2  501    0 -0.41631327429E+02 -0.94701577269E+02 -0.67472710373E+02  0.12350758198E+03  0.00000000000E+00 0. -1.
          1    1    1    2  502    0  0.76744304135E+02  0.34251379373E+02  0.54970945402E+03  0.55609651055E+03  0.00000000000E+00 0. -1.
<mgrwt>
<rscale>  0 0.91011921E+02</rscale>
<asrwt>0</asrwt>
<pdfrwt beam="1">  1        2 0.13881383E+00 0.84040735E+02</pdfrwt>
<pdfrwt beam="2">  1        1 0.17637000E-01 0.98561367E+02</pdfrwt>
<totfact> 0.12569136E+03</totfact>
</mgrwt>
</event>
<event>
 5    1  0.8274494E-003  0.1010831E+03  0.7546771E-02  0.1330084E+00
         -2   -1    0    0    0  501 -0.00000000000E+00  0.00000000000E+00  0.40946902447E+03  0.40946902447E+03  0.00000000000E+00 0.  1.
          2   -1    0    0  502    0  0.00000000000E+00 -0.00000000000E+00 -0.85309734282E+03  0.85309734282E+03  0.00000000000E+00 0. -1.
         25    1    1    2    0    0 -0.11700208350E+02 -0.42307856225E+02 -0.76655934558E+02  0.15306201971E+03  0.12500000000E+03 0.  0.
          1    1    1    2  502    0  0.64488334093E+01 -0.62409212988E+02 -0.72946225715E+03  0.73215550393E+03  0.00000000000E+00 0. -1.
         -1    1    1    2    0  501  0.52513749408E+01  0.10471706921E+03  0.36248987336E+03  0.37734884366E+03  0.00000000000E+00 0.  1.
<mgrwt>
<rscale>  0 0.79637351E+02</rscale>
<asrwt>0</asrwt>
<pdfrwt beam="2">  1        2 0.13124574E+00 0.62741512E+02</pdfrwt>
<pdfrwt beam="1">  1       -2 0.62995236E-01 0.10108312E+03</pdfrwt>
<totfact> 0.84715964E+01</totfact>
</mgrwt>
</event>
<event>
 5    1  0.8274494E-003  0.6908007E+02  0.7546771E-02  0.1380700E+00
          1   -1    0    0  501    0 -0.00000000000E+00  0.00000000000E+00  0.73552411936E+03  0.73552411936E+03  0.00000000000E+00 0. -1.
          2   -1    0    0  502    0  0.00000000000E+00 -0.00000000000E+00 -0.63521170307E+03  0.63521170307E+03  0.00000000000E+00 0. -1.
         25    1    1    2    0    0 -0.10682984765E+02  0.57366779289E+02  0.62768049355E+03  0.64266077795E+03  0.12500000000E+03 0.  0.
          2    1    1    2  501    0 -0.58109962564E+02 -0.63658514278E+02  0.79517931923E+02  0.11727009715E+03  0.00000000000E+00 0. -1.
          1    1    1    2  502    0  0.68792947329E+02  0.62917349890E+01 -0.60688600919E+03  0.61080494732E+03  0.00000000000E+00 0. -1.
<mgrwt>
<rscale>  0 0.64280256E+02</rscale>
<asrwt>0</asrwt>
<pdfrwt beam="2">  1        2 0.97724877E-01 0.69080066E+02</pdfrwt>
<pdfrwt beam="1">  1        1 0.11315756E+00 0.59813946E+02</pdfrwt>
<totfact> 0.18734573E+02</totfact>
</mgrwt>
</event>
<event>
 5    1  0.8274494E-003  0.1265987E+03  0.7546771E-02  0.1289722E+00
         -1   -1    0    0    0  501 -0.00000000000E+00  0.00000000000E+00  0.41267537833E+03  0.41267537833E+03  0.00000000000E+00 0.  1.
          1   -1    0    0  502    0  0.00000000000E+00 -0.00000000000E+00 -0.20988069212E+04  0.20988069212E+04  0.00000000000E+00 0. -1.
         25    1    1    2    0    0 -0.11431163264E+03  0.13752510822E+03 -0.81826426314E+02  0.23302546812E+03  0.12500000000E+03 0.  0.
          2    1    1    2  502    0  0.44995617945E+02 -0.11709298789E+03 -0.19354539654E+04  0.19395147397E+04  0.00000000000E+00 0. -1.
         -2    1    1    2    0  501  0.69316014695E+02 -0.20432120326E+02  0.33114884884E+03  0.33894209169E+03  0.00000000000E+00 0.  1.
<mgrwt>
<rscale>  0 0.95648396E+02</rscale>
<asrwt>0</asrwt>
<pdfrwt beam="2">  1        1 0.32289337E+00 0.12659875E+03</pdfrwt>
<pdfrwt beam="1">  1       -1 0.63488520E-01 0.72264662E+02</pdfrwt>
<totfact> 0.86485626E+00</totfact>
</mgrwt>
</event>
<event>
 5    1  0.8274494E-003  0.1309291E+03  0.7546771E-02  0.1249817E+00
          1   -1    0    0  501    0 -0.00000000000E+00  0.00000000000E+00  0.20598657961E+04  0.20598657961E+04  0.00000000000E+00 0. -1.
          2   -1    0    0  502    0  0.00000000000E+00 -0.00000000000E+00 -0.29929449820E+03  0.29929449820E+03  0.00000000000E+00 0. -1.
         25    1    1    2    0    0 -0.17163920365E+02  0.22969184988E+03  0.12469614254E+03  0.29021901045E+03  0.12500000000E+03 0.  0.
          2    1    1    2  501    0  0.44090369383E+00 -0.12825886193E+03  0.18378442029E+04  0.18423142632E+04  0.00000000000E+00 0. -1.
          1    1    1    2  502    0  0.16723016671E+02 -0.10143298794E+03 -0.20196904756E+03  0.22662702068E+03  0.00000000000E+00 0. -1.
<mgrwt>
<rscale>  0 0.11601641E+03</rscale>
<asrwt>0</asrwt>
<pdfrwt beam="2">  1        2 0.46045309E-01 0.10280229E+03</pdfrwt>
<pdfrwt beam="1">  1        1 0.31690242E+00 0.13092906E+03</pdfrwt>
<totfact> 0.50169769E+01</totfact>
</mgrwt>
</event>
<event>
 5    1  0.8274494E-003  0.9619110E+02  0.7546771E-02  0.1376105E+00
          1   -1    0    0  501    0 -0.00000000000E+00  0.00000000000E+00  0.13422650682E+03  0.13422650682E+03  0.00000000000E+00 0. -1.
          2   -1    0    0  502    0  0.00000000000E+00 -0.00000000000E+00 -0.13265101364E+04  0.13265101364E+04  0.00000000000E+00 0. -1.
         25    1    1    2    0    0  0.60611327524E+02  0.96611941275E+01 -0.27169521189E+03  0.30530371740E+03  0.12500000000E+03 0.  0.
          2    1    1    2  501    0 -0.88268838016E+02 -0.44649853352E+02  0.96013288644E+02  0.13785335964E+03  0.00000000000E+00 0. -1.
          1    1    1    2  502    0  0.27657510493E+02  0.34988659224E+02 -0.10166017063E+04  0.10175795662E+04  0.00000000000E+00 0. -1.
<mgrwt>
<rscale>  0 0.65498900E+02</rscale>
<asrwt>0</asrwt>
<pdfrwt beam="2">  1        2 0.20407847E+00 0.44599822E+02</pdfrwt>
<pdfrwt beam="1">  1        1 0.20650233E-01 0.96191097E+02</pdfrwt>
<totfact> 0.62372442E+02</totfact>
</mgrwt>
</event>
<event>
 5    1  0.8274494E-003  0.6097504E+02  0.7546771E-02  0.1482951E+00
          1   -1    0    0  501    0 -0.00000000000E+00  0.00000000000E+00  0.18489917664E+03  0.18489917664E+03  0.00000000000E+00 0. -1.
          2   -1    0    0  502    0  0.00000000000E+00 -0.00000000000E+00 -0.14795646100E+04  0.14795646100E+04  0.00000000000E+00 0. -1.
         25    1    1    2    0    0 -0.38456965344E+02  0.78901602302E+01 -0.84196315575E+03  0.85209632580E+03  0.12500000000E+03 0.  0.
          2    1    1    2  501    0  0.59123653380E+02  0.15546556843E+02  0.17423668922E+03  0.18465027942E+03  0.00000000000E+00 0. -1.
          1    1    1    2  502    0 -0.20666688036E+02 -0.23436717074E+02 -0.62693896687E+03  0.62771718145E+03  0.00000000000E+00 0. -1.
<mgrwt>
<rscale>  0 0.43649781E+02</rscale>
<asrwt>0</asrwt>
<pdfrwt beam="2">  1        2 0.22762532E+00 0.31247267E+02</pdfrwt>
<pdfrwt beam="1">  1        1 0.28446028E-01 0.60975041E+02</pdfrwt>
<totfact> 0.35878429E+02</totfact>
</mgrwt>
</event>
<event>
 5    1  0.8274494E-003  0.1238248E+03  0.7546771E-02  0.1301251E+00
          2   -1    0    0  502    0  0.00000000000E+00  0.00000000000E+00  0.10485638854E+04  0.10485638854E+04  0.00000000000E+00 0. -1.
         -2   -1    0    0    0  501 -0.00000000000E+00 -0.00000000000E+00 -0.20648950064E+03  0.20648950064E+03  0.00000000000E+00 0.  1.
         25    1    1    2    0    0  0.62339131056E+02  0.87173868088E+02  0.10630820262E+03  0.19598950095E+03  0.12500000000E+03 0.  0.
          1    1    1    2  502    0  0.55947574853E+02 -0.35731214004E+02  0.87021618161E+03  0.87274455227E+03  0.00000000000E+00 0. -1.
         -1    1    1    2    0  501 -0.11828670591E+03 -0.51442654084E+02 -0.13444999943E+03  0.18631933287E+03  0.00000000000E+00 0.  1.
<mgrwt>
<rscale>  0 0.90664218E+02</rscale>
<asrwt>0</asrwt>
<pdfrwt beam="1">  1        2 0.16131752E+00 0.66384115E+02</pdfrwt>
<pdfrwt beam="2">  1       -2 0.31767616E-01 0.12382481E+03</pdfrwt>
<totfact> 0.24280007E+02</totfact>
</mgrwt>
</event>
<event>
 5    1  0.8274494E-003  0.1434659E+03  0.7546771E-02  0.1265673E+00
          2   -1    0    0  502    0  0.00000000000E+00  0.00000000000E+00  0.98037712122E+03  0.98037712122E+03  0.00000000000E+00 0. -1.
          1   -1    0    0  501    0 -0.00000000000E+00 -0.00000000000E+00 -0.80592653168E+03  0.80592653168E+03  0.00000000000E+00 0. -1.
         25    1    1    2    0    0  0.94391503247E+02  0.30243365357E+02  0.80349552594E+02  0.17862101678E+03  0.12500000000E+03 0.  0.
          2    1    1    2  501    0  0.53847564453E+02 -0.59482903867E+02 -0.74792050508E+03  0.75221197675E+03  0.00000000000E+00 0. -1.
          1    1    1    2  502    0 -0.14823906770E+03  0.29239538510E+02  0.84202154202E+03  0.85547065936E+03  0.00000000000E+00 0. -1.
<mgrwt>
<rscale>  0 0.10728977E+03</rscale>
<asrwt>0</asrwt>
<pdfrwt beam="1">  1        2 0.15082725E+00 0.14346591E+03</pdfrwt>
<pdfrwt beam="2">  1        1 0.12398870E+00 0.80235753E+02</pdfrwt>
<totfact> 0.92528268E+01</totfact>
</mgrwt>
</event>
<event>
 5    1  0.8274494E-003  0.1288692E+03  0.7546771E-02  0.1319434E+00
          2   -1    0    0  502    0  0.00000000000E+00  0.00000000000E+00  0.33216421124E+04  0.33216421124E+04  0.00000000000E+00 0. -1.
          1   -1    0    0  501    0 -0.00000000000E+00 -0.00000000000E+00 -0.25645422294E+03  0.25645422294E+03  0.00000000000E+00 0. -1.
         25    1    1    2    0    0  0.46425646277E+02  0.10645087694E+03  0.23524856081E+04  0.23586650178E+04  0.12500000000E+03 0.  0.
          2    1    1    2  501    0 -0.96402564236E+02 -0.85766909093E+02 -0.23611589446E+03  0.26907272753E+03  0.00000000000E+00 0. -1.
          1    1    1    2  502    0  0.49976917959E+02 -0.20683967849E+02  0.94881817575E+03  0.95035858995E+03  0.00000000000E+00 0. -1.
<mgrwt>
<rscale>  0 0.83488232E+02</rscale>
<asrwt>0</asrwt>
<pdfrwt beam="1">  1        2 0.51102183E+00 0.54088066E+02</pdfrwt>
<pdfrwt beam="2">  1        1 0.39454498E-01 0.12886919E+03</pdfrwt>
<totfact> 0.25600091E+01</totfact>
</mgrwt>
</event>
<event>
 5    1  0.8274494E-003  0.7604872E+02  0.7546771E-02  0.1388366E+00
         -2   -1    0    0    0  501 -0.00000000000E+00  0.00000000000E+00  0.55322442308E+03  0.55322442308E+03  0.00000000000E+00 0.  1.
          2   -1    0    0  502    0  0.00000000000E+00 -0.00000000000E+00 -0.13547191526E+03  0.13547191526E+03  0.00000000000E+00 0. -1.
         25    1    1    2    0    0 -0.14064925939E+02  0.32592187671E+02  0.72481845621E+02  0.14879076175E+03  0.12500000000E+03 0.  0.
          1    1    1    2  502    0  0.18426583537E+02  0.47620714370E+02 -0.86651264824E+02  0.10057690149E+03  0.00000000000E+00 0. -1.
         -1    1    1    2    0  501 -0.43616575978E+01 -0.80212902041E+02  0.43192192703E+03  0.43932867509E+03  0.00000000000E+00 0.  1.
<mgrwt>
<rscale>  0 0.62314989E+02</rscale>
<asrwt>0</asrwt>
<pdfrwt beam="2">  1        2 0.20841833E-01 0.51061447E+02</pdfrwt>
<pdfrwt beam="1">  1       -2 0.85111449E-01 0.76048722E+02</pdfrwt>
<totfact> 0.32035027E+02</totfact>
</mgrwt>
</event>
<event>
 5    1  0.8274494E-003  0.1327768E+03  0.7546771E-02  0.1237918E+00
          1   -1    0    0  501    0 -0.00000000000E+00  0.00000000000E+00  0.72290393991E+03  0.72290393991E+03  0.00000000000E+00 0. -1.
          2   -1    0    0  502    0  0.00000000000E+00 -0.00000000000E+00 -0.15768967509E+04  0.15768967509E+04  0.00000000000E+00 0. -1.
         25    1    1    2    0    0 -0.20317937332E+03  0.12040482800E+03 -0.23866289797E+03  0.35827944291E+03  0.12500000000E+03 0.  0.
          2    1    1    2  501    0  0.82580438945E+02 -0.79030618143E+02  0.65495469602E+03  0.66485413538E+03  0.00000000000E+00 0. -1.
          1    1    1    2  502    0  0.12059893437E+03 -0.41374209858E+02 -0.12702846090E+04  0.12766671125E+04  0.00000000000E+00 0. -1.
<mgrwt>
<rscale>  0 0.12319456E+03</rscale>
<asrwt>0</asrwt>
<pdfrwt beam="2">  1        2 0.24259950E+00 0.13277681E+03</pdfrwt>
<pdfrwt beam="1">  1        1 0.11121599E+00 0.11430384E+03</pdfrwt>
<totfact> 0.50480568E+01</totfact>
</mgrwt>
</event>
<event>
 5    1  0.8274494E-003  0.1866289E+03  0.7546771E-02  0.1302041E+00
          3   -1    0    0  501    0 -0.00000000000E+00  0.00000000000E+00  0.61716387520E+03  0.61716387520E+03  0.00000000000E+00 0. -1.
          2   -1    0    0  502    0  0.00000000000E+00 -0.00000000000E+00 -0.25101837984E+03  0.25101837984E+03  0.00000000000E+00 0. -1.
         25    1    1    2    0    0 -0.14945664442E+03  0.12554017584E+03  0.29229551867E+02  0.23361718904E+03  0.12500000000E+03 0.  0.
          2    1    1    2  501    0 -0.14490163706E+02 -0.41255246765E+02  0.42710806701E+03  0.42934049557E+03  0.00000000000E+00 0. -1.
          1    1    1    2  502    0  0.16394680813E+03 -0.84284929075E+02 -0.90192123517E+02  0.20522457043E+03  0.00000000000E+00 0. -1.
<mgrwt>
<rscale>  0 0.90335657E+02</rscale>
<asrwt>0</asrwt>
<pdfrwt beam="2">  1        2 0.38618212E-01 0.18662894E+03</pdfrwt>
<pdfrwt beam="1">  1        3 0.94948288E-01 0.43725967E+02</pdfrwt>
<totfact> 0.80117349E+01</totfact>
</mgrwt>
</event>
<event>
 5    1  0.8274494E-003  0.5402402E+02  0.7546771E-02  0.1469351E+00
         -1   -1    0    0    0  501 -0.00000000000E+00  0.00000000000E+00  0.34279779299E+02  0.34279779299E+02  0.00000000000E+00 0.  1.
          1   -1    0    0  502    0  0.00000000000E+00 -0.00000000000E+00 -0.44430167434E+03  0.44430167434E+03  0.00000000000E+00 0. -1.
         25    1    1    2    0    0 -0.16018278589E+02 -0.52418394438E+02 -0.26955408833E+03  0.30214016592E+03  0.12500000000E+03 0.  0.
          2    1    1    2  502    0  0.48497618137E+02  0.31112403094E+02 -0.11862218076E+03  0.13187578382E+03  0.00000000000E+00 0. -1.
         -2    1    1    2    0  501 -0.32479339548E+02  0.21305991344E+02 -0.21845625956E+02  0.44565503902E+02  0.00000000000E+00 0.  1.
<mgrwt>
<rscale>  0 0.45809458E+02</rscale>
<asrwt>0</asrwt>
<pdfrwt beam="2">  1        1 0.68354105E-01 0.54024018E+02</pdfrwt>
<pdfrwt beam="1">  1       -1 0.52738121E-02 0.38843954E+02</pdfrwt>
<totfact> 0.73328414E+03</totfact>
</mgrwt>
</event>
<event>
 5    1  0.8274494E-003  0.3355462E+02  0.7546771E-02  0.1577994E+00
          1   -1    0    0  501    0 -0.00000000000E+00  0.00000000000E+00  0.12938997096E+03  0.12938997096E+03  0.00000000000E+00 0. -1.
          2   -1    0    0  502    0  0.00000000000E+00 -0.00000000000E+00 -0.32970930880E+03  0.32970930880E+03  0.00000000000E+00 0. -1.
         25    1    1    2    0    0 -0.25477601480E+02  0.10895800344E+02  0.86323647646E+02  0.15441696405E+03  0.12500000000E+03 0.  0.
          2    1    1    2  501    0 -0.81602778502E+01  0.32547235817E+02 -0.41052939729E+02  0.53021283975E+02  0.00000000000E+00 0. -1.
          1    1    1    2  502    0  0.33637879331E+02 -0.43443036161E+02 -0.24559004576E+03  0.25166103174E+03  0.00000000000E+00 0. -1.
<mgrwt>
<rscale>  0 0.31899520E+02</rscale>
<asrwt>0</asrwt>
<pdfrwt beam="2">  1        2 0.50724508E-01 0.33554623E+02</pdfrwt>
<pdfrwt beam="1">  1        1 0.19906150E-01 0.30326057E+02</pdfrwt>
<totfact> 0.31313429E+03</totfact>
</mgrwt>
</event>
<event>
 5    1  0.8274494E-003  0.6729835E+02  0.7546771E-02  0.1470820E+00
          2   -1    0    0  502    0  0.00000000000E+00  0.00000000000E+00  0.10093686801E+04  0.10093686801E+04  0.00000000000E+00 0. -1.
          1   -1    0    0  501    0 -0.00000000000E+00 -0.00000000000E+00 -0.44807403626E+03  0.44807403626E+03  0.00000000000E+00 0. -1.
         25    1    1    2    0    0 -0.16737137552E+02 -0.35435877962E+02  0.16984325359E+02  0.13209580057E+03  0.12500000000E+03 0.  0.
          2    1    1    2  501    0  0.40340591090E+02  0.55309307855E+02 -0.38726073367E+03  0.39326499802E+03  0.00000000000E+00 0. -1.
          1    1    1    2  502    0 -0.23603453539E+02 -0.19873429893E+02  0.93157105218E+03  0.93208191780E+03  0.00000000000E+00 0. -1.
<mgrwt>
<rscale>  0 0.45569068E+02</rscale>
<asrwt>0</asrwt>
<pdfrwt beam="1">  1        2 0.15528749E+00 0.30855733E+02</pdfrwt>
<pdfrwt beam="2">  1        1 0.68934468E-01 0.67298353E+02</pdfrwt>
<totfact> 0.21292593E+02</totfact>
</mgrwt>
</event>
<event>
 5    1  0.8274494E-003  0.7646278E+02  0.7546771E-02  0.1361660E+00
          1   -1    0    0  501    0 -0.00000000000E+00  0.00000000000E+00  0.57927092624E+03  0.57927092624E+03  0.00000000000E+00 0. -1.
          2   -1    0    0  502    0  0.00000000000E+00 -0.00000000000E+00 -0.93740314452E+02  0.93740314452E+02  0.00000000000E+00 0. -1.
         25    1    1    2    0    0 -0.18701686937E+02 -0.75642216562E+00  0.22930179271E+03  0.26182940516E+03  0.12500000000E+03 0.  0.
          2    1    1    2  501    0 -0.62763697313E+02  0.77989439989E+01  0.30798331202E+03  0.31441028245E+03  0.00000000000E+00 0. -1.
          1    1    1    2  502    0  0.81465384250E+02 -0.70425218333E+01 -0.51754492943E+02  0.96771553076E+02  0.00000000000E+00 0. -1.
<mgrwt>
<rscale>  0 0.69541317E+02</rscale>
<asrwt>0</asrwt>
<pdfrwt beam="2">  1        2 0.14421587E-01 0.76462785E+02</pdfrwt>
<pdfrwt beam="1">  1        1 0.89118602E-01 0.63246385E+02</pdfrwt>
<totfact> 0.20207374E+03</totfact>
</mgrwt>
</event>
<event>
 5    1  0.8274494E-003  0.6555066E+02  0.7546771E-02  0.1386676E+00
          1   -1    0    0  501    0 -0.00000000000E+00  0.00000000000E+00  0.26633561913E+02  0.26633561913E+02  0.00000000000E+00 0. -1.
          2   -1    0    0  502    0  0.00000000000E+00 -0.00000000000E+00 -0.21610424880E+04  0.21610424880E+04  0.00000000000E+00 0. -1.
         25    1    1    2    0    0 -0.38439772818E+01  0.14038457404E+02 -0.57729681325E+03  0.59085401330E+03  0.12500000000E+03 0.  0.
          2    1    1    2  501    0 -0.47563075561E+02  0.36660487266E+02 -0.28440393218E+02  0.66446169564E+02  0.00000000000E+00 0. -1.
          1    1    1    2  502    0  0.51407052842E+02 -0.50698944670E+02 -0.15286717196E+04  0.15303758671E+04  0.00000000000E+00 0. -1.
<mgrwt>
<rscale>  0 0.62741098E+02</rscale>
<asrwt>0</asrwt>
<pdfrwt beam="2">  1        2 0.33246801E+00 0.65550660E+02</pdfrwt>
<pdfrwt beam="1">  1        1 0.40974719E-02 0.60051957E+02</pdfrwt>
<totfact> 0.18541868E+03</totfact>
</mgrwt>
</event>
<event>
 5    1  0.8274494E-003  0.7272110E+02  0.7546771E-02  0.1439840E+00
         -1   -1    0    0    0  502 -0.00000000000E+00  0.00000000000E+00  0.47925422454E+02  0.47925422454E+02  0.00000000000E+00 0.  1.
         -2   -1    0    0    0  501  0.00000000000E+00 -0.00000000000E+00 -0.68799142208E+03  0.68799142208E+03  0.00000000000E+00 0.  1.
         25    1    1    2    0    0 -0.48088722469E+02  0.15892781544E+02 -0.26802578314E+03  0.30004653999E+03  0.12500000000E+03 0.  0.
         -2    1    1    2    0  502  0.76820952927E+02  0.54892130412E+01 -0.16798261390E+02  0.78827481592E+02  0.00000000000E+00 0.  1.
         -1    1    1    2    0  501 -0.28732230459E+02 -0.21381994585E+02 -0.35524195509E+03  0.35704282295E+03  0.00000000000E+00 0.  1.
<mgrwt>
<rscale>  0 0.51034528E+02</rscale>
<asrwt>0</asrwt>
<pdfrwt beam="2">  1       -2 0.10584484E+00 0.35815231E+02</pdfrwt>
<pdfrwt beam="1">  1       -1 0.73731417E-02 0.72721103E+02</pdfrwt>
<totfact> 0.52175733E+02</totfact>
</mgrwt>
</event>
<event>
 5    1  0.8274494E-003  0.1265338E+03  0.7546771E-02  0.1282567E+00
          1   -1    0    0  501    0 -0.00000000000E+00  0.00000000000E+00  0.59336359374E+02  0.59336359374E+02  0.00000000000E+00 0. -1.
          2   -1    0    0  502    0  0.00000000000E+00 -0.00000000000E+00 -0.80737657094E+03  0.80737657094E+03  0.00000000000E+00 0. -1.
         25    1    1    2    0    0 -0.57194441290E+02 -0.69421799308E+02 -0.21271131749E+03  0.26260558814E+03  0.12500000000E+03 0.  0.
          2    1    1    2  501    0 -0.76322065605E+02  0.12535887528E+02 -0.38270784028E+02  0.86295185755E+02  0.00000000000E+00 0. -1.
          1    1    1    2  502    0  0.13351650690E+03  0.56885911781E+02 -0.49705811004E+03  0.51781215642E+03  0.00000000000E+00 0. -1.
<mgrwt>
<rscale>  0 0.98927861E+02</rscale>
<asrwt>0</asrwt>
<pdfrwt beam="2">  1        2 0.12421178E+00 0.12653380E+03</pdfrwt>
<pdfrwt beam="1">  1        1 0.91286708E-02 0.77344723E+02</pdfrwt>
<totfact> 0.32818153E+03</totfact>
</mgrwt>
</event>
<event>
 5    1  0.8274494E-003  0.9525065E+02  0.7546771E-02  0.1408413E+00
          1   -1    0    0  501    0 -0.00000000000E+00  0.00000000000E+00  0.19810497400E+04  0.19810497400E+04  0.00000000000E+00 0. -1.
          2   -1    0    0  502    0  0.00000000000E+00 -0.00000000000E+00 -0.11242421757E+03  0.11242421757E+03  0.00000000000E+00 0. -1.
         25    1    1    2    0    0  0.64754104130E+02  0.47796418173E+02  0.47357682180E+03  0.49636438001E+03  0.12500000000E+03 0.  0.
          2    1    1    2  501    0  0.27641648966E+02 -0.21093687068E+02  0.14729382177E+04  0.14733485663E+04  0.00000000000E+00 0. -1.
          1    1    1    2  502    0 -0.92395753096E+02 -0.26702731105E+02 -0.77889517132E+02  0.12376101130E+03  0.00000000000E+00 0. -1.
<mgrwt>
<rscale>  0 0.57549418E+02</rscale>
<asrwt>0</asrwt>
<pdfrwt beam="2">  1        2 0.17296035E-01 0.95250646E+02</pdfrwt>
<pdfrwt beam="1">  1        1 0.30477686E+00 0.34770740E+02</pdfrwt>
<totfact> 0.19260295E+02</totfact>
</mgrwt>
</event>
<event>
 5    1  0.8274494E-003  0.8362508E+02  0.7546771E-02  0.1451172E+00
          1   -1    0    0  501    0 -0.00000000000E+00  0.00000000000E+00  0.40395155174E+03  0.40395155174E+03  0.00000000000E+00 0. -1.
          2   -1    0    0  502    0  0.00000000000E+00 -0.00000000000E+00 -0.25692712856E+03  0.25692712856E+03  0.00000000000E+00 0. -1.
         25    1    1    2    0    0 -0.15592841501E+02 -0.99098582066E+02 -0.44843650686E+02  0.16643202420E+03  0.12500000000E+03 0.  0.
          2    1    1    2  501    0  0.22013435999E+02  0.18313678857E+02  0.33164352602E+03  0.33287747077E+03  0.00000000000E+00 0. -1.
          1    1    1    2  502    0 -0.64205944981E+01  0.80784903208E+02 -0.13977545216E+03  0.16156918532E+03  0.00000000000E+00 0. -1.
<mgrwt>
<rscale>  0 0.48934975E+02</rscale>
<asrwt>0</asrwt>
<pdfrwt beam="2">  1        2 0.39527251E-01 0.83625078E+02</pdfrwt>
<pdfrwt beam="1">  1        1 0.62146393E-01 0.28635331E+02</pdfrwt>
<totfact> 0.10680951E+03</totfact>
</mgrwt>
</event>
<event>
 5    1  0.8274494E-003  0.6078043E+02  0.7546771E-02  0.1483763E+00
         -2   -1    0    0    0  501 -0.00000000000E+00  0.00000000000E+00  0.26235406078E+03  0.26235406078E+03  0.00000000000E+00 0.  1.
          2   -1    0    0  502    0  0.00000000000E+00 -0.00000000000E+00 -0.16067829364E+04  0.16067829364E+04  0.00000000000E+00 0. -1.
         25    1    1    2    0    0  0.30185124100E+02  0.80748478247E+02 -0.32340901613E+03  0.35728119201E+03  0.12500000000E+03 0.  0.
          1    1    1    2  502    0 -0.75383511861E+01 -0.59332983175E+02 -0.12647386228E+04  0.12661520500E+04  0.00000000000E+00 0. -1.
         -1    1    1    2    0  501 -0.22646772914E+02 -0.21415495072E+02  0.24371876328E+03  0.24570375522E+03  0.00000000000E+00 0.  1.
<mgrwt>
<rscale>  0 0.43525380E+02</rscale>
<asrwt>0</asrwt>
<pdfrwt beam="2">  1        2 0.24719737E+00 0.60780435E+02</pdfrwt>
<pdfrwt beam="1">  1       -2 0.40362164E-01 0.31168891E+02</pdfrwt>
<totfact> 0.78691396E+01</totfact>
</mgrwt>
</event>
<event>
 5    1  0.8274494E-003  0.4652406E+02  0.7546771E-02  0.1520668E+00
          2   -1    0    0  502    0  0.00000000000E+00  0.00000000000E+00  0.33065332283E+04  0.33065332283E+04  0.00000000000E+00 0. -1.
         -2   -1    0    0    0  501 -0.00000000000E+00 -0.00000000000E+00 -0.99496486314E+01  0.99496486314E+01  0.00000000000E+00 0.  1.
         25    1    1    2    0    0 -0.45986792100E+02  0.47831297333E+02  0.15385722802E+04  0.15450670792E+04  0.12500000000E+03 0.  0.
          1    1    1    2  502    0  0.42112497372E+02 -0.16447092861E+02  0.17253932200E+04  0.17259854383E+04  0.00000000000E+00 0. -1.
         -1    1    1    2    0  501  0.38742947277E+01 -0.31384204472E+02  0.32618079419E+02  0.45430359397E+02  0.00000000000E+00 0.  1.
<mgrwt>
<rscale>  0 0.38356277E+02</rscale>
<asrwt>0</asrwt>
<pdfrwt beam="1">  1        2 0.50869654E+00 0.46524055E+02</pdfrwt>
<pdfrwt beam="2">  1       -2 0.15307178E-02 0.31622436E+02</pdfrwt>
<totfact> 0.15419013E+03</totfact>
</mgrwt>
</event>
<event>
 5    1  0.8274494E-003  0.5327430E+02  0.7546771E-02  0.1548173E+00
         -3   -1    0    0    0  501 -0.00000000000E+00  0.00000000000E+00  0.20623778325E+02  0.20623778325E+02  0.00000000000E+00 0.  1.
          1   -1    0    0  502    0  0.00000000000E+00 -0.00000000000E+00 -0.20082740978E+04  0.20082740978E+04  0.00000000000E+00 0. -1.
         25    1    1    2    0    0 -0.52103184296E+02  0.94340871082E+00 -0.66468623648E+03  0.67834240970E+03  0.12500000000E+03 0.  0.
          2    1    1    2  502    0  0.30488043143E+01 -0.22855125529E+02 -0.12839536415E+04  0.12841606618E+04  0.00000000000E+00 0. -1.
         -2    1    1    2    0  501  0.49054379981E+02  0.21911716818E+02 -0.39010441550E+02  0.66394804610E+02  0.00000000000E+00 0.  1.
<mgrwt>
<rscale>  0 0.35048200E+02</rscale>
<asrwt>0</asrwt>
<pdfrwt beam="2">  1        1 0.30896525E+00 0.23057579E+02</pdfrwt>
<pdfrwt beam="1">  1       -3 0.31728889E-02 0.53274295E+02</pdfrwt>
<totfact> 0.93983729E+02</totfact>
</mgrwt>
</event>
<event>
 5    1  0.8274494E-003  0.1433206E+03  0.7546771E-02  0.1252858E+00
          2   -1    0    0  502    0  0.00000000000E+00  0.00000000000E+00  0.59276354950E+03  0.59276354950E+03  0.00000000000E+00 0. -1.
          1   -1    0    0  501    0 -0.00000000000E+00 -0.00000000000E+00 -0.11885304307E+04  0.11885304307E+04  0.00000000000E+00 0. -1.
         25    1    1    2    0    0 -0.35963899946E+02 -0.41044620493E+02  0.18824143234E+03  0.23246053389E+03  0.12500000000E+03 0.  0.
          2    1    1    2  501    0  0.84295320782E+02  0.11827881097E+03 -0.11563860542E+04  0.11654717005E+04  0.00000000000E+00 0. -1.
          1    1    1    2  502    0 -0.48331420836E+02 -0.77234190481E+02  0.37237774067E+03  0.38336174583E+03  0.00000000000E+00 0. -1.
<mgrwt>
<rscale>  0 0.11427141E+03</rscale>
<asrwt>0</asrwt>
<pdfrwt beam="1">  1        2 0.91194393E-01 0.91110079E+02</pdfrwt>
<pdfrwt beam="2">  1        1 0.18285083E+00 0.14332063E+03</pdfrwt>
<totfact> 0.87999959E+01</totfact>
</mgrwt>
</event>
<event>
 5    1  0.8274494E-003  0.5687997E+02  0.7546771E-02  0.1471327E+00
          1   -1    0    0  501    0 -0.00000000000E+00  0.00000000000E+00  0.90528340742E+03  0.90528340742E+03  0.00000000000E+00 0. -1.
          2   -1    0    0  502    0  0.00000000000E+00 -0.00000000000E+00 -0.22143165166E+04  0.22143165166E+04  0.00000000000E+00 0. -1.
         25    1    1    2    0    0  0.28374104057E+02  0.59061241252E+02 -0.44204088197E+01  0.14120148729E+03  0.12500000000E+03 0.  0.
          2    1    1    2  501    0 -0.36273354753E+02 -0.27198015301E+01  0.83611950221E+03  0.83691037486E+03  0.00000000000E+00 0. -1.
          1    1    1    2  502    0  0.78992506957E+01 -0.56341439721E+02 -0.21407322026E+04  0.21414880619E+04  0.00000000000E+00 0. -1.
<mgrwt>
<rscale>  0 0.45486471E+02</rscale>
<asrwt>0</asrwt>
<pdfrwt beam="2">  1        2 0.34066408E+00 0.56879969E+02</pdfrwt>
<pdfrwt beam="1">  1        1 0.13927437E+00 0.36375178E+02</pdfrwt>
<totfact> 0.20129068E+01</totfact>
</mgrwt>
</event>
<event>
 5    1  0.8274494E-003  0.9402273E+02  0.7546771E-02  0.1368019E+00
          2   -1    0    0  502    0  0.00000000000E+00  0.00000000000E+00  0.19775815462E+03  0.19775815462E+03  0.00000000000E+00 0. -1.
          1   -1    0    0  501    0 -0.00000000000E+00 -0.00000000000E+00 -0.64743111648E+03  0.64743111648E+03  0.00000000000E+00 0. -1.
         25    1    1    2    0    0  0.19096721631E+02  0.89084025656E+02 -0.16618669510E+03  0.22703230174E+03  0.12500000000E+03 0.  0.
          2    1    1    2  501    0  0.29612116303E+02 -0.91662520584E+02 -0.44196559703E+03  0.45234111472E+03  0.00000000000E+00 0. -1.
          1    1    1    2  502    0 -0.48708837934E+02  0.25784949277E+01  0.15847933026E+03  0.16581585464E+03  0.00000000000E+00 0. -1.
<mgrwt>
<rscale>  0 0.67721123E+02</rscale>
<asrwt>0</asrwt>
<pdfrwt beam="1">  1        2 0.30424332E-01 0.48777039E+02</pdfrwt>
<pdfrwt beam="2">  1        1 0.99604785E-01 0.94022733E+02</pdfrwt>
<totfact> 0.74346875E+02</totfact>
</mgrwt>
</event>
<event>
 5    1  0.8274494E-003  0.7637594E+02  0.7546771E-02  0.1382609E+00
          2   -1    0    0  502    0  0.00000000000E+00  0.00000000000E+00  0.14054826271E+04  0.14054826271E+04  0.00000000000E+00 0. -1.
          3   -1    0    0  501    0 -0.00000000000E+00 -0.00000000000E+00 -0.63255927946E+02  0.63255927946E+02  0.00000000000E+00 0. -1.
         25    1    1    2    0    0  0.75068471948E+02  0.45243795500E+00  0.39314427888E+03  0.41931241836E+03  0.12500000000E+03 0.  0.
          2    1    1    2  501    0 -0.15712066574E+02  0.50896174301E+02 -0.34015165983E+02  0.63200641701E+02  0.00000000000E+00 0. -1.
          1    1    1    2  502    0 -0.59356405373E+02 -0.51348612256E+02  0.98309758622E+03  0.98622549494E+03  0.00000000000E+00 0. -1.
<mgrwt>
<rscale>  0 0.63782892E+02</rscale>
<asrwt>0</asrwt>
<pdfrwt beam="1">  1        2 0.21622807E+00 0.76375942E+02</pdfrwt>
<pdfrwt beam="2">  1        3 0.97316823E-02 0.53266214E+02</pdfrwt>
<totfact> 0.68720293E+02</totfact>
</mgrwt>
</event>
<event>
 5    1  0.8274494E-003  0.9762615E+02  0.7546771E-02  0.1377810E+00
          2   -1    0    0  502    0  0.00000000000E+00  0.00000000000E+00  0.34839710815E+03  0.34839710815E+03  0.00000000000E+00 0. -1.
          1   -1    0    0  501    0 -0.00000000000E+00 -0.00000000000E+00 -0.12070571724E+03  0.12070571724E+03  0.00000000000E+00 0. -1.
         25    1    1    2    0    0  0.61435986510E+02  0.17205429927E+02  0.97090586756E+02  0.17065166068E+03  0.12500000000E+03 0.  0.
          2    1    1    2  501    0 -0.99553470205E+02 -0.37819447600E+02 -0.46442635284E+02  0.11618142028E+03  0.00000000000E+00 0. -1.
          1    1    1    2  502    0  0.38117483694E+02  0.20614017673E+02  0.17704343943E+03  0.18226974443E+03  0.00000000000E+00 0. -1.
<mgrwt>
<rscale>  0 0.65042923E+02</rscale>
<asrwt>0</asrwt>
<pdfrwt beam="1">  1        2 0.53599554E-01 0.43334516E+02</pdfrwt>
<pdfrwt beam="2">  1        1 0.18570111E-01 0.97626148E+02</pdfrwt>
<totfact> 0.34061475E+03</totfact>
</mgrwt>
</event>
<event>
 5    1  0.8274494E-003  0.1518836E+03  0.7546771E-02  0.1291137E+00
          1   -1    0    0  501    0 -0.00000000000E+00  0.00000000000E+00  0.74422187765E+03  0.74422187765E+03  0.00000000000E+00 0. -1.
          2   -1    0    0  502    0  0.00000000000E+00 -0.00000000000E+00 -0.13705561222E+04  0.13705561222E+04  0.00000000000E+00 0. -1.
         25    1    1    2    0    0  0.18903015966E+03  0.63454217912E+02 -0.47295205339E+03  0.52826838239E+03  0.12500000000E+03 0.  0.
          2    1    1    2  501    0 -0.13086537907E+03 -0.75710755657E+02  0.70755266606E+03  0.72352514899E+03  0.00000000000E+00 0. -1.
          3    1    1    2  502    0 -0.58164780595E+02  0.12256537746E+02 -0.86093485720E+03  0.86298446844E+03  0.00000000000E+00 0. -1.
<mgrwt>
<rscale>  0 0.95017285E+02</rscale>
<asrwt>0</asrwt>
<pdfrwt beam="2">  1        2 0.21085479E+00 0.59442110E+02</pdfrwt>
<pdfrwt beam="1">  1        1 0.11449567E+00 0.15188365E+03</pdfrwt>
<totfact> 0.65045107E+01</totfact>
</mgrwt>
</event>
<event>
 5    1  0.8274494E-003  0.6053001E+02  0.7546771E-02  0.1406142E+00
          2   -1    0    0  502    0  0.00000000000E+00  0.00000000000E+00  0.26264807071E+04  0.26264807071E+04  0.00000000000E+00 0. -1.
         -2   -1    0    0    0  501 -0.00000000000E+00 -0.00000000000E+00 -0.54803377599E+02  0.54803377599E+02  0.00000000000E+00 0.  1.
         25    1    1    2    0    0 -0.41203851960E+02 -0.61738073064E+02  0.12685619490E+04  0.12768648188E+04  0.12500000000E+03 0.  0.
          1    1    1    2  502    0  0.60897136159E+02  0.96379326080E+01  0.13375278562E+04  0.13389481383E+04  0.00000000000E+00 0. -1.
         -1    1    1    2    0  501 -0.19693284200E+02  0.52100140456E+02 -0.34412475627E+02  0.65471127658E+02  0.00000000000E+00 0.  1.
<mgrwt>
<rscale>  0 0.58063682E+02</rscale>
<asrwt>0</asrwt>
<pdfrwt beam="1">  1        2 0.40407386E+00 0.60530011E+02</pdfrwt>
<pdfrwt beam="2">  1       -2 0.84312909E-02 0.55697846E+02</pdfrwt>
<totfact> 0.32757005E+02</totfact>
</mgrwt>
</event>
<event>
 5    1  0.8274494E-003  0.3948727E+02  0.7546771E-02  0.1567309E+00
          1   -1    0    0  502    0  0.00000000000E+00  0.00000000000E+00  0.13666800103E+04  0.13666800103E+04  0.00000000000E+00 0. -1.
         -1   -1    0    0    0  501 -0.00000000000E+00 -0.00000000000E+00 -0.63351586015E+02  0.63351586015E+02  0.00000000000E+00 0.  1.
         25    1    1    2    0    0 -0.15378002949E+02  0.11510077909E+01  0.11413753021E+04  0.11483032649E+04  0.12500000000E+03 0.  0.
          2    1    1    2  502    0  0.10987232995E+02  0.38091388168E+02  0.21330047576E+03  0.21695337310E+03  0.00000000000E+00 0. -1.
         -2    1    1    2    0  501  0.43907699542E+01 -0.39242395959E+02 -0.51347353625E+02  0.64774958323E+02  0.00000000000E+00 0.  1.
<mgrwt>
<rscale>  0 0.32979761E+02</rscale>
<asrwt>0</asrwt>
<pdfrwt beam="1">  1        1 0.21025844E+00 0.27544690E+02</pdfrwt>
<pdfrwt beam="2">  1       -1 0.97463989E-02 0.39487270E+02</pdfrwt>
<totfact> 0.60329498E+02</totfact>
</mgrwt>
</event>
<event>
 5    1  0.8274494E-003  0.8787286E+02  0.7546771E-02  0.1351330E+00
          2   -1    0    0  502    0  0.00000000000E+00  0.00000000000E+00  0.38656489875E+03  0.38656489875E+03  0.00000000000E+00 0. -1.
          1   -1    0    0  501    0 -0.00000000000E+00 -0.00000000000E+00 -0.22947051416E+03  0.22947051416E+03  0.00000000000E+00 0. -1.
         25    1    1    2    0    0 -0.13582913537E+02  0.13378496451E+03  0.18739208004E+03  0.26234272228E+03  0.12500000000E+03 0.  0.
          2    1    1    2  501    0 -0.58855254347E+01 -0.59763333900E+02 -0.17771661859E+03  0.18758862442E+03  0.00000000000E+00 0. -1.
          1    1    1    2  502    0  0.19468438972E+02 -0.74021630615E+02  0.14741892313E+03  0.16610406621E+03  0.00000000000E+00 0. -1.
<mgrwt>
<rscale>  0 0.72642821E+02</rscale>
<asrwt>0</asrwt>
<pdfrwt beam="1">  1        2 0.59471523E-01 0.87872858E+02</pdfrwt>
<pdfrwt beam="2">  1        1 0.35303156E-01 0.60052439E+02</pdfrwt>
<totfact> 0.13704298E+03</totfact>
</mgrwt>
</event>
<event>
 5    1  0.8274494E-003  0.8986533E+02  0.7546771E-02  0.1341819E+00
          2   -1    0    0  502    0  0.00000000000E+00  0.00000000000E+00  0.14135083033E+04  0.14135083033E+04  0.00000000000E+00 0. -1.
          1   -1    0    0  501    0 -0.00000000000E+00 -0.00000000000E+00 -0.50468309510E+03  0.50468309510E+03  0.00000000000E+00 0. -1.
         25    1    1    2    0    0  0.12865835634E+02 -0.15024710026E+03  0.17279588930E+03  0.26119559763E+03  0.12500000000E+03 0.  0.
          2    1    1    2  501    0 -0.11900360229E+02  0.62590336287E+02 -0.45666315450E+03  0.46108611500E+03  0.00000000000E+00 0. -1.
          1    1    1    2  502    0 -0.96547540476E+00  0.87656763968E+02  0.11926924734E+04  0.11959096858E+04  0.00000000000E+00 0. -1.
<mgrwt>
<rscale>  0 0.75666799E+02</rscale>
<asrwt>0</asrwt>
<pdfrwt beam="1">  1        2 0.21746281E+00 0.89865329E+02</pdfrwt>
<pdfrwt beam="2">  1        1 0.77643554E-01 0.63711606E+02</pdfrwt>
<totfact> 0.10448862E+02</totfact>
</mgrwt>
</event>
<event>
 5    1  0.8274494E-003  0.7295911E+02  0.7546771E-02  0.1416746E+00
         -1   -1    0    0    0  501 -0.00000000000E+00  0.00000000000E+00  0.26610007574E+03  0.26610007574E+03  0.00000000000E+00 0.  1.
          1   -1    0    0  502    0  0.00000000000E+00 -0.00000000000E+00 -0.20038692373E+03  0.20038692373E+03  0.00000000000E+00 0. -1.
         25    1    1    2    0    0 -0.21889557161E+02  0.25267465387E+02 -0.14566214102E+03  0.19483340793E+03  0.12500000000E+03 0.  0.
          2    1    1    2  502    0 -0.38306776543E+02  0.18515892299E+02 -0.49936404123E+01  0.42839045756E+02  0.00000000000E+00 0. -1.
         -2    1    1    2    0  501  0.60196333704E+02 -0.43783357685E+02  0.21636893344E+03  0.22881454578E+03  0.00000000000E+00 0.  1.
<mgrwt>
<rscale>  0 0.55715272E+02</rscale>
<asrwt>0</asrwt>
<pdfrwt beam="2">  1        1 0.30828757E-01 0.42547002E+02</pdfrwt>
<pdfrwt beam="1">  1       -1 0.40938473E-01 0.72959113E+02</pdfrwt>
<totfact> 0.84036886E+02</totfact>
</mgrwt>
</event>
<event>
 5    1  0.8274494E-003  0.9431379E+02  0.7546771E-02  0.1446244E+00
         -1   -1    0    0    0  501 -0.00000000000E+00  0.00000000000E+00  0.51842412389E+02  0.51842412389E+02  0.00000000000E+00 0.  1.
          1   -1    0    0  502    0  0.00000000000E+00 -0.00000000000E+00 -0.11085373422E+04  0.11085373422E+04  0.00000000000E+00 0. -1.
         25    1    1    2    0    0 -0.54162529117E+02 -0.62203551320E+02 -0.55639888359E+03  0.57620098839E+03  0.12500000000E+03 0.  0.
          2    1    1    2  502    0  0.48723738170E+02  0.87966201222E+02 -0.53288046852E+03  0.54228557877E+03  0.00000000000E+00 0. -1.
         -2    1    1    2    0  501  0.54387909467E+01 -0.25762649902E+02  0.32584422294E+02  0.41893187432E+02  0.00000000000E+00 0.  1.
<mgrwt>
<rscale>  0 0.49833001E+02</rscale>
<asrwt>0</asrwt>
<pdfrwt beam="2">  1        1 0.17054421E+00 0.94313787E+02</pdfrwt>
<pdfrwt beam="1">  1       -1 0.79757557E-02 0.26330488E+02</pdfrwt>
<totfact> 0.10266902E+03</totfact>
</mgrwt>
</event>
<event>
 5    1  0.8274494E-003  0.1345741E+03  0.7546771E-02  0.1272435E+00
          2   -1    0    0  502    0  0.00000000000E+00  0.00000000000E+00  0.39626108814E+03  0.39626108814E+03  0.00000000000E+00 0. -1.
          1   -1    0    0  501    0 -0.00000000000E+00 -0.00000000000E+00 -0.29806429184E+03  0.29806429184E+03  0.00000000000E+00 0. -1.
         25    1    1    2    0    0  0.20925575353E+02  0.34640651718E+02 -0.12519098384E+03  0.18148178115E+03  0.12500000000E+03 0.  0.
          2    1    1    2  501    0 -0.15353894815E+03 -0.57529297293E+02 -0.78896175036E+02  0.18195723421E+03  0.00000000000E+00 0. -1.
          1    1    1    2  502    0  0.13261337279E+03  0.22888645576E+02  0.30228395517E+03  0.33088636462E+03  0.00000000000E+00 0. -1.
<mgrwt>
<rscale>  0 0.10383361E+03</rscale>
<asrwt>0</asrwt>
<pdfrwt beam="1">  1        2 0.60963245E-01 0.13457413E+03</pdfrwt>
<pdfrwt beam="2">  1        1 0.45856045E-01 0.80115093E+02</pdfrwt>
<totfact> 0.97385760E+02</totfact>
</mgrwt>
</event>
<event>
 5    1  0.8274494E-003  0.1231298E+03  0.7546771E-02  0.1304918E+00
          1   -1    0    0  501    0 -0.00000000000E+00  0.00000000000E+00  0.77590665192E+03  0.77590665192E+03  0.00000000000E+00 0. -1.
          2   -1    0    0  502    0  0.00000000000E+00 -0.00000000000E+00 -0.10535679264E+04  0.10535679264E+04  0.00000000000E+00 0. -1.
         25    1    1    2    0    0  0.22516127300E+02 -0.16905949299E+03 -0.32197632478E+02  0.21389197202E+03  0.12500000000E+03 0.  0.
          2    1    1    2  501    0  0.27403768673E+02  0.58445087404E+02  0.67956673238E+03  0.68262562107E+03  0.00000000000E+00 0. -1.
          1    1    1    2  502    0 -0.49919895973E+02  0.11061440559E+03 -0.92503037435E+03  0.93295698519E+03  0.00000000000E+00 0. -1.
<mgrwt>
<rscale>  0 0.89152210E+02</rscale>
<asrwt>0</asrwt>
<pdfrwt beam="2">  1        2 0.16208737E+00 0.12312980E+03</pdfrwt>
<pdfrwt beam="1">  1        1 0.11937025E+00 0.64550715E+02</pdfrwt>
<totfact> 0.90170274E+01</totfact>
</mgrwt>
</event>
<event>
 5    1  0.8274494E-003  0.8569523E+02  0.7546771E-02  0.1370654E+00
          2   -1    0    0  502    0  0.00000000000E+00  0.00000000000E+00  0.10651605944E+03  0.10651605944E+03  0.00000000000E+00 0. -1.
          1   -1    0    0  501    0 -0.00000000000E+00 -0.00000000000E+00 -0.13233991581E+04  0.13233991581E+04  0.00000000000E+00 0. -1.
         25    1    1    2    0    0 -0.11984502662E+03 -0.19948234945E+02 -0.60828101713E+03  0.63276501032E+03  0.12500000000E+03 0.  0.
          2    1    1    2  501    0  0.36799875708E+02  0.37248046749E+02 -0.68258626601E+03  0.68459159971E+03  0.00000000000E+00 0. -1.
          1    1    1    2  502    0  0.83045150915E+02 -0.17299811804E+02  0.73984184463E+02  0.11255860753E+03  0.00000000000E+00 0. -1.
<mgrwt>
<rscale>  0 0.66985568E+02</rscale>
<asrwt>0</asrwt>
<pdfrwt beam="1">  1        2 0.16387086E-01 0.85695230E+02</pdfrwt>
<pdfrwt beam="2">  1        1 0.20359987E+00 0.52360747E+02</pdfrwt>
<totfact> 0.49240298E+02</totfact>
</mgrwt>
</event>
<event>
 5    1  0.8274494E-003  0.2069537E+03  0.7546771E-02  0.1218552E+00
          2   -1    0    0  502    0  0.00000000000E+00  0.00000000000E+00  0.14380013080E+04  0.14380013080E+04  0.00000000000E+00 0. -1.
          1   -1    0    0  501    0 -0.00000000000E+00 -0.00000000000E+00 -0.75852443820E+03  0.75852443820E+03  0.00000000000E+00 0. -1.
         25    1    1    2    0    0  0.47879139151E+02  0.12094758863E+03  0.14276109552E+03  0.23005751793E+03  0.12500000000E+03 0.  0.
          2    1    1    2  501    0 -0.11529882430E+03 -0.17999284237E+03 -0.69723599306E+03  0.72926625605E+03  0.00000000000E+00 0. -1.
          1    1    1    2  502    0  0.67419685147E+02  0.59045253733E+02  0.12339517673E+04  0.12372019722E+04  0.00000000000E+00 0. -1.
<mgrwt>
<rscale>  0 0.13618813E+03</rscale>
<asrwt>0</asrwt>
<pdfrwt beam="1">  1        2 0.22123097E+00 0.89620064E+02</pdfrwt>
<pdfrwt beam="2">  1        1 0.11669607E+00 0.20695373E+03</pdfrwt>
<totfact> 0.55796999E+01</totfact>
</mgrwt>
</event>
<event>
 5    1  0.8274494E-003  0.3856260E+02  0.7546771E-02  0.1549356E+00
          1   -1    0    0  501    0 -0.00000000000E+00  0.00000000000E+00  0.71555741429E+03  0.71555741429E+03  0.00000000000E+00 0. -1.
          2   -1    0    0  502    0  0.00000000000E+00 -0.00000000000E+00 -0.19556176987E+03  0.19556176987E+03  0.00000000000E+00 0. -1.
         25    1    1    2    0    0  0.26406968998E+02  0.71515743389E+01  0.18168097793E+03  0.22221937532E+03  0.12500000000E+03 0.  0.
          2    1    1    2  501    0 -0.12457094608E+02  0.29054668928E+02  0.51096563960E+03  0.51194261186E+03  0.00000000000E+00 0. -1.
          1    1    1    2  502    0 -0.13949874390E+02 -0.36206243267E+02 -0.17265097311E+03  0.17695719698E+03  0.00000000000E+00 0. -1.
<mgrwt>
<rscale>  0 0.34915067E+02</rscale>
<asrwt>0</asrwt>
<pdfrwt beam="2">  1        2 0.30086427E-01 0.38562599E+02</pdfrwt>
<pdfrwt beam="1">  1        1 0.11008575E+00 0.31612545E+02</pdfrwt>
<totfact> 0.68109496E+02</totfact>
</mgrwt>
</event>
<event>
 5    1  0.8274494E-003  0.1062084E+03  0.7546771E-02  0.1351904E+00
          1   -1    0    0  502    0  0.00000000000E+00  0.00000000000E+00  0.43957000737E+03  0.43957000737E+03  0.00000000000E+00 0. -1.
         -1   -1    0    0    0  501 -0.00000000000E+00 -0.00000000000E+00 -0.47228886009E+03  0.47228886009E+03  0.00000000000E+00 0.  1.
         25    1    1    2    0    0  0.49369561337E+02  0.46245217729E+02  0.49908615356E+00  0.14213100589E+03  0.12500000000E+03 0.  0.
          2    1    1    2  502    0  0.49299654841E+02  0.37634849010E+01  0.35890809903E+03  0.36229772748E+03  0.00000000000E+00 0. -1.
         -2    1    1    2    0  501 -0.98669216178E+02 -0.50008702630E+02 -0.39212603791E+03  0.40743013409E+03  0.00000000000E+00 0.  1.
<mgrwt>
<rscale>  0 0.72465679E+02</rscale>
<asrwt>0</asrwt>
<pdfrwt beam="1">  1        1 0.67626155E-01 0.49443096E+02</pdfrwt>
<pdfrwt beam="2">  1       -1 0.72659824E-01 0.10620845E+03</pdfrwt>
<totfact> 0.11370166E+02</totfact>
</mgrwt>
</event>
<event>
 5    1  0.8274494E-003  0.1843306E+03  0.7546771E-02  0.1178028E+00
          1   -1    0    0  502    0  0.00000000000E+00  0.00000000000E+00  0.75858989432E+03  0.75858989432E+03  0.00000000000E+00 0. -1.
         -1   -1    0    0    0  501 -0.00000000000E+00 -0.00000000000E+00 -0.10417924017E+04  0.10417924017E+04  0.00000000000E+00 0.  1.
         25    1    1    2    0    0  0.25147017379E+03 -0.79026685826E+02 -0.44378223304E+03  0.53108392533E+03  0.12500000000E+03 0.  0.
          2    1    1    2  502    0 -0.14656827338E+03 -0.54764354002E+02  0.69297338012E+03  0.71041783394E+03  0.00000000000E+00 0. -1.
         -2    1    1    2    0  501 -0.10490190041E+03  0.13379103983E+03 -0.53239365444E+03  0.55888053674E+03  0.00000000000E+00 0.  1.
<mgrwt>
<rscale>  0 0.16982742E+03</rscale>
<asrwt>0</asrwt>
<pdfrwt beam="1">  1        1 0.11670614E+00 0.15646531E+03</pdfrwt>
<pdfrwt beam="2">  1       -1 0.16027575E+00 0.18433064E+03</pdfrwt>
<totfact> 0.84806635E+00</totfact>
</mgrwt>
</event>
<event>
 5    1  0.8274494E-003  0.5135532E+02  0.7546771E-02  0.1480320E+00
          2   -1    0    0  502    0  0.00000000000E+00  0.00000000000E+00  0.25492063774E+03  0.25492063774E+03  0.00000000000E+00 0. -1.
          1   -1    0    0  501    0 -0.00000000000E+00 -0.00000000000E+00 -0.17439892022E+04  0.17439892022E+04  0.00000000000E+00 0. -1.
         25    1    1    2    0    0 -0.81628461450E+02 -0.33959308429E+02 -0.39799925361E+03  0.42643269835E+03  0.12500000000E+03 0.  0.
          2    1    1    2  501    0  0.36414711821E+02  0.10120108768E+02 -0.13287880081E+04  0.13293253997E+04  0.00000000000E+00 0. -1.
          1    1    1    2  502    0  0.45213749629E+02  0.23839199661E+02  0.23771869721E+03  0.24315174192E+03  0.00000000000E+00 0. -1.
<mgrwt>
<rscale>  0 0.44056381E+02</rscale>
<asrwt>0</asrwt>
<pdfrwt beam="1">  1        2 0.39218559E-01 0.51355321E+02</pdfrwt>
<pdfrwt beam="2">  1        1 0.26830604E+00 0.37794812E+02</pdfrwt>
<totfact> 0.10752263E+02</totfact>
</mgrwt>
</event>
<event>
 5    1  0.8274494E-003  0.1229031E+03  0.7546771E-02  0.1282280E+00
          1   -1    0    0  501    0 -0.00000000000E+00  0.00000000000E+00  0.11610201800E+04  0.11610201800E+04  0.00000000000E+00 0. -1.
          2   -1    0    0  502    0  0.00000000000E+00 -0.00000000000E+00 -0.36907177697E+03  0.36907177697E+03  0.00000000000E+00 0. -1.
         25    1    1    2    0    0  0.44819539387E+02  0.56432804477E+01 -0.12232851966E+03  0.18063749458E+03  0.12500000000E+03 0.  0.
          2    1    1    2  501    0 -0.12463465949E+03 -0.34165136487E+01  0.11209660644E+04  0.11278787118E+04  0.00000000000E+00 0. -1.
          1    1    1    2  502    0  0.79815120106E+02 -0.22267667990E+01 -0.20668914181E+03  0.22157575054E+03  0.00000000000E+00 0. -1.
<mgrwt>
<rscale>  0 0.99062302E+02</rscale>
<asrwt>0</asrwt>
<pdfrwt beam="2">  1        2 0.56780274E-01 0.79846176E+02</pdfrwt>
<pdfrwt beam="1">  1        1 0.17861849E+00 0.12290306E+03</pdfrwt>
<totfact> 0.15465818E+02</totfact>
</mgrwt>
</event>
<event>
 5    1  0.8274494E-003  0.3378992E+02  0.7546771E-02  0.1611822E+00
         -2   -1    0    0    0  501 -0.00000000000E+00  0.00000000000E+00  0.18063555342E+03  0.18063555342E+03  0.00000000000E+00 0.  1.
          2   -1    0    0  502    0  0.00000000000E+00 -0.00000000000E+00 -0.13925711588E+04  0.13925711588E+04  0.00000000000E+00 0. -1.
         25    1    1    2    0    0  0.53836444842E+02  0.35210386418E+01 -0.12716721555E+03  0.18629884921E+03  0.12500000000E+03 0.  0.
          1    1    1    2  502    0 -0.31124453658E+02 -0.12803889589E+02 -0.12346110582E+04  0.12350696888E+04  0.00000000000E+00 0. -1.
         -1    1    1    2    0  501 -0.22711991184E+02  0.92828509475E+01  0.14984266839E+03  0.15183817417E+03  0.00000000000E+00 0.  1.
<mgrwt>
<rscale>  0 0.28793452E+02</rscale>
<asrwt>0</asrwt>
<pdfrwt beam="2">  1        2 0.21424172E+00 0.33789917E+02</pdfrwt>
<pdfrwt beam="1">  1       -2 0.27790085E-01 0.24535808E+02</pdfrwt>
<totfact> 0.20224016E+02</totfact>
</mgrwt>
</event>
<event>
 5    1  0.8274494E-003  0.9352662E+02  0.7546771E-02  0.1463110E+00
         -2   -1    0    0    0  501 -0.00000000000E+00  0.00000000000E+00  0.62817942525E+03  0.62817942525E+03  0.00000000000E+00 0.  1.
          2   -1    0    0  502    0  0.00000000000E+00 -0.00000000000E+00 -0.73328514248E+03  0.73328514248E+03  0.00000000000E+00 0. -1.
         25    1    1    2    0    0  0.76639931464E+02 -0.33727250043E+02  0.32224407701E+02  0.15386558726E+03  0.12500000000E+03 0.  0.
          1    1    1    2  502    0  0.16207016909E+02  0.16973931424E+02 -0.66809850589E+03  0.66851057981E+03  0.00000000000E+00 0. -1.
         -1    1    1    2    0  501 -0.92846948373E+02  0.16753318619E+02  0.53076838096E+03  0.53908840067E+03  0.00000000000E+00 0.  1.
<mgrwt>
<rscale>  0 0.46850313E+02</rscale>
<asrwt>0</asrwt>
<pdfrwt beam="2">  1        2 0.11281310E+00 0.23468740E+02</pdfrwt>
<pdfrwt beam="1">  1       -2 0.96642989E-01 0.93526618E+02</pdfrwt>
<totfact> 0.41585881E+01</totfact>
</mgrwt>
</event>
<event>
 5    1  0.8274494E-003  0.4005193E+02  0.7546771E-02  0.1530545E+00
         -1   -1    0    0    0  501 -0.00000000000E+00  0.00000000000E+00  0.14344266276E+03  0.14344266276E+03  0.00000000000E+00 0.  1.
          1   -1    0    0  502    0  0.00000000000E+00 -0.00000000000E+00 -0.25580183126E+04  0.25580183126E+04  0.00000000000E+00 0. -1.
         25    1    1    2    0    0  0.40428083645E+02 -0.37380335332E+02 -0.35405484814E+03  0.37948854384E+03  0.12500000000E+03 0.  0.
          2    1    1    2  502    0 -0.51392081418E+00  0.34398150542E+02 -0.21880445008E+04  0.21883149303E+04  0.00000000000E+00 0. -1.
         -2    1    1    2    0  501 -0.39914162831E+02  0.29821847898E+01  0.12752369903E+03  0.13365750123E+03  0.00000000000E+00 0.  1.
<mgrwt>
<rscale>  0 0.37119616E+02</rscale>
<asrwt>0</asrwt>
<pdfrwt beam="2">  1        1 0.39354127E+00 0.34401989E+02</pdfrwt>
<pdfrwt beam="1">  1       -1 0.22068103E-01 0.40051925E+02</pdfrwt>
<totfact> 0.32348376E+01</totfact>
</mgrwt>
</event>
<event>
 5    1  0.8274494E-003  0.7226644E+02  0.7546771E-02  0.1441259E+00
         -1   -1    0    0    0  501 -0.00000000000E+00  0.00000000000E+00  0.29842303757E+02  0.29842303757E+02  0.00000000000E+00 0.  1.
          1   -1    0    0  502    0  0.00000000000E+00 -0.00000000000E+00 -0.10281180255E+04  0.10281180255E+04  0.00000000000E+00 0. -1.
         25    1    1    2    0    0  0.49887329356E+02 -0.85222783544E+02 -0.28935842683E+03  0.33031041104E+03  0.12500000000E+03 0.  0.
          2    1    1    2  502    0 -0.49670168590E+02  0.49562739127E+02 -0.67433128398E+03  0.67797217592E+03  0.00000000000E+00 0. -1.
         -2    1    1    2    0  501 -0.21716076589E+00  0.35660044417E+02 -0.34586010886E+02  0.49677742256E+02  0.00000000000E+00 0.  1.
<mgrwt>
<rscale>  0 0.50764872E+02</rscale>
<asrwt>0</asrwt>
<pdfrwt beam="2">  1        1 0.15817198E+00 0.72266440E+02</pdfrwt>
<pdfrwt beam="1">  1       -1 0.45911243E-02 0.35660706E+02</pdfrwt>
<totfact> 0.27104770E+03</totfact>
</mgrwt>
</event>
<event>
 5    1  0.8274494E-003  0.1342357E+03  0.7546771E-02  0.1244176E+00
          1   -1    0    0  501    0 -0.00000000000E+00  0.00000000000E+00  0.99939362272E+03  0.99939362272E+03  0.00000000000E+00 0. -1.
          2   -1    0    0  502    0  0.00000000000E+00 -0.00000000000E+00 -0.18958126683E+03  0.18958126683E+03  0.00000000000E+00 0. -1.
         25    1    1    2    0    0  0.47971272870E+02 -0.65978935611E+02 -0.91369386166E+01  0.14954245756E+03  0.12500000000E+03 0.  0.
          2    1    1    2  501    0 -0.11555361164E+03 -0.68312322508E+02  0.87028091610E+03  0.88057258843E+03  0.00000000000E+00 0. -1.
          1    1    1    2  502    0  0.67582338769E+02  0.13429125812E+03 -0.51331621596E+02  0.15885984356E+03  0.00000000000E+00 0. -1.
<mgrwt>
<rscale>  0 0.11934822E+03</rscale>
<asrwt>0</asrwt>
<pdfrwt beam="2">  1        2 0.29166349E-01 0.10611187E+03</pdfrwt>
<pdfrwt beam="1">  1        1 0.15375286E+00 0.13423565E+03</pdfrwt>
<totfact> 0.40484134E+02</totfact>
</mgrwt>
</event>
<event>
 5    1  0.8274494E-003  0.7788516E+02  0.7546771E-02  0.1491761E+00
          3   -1    0    0  501    0 -0.00000000000E+00  0.00000000000E+00  0.25260247945E+03  0.25260247945E+03  0.00000000000E+00 0. -1.
          2   -1    0    0  502    0  0.00000000000E+00 -0.00000000000E+00 -0.15277161998E+04  0.15277161998E+04  0.00000000000E+00 0. -1.
         25    1    1    2    0    0 -0.67879574157E+02  0.62732129364E+02  0.15897062872E+03  0.22235021349E+03  0.12500000000E+03 0.  0.
          2    1    1    2  501    0  0.22986496560E+02  0.83154789067E+00  0.58757756725E+02  0.63099480754E+02  0.00000000000E+00 0. -1.
          1    1    1    2  502    0  0.44893077597E+02 -0.63563677255E+02 -0.14928421058E+04  0.14948689850E+04  0.00000000000E+00 0. -1.
<mgrwt>
<rscale>  0 0.42325855E+02</rscale>
<asrwt>0</asrwt>
<pdfrwt beam="2">  1        2 0.23503326E+00 0.77885157E+02</pdfrwt>
<pdfrwt beam="1">  1        3 0.38861921E-01 0.23001532E+02</pdfrwt>
<totfact> 0.50087221E+01</totfact>
</mgrwt>
</event>
<event>
 5    1  0.8274494E-003  0.3938172E+03  0.7546771E-02  0.1183743E+00
          2   -1    0    0  502    0  0.00000000000E+00  0.00000000000E+00  0.16160404881E+04  0.16160404881E+04  0.00000000000E+00 0. -1.
          1   -1    0    0  501    0 -0.00000000000E+00 -0.00000000000E+00 -0.11390930366E+04  0.11390930366E+04  0.00000000000E+00 0. -1.
         25    1    1    2    0    0  0.87805073240E+01 -0.36390841160E+03  0.46890932779E+03  0.60663612407E+03  0.12500000000E+03 0.  0.
          2    1    1    2  501    0  0.53672551563E+02  0.39249701142E+03 -0.10323993530E+04  0.11057952210E+04  0.00000000000E+00 0. -1.
          1    1    1    2  502    0 -0.62453058887E+02 -0.28588599819E+02  0.10404374766E+04  0.10427021796E+04  0.00000000000E+00 0. -1.
<mgrwt>
<rscale>  0 0.16446738E+03</rscale>
<asrwt>0</asrwt>
<pdfrwt beam="1">  1        2 0.24862161E+00 0.68685461E+02</pdfrwt>
<pdfrwt beam="2">  1        1 0.17524508E+00 0.39381724E+03</pdfrwt>
<totfact> 0.22667795E+01</totfact>
</mgrwt>
</event>
<event>
 5    1  0.8274494E-003  0.2152636E+03  0.7546771E-02  0.1232068E+00
          2   -1    0    0  502    0  0.00000000000E+00  0.00000000000E+00  0.26105456782E+04  0.26105456782E+04  0.00000000000E+00 0. -1.
          1   -1    0    0  501    0 -0.00000000000E+00 -0.00000000000E+00 -0.15939753233E+03  0.15939753233E+03  0.00000000000E+00 0. -1.
         25    1    1    2    0    0  0.15245888898E+03  0.14626069370E+03  0.12335205151E+03  0.27473010749E+03  0.12500000000E+03 0.  0.
          2    1    1    2  501    0  0.45618499788E+02 -0.59349675806E+02 -0.61049545976E+02  0.96594402555E+02  0.00000000000E+00 0. -1.
          1    1    1    2  502    0 -0.19807738877E+03 -0.86911017897E+02  0.23888456403E+04  0.23986187005E+04  0.00000000000E+00 0. -1.
<mgrwt>
<rscale>  0 0.12694011E+03</rscale>
<asrwt>0</asrwt>
<pdfrwt beam="1">  1        2 0.40162238E+00 0.21526365E+03</pdfrwt>
<pdfrwt beam="2">  1        1 0.24522699E-01 0.74856072E+02</pdfrwt>
<totfact> 0.93185788E+01</totfact>
</mgrwt>
</event>
<event>
 5    1  0.8274494E-003  0.1695482E+03  0.7546771E-02  0.1243095E+00
          2   -1    0    0  502    0  0.00000000000E+00  0.00000000000E+00  0.18019571972E+04  0.18019571972E+04  0.00000000000E+00 0. -1.
          1   -1    0    0  501    0 -0.00000000000E+00 -0.00000000000E+00 -0.90064856090E+03  0.90064856090E+03  0.00000000000E+00 0. -1.
         25    1    1    2    0    0  0.13904888022E+03  0.31353098993E+01 -0.43255034678E+03  0.47124221347E+03  0.12500000000E+03 0.  0.
          2    1    1    2  501    0  0.64948337739E+01  0.84684792711E+02 -0.44063519271E+03  0.44874610866E+03  0.00000000000E+00 0. -1.
          1    1    1    2  502    0 -0.14554371400E+03 -0.87820102610E+02  0.17744941757E+04  0.17826174359E+04  0.00000000000E+00 0. -1.
<mgrwt>
<rscale>  0 0.12000132E+03</rscale>
<asrwt>0</asrwt>
<pdfrwt beam="1">  1        2 0.27722418E+00 0.16954816E+03</pdfrwt>
<pdfrwt beam="2">  1        1 0.13856132E+00 0.84933486E+02</pdfrwt>
<totfact> 0.27644079E+01</totfact>
</mgrwt>
</event>
<event>
 5    1  0.8274494E-003  0.1729891E+03  0.7546771E-02  0.1339904E+00
          2   -1    0    0  502    0  0.00000000000E+00  0.00000000000E+00  0.14181565226E+04  0.14181565226E+04  0.00000000000E+00 0. -1.
         -2   -1    0    0    0  501 -0.00000000000E+00 -0.00000000000E+00 -0.14523299807E+04  0.14523299807E+04  0.00000000000E+00 0.  1.
         25    1    1    2    0    0  0.20025020645E+03 -0.28330348144E+02  0.20087562291E+03  0.31125354567E+03  0.12500000000E+03 0.  0.
          1    1    1    2  502    0 -0.16897846936E+03  0.15904185970E+02  0.11556901768E+04  0.11680866625E+04  0.00000000000E+00 0. -1.
         -1    1    1    2    0  501 -0.31271737091E+02  0.12426162174E+02 -0.13907392578E+04  0.13911462951E+04  0.00000000000E+00 0.  1.
<mgrwt>
<rscale>  0 0.76296160E+02</rscale>
<asrwt>0</asrwt>
<pdfrwt beam="1">  1        2 0.21817793E+00 0.17298906E+03</pdfrwt>
<pdfrwt beam="2">  1       -2 0.22343538E+00 0.33650127E+02</pdfrwt>
<totfact> 0.19310649E+00</totfact>
</mgrwt>
</event>
<event>
 5    1  0.8274494E-003  0.5484126E+02  0.7546771E-02  0.1455408E+00
         -1   -1    0    0    0  501 -0.00000000000E+00  0.00000000000E+00  0.16977134339E+03  0.16977134339E+03  0.00000000000E+00 0.  1.
          1   -1    0    0  502    0  0.00000000000E+00 -0.00000000000E+00 -0.30892073217E+03  0.30892073217E+03  0.00000000000E+00 0. -1.
         25    1    1    2    0    0  0.71847780790E+02  0.42018310843E+01 -0.16583489486E+03  0.21978619461E+03  0.12500000000E+03 0.  0.
          2    1    1    2  502    0 -0.29447806801E+02  0.30407293962E+02 -0.10666678682E+03  0.11475879165E+03  0.00000000000E+00 0. -1.
         -2    1    1    2    0  501 -0.42399973989E+02 -0.34609125047E+02  0.13335229290E+03  0.14414708930E+03  0.00000000000E+00 0.  1.
<mgrwt>
<rscale>  0 0.48180878E+02</rscale>
<asrwt>0</asrwt>
<pdfrwt beam="2">  1        1 0.47526266E-01 0.42329385E+02</pdfrwt>
<pdfrwt beam="1">  1       -1 0.26118668E-01 0.54841265E+02</pdfrwt>
<totfact> 0.10570481E+03</totfact>
</mgrwt>
</event>
<event>
 5    1  0.8274494E-003  0.4762778E+02  0.7546771E-02  0.1490157E+00
          1   -1    0    0  501    0 -0.00000000000E+00  0.00000000000E+00  0.10986172661E+03  0.10986172661E+03  0.00000000000E+00 0. -1.
          2   -1    0    0  502    0  0.00000000000E+00 -0.00000000000E+00 -0.11245047553E+04  0.11245047553E+04  0.00000000000E+00 0. -1.
         25    1    1    2    0    0  0.55356193006E+02 -0.63757390470E+02 -0.32967256616E+02  0.15440580608E+03  0.12500000000E+03 0.  0.
          2    1    1    2  501    0 -0.19959170213E+02  0.32378979382E+02  0.41152987701E+02  0.56038693580E+02  0.00000000000E+00 0. -1.
          1    1    1    2  502    0 -0.35397022793E+02  0.31378411088E+02 -0.10228287598E+04  0.10239219822E+04  0.00000000000E+00 0. -1.
<mgrwt>
<rscale>  0 0.42562760E+02</rscale>
<asrwt>0</asrwt>
<pdfrwt beam="2">  1        2 0.17300073E+00 0.47627777E+02</pdfrwt>
<pdfrwt beam="1">  1        1 0.16901804E-01 0.38036388E+02</pdfrwt>
<totfact> 0.97422477E+02</totfact>
</mgrwt>
</event>
<event>
 5    1  0.8274494E-003  0.1583135E+03  0.7546771E-02  0.1395233E+00
         -1   -1    0    0    0  501 -0.00000000000E+00  0.00000000000E+00  0.24892986511E+03  0.24892986511E+03  0.00000000000E+00 0.  1.
          1   -1    0    0  502    0  0.00000000000E+00 -0.00000000000E+00 -0.19659212888E+04  0.19659212888E+04  0.00000000000E+00 0. -1.
         25    1    1    2    0    0  0.10019307082E+03 -0.10178731260E+03 -0.91106266654E+03  0.93062317336E+03  0.12500000000E+03 0.  0.
          2    1    1    2  502    0  0.23145667844E+02  0.17908470218E+01 -0.10185759152E+04  0.10188404311E+04  0.00000000000E+00 0. -1.
         -2    1    1    2    0  501 -0.12333873866E+03  0.99996465578E+02  0.21264715802E+03  0.26538754944E+03  0.00000000000E+00 0.  1.
<mgrwt>
<rscale>  0 0.60623628E+02</rscale>
<asrwt>0</asrwt>
<pdfrwt beam="2">  1        1 0.30244942E+00 0.23214846E+02</pdfrwt>
<pdfrwt beam="1">  1       -1 0.38296903E-01 0.15831353E+03</pdfrwt>
<totfact> 0.32696219E+01</totfact>
</mgrwt>
</event>
<event>
 5    1  0.8274494E-003  0.6885574E+02  0.7546771E-02  0.1404991E+00
         -2   -1    0    0    0  501 -0.00000000000E+00  0.00000000000E+00  0.65271289436E+02  0.65271289436E+02  0.00000000000E+00 0.  1.
          2   -1    0    0  502    0  0.00000000000E+00 -0.00000000000E+00 -0.22998887234E+04  0.22998887234E+04  0.00000000000E+00 0. -1.
         25    1    1    2    0    0 -0.66220286434E+01  0.49858353697E+02 -0.93139210079E+03  0.94108764316E+03  0.12500000000E+03 0.  0.
          1    1    1    2  502    0  0.49131775960E+02  0.52161163952E+01 -0.13430164369E+04  0.13439249566E+04  0.00000000000E+00 0. -1.
         -1    1    1    2    0  501 -0.42509747316E+02 -0.55074470092E+02  0.39791103761E+02  0.80147413005E+02  0.00000000000E+00 0.  1.
<mgrwt>
<rscale>  0 0.58326808E+02</rscale>
<asrwt>0</asrwt>
<pdfrwt beam="2">  1        2 0.35382896E+00 0.49407887E+02</pdfrwt>
<pdfrwt beam="1">  1       -2 0.10041739E-01 0.68855738E+02</pdfrwt>
<totfact> 0.38564024E+02</totfact>
</mgrwt>
</event>
<event>
 5    1  0.8274494E-003  0.4402305E+02  0.7546771E-02  0.1551025E+00
          1   -1    0    0  501    0 -0.00000000000E+00  0.00000000000E+00  0.10660582964E+03  0.10660582964E+03  0.00000000000E+00 0. -1.
          2   -1    0    0  502    0  0.00000000000E+00 -0.00000000000E+00 -0.12771019168E+03  0.12771019168E+03  0.00000000000E+00 0. -1.
         25    1    1    2    0    0  0.79715027856E+00  0.25646351886E+02 -0.20916466124E+01  0.12762345317E+03  0.12500000000E+03 0.  0.
          2    1    1    2  501    0  0.18594971661E+02 -0.44998437785E+02  0.25089842037E+02  0.54773465726E+02  0.00000000000E+00 0. -1.
          1    1    1    2  502    0 -0.19392121939E+02  0.19352085899E+02 -0.44102557463E+02  0.51919102426E+02  0.00000000000E+00 0. -1.
<mgrwt>
<rscale>  0 0.34728502E+02</rscale>
<asrwt>0</asrwt>
<pdfrwt beam="2">  1        2 0.19647722E-01 0.27396307E+02</pdfrwt>
<pdfrwt beam="1">  1        1 0.16400897E-01 0.44023046E+02</pdfrwt>
<totfact> 0.10636153E+04</totfact>
</mgrwt>
</event>
<event>
 5    1  0.8274494E-003  0.1668388E+03  0.7546771E-02  0.1224577E+00
          2   -1    0    0  502    0  0.00000000000E+00  0.00000000000E+00  0.17705388718E+04  0.17705388718E+04  0.00000000000E+00 0. -1.
          1   -1    0    0  501    0 -0.00000000000E+00 -0.00000000000E+00 -0.12671705769E+03  0.12671705769E+03  0.00000000000E+00 0. -1.
         25    1    1    2    0    0  0.26374082291E+02 -0.25538272259E+03  0.53808465778E+03  0.60916009895E+03  0.12500000000E+03 0.  0.
          2    1    1    2  501    0  0.38990179174E+01  0.10429945668E+03 -0.54449683925E+02  0.11772148098E+03  0.00000000000E+00 0. -1.
          1    1    1    2  502    0 -0.30273100209E+02  0.15108326591E+03  0.11601868403E+04  0.11703743496E+04  0.00000000000E+00 0. -1.
<mgrwt>
<rscale>  0 0.13195967E+03</rscale>
<asrwt>0</asrwt>
<pdfrwt beam="1">  1        2 0.27239058E+00 0.16683883E+03</pdfrwt>
<pdfrwt beam="2">  1        1 0.19494933E-01 0.10437231E+03</pdfrwt>
<totfact> 0.35770256E+02</totfact>
</mgrwt>
</event>
<event>
 5    1  0.8274494E-003  0.1289123E+03  0.7546771E-02  0.1293797E+00
          2   -1    0    0  502    0  0.00000000000E+00  0.00000000000E+00  0.71118714124E+03  0.71118714124E+03  0.00000000000E+00 0. -1.
         -2   -1    0    0    0  501 -0.00000000000E+00 -0.00000000000E+00 -0.71431991198E+03  0.71431991198E+03  0.00000000000E+00 0.  1.
         25    1    1    2    0    0 -0.14752939495E+03  0.11445174548E+03 -0.10726951425E+03  0.24898970482E+03  0.12500000000E+03 0.  0.
          1    1    1    2  502    0  0.81335624013E+02 -0.97547410330E+02  0.63180523795E+03  0.64444459785E+03  0.00000000000E+00 0. -1.
         -1    1    1    2    0  501  0.66193770934E+02 -0.16904335154E+02 -0.52766849444E+03  0.53207275055E+03  0.00000000000E+00 0.  1.
<mgrwt>
<rscale>  0 0.93845904E+02</rscale>
<asrwt>0</asrwt>
<pdfrwt beam="1">  1        2 0.10941341E+00 0.12891232E+03</pdfrwt>
<pdfrwt beam="2">  1       -2 0.10989537E+00 0.68318166E+02</pdfrwt>
<totfact> 0.30644740E+01</totfact>
</mgrwt>
</event>
<event>
 5    1  0.8274494E-003  0.7651009E+02  0.7546771E-02  0.1432069E+00
          1   -1    0    0  501    0 -0.00000000000E+00  0.00000000000E+00  0.76342986471E+03  0.76342986471E+03  0.00000000000E+00 0. -1.
          2   -1    0    0  502    0  0.00000000000E+00 -0.00000000000E+00 -0.14623173001E+04  0.14623173001E+04  0.00000000000E+00 0. -1.
         25    1    1    2    0    0  0.14431412671E+02  0.10953131801E+03 -0.19379249133E+03  0.25570667765E+03  0.12500000000E+03 0.  0.
          2    1    1    2  501    0 -0.11110664936E+02 -0.34336115971E+02  0.73088268510E+03  0.73177313091E+03  0.00000000000E+00 0. -1.
          1    1    1    2  502    0 -0.33207477350E+01 -0.75195202041E+02 -0.12359776291E+04  0.12382673562E+04  0.00000000000E+00 0. -1.
<mgrwt>
<rscale>  0 0.52546858E+02</rscale>
<asrwt>0</asrwt>
<pdfrwt beam="2">  1        2 0.22497189E+00 0.76510085E+02</pdfrwt>
<pdfrwt beam="1">  1        1 0.11745075E+00 0.36088997E+02</pdfrwt>
<totfact> 0.59008330E+01</totfact>
</mgrwt>
</event>
<event>
 5    1  0.8274494E-003  0.7463847E+02  0.7546771E-02  0.1350935E+00
         -1   -1    0    0    0  501 -0.00000000000E+00  0.00000000000E+00  0.51690432878E+02  0.51690432878E+02  0.00000000000E+00 0.  1.
          1   -1    0    0  502    0  0.00000000000E+00 -0.00000000000E+00 -0.20031545836E+04  0.20031545836E+04  0.00000000000E+00 0. -1.
         25    1    1    2    0    0  0.24845920063E+02 -0.14036606669E+02 -0.17071304095E+03  0.21350008998E+03  0.12500000000E+03 0.  0.
          2    1    1    2  502    0  0.84872579748E+01  0.76656142964E+02 -0.17674966811E+04  0.17691785426E+04  0.00000000000E+00 0. -1.
         -2    1    1    2    0  501 -0.33333178038E+02 -0.62619536295E+02 -0.13254428626E+02  0.72166383879E+02  0.00000000000E+00 0.  1.
<mgrwt>
<rscale>  0 0.72765103E+02</rscale>
<asrwt>0</asrwt>
<pdfrwt beam="2">  1        1 0.30817768E+00 0.74638470E+02</pdfrwt>
<pdfrwt beam="1">  1       -1 0.79523730E-02 0.70938756E+02</pdfrwt>
<totfact> 0.31023562E+02</totfact>
</mgrwt>
</event>
<event>
 5    1  0.8274494E-003  0.7086733E+02  0.7546771E-02  0.1391565E+00
          1   -1    0    0  501    0 -0.00000000000E+00  0.00000000000E+00  0.68314454885E+03  0.68314454885E+03  0.00000000000E+00 0. -1.
          2   -1    0    0  502    0  0.00000000000E+00 -0.00000000000E+00 -0.51317958798E+04  0.51317958798E+04  0.00000000000E+00 0. -1.
         25    1    1    2    0    0 -0.54073727150E+02  0.79980510112E+02 -0.35454150871E+04  0.35489313870E+04  0.12500000000E+03 0.  0.
          2    1    1    2  501    0  0.51150620192E+02 -0.15350036530E+02  0.67967819363E+03  0.68177302415E+03  0.00000000000E+00 0. -1.
          1    1    1    2  502    0  0.29231069578E+01 -0.64630473582E+02 -0.15829144374E+04  0.15842360174E+04  0.00000000000E+00 0. -1.
<mgrwt>
<rscale>  0 0.61519216E+02</rscale>
<asrwt>0</asrwt>
<pdfrwt beam="2">  1        2 0.78950707E+00 0.70867334E+02</pdfrwt>
<pdfrwt beam="1">  1        1 0.10509916E+00 0.53404209E+02</pdfrwt>
<totfact> 0.21895470E-01</totfact>
</mgrwt>
</event>
<event>
 5    1  0.8274494E-003  0.8780867E+02  0.7546771E-02  0.1329248E+00
          1   -1    0    0  501    0 -0.00000000000E+00  0.00000000000E+00  0.11281353153E+03  0.11281353153E+03  0.00000000000E+00 0. -1.
          2   -1    0    0  502    0  0.00000000000E+00 -0.00000000000E+00 -0.12688972670E+04  0.12688972670E+04  0.00000000000E+00 0. -1.
         25    1    1    2    0    0  0.19880703619E+02 -0.54571781037E+02 -0.41762939270E+02  0.14402244533E+03  0.12500000000E+03 0.  0.
          2    1    1    2  501    0  0.66299839364E+02  0.29972222630E+02  0.37864477084E+02  0.82022688653E+02  0.00000000000E+00 0. -1.
          1    1    1    2  502    0 -0.86180542982E+02  0.24599558406E+02 -0.11521852733E+04  0.11556656646E+04  0.00000000000E+00 0. -1.
<mgrwt>
<rscale>  0 0.79930909E+02</rscale>
<asrwt>0</asrwt>
<pdfrwt beam="2">  1        2 0.19521497E+00 0.87808674E+02</pdfrwt>
<pdfrwt beam="1">  1        1 0.17355927E-01 0.72759898E+02</pdfrwt>
<totfact> 0.78312942E+02</totfact>
</mgrwt>
</event>
<event>
 5    1  0.8274494E-003  0.5494528E+02  0.7546771E-02  0.1466584E+00
          1   -1    0    0  501    0 -0.00000000000E+00  0.00000000000E+00  0.64490806710E+02  0.64490806710E+02  0.00000000000E+00 0. -1.
          2   -1    0    0  502    0  0.00000000000E+00 -0.00000000000E+00 -0.14163871360E+04  0.14163871360E+04  0.00000000000E+00 0. -1.
         25    1    1    2    0    0 -0.27951477244E+02 -0.64932766123E+02 -0.87911242047E+03  0.89076438918E+03  0.12500000000E+03 0.  0.
          2    1    1    2  501    0 -0.94596109713E+01  0.54059314122E+02  0.44935588573E+02  0.70930253090E+02  0.00000000000E+00 0. -1.
          1    1    1    2  502    0  0.37411088215E+02  0.10873452001E+02 -0.51771949739E+03  0.51918330044E+03  0.00000000000E+00 0. -1.
<mgrwt>
<rscale>  0 0.46266895E+02</rscale>
<asrwt>0</asrwt>
<pdfrwt beam="2">  1        2 0.21790573E+00 0.38959228E+02</pdfrwt>
<pdfrwt beam="1">  1        1 0.99216618E-02 0.54945277E+02</pdfrwt>
<totfact> 0.14033079E+03</totfact>
</mgrwt>
</event>
<event>
 5    1  0.8274494E-003  0.9828295E+02  0.7546771E-02  0.1385558E+00
          1   -1    0    0  502    0  0.00000000000E+00  0.00000000000E+00  0.61436047662E+03  0.61436047662E+03  0.00000000000E+00 0. -1.
         -1   -1    0    0    0  501 -0.00000000000E+00 -0.00000000000E+00 -0.16530815857E+03  0.16530815857E+03  0.00000000000E+00 0.  1.
         25    1    1    2    0    0  0.11138294716E+03  0.31220814600E+02 -0.86005963444E+02  0.19079550815E+03  0.12500000000E+03 0.  0.
          2    1    1    2  502    0 -0.32551869121E+02 -0.23954159376E+02  0.50110783114E+03  0.50273500412E+03  0.00000000000E+00 0. -1.
         -2    1    1    2    0  501 -0.78831078034E+02 -0.72666552237E+01  0.33950450352E+02  0.86138122927E+02  0.00000000000E+00 0.  1.
<mgrwt>
<rscale>  0 0.63025160E+02</rscale>
<asrwt>0</asrwt>
<pdfrwt beam="1">  1        1 0.94516995E-01 0.40415664E+02</pdfrwt>
<pdfrwt beam="2">  1       -1 0.25432025E-01 0.98282952E+02</pdfrwt>
<totfact> 0.48381914E+02</totfact>
</mgrwt>
</event>
<event>
 5    1  0.8274494E-003  0.1006489E+03  0.7546771E-02  0.1387736E+00
          2   -1    0    0  502    0  0.00000000000E+00  0.00000000000E+00  0.93426150650E+03  0.93426150650E+03  0.00000000000E+00 0. -1.
         -2   -1    0    0    0  501 -0.00000000000E+00 -0.00000000000E+00 -0.19395686588E+03  0.19395686588E+03  0.00000000000E+00 0.  1.
         25    1    1    2    0    0  0.60662310714E+02  0.51895565437E+02  0.37519460628E+02  0.15298946231E+03  0.12500000000E+03 0.  0.
          1    1    1    2  502    0 -0.53610213202E+01  0.38405229132E+02  0.81790047285E+03  0.81881920206E+03  0.00000000000E+00 0. -1.
         -1    1    1    2    0  501 -0.55301289394E+02 -0.90300794569E+02 -0.11511529286E+03  0.15640970800E+03  0.00000000000E+00 0.  1.
<mgrwt>
<rscale>  0 0.62473374E+02</rscale>
<asrwt>0</asrwt>
<pdfrwt beam="1">  1        2 0.14373254E+00 0.38777599E+02</pdfrwt>
<pdfrwt beam="2">  1       -2 0.29839518E-01 0.10064889E+03</pdfrwt>
<totfact> 0.32356639E+02</totfact>
</mgrwt>
</event>
<event>
 5    1  0.8274494E-003  0.6699050E+02  0.7546771E-02  0.1484656E+00
          2   -1    0    0  502    0  0.00000000000E+00  0.00000000000E+00  0.11998740797E+04  0.11998740797E+04  0.00000000000E+00 0. -1.
          1   -1    0    0  501    0 -0.00000000000E+00 -0.00000000000E+00 -0.26240497861E+03  0.26240497861E+03  0.00000000000E+00 0. -1.
         25    1    1    2    0    0 -0.18096303107E+02 -0.35973762665E+02  0.58661532963E+03  0.60113570244E+03  0.12500000000E+03 0.  0.
          2    1    1    2  501    0  0.20569688788E+02  0.63967492352E+02 -0.25038697118E+03  0.25924619093E+03  0.00000000000E+00 0. -1.
          1    1    1    2  502    0 -0.24733856805E+01 -0.27993729687E+02  0.60124074269E+03  0.60189716498E+03  0.00000000000E+00 0. -1.
<mgrwt>
<rscale>  0 0.43389165E+02</rscale>
<asrwt>0</asrwt>
<pdfrwt beam="1">  1        2 0.18459601E+00 0.28102785E+02</pdfrwt>
<pdfrwt beam="2">  1        1 0.40369998E-01 0.66990500E+02</pdfrwt>
<totfact> 0.32611662E+02</totfact>
</mgrwt>
</event>
<event>
 5    1  0.8274494E-003  0.1381529E+03  0.7546771E-02  0.1305088E+00
         -2   -1    0    0    0  501 -0.00000000000E+00  0.00000000000E+00  0.40954757905E+03  0.40954757905E+03  0.00000000000E+00 0.  1.
          2   -1    0    0  502    0  0.00000000000E+00 -0.00000000000E+00 -0.16650563729E+04  0.16650563729E+04  0.00000000000E+00 0. -1.
         25    1    1    2    0    0  0.16847429007E+03 -0.88019493752E+02 -0.75179712247E+02  0.23959968036E+03  0.12500000000E+03 0.  0.
          1    1    1    2  502    0 -0.46051392126E+02  0.34334519223E+02 -0.14934439123E+04  0.14945481957E+04  0.00000000000E+00 0. -1.
         -1    1    1    2    0  501 -0.12242289794E+03  0.53684974528E+02  0.31311483071E+03  0.34045607594E+03  0.00000000000E+00 0.  1.
<mgrwt>
<rscale>  0 0.89083043E+02</rscale>
<asrwt>0</asrwt>
<pdfrwt beam="2">  1        2 0.25616252E+00 0.57442057E+02</pdfrwt>
<pdfrwt beam="1">  1       -2 0.63007320E-01 0.13815293E+03</pdfrwt>
<totfact> 0.31284099E+01</totfact>
</mgrwt>
</event>
<event>
 5    1  0.8274494E-003  0.9951607E+02  0.7546771E-02  0.1382501E+00
          2   -1    0    0  502    0  0.00000000000E+00  0.00000000000E+00  0.10034939328E+04  0.10034939328E+04  0.00000000000E+00 0. -1.
          1   -1    0    0  501    0 -0.00000000000E+00 -0.00000000000E+00 -0.90504616291E+02  0.90504616291E+02  0.00000000000E+00 0. -1.
         25    1    1    2    0    0 -0.32766543341E+02 -0.56080968233E+02  0.37674557371E+01  0.14091811482E+03  0.12500000000E+03 0.  0.
          2    1    1    2  501    0 -0.37417649018E+02 -0.16554670452E+02  0.27605566331E+01  0.41009245844E+02  0.00000000000E+00 0. -1.
          1    1    1    2  502    0  0.70184192359E+02  0.72635638685E+02  0.90646130412E+03  0.91207118841E+03  0.00000000000E+00 0. -1.
<mgrwt>
<rscale>  0 0.63810829E+02</rscale>
<asrwt>0</asrwt>
<pdfrwt beam="1">  1        2 0.15438367E+00 0.99516067E+02</pdfrwt>
<pdfrwt beam="2">  1        1 0.13923788E-01 0.40916226E+02</pdfrwt>
<totfact> 0.13960027E+03</totfact>
</mgrwt>
</event>
<event>
 5    1  0.8274494E-003  0.5199559E+02  0.7546771E-02  0.1483292E+00
         -1   -1    0    0    0  501 -0.00000000000E+00  0.00000000000E+00  0.75921564890E+02  0.75921564890E+02  0.00000000000E+00 0.  1.
          1   -1    0    0  502    0  0.00000000000E+00 -0.00000000000E+00 -0.22269446975E+03  0.22269446975E+03  0.00000000000E+00 0. -1.
         25    1    1    2    0    0 -0.26102999447E+02 -0.25295135649E+02 -0.15275438101E+03  0.20069905676E+03  0.12500000000E+03 0.  0.
          2    1    1    2  502    0 -0.28425803175E+02  0.22984637121E+02 -0.14907215345E+02  0.39478410544E+02  0.00000000000E+00 0. -1.
         -2    1    1    2    0  501  0.54528802622E+02  0.23104985283E+01  0.20888691501E+02  0.58438567329E+02  0.00000000000E+00 0.  1.
<mgrwt>
<rscale>  0 0.43597425E+02</rscale>
<asrwt>0</asrwt>
<pdfrwt beam="2">  1        1 0.34260687E-01 0.36555709E+02</pdfrwt>
<pdfrwt beam="1">  1       -1 0.11680241E-01 0.51995585E+02</pdfrwt>
<totfact> 0.53831493E+03</totfact>
</mgrwt>
</event>
<event>
 5    1  0.8274494E-003  0.5735177E+02  0.7546771E-02  0.1467346E+00
          2   -1    0    0  502    0  0.00000000000E+00  0.00000000000E+00  0.95879379769E+02  0.95879379769E+02  0.00000000000E+00 0. -1.
          1   -1    0    0  501    0 -0.00000000000E+00 -0.00000000000E+00 -0.82850714873E+03  0.82850714873E+03  0.00000000000E+00 0. -1.
         25    1    1    2    0    0  0.12671566573E+02  0.25441524552E+02 -0.36408373811E+02  0.13326068233E+03  0.12500000000E+03 0.  0.
          2    1    1    2  501    0  0.83968606216E+01  0.36158331659E+02 -0.72063837051E+03  0.72159378689E+03  0.00000000000E+00 0. -1.
          1    1    1    2  502    0 -0.21068427194E+02 -0.61599856211E+02  0.24418975368E+02  0.69532059280E+02  0.00000000000E+00 0. -1.
<mgrwt>
<rscale>  0 0.46140297E+02</rscale>
<asrwt>0</asrwt>
<pdfrwt beam="1">  1        2 0.14750674E-01 0.57351774E+02</pdfrwt>
<pdfrwt beam="2">  1        1 0.12746263E+00 0.37120509E+02</pdfrwt>
<totfact> 0.12157466E+03</totfact>
</mgrwt>
</event>
<event>
 5    1  0.8274494E-003  0.7044563E+02  0.7546771E-02  0.1452142E+00
          1   -1    0    0  501    0 -0.00000000000E+00  0.00000000000E+00  0.66635961453E+03  0.66635961453E+03  0.00000000000E+00 0. -1.
          2   -1    0    0  502    0  0.00000000000E+00 -0.00000000000E+00 -0.37052484545E+04  0.37052484545E+04  0.00000000000E+00 0. -1.
         25    1    1    2    0    0 -0.46645549520E+02  0.83338735766E+02  0.36588407419E+03  0.39826788461E+03  0.12500000000E+03 0.  0.
          2    1    1    2  501    0 -0.32121319222E+01 -0.33597999298E+02  0.28294446649E+03  0.28495037193E+03  0.00000000000E+00 0. -1.
          3    1    1    2  502    0  0.49857681442E+02 -0.49740736468E+02 -0.36877173807E+04  0.36883898125E+04  0.00000000000E+00 0. -1.
<mgrwt>
<rscale>  0 0.48760891E+02</rscale>
<asrwt>0</asrwt>
<pdfrwt beam="2">  1        2 0.57003823E+00 0.70445633E+02</pdfrwt>
<pdfrwt beam="1">  1        1 0.10251686E+00 0.33751198E+02</pdfrwt>
<totfact> 0.43069892E+00</totfact>
</mgrwt>
</event>
<event>
 5    1  0.8274494E-003  0.1029386E+03  0.7546771E-02  0.1359716E+00
          1   -1    0    0  502    0  0.00000000000E+00  0.00000000000E+00  0.76373633099E+03  0.76373633099E+03  0.00000000000E+00 0. -1.
         -1   -1    0    0    0  501 -0.00000000000E+00 -0.00000000000E+00 -0.78806672102E+03  0.78806672102E+03  0.00000000000E+00 0.  1.
         25    1    1    2    0    0  0.11127086293E+03  0.16263776952E+02 -0.78876772977E+02  0.18572092153E+03  0.12500000000E+03 0.  0.
          2    1    1    2  502    0 -0.85921750879E+02 -0.56732346054E+02  0.70570422770E+03  0.71317568898E+03  0.00000000000E+00 0. -1.
         -2    1    1    2    0  501 -0.25349112055E+02  0.40468569103E+02 -0.65115784476E+03  0.65290644150E+03  0.00000000000E+00 0.  1.
<mgrwt>
<rscale>  0 0.70111019E+02</rscale>
<asrwt>0</asrwt>
<pdfrwt beam="1">  1        1 0.11749790E+00 0.10293859E+03</pdfrwt>
<pdfrwt beam="2">  1       -1 0.12124103E+00 0.47752304E+02</pdfrwt>
<totfact> 0.18600221E+01</totfact>
</mgrwt>
</event>
<event>
 5    1  0.8274494E-003  0.9259834E+02  0.7546771E-02  0.1374561E+00
         -2   -1    0    0    0  501 -0.00000000000E+00  0.00000000000E+00  0.13237142695E+04  0.13237142695E+04  0.00000000000E+00 0.  1.
          2   -1    0    0  502    0  0.00000000000E+00 -0.00000000000E+00 -0.79513970532E+03  0.79513970532E+03  0.00000000000E+00 0. -1.
         25    1    1    2    0    0  0.11220423416E+03  0.80899195863E+02  0.60550264160E+02  0.19602501000E+03  0.12500000000E+03 0.  0.
          1    1    1    2  502    0 -0.72356906853E+02 -0.56124414514E+02 -0.72405697562E+03  0.72982461990E+03  0.00000000000E+00 0. -1.
         -1    1    1    2    0  501 -0.39847327306E+02 -0.24774781349E+02  0.11920812756E+04  0.11930043449E+04  0.00000000000E+00 0.  1.
<mgrwt>
<rscale>  0 0.65915289E+02</rscale>
<asrwt>0</asrwt>
<pdfrwt beam="2">  1        2 0.12232919E+00 0.92598335E+02</pdfrwt>
<pdfrwt beam="1">  1       -2 0.20364835E+00 0.46921203E+02</pdfrwt>
<totfact> 0.58311443E+00</totfact>
</mgrwt>
</event>
<event>
 5    1  0.1095436E-002  0.9988811E+02  0.7546771E-02  0.1332254E+00
          2   -1    0    0  502    0  0.00000000000E+00  0.00000000000E+00  0.12439619746E+04  0.12439619746E+04  0.00000000000E+00 0. -1.
          1   -1    0    0  501    0 -0.00000000000E+00 -0.00000000000E+00 -0.16867644249E+04  0.16867644249E+04  0.00000000000E+00 0. -1.
         25    1    1    2    0    0  0.41986931607E+02 -0.13894328283E+03 -0.37338100894E+03  0.41965046897E+03  0.12500000000E+03 0.  0.
          2    1    1    2  501    0 -0.56862855627E+02  0.78452018617E+02 -0.12876326847E+04  0.12912730286E+04  0.00000000000E+00 0. -1.
          1    1    1    2  502    0  0.14875924020E+02  0.60491264208E+02  0.12182112433E+04  0.12198029019E+04  0.00000000000E+00 0. -1.
<mgrwt>
<rscale>  0 0.78882095E+02</rscale>
<asrwt>0</asrwt>
<pdfrwt beam="1">  1        2 0.19137877E+00 0.62293548E+02</pdfrwt>
<pdfrwt beam="2">  1        1 0.25950222E+00 0.99888112E+02</pdfrwt>
<totfact> 0.17074934E+01</totfact>
</mgrwt>
</event>
<event>
 5    1  0.8274494E-003  0.7756190E+02  0.7546771E-02  0.1440564E+00
         -2   -1    0    0    0  501 -0.00000000000E+00  0.00000000000E+00  0.72571280674E+02  0.72571280674E+02  0.00000000000E+00 0.  1.
          2   -1    0    0  502    0  0.00000000000E+00 -0.00000000000E+00 -0.13417454940E+04  0.13417454940E+04  0.00000000000E+00 0. -1.
         25    1    1    2    0    0 -0.55411808418E+02  0.20161585518E+02 -0.44680018295E+03  0.46768831664E+03  0.12500000000E+03 0.  0.
          1    1    1    2  502    0  0.81518199869E+02  0.66957903402E+00 -0.87798359608E+03  0.88176009222E+03  0.00000000000E+00 0. -1.
         -1    1    1    2    0  501 -0.26106391451E+02 -0.20831164552E+02  0.55609565678E+02  0.64868365835E+02  0.00000000000E+00 0.  1.
<mgrwt>
<rscale>  0 0.50896716E+02</rscale>
<asrwt>0</asrwt>
<pdfrwt beam="2">  1        2 0.20642239E+00 0.77561897E+02</pdfrwt>
<pdfrwt beam="1">  1       -2 0.11164812E-01 0.33398819E+02</pdfrwt>
<totfact> 0.88349300E+02</totfact>
</mgrwt>
</event>
<event>
 5    1  0.8274494E-003  0.3829797E+02  0.7546771E-02  0.1528842E+00
          2   -1    0    0  502    0  0.00000000000E+00  0.00000000000E+00  0.21748890474E+04  0.21748890474E+04  0.00000000000E+00 0. -1.
          1   -1    0    0  501    0 -0.00000000000E+00 -0.00000000000E+00 -0.51243111542E+02  0.51243111542E+02  0.00000000000E+00 0. -1.
         25    1    1    2    0    0  0.91066603100E+01  0.28069921162E+02  0.14490666628E+03  0.19363314197E+03  0.12500000000E+03 0.  0.
          2    1    1    2  501    0 -0.36372889364E+02 -0.90651711513E+00 -0.14296119667E+02  0.39092043839E+02  0.00000000000E+00 0. -1.
          1    1    1    2  502    0  0.27266229054E+02 -0.27163404047E+02  0.19930353892E+04  0.19934069731E+04  0.00000000000E+00 0. -1.
<mgrwt>
<rscale>  0 0.37328816E+02</rscale>
<asrwt>0</asrwt>
<pdfrwt beam="1">  1        2 0.33459824E+00 0.38297973E+02</pdfrwt>
<pdfrwt beam="2">  1        1 0.78835573E-02 0.36384184E+02</pdfrwt>
<totfact> 0.78581245E+02</totfact>
</mgrwt>
</event>
<event>
 5    1  0.8274494E-003  0.1225034E+03  0.7546771E-02  0.1319934E+00
          1   -1    0    0  501    0 -0.00000000000E+00  0.00000000000E+00  0.36268479817E+03  0.36268479817E+03  0.00000000000E+00 0. -1.
          2   -1    0    0  502    0  0.00000000000E+00 -0.00000000000E+00 -0.20627248939E+03  0.20627248939E+03  0.00000000000E+00 0. -1.
         25    1    1    2    0    0  0.11420048471E+03 -0.29362351989E+01  0.27057379386E+02  0.17148607513E+03  0.12500000000E+03 0.  0.
          2    1    1    2  501    0  0.20574984719E+01  0.56607408895E+02  0.22856922265E+03  0.23548359090E+03  0.00000000000E+00 0. -1.
          3    1    1    2  502    0 -0.11625798318E+03 -0.53671173697E+02 -0.99214293253E+02  0.16198762152E+03  0.00000000000E+00 0. -1.
<mgrwt>
<rscale>  0 0.83301739E+02</rscale>
<asrwt>0</asrwt>
<pdfrwt beam="2">  1        2 0.31734229E-01 0.12250341E+03</pdfrwt>
<pdfrwt beam="1">  1        1 0.55797661E-01 0.56644788E+02</pdfrwt>
<totfact> 0.15364654E+03</totfact>
</mgrwt>
</event>
<event>
 5    1  0.8274494E-003  0.4236413E+02  0.7546771E-02  0.1589974E+00
          1   -1    0    0  501    0 -0.00000000000E+00  0.00000000000E+00  0.21592394630E+02  0.21592394630E+02  0.00000000000E+00 0. -1.
          2   -1    0    0  502    0  0.00000000000E+00 -0.00000000000E+00 -0.28767087614E+04  0.28767087614E+04  0.00000000000E+00 0. -1.
         25    1    1    2    0    0 -0.24399522320E+02 -0.16634830237E+02 -0.30468486494E+03  0.33065075411E+03  0.12500000000E+03 0.  0.
          2    1    1    2  501    0  0.56228655280E+01 -0.21595650233E+02 -0.63350643059E+01  0.23197451702E+02  0.00000000000E+00 0. -1.
          1    1    1    2  502    0  0.18776656792E+02  0.38230480470E+02 -0.25440964375E+04  0.25444529502E+04  0.00000000000E+00 0. -1.
<mgrwt>
<rscale>  0 0.30747090E+02</rscale>
<asrwt>0</asrwt>
<pdfrwt beam="2">  1        2 0.44257030E+00 0.42364129E+02</pdfrwt>
<pdfrwt beam="1">  1        1 0.33219090E-02 0.22315661E+02</pdfrwt>
<totfact> 0.97717280E+02</totfact>
</mgrwt>
</event>
<event>
 5    1  0.8274494E-003  0.9443509E+02  0.7546771E-02  0.1327444E+00
          2   -1    0    0  502    0  0.00000000000E+00  0.00000000000E+00  0.59173161980E+02  0.59173161980E+02  0.00000000000E+00 0. -1.
          1   -1    0    0  501    0 -0.00000000000E+00 -0.00000000000E+00 -0.13100153779E+04  0.13100153779E+04  0.00000000000E+00 0. -1.
         25    1    1    2    0    0  0.33440480752E+02 -0.72252376494E+02 -0.18870173045E+03  0.23994169028E+03  0.12500000000E+03 0.  0.
          2    1    1    2  501    0 -0.61626394917E+02 -0.30451171282E+02 -0.10069527104E+04  0.10092962139E+04  0.00000000000E+00 0. -1.
          3    1    1    2  502    0  0.28185914165E+02  0.10270354778E+03 -0.55187775020E+02  0.11995063566E+03  0.00000000000E+00 0. -1.
<mgrwt>
<rscale>  0 0.80569217E+02</rscale>
<asrwt>0</asrwt>
<pdfrwt beam="1">  1        2 0.91035638E-02 0.94435094E+02</pdfrwt>
<pdfrwt beam="2">  1        1 0.20154082E+00 0.68739264E+02</pdfrwt>
<totfact> 0.98875529E+02</totfact>
</mgrwt>
</event>
<event>
 5    1  0.8274494E-003  0.6326090E+02  0.7546771E-02  0.1503960E+00
          1   -1    0    0  502    0  0.00000000000E+00  0.00000000000E+00  0.17100925522E+04  0.17100925522E+04  0.00000000000E+00 0. -1.
         -1   -1    0    0    0  501 -0.00000000000E+00 -0.00000000000E+00 -0.26730824566E+03  0.26730824566E+03  0.00000000000E+00 0.  1.
         25    1    1    2    0    0 -0.33203516604E+02 -0.82157589292E+02  0.13522606936E+03  0.20436103549E+03  0.12500000000E+03 0.  0.
          2    1    1    2  502    0  0.11047907914E+02  0.23575215382E+02  0.15359730168E+04  0.15361936582E+04  0.00000000000E+00 0. -1.
         -2    1    1    2    0  501  0.22155608690E+02  0.58582373910E+02 -0.22841477962E+03  0.23684610421E+03  0.00000000000E+00 0.  1.
<mgrwt>
<rscale>  0 0.40583605E+02</rscale>
<asrwt>0</asrwt>
<pdfrwt beam="1">  1        1 0.26309116E+00 0.26035496E+02</pdfrwt>
<pdfrwt beam="2">  1       -1 0.41124347E-01 0.63260904E+02</pdfrwt>
<totfact> 0.40105417E+01</totfact>
</mgrwt>
</event>
<event>
 5    1  0.8274494E-003  0.7236712E+02  0.7546771E-02  0.1368367E+00
          1   -1    0    0  501    0 -0.00000000000E+00  0.00000000000E+00  0.28164361050E+03  0.28164361050E+03  0.00000000000E+00 0. -1.
          2   -1    0    0  502    0  0.00000000000E+00 -0.00000000000E+00 -0.12537965058E+04  0.12537965058E+04  0.00000000000E+00 0. -1.
         25    1    1    2    0    0 -0.60519828628E+02 -0.50927055755E+01 -0.34009057610E+03  0.36738969128E+03  0.12500000000E+03 0.  0.
          2    1    1    2  501    0  0.46138978865E+02 -0.56439327852E+02  0.26190068176E+03  0.27185689288E+03  0.00000000000E+00 0. -1.
          1    1    1    2  502    0  0.14380849763E+02  0.61532033428E+02 -0.89396300091E+03  0.89619353210E+03  0.00000000000E+00 0. -1.
<mgrwt>
<rscale>  0 0.67623161E+02</rscale>
<asrwt>0</asrwt>
<pdfrwt beam="2">  1        2 0.19289177E+00 0.63190189E+02</pdfrwt>
<pdfrwt beam="1">  1        1 0.43329786E-01 0.72367118E+02</pdfrwt>
<totfact> 0.26543959E+02</totfact>
</mgrwt>
</event>
<event>
 5    1  0.8274494E-003  0.5789381E+02  0.7546771E-02  0.1461574E+00
         -2   -1    0    0    0  501 -0.00000000000E+00  0.00000000000E+00  0.94256038872E+02  0.94256038872E+02  0.00000000000E+00 0.  1.
          2   -1    0    0  502    0  0.00000000000E+00 -0.00000000000E+00 -0.12501312788E+04  0.12501312788E+04  0.00000000000E+00 0. -1.
         25    1    1    2    0    0  0.60938774910E+02  0.50261888448E+02 -0.37094404615E+03  0.39932978488E+03  0.12500000000E+03 0.  0.
          1    1    1    2  502    0 -0.38247221920E+02  0.26290196290E+01 -0.85416561952E+03  0.85502553605E+03  0.00000000000E+00 0. -1.
         -1    1    1    2    0  501 -0.22691552990E+02 -0.52890908077E+02  0.69234425727E+02  0.90031996757E+02  0.00000000000E+00 0.  1.
<mgrwt>
<rscale>  0 0.47111595E+02</rscale>
<asrwt>0</asrwt>
<pdfrwt beam="2">  1        2 0.19232790E+00 0.38337472E+02</pdfrwt>
<pdfrwt beam="1">  1       -2 0.14500929E-01 0.57893812E+02</pdfrwt>
<totfact> 0.71882555E+02</totfact>
</mgrwt>
</event>
<event>
 5    1  0.8274494E-003  0.3901844E+02  0.7546771E-02  0.1519343E+00
         -2   -1    0    0    0  501 -0.00000000000E+00  0.00000000000E+00  0.20590683209E+02  0.20590683209E+02  0.00000000000E+00 0.  1.
          2   -1    0    0  502    0  0.00000000000E+00 -0.00000000000E+00 -0.28804753437E+04  0.28804753437E+04  0.00000000000E+00 0. -1.
         25    1    1    2    0    0 -0.25851569139E+01  0.39035374986E+01 -0.84796047864E+03  0.85713703337E+03  0.12500000000E+03 0.  0.
          1    1    1    2  502    0 -0.13840640389E+02 -0.38215316130E+02 -0.20048181982E+04  0.20052301567E+04  0.00000000000E+00 0. -1.
         -3    1    1    2    0  501  0.16425797303E+02  0.34311778632E+02 -0.71059837293E+01  0.38698836865E+02  0.00000000000E+00 0.  1.
<mgrwt>
<rscale>  0 0.38526536E+02</rscale>
<asrwt>0</asrwt>
<pdfrwt beam="2">  1        2 0.44315003E+00 0.39018440E+02</pdfrwt>
<pdfrwt beam="1">  1       -2 0.31677976E-02 0.38040833E+02</pdfrwt>
<totfact> 0.10323344E+03</totfact>
</mgrwt>
</event>
<event>
 5    1  0.8274494E-003  0.9019389E+02  0.7546771E-02  0.1451278E+00
          1   -1    0    0  501    0 -0.00000000000E+00  0.00000000000E+00  0.67812952097E+03  0.67812952097E+03  0.00000000000E+00 0. -1.
          2   -1    0    0  502    0  0.00000000000E+00 -0.00000000000E+00 -0.89737277993E+02  0.89737277993E+02  0.00000000000E+00 0. -1.
         25    1    1    2    0    0  0.82825790105E+02  0.38764931167E+02  0.23824411123E+03  0.28416208039E+03  0.12500000000E+03 0.  0.
          2    1    1    2  501    0 -0.89656589831E+02 -0.13130280882E+02  0.40912313378E+03  0.41903752453E+03  0.00000000000E+00 0. -1.
          1    1    1    2  502    0  0.68307997262E+01 -0.25634650285E+02 -0.58975002032E+02  0.64667194038E+02  0.00000000000E+00 0. -1.
<mgrwt>
<rscale>  0 0.48915909E+02</rscale>
<asrwt>0</asrwt>
<pdfrwt beam="2">  1        2 0.13805735E-01 0.26529137E+02</pdfrwt>
<pdfrwt beam="1">  1        1 0.10432762E+00 0.90193892E+02</pdfrwt>
<totfact> 0.15866375E+03</totfact>
</mgrwt>
</event>
<event>
 5    1  0.8274494E-003  0.6019167E+02  0.7546771E-02  0.1512520E+00
          2   -1    0    0  502    0  0.00000000000E+00  0.00000000000E+00  0.15968197708E+04  0.15968197708E+04  0.00000000000E+00 0. -1.
          1   -1    0    0  501    0 -0.00000000000E+00 -0.00000000000E+00 -0.88922867515E+02  0.88922867515E+02  0.00000000000E+00 0. -1.
         25    1    1    2    0    0  0.15033025333E+02 -0.32217778646E+02  0.27510791125E+03  0.30425867275E+03  0.12500000000E+03 0.  0.
          2    1    1    2  501    0 -0.23169755115E+02  0.56719036253E+02 -0.61574096610E+02  0.86863433036E+02  0.00000000000E+00 0. -1.
          1    1    1    2  502    0  0.81367297819E+01 -0.24501257606E+02  0.12943630886E+04  0.12946205325E+04  0.00000000000E+00 0. -1.
<mgrwt>
<rscale>  0 0.39420412E+02</rscale>
<asrwt>0</asrwt>
<pdfrwt beam="1">  1        2 0.24566456E+00 0.25817010E+02</pdfrwt>
<pdfrwt beam="2">  1        1 0.13680442E-01 0.60191669E+02</pdfrwt>
<totfact> 0.79601270E+02</totfact>
</mgrwt>
</event>
<event>
 5    1  0.8274494E-003  0.6049467E+02  0.7546771E-02  0.1526419E+00
          2   -1    0    0  502    0  0.00000000000E+00  0.00000000000E+00  0.34160475569E+04  0.34160475569E+04  0.00000000000E+00 0. -1.
         -2   -1    0    0    0  501 -0.00000000000E+00 -0.00000000000E+00 -0.49494126388E+01  0.49494126388E+01  0.00000000000E+00 0.  1.
         25    1    1    2    0    0  0.21679108661E+02 -0.58095182541E+02  0.22574539127E+04  0.22617621895E+04  0.12500000000E+03 0.  0.
          3    1    1    2  502    0  0.19363745401E+02  0.13149328723E+02  0.80342332960E+03  0.80376421047E+03  0.00000000000E+00 0. -1.
         -3    1    1    2    0  501 -0.41042854062E+02  0.44945853818E+02  0.35022090189E+03  0.35547056948E+03  0.00000000000E+00 0.  1.
<mgrwt>
<rscale>  0 0.37629276E+02</rscale>
<asrwt>0</asrwt>
<pdfrwt beam="1">  1        2 0.52554389E+00 0.23406398E+02</pdfrwt>
<pdfrwt beam="2">  1       -2 0.76145083E-03 0.60494673E+02</pdfrwt>
<totfact> 0.45825962E+03</totfact>
</mgrwt>
</event>
<event>
 5    1  0.8274494E-003  0.1559614E+03  0.7546771E-02  0.1348164E+00
         -1   -1    0    0    0  502 -0.00000000000E+00  0.00000000000E+00  0.30341348456E+03  0.30341348456E+03  0.00000000000E+00 0.  1.
         -2   -1    0    0    0  501  0.00000000000E+00 -0.00000000000E+00 -0.73397813092E+03  0.73397813092E+03  0.00000000000E+00 0.  1.
         25    1    1    2    0    0 -0.97151361099E+01  0.18177744881E+03 -0.22277905265E+03  0.31367647516E+03  0.12500000000E+03 0.  0.
         -2    1    1    2    0  502 -0.84706817898E+01 -0.33714133954E+02  0.24476013531E+03  0.24721634071E+03  0.00000000000E+00 0.  1.
         -3    1    1    2    0  501  0.18185817900E+02 -0.14806331485E+03 -0.45254572902E+03  0.47649879961E+03  0.00000000000E+00 0.  1.
<mgrwt>
<rscale>  0 0.73631016E+02</rscale>
<asrwt>0</asrwt>
<pdfrwt beam="2">  1       -2 0.11291971E+00 0.15596138E+03</pdfrwt>
<pdfrwt beam="1">  1       -1 0.46678998E-01 0.34761980E+02</pdfrwt>
<totfact> 0.22998040E+01</totfact>
</mgrwt>
</event>
<event>
 5    1  0.8274494E-003  0.5260944E+02  0.7546771E-02  0.1482198E+00
         -2   -1    0    0    0  501 -0.00000000000E+00  0.00000000000E+00  0.79283407285E+02  0.79283407285E+02  0.00000000000E+00 0. -1.
          2   -1    0    0  502    0  0.00000000000E+00 -0.00000000000E+00 -0.17290097822E+03  0.17290097822E+03  0.00000000000E+00 0.  1.
         25    1    1    2    0    0 -0.34278242045E+02 -0.15970475071E+02 -0.34619582335E+02  0.13510577128E+03  0.12500000000E+03 0.  0.
          1    1    1    2  502    0 -0.30302182515E+02  0.20182879015E+02 -0.21018086336E+02  0.42039633963E+02  0.00000000000E+00 0. -1.
         -1    1    1    2    0  501  0.64580424560E+02 -0.42124039432E+01 -0.37979902267E+02  0.75038980268E+02  0.00000000000E+00 0.  1.
<mgrwt>
<rscale>  0 0.43765567E+02</rscale>
<asrwt>0</asrwt>
<pdfrwt beam="2">  1        2 0.26600150E-01 0.36408390E+02</pdfrwt>
<pdfrwt beam="1">  1       -2 0.12197447E-01 0.52609436E+02</pdfrwt>
<totfact> 0.82595771E+03</totfact>
</mgrwt>
</event>
<event>
 5    1  0.8274494E-003  0.9864514E+02  0.7546771E-02  0.1339680E+00
          2   -1    0    0  502    0  0.00000000000E+00  0.00000000000E+00  0.13800582885E+03  0.13800582885E+03  0.00000000000E+00 0. -1.
          1   -1    0    0  501    0 -0.00000000000E+00 -0.00000000000E+00 -0.19782256168E+04  0.19782256168E+04  0.00000000000E+00 0. -1.
         25    1    1    2    0    0 -0.53725158589E+02 -0.10974993773E+03 -0.77727287998E+03  0.79668662060E+03  0.12500000000E+03 0.  0.
          2    1    1    2  501    0  0.78324182652E+02  0.55985197449E+02 -0.11823720334E+04  0.11862852293E+04  0.00000000000E+00 0. -1.
          1    1    1    2  502    0 -0.24599024062E+02  0.53764740278E+02  0.11942512541E+03  0.13325959575E+03  0.00000000000E+00 0. -1.
<mgrwt>
<rscale>  0 0.76370076E+02</rscale>
<asrwt>0</asrwt>
<pdfrwt beam="1">  1        2 0.21231664E-01 0.59124946E+02</pdfrwt>
<pdfrwt beam="2">  1        1 0.30434243E+00 0.98645137E+02</pdfrwt>
<totfact> 0.13157702E+02</totfact>
</mgrwt>
</event>
<event>
 5    1  0.8274494E-003  0.1798613E+03  0.7546771E-02  0.1357797E+00
          1   -1    0    0  501    0 -0.00000000000E+00  0.00000000000E+00  0.34006100464E+02  0.34006100464E+02  0.00000000000E+00 0. -1.
          2   -1    0    0  502    0  0.00000000000E+00 -0.00000000000E+00 -0.27780158757E+04  0.27780158757E+04  0.00000000000E+00 0. -1.
         25    1    1    2    0    0 -0.91301625849E+02 -0.13090199076E+03 -0.74492776426E+03  0.77201923035E+03  0.12500000000E+03 0.  0.
          2    1    1    2  501    0 -0.86604356837E+01 -0.26390074941E+02  0.41823409789E+01  0.28087918714E+02  0.00000000000E+00 0. -1.
          1    1    1    2  502    0  0.99962061533E+02  0.15729206570E+03 -0.20032643519E+04  0.20119148271E+04  0.00000000000E+00 0. -1.
<mgrwt>
<rscale>  0 0.70679625E+02</rscale>
<asrwt>0</asrwt>
<pdfrwt beam="2">  1        2 0.42738714E+00 0.17986125E+03</pdfrwt>
<pdfrwt beam="1">  1        1 0.52317068E-02 0.27774794E+02</pdfrwt>
<totfact> 0.50689698E+02</totfact>
</mgrwt>
</event>
<event>
 5    1  0.8274494E-003  0.2204630E+03  0.7546771E-02  0.1230672E+00
          1   -1    0    0  501    0 -0.00000000000E+00  0.00000000000E+00  0.77215695989E+03  0.77215695989E+03  0.00000000000E+00 0. -1.
          2   -1    0    0  502    0  0.00000000000E+00 -0.00000000000E+00 -0.32958541925E+03  0.32958541925E+03  0.00000000000E+00 0. -1.
         25    1    1    2    0    0  0.13497848174E+03  0.18008692276E+03  0.11166116313E+03  0.28061308885E+03  0.12500000000E+03 0.  0.
          2    1    1    2  501    0  0.48782172478E+02 -0.55843333408E+02  0.52267535466E+03  0.52790880330E+03  0.00000000000E+00 0. -1.
          1    1    1    2  502    0 -0.18376065421E+03 -0.12424358935E+03 -0.19176497715E+03  0.29322048699E+03  0.00000000000E+00 0. -1.
<mgrwt>
<rscale>  0 0.12785643E+03</rscale>
<asrwt>0</asrwt>
<pdfrwt beam="2">  1        2 0.50705449E-01 0.22046302E+03</pdfrwt>
<pdfrwt beam="1">  1        1 0.11879338E+00 0.74149702E+02</pdfrwt>
<totfact> 0.34827971E+02</totfact>
</mgrwt>
</event>
<event>
 5    1  0.8274494E-003  0.6748689E+02  0.7546771E-02  0.1443750E+00
          2   -1    0    0  502    0  0.00000000000E+00  0.00000000000E+00  0.11487476025E+04  0.11487476025E+04  0.00000000000E+00 0. -1.
          1   -1    0    0  501    0 -0.00000000000E+00 -0.00000000000E+00 -0.13565146025E+03  0.13565146025E+03  0.00000000000E+00 0. -1.
         25    1    1    2    0    0 -0.19078124236E+02 -0.53886650077E+02  0.20168408436E+03  0.24406805560E+03  0.12500000000E+03 0.  0.
          2    1    1    2  501    0 -0.16249902588E+02  0.66417870320E+02 -0.10382959048E+03  0.12432206840E+03  0.00000000000E+00 0. -1.
          1    1    1    2  502    0  0.35328026824E+02 -0.12531220242E+02  0.91524164833E+03  0.91600893871E+03  0.00000000000E+00 0. -1.
<mgrwt>
<rscale>  0 0.50296365E+02</rscale>
<asrwt>0</asrwt>
<pdfrwt beam="1">  1        2 0.17673039E+00 0.37484676E+02</pdfrwt>
<pdfrwt beam="2">  1        1 0.20869456E-01 0.67486893E+02</pdfrwt>
<totfact> 0.75996589E+02</totfact>
</mgrwt>
</event>
<event>
 5    1  0.8274494E-003  0.3116203E+02  0.7546771E-02  0.1639482E+00
          1   -1    0    0  501    0 -0.00000000000E+00  0.00000000000E+00  0.15249671930E+04  0.15249671930E+04  0.00000000000E+00 0. -1.
          2   -1    0    0  502    0  0.00000000000E+00 -0.00000000000E+00 -0.13431032951E+04  0.13431032951E+04  0.00000000000E+00 0. -1.
         25    1    1    2    0    0  0.41766017408E+02  0.32143267341E+02  0.69692070329E+02  0.15251089965E+03  0.12500000000E+03 0.  0.
          2    1    1    2  501    0 -0.27424734242E+02 -0.14615495906E+02  0.14135964176E+04  0.14139379620E+04  0.00000000000E+00 0. -1.
          1    1    1    2  502    0 -0.14341283167E+02 -0.17527771435E+02 -0.13014245900E+04  0.13016216265E+04  0.00000000000E+00 0. -1.
<mgrwt>
<rscale>  0 0.26565626E+02</rscale>
<asrwt>0</asrwt>
<pdfrwt beam="2">  1        2 0.20663128E+00 0.22647189E+02</pdfrwt>
<pdfrwt beam="1">  1        1 0.23461034E+00 0.31162034E+02</pdfrwt>
<totfact> 0.23497063E+01</totfact>
</mgrwt>
</event>
<event>
 5    1  0.8274494E-003  0.2117410E+03  0.7546771E-02  0.1235404E+00
          1   -1    0    0  501    0 -0.00000000000E+00  0.00000000000E+00  0.81635469182E+03  0.81635469182E+03  0.00000000000E+00 0. -1.
          2   -1    0    0  502    0  0.00000000000E+00 -0.00000000000E+00 -0.48982880677E+03  0.48982880677E+03  0.00000000000E+00 0. -1.
         25    1    1    2    0    0  0.10728628012E+03 -0.11967455546E+03  0.13520407920E+03  0.24441253683E+03  0.12500000000E+03 0.  0.
          2    1    1    2  501    0  0.73324844799E+02 -0.56257663764E+01  0.59638698929E+03  0.60090400490E+03  0.00000000000E+00 0. -1.
          1    1    1    2  502    0 -0.18061112492E+03  0.12530032183E+03 -0.40506518344E+03  0.46086695686E+03  0.00000000000E+00 0. -1.
<mgrwt>
<rscale>  0 0.12478585E+03</rscale>
<asrwt>0</asrwt>
<pdfrwt beam="2">  1        2 0.75358278E-01 0.21174103E+03</pdfrwt>
<pdfrwt beam="1">  1        1 0.12559303E+00 0.73540343E+02</pdfrwt>
<totfact> 0.20862247E+02</totfact>
</mgrwt>
</event>
<event>
 5    1  0.8274494E-003  0.5513454E+02  0.7546771E-02  0.1459136E+00
          2   -1    0    0  502    0  0.00000000000E+00  0.00000000000E+00  0.88473360439E+03  0.88473360439E+03  0.00000000000E+00 0. -1.
         -2   -1    0    0    0  501 -0.00000000000E+00 -0.00000000000E+00 -0.14240776592E+03  0.14240776592E+03  0.00000000000E+00 0.  1.
         25    1    1    2    0    0  0.55580548219E+02 -0.58105718878E+02  0.32232772277E+03  0.35494454887E+03  0.12500000000E+03 0.  0.
          1    1    1    2  502    0 -0.50833713160E+02  0.17406681877E+02  0.54140350679E+03  0.54406324644E+03  0.00000000000E+00 0. -1.
         -1    1    1    2    0  501 -0.47468350595E+01  0.40699037001E+02 -0.12140539109E+03  0.12813357500E+03  0.00000000000E+00 0.  1.
<mgrwt>
<rscale>  0 0.47530340E+02</rscale>
<asrwt>0</asrwt>
<pdfrwt beam="1">  1        2 0.13611286E+00 0.55134536E+02</pdfrwt>
<pdfrwt beam="2">  1       -2 0.21908888E-01 0.40974920E+02</pdfrwt>
<totfact> 0.56209543E+02</totfact>
</mgrwt>
</event>
<event>
 5    1  0.8274494E-003  0.3985354E+02  0.7546771E-02  0.1570916E+00
          1   -1    0    0  501    0 -0.00000000000E+00  0.00000000000E+00  0.24144320517E+03  0.24144320517E+03  0.00000000000E+00 0. -1.
          2   -1    0    0  502    0  0.00000000000E+00 -0.00000000000E+00 -0.57704936820E+03  0.57704936820E+03  0.00000000000E+00 0. -1.
         25    1    1    2    0    0  0.21573891843E+00  0.14117735894E+02 -0.72023823557E+01  0.12600091794E+03  0.12500000000E+03 0.  0.
          2    1    1    2  501    0 -0.37589705955E+01 -0.40563452352E+02  0.17941028291E+03  0.18397709950E+03  0.00000000000E+00 0. -1.
          1    1    1    2  502    0  0.35432316771E+01  0.26445716458E+02 -0.50781406359E+03  0.50851455593E+03  0.00000000000E+00 0. -1.
<mgrwt>
<rscale>  0 0.32609404E+02</rscale>
<asrwt>0</asrwt>
<pdfrwt beam="2">  1        2 0.88776824E-01 0.26682024E+02</pdfrwt>
<pdfrwt beam="1">  1        1 0.37145109E-01 0.39853543E+02</pdfrwt>
<totfact> 0.85239821E+02</totfact>
</mgrwt>
</event>
<event>
 5    1  0.8274494E-003  0.3205783E+02  0.7546771E-02  0.1629088E+00
          2   -1    0    0  502    0  0.00000000000E+00  0.00000000000E+00  0.40145504947E+02  0.40145504947E+02  0.00000000000E+00 0. -1.
          1   -1    0    0  501    0 -0.00000000000E+00 -0.00000000000E+00 -0.24240369733E+04  0.24240369733E+04  0.00000000000E+00 0. -1.
         25    1    1    2    0    0 -0.42300132084E+02 -0.35398254158E+02 -0.17918419405E+03  0.22533156230E+03  0.12500000000E+03 0.  0.
          2    1    1    2  501    0  0.23121663473E+02  0.22039663994E+02 -0.22136099809E+04  0.22138404427E+04  0.00000000000E+00 0. -1.
          1    1    1    2  502    0  0.19178468611E+02  0.13358590163E+02  0.89027065783E+01  0.25010473283E+02  0.00000000000E+00 0. -1.
<mgrwt>
<rscale>  0 0.27372726E+02</rscale>
<asrwt>0</asrwt>
<pdfrwt beam="1">  1        2 0.61762303E-02 0.23372325E+02</pdfrwt>
<pdfrwt beam="2">  1        1 0.37292884E+00 0.32057834E+02</pdfrwt>
<totfact> 0.31667387E+02</totfact>
</mgrwt>
</event>
<event>
 5    1  0.8274494E-003  0.4132708E+02  0.7546771E-02  0.1506844E+00
          2   -1    0    0  502    0  0.00000000000E+00  0.00000000000E+00  0.75973933634E+02  0.75973933634E+02  0.00000000000E+00 0. -1.
          1   -1    0    0  501    0 -0.00000000000E+00 -0.00000000000E+00 -0.18516694209E+04  0.18516694209E+04  0.00000000000E+00 0. -1.
         25    1    1    2    0    0 -0.80903715243E+01 -0.10162909623E+02 -0.30809975385E+03  0.33274494311E+03  0.12500000000E+03 0.  0.
          2    1    1    2  501    0 -0.32360795975E+02  0.21904426203E+02 -0.15240008154E+04  0.15245017252E+04  0.00000000000E+00 0. -1.
          1    1    1    2  502    0  0.40451167499E+02 -0.11741516580E+02  0.56405081923E+02  0.70396686217E+02  0.00000000000E+00 0. -1.
<mgrwt>
<rscale>  0 0.40186382E+02</rscale>
<asrwt>0</asrwt>
<pdfrwt beam="1">  1        2 0.11688298E-01 0.41327082E+02</pdfrwt>
<pdfrwt beam="2">  1        1 0.28487220E+00 0.39077167E+02</pdfrwt>
<totfact> 0.33964220E+02</totfact>
</mgrwt>
</event>
<event>
 5    1  0.8274494E-003  0.6579269E+02  0.7546771E-02  0.1474537E+00
          2   -1    0    0  502    0  0.00000000000E+00  0.00000000000E+00  0.25384289476E+02  0.25384289476E+02  0.00000000000E+00 0. -1.
          1   -1    0    0  501    0 -0.00000000000E+00 -0.00000000000E+00 -0.10318600173E+04  0.10318600173E+04  0.00000000000E+00 0. -1.
         25    1    1    2    0    0  0.71844943225E+02  0.48193921437E+02 -0.29866380652E+03  0.33512597521E+03  0.12500000000E+03 0.  0.
          2    1    1    2  501    0 -0.19193541596E+02 -0.24006221583E+02 -0.59028618836E+03  0.59108584392E+03  0.00000000000E+00 0. -1.
          1    1    1    2  502    0 -0.52651401629E+02 -0.24187699853E+02 -0.11752573296E+03  0.13103248768E+03  0.00000000000E+00 0. -1.
<mgrwt>
<rscale>  0 0.44968795E+02</rscale>
<asrwt>0</asrwt>
<pdfrwt beam="1">  1        2 0.39052769E-02 0.65792694E+02</pdfrwt>
<pdfrwt beam="2">  1        1 0.15874763E+00 0.30735821E+02</pdfrwt>
<totfact> 0.45492663E+03</totfact>
</mgrwt>
</event>
<event>
 5    1  0.8274494E-003  0.4748415E+02  0.7546771E-02  0.1465335E+00
          1   -1    0    0  501    0 -0.00000000000E+00  0.00000000000E+00  0.99741603326E+03  0.99741603326E+03  0.00000000000E+00 0. -1.
          2   -1    0    0  502    0  0.00000000000E+00 -0.00000000000E+00 -0.49106754922E+03  0.49106754922E+03  0.00000000000E+00 0. -1.
         25    1    1    2    0    0  0.31827082731E+02  0.97064301191E+01  0.39013091701E+03  0.41101619236E+03  0.12500000000E+03 0.  0.
          2    1    1    2  501    0 -0.45799999364E+00 -0.45486068141E+02  0.59479416682E+03  0.59653104952E+03  0.00000000000E+00 0. -1.
          1    1    1    2  502    0 -0.31369082738E+02  0.35779638022E+02 -0.47857659978E+03  0.48093634060E+03  0.00000000000E+00 0. -1.
<mgrwt>
<rscale>  0 0.46475552E+02</rscale>
<asrwt>0</asrwt>
<pdfrwt beam="2">  1        2 0.75548854E-01 0.47484155E+02</pdfrwt>
<pdfrwt beam="1">  1        1 0.15344862E+00 0.45488374E+02</pdfrwt>
<totfact> 0.16039798E+02</totfact>
</mgrwt>
</event>
<event>
 5    1  0.8274494E-003  0.3589406E+02  0.7546771E-02  0.1591761E+00
          2   -1    0    0  502    0  0.00000000000E+00  0.00000000000E+00  0.48490323008E+03  0.48490323008E+03  0.00000000000E+00 0. -1.
          1   -1    0    0  501    0 -0.00000000000E+00 -0.00000000000E+00 -0.26574579836E+04  0.26574579836E+04  0.00000000000E+00 0. -1.
         25    1    1    2    0    0  0.10344630478E+02  0.11543677152E+02  0.42528024842E+02  0.13294322382E+03  0.12500000000E+03 0.  0.
          2    1    1    2  501    0 -0.35572800996E+02 -0.50388208834E+01 -0.26116994372E+04  0.26119465470E+04  0.00000000000E+00 0. -1.
          1    1    1    2  502    0  0.25228170518E+02 -0.65048562689E+01  0.39661665891E+03  0.39747144284E+03  0.00000000000E+00 0. -1.
<mgrwt>
<rscale>  0 0.30580356E+02</rscale>
<asrwt>0</asrwt>
<pdfrwt beam="1">  1        2 0.74600497E-01 0.26053287E+02</pdfrwt>
<pdfrwt beam="2">  1        1 0.40883969E+00 0.35894057E+02</pdfrwt>
<totfact> 0.15530324E+01</totfact>
</mgrwt>
</event>
<event>
 5    1  0.8274494E-003  0.1135476E+03  0.7546771E-02  0.1438869E+00
          2   -1    0    0  502    0  0.00000000000E+00  0.00000000000E+00  0.68005258043E+03  0.68005258043E+03  0.00000000000E+00 0. -1.
          1   -1    0    0  501    0 -0.00000000000E+00 -0.00000000000E+00 -0.64816334569E+03  0.64816334569E+03  0.00000000000E+00 0. -1.
         25    1    1    2    0    0 -0.11220060570E+03 -0.48225127498E+02  0.56349927903E+03  0.58997548788E+03  0.12500000000E+03 0.  0.
          2    1    1    2  501    0  0.94415166686E+02  0.62973617245E+02 -0.62848433485E+03  0.63864893277E+03  0.00000000000E+00 0. -1.
          3    1    1    2  502    0  0.17785439018E+02 -0.14748489747E+02  0.96874290558E+02  0.99591505471E+02  0.00000000000E+00 0. -1.
<mgrwt>
<rscale>  0 0.51220247E+02</rscale>
<asrwt>0</asrwt>
<pdfrwt beam="1">  1        2 0.10462347E+00 0.23104973E+02</pdfrwt>
<pdfrwt beam="2">  1        1 0.99717438E-01 0.11354757E+03</pdfrwt>
<totfact> 0.20773789E+02</totfact>
</mgrwt>
</event>
<event>
 5    1  0.8274494E-003  0.1238214E+03  0.7546771E-02  0.1418240E+00
         -2   -1    0    0    0  501 -0.00000000000E+00  0.00000000000E+00  0.62993828318E+02  0.62993828318E+02  0.00000000000E+00 0.  1.
          2   -1    0    0  502    0  0.00000000000E+00 -0.00000000000E+00 -0.94900329588E+03  0.94900329588E+03  0.00000000000E+00 0. -1.
         25    1    1    2    0    0  0.20442824452E+01 -0.12815758746E+03 -0.47332969819E+03  0.50605785193E+03  0.12500000000E+03 0.  0.
          1    1    1    2  502    0  0.21528142626E+02  0.12050834039E+03 -0.44708288411E+03  0.46353945495E+03  0.00000000000E+00 0. -1.
         -1    1    1    2    0  501 -0.23572425071E+02  0.76492470684E+01  0.34403114742E+02  0.42399817316E+02  0.00000000000E+00 0.  1.
<mgrwt>
<rscale>  0 0.55394928E+02</rscale>
<asrwt>0</asrwt>
<pdfrwt beam="2">  1        2 0.14600050E+00 0.12382138E+03</pdfrwt>
<pdfrwt beam="1">  1       -2 0.96913584E-02 0.24782458E+02</pdfrwt>
<totfact> 0.17115162E+03</totfact>
</mgrwt>
</event>
<event>
 5    1  0.8274494E-003  0.9386721E+02  0.7546771E-02  0.1344933E+00
          1   -1    0    0  501    0 -0.00000000000E+00  0.00000000000E+00  0.54962560555E+03  0.54962560555E+03  0.00000000000E+00 0. -1.
          2   -1    0    0  502    0  0.00000000000E+00 -0.00000000000E+00 -0.14009962417E+04  0.14009962417E+04  0.00000000000E+00 0. -1.
         25    1    1    2    0    0  0.25091539538E+02 -0.64465055760E+02 -0.22458251827E+03  0.26617219292E+03  0.12500000000E+03 0.  0.
          2    1    1    2  501    0 -0.81914284696E+02  0.47226402575E+02  0.52383260420E+03  0.53229773657E+03  0.00000000000E+00 0. -1.
          1    1    1    2  502    0  0.56822745158E+02  0.17238653185E+02 -0.11506207221E+04  0.11521519178E+04  0.00000000000E+00 0. -1.
<mgrwt>
<rscale>  0 0.74658179E+02</rscale>
<asrwt>0</asrwt>
<pdfrwt beam="2">  1        2 0.21553789E+00 0.59380094E+02</pdfrwt>
<pdfrwt beam="1">  1        1 0.84557785E-01 0.93867211E+02</pdfrwt>
<totfact> 0.97145071E+01</totfact>
</mgrwt>
</event>
<event>
 5    1  0.8274494E-003  0.1566795E+03  0.7546771E-02  0.1277070E+00
          2   -1    0    0  502    0  0.00000000000E+00  0.00000000000E+00  0.32545785487E+04  0.32545785487E+04  0.00000000000E+00 0. -1.
          1   -1    0    0  501    0 -0.00000000000E+00 -0.00000000000E+00 -0.20377930256E+03  0.20377930256E+03  0.00000000000E+00 0. -1.
         25    1    1    2    0    0  0.17356539198E+03  0.49764266087E+02  0.14643252933E+03  0.26394869410E+03  0.12500000000E+03 0.  0.
          2    1    1    2  501    0 -0.12319151224E+03 -0.92126353169E+02 -0.10376670131E+03  0.18555576503E+03  0.00000000000E+00 0. -1.
          1    1    1    2  502    0 -0.50373879741E+02  0.42362087081E+02  0.30081334182E+04  0.30088533922E+04  0.00000000000E+00 0. -1.
<mgrwt>
<rscale>  0 0.10155003E+03</rscale>
<asrwt>0</asrwt>
<pdfrwt beam="1">  1        2 0.50070436E+00 0.65818494E+02</pdfrwt>
<pdfrwt beam="2">  1        1 0.31350664E-01 0.15667950E+03</pdfrwt>
<totfact> 0.36021583E+01</totfact>
</mgrwt>
</event>
<event>
 5    1  0.8274494E-003  0.7566236E+02  0.7546771E-02  0.1365607E+00
          1   -1    0    0  501    0 -0.00000000000E+00  0.00000000000E+00  0.78599491438E+03  0.78599491438E+03  0.00000000000E+00 0. -1.
          2   -1    0    0  502    0  0.00000000000E+00 -0.00000000000E+00 -0.14266181455E+04  0.14266181455E+04  0.00000000000E+00 0. -1.
         25    1    1    2    0    0 -0.97145099301E+02 -0.77243553608E+02  0.55840507593E+03  0.58552964546E+03  0.12500000000E+03 0.  0.
          2    1    1    2  501    0  0.24356285176E+02  0.56842859420E+02  0.20852495159E+03  0.21750171202E+03  0.00000000000E+00 0. -1.
          1    1    1    2  502    0  0.72788814125E+02  0.20400694188E+02 -0.14075532587E+04  0.14095817024E+04  0.00000000000E+00 0. -1.
<mgrwt>
<rscale>  0 0.68403615E+02</rscale>
<asrwt>0</asrwt>
<pdfrwt beam="2">  1        2 0.21947971E+00 0.75662364E+02</pdfrwt>
<pdfrwt beam="1">  1        1 0.12092229E+00 0.61841243E+02</pdfrwt>
<totfact> 0.57544868E+01</totfact>
</mgrwt>
</event>
<event>
 5    1  0.8274494E-003  0.7331926E+02  0.7546771E-02  0.1481871E+00
         -2   -1    0    0    0  501 -0.00000000000E+00  0.00000000000E+00  0.92183928833E+02  0.92183928833E+02  0.00000000000E+00 0.  1.
          2   -1    0    0  502    0  0.00000000000E+00 -0.00000000000E+00 -0.13866291182E+04  0.13866291182E+04  0.00000000000E+00 0. -1.
         25    1    1    2    0    0 -0.83954770783E+01 -0.53833661156E+02 -0.10450545954E+03  0.17179912160E+03  0.12500000000E+03 0.  0.
          1    1    1    2  502    0 -0.89398669433E+01  0.73458280743E+02 -0.12443933916E+04  0.12465917348E+04  0.00000000000E+00 0. -1.
         -1    1    1    2    0  501  0.17335344022E+02 -0.19624619587E+02  0.54453661743E+02  0.60422190654E+02  0.00000000000E+00 0.  1.
<mgrwt>
<rscale>  0 0.43816031E+02</rscale>
<asrwt>0</asrwt>
<pdfrwt beam="2">  1        2 0.21332755E+00 0.73319256E+02</pdfrwt>
<pdfrwt beam="1">  1       -2 0.14182143E-01 0.26184725E+02</pdfrwt>
<totfact> 0.57047349E+02</totfact>
</mgrwt>
</event>
<event>
 5    1  0.8274494E-003  0.3554706E+02  0.7546771E-02  0.1620581E+00
         -2   -1    0    0    0  501 -0.00000000000E+00  0.00000000000E+00  0.34134811175E+03  0.34134811175E+03  0.00000000000E+00 0.  1.
          2   -1    0    0  502    0  0.00000000000E+00 -0.00000000000E+00 -0.22186925485E+03  0.22186925485E+03  0.00000000000E+00 0. -1.
         25    1    1    2    0    0  0.48201611075E+00  0.29073235102E+02  0.22355153687E+03  0.25777077991E+03  0.12500000000E+03 0.  0.
          1    1    1    2  502    0 -0.22580001298E+02 -0.27560929050E+02 -0.20196295512E+03  0.20508168253E+03  0.00000000000E+00 0. -1.
         -1    1    1    2    0  501  0.22097985187E+02 -0.15123060523E+01  0.97890275144E+02  0.10036490416E+03  0.00000000000E+00 0.  1.
<mgrwt>
<rscale>  0 0.28059862E+02</rscale>
<asrwt>0</asrwt>
<pdfrwt beam="2">  1        2 0.34133731E-01 0.35547063E+02</pdfrwt>
<pdfrwt beam="1">  1       -2 0.52515094E-01 0.22149673E+02</pdfrwt>
<totfact> 0.50830967E+02</totfact>
</mgrwt>
</event>
<event>
 5    1  0.8274494E-003  0.5339399E+02  0.7546771E-02  0.1436658E+00
          1   -1    0    0  501    0 -0.00000000000E+00  0.00000000000E+00  0.37209901862E+03  0.37209901862E+03  0.00000000000E+00 0. -1.
          2   -1    0    0  502    0  0.00000000000E+00 -0.00000000000E+00 -0.24877606858E+04  0.24877606858E+04  0.00000000000E+00 0. -1.
         25    1    1    2    0    0  0.77529007537E+02 -0.33567128816E+02 -0.89653895233E+02  0.17550019965E+03  0.12500000000E+03 0.  0.
          2    1    1    2  501    0 -0.25127875381E+02  0.43176288821E+02  0.32697727172E+03  0.33077142902E+03  0.00000000000E+00 0. -1.
          1    1    1    2  502    0 -0.52401132156E+02 -0.96091600051E+01 -0.23529850437E+04  0.23535880758E+04  0.00000000000E+00 0. -1.
<mgrwt>
<rscale>  0 0.51646394E+02</rscale>
<asrwt>0</asrwt>
<pdfrwt beam="2">  1        2 0.38273241E+00 0.53393986E+02</pdfrwt>
<pdfrwt beam="1">  1        1 0.57246004E-01 0.49956001E+02</pdfrwt>
<totfact> 0.46801703E+01</totfact>
</mgrwt>
</event>
<event>
 5    1  0.8274494E-003  0.1093738E+03  0.7546771E-02  0.1288243E+00
          2   -1    0    0  502    0  0.00000000000E+00  0.00000000000E+00  0.45442397952E+03  0.45442397952E+03  0.00000000000E+00 0. -1.
          1   -1    0    0  501    0 -0.00000000000E+00 -0.00000000000E+00 -0.10847848976E+04  0.10847848976E+04  0.00000000000E+00 0. -1.
         25    1    1    2    0    0 -0.33807278140E+02  0.67515858213E+02  0.16171487220E+03  0.21789452277E+03  0.12500000000E+03 0.  0.
          2    1    1    2  501    0 -0.84811646682E+02  0.68501403107E+00 -0.10371600617E+04  0.10406221592E+04  0.00000000000E+00 0. -1.
          1    1    1    2  502    0  0.11861892482E+03 -0.68200872244E+02  0.24508427143E+03  0.28069219512E+03  0.00000000000E+00 0. -1.
<mgrwt>
<rscale>  0 0.96314452E+02</rscale>
<asrwt>0</asrwt>
<pdfrwt beam="1">  1        2 0.69911382E-01 0.10937379E+03</pdfrwt>
<pdfrwt beam="2">  1        1 0.16688998E+00 0.84814413E+02</pdfrwt>
<totfact> 0.14370721E+02</totfact>
</mgrwt>
</event>
<event>
 5    1  0.8274494E-003  0.1565779E+03  0.7546771E-02  0.1242069E+00
          1   -1    0    0  501    0 -0.00000000000E+00  0.00000000000E+00  0.39465669036E+04  0.39465669036E+04  0.00000000000E+00 0. -1.
          2   -1    0    0  502    0  0.00000000000E+00 -0.00000000000E+00 -0.27657634468E+04  0.27657634468E+04  0.00000000000E+00 0. -1.
         25    1    1    2    0    0 -0.19269935377E+03 -0.45317472149E+02 -0.11803639850E+04  0.12033581559E+04  0.12500000000E+03 0.  0.
          2    1    1    2  501    0  0.48150513973E+02  0.79480295903E+02  0.39310152139E+04  0.39321134522E+04  0.00000000000E+00 0. -1.
          1    1    1    2  502    0  0.14454883980E+03 -0.34162823754E+02 -0.15698477721E+04  0.15768587424E+04  0.00000000000E+00 0. -1.
<mgrwt>
<rscale>  0 0.12062523E+03</rscale>
<asrwt>0</asrwt>
<pdfrwt beam="2">  1        2 0.42550207E+00 0.15657785E+03</pdfrwt>
<pdfrwt beam="1">  1        1 0.60716414E+00 0.92927872E+02</pdfrwt>
<totfact> 0.73540841E-02</totfact>
</mgrwt>
</event>
<event>
 5    1  0.8274494E-003  0.9815854E+02  0.7546771E-02  0.1293531E+00
          2   -1    0    0  502    0  0.00000000000E+00  0.00000000000E+00  0.81476642375E+03  0.81476642375E+03  0.00000000000E+00 0. -1.
          1   -1    0    0  501    0 -0.00000000000E+00 -0.00000000000E+00 -0.80347440378E+03  0.80347440378E+03  0.00000000000E+00 0. -1.
         25    1    1    2    0    0  0.61478859274E+02  0.35880355053E+02 -0.24149423845E+03  0.28108987392E+03  0.12500000000E+03 0.  0.
          2    1    1    2  501    0  0.97028631428E+01 -0.10346927080E+03 -0.53412505719E+03  0.54414116944E+03  0.00000000000E+00 0. -1.
          1    1    1    2  502    0 -0.71181722416E+02  0.67588915751E+02  0.78691131562E+03  0.79300978417E+03  0.00000000000E+00 0. -1.
<mgrwt>
<rscale>  0 0.93962047E+02</rscale>
<asrwt>0</asrwt>
<pdfrwt beam="1">  1        2 0.12534868E+00 0.98158541E+02</pdfrwt>
<pdfrwt beam="2">  1        1 0.12361145E+00 0.89944962E+02</pdfrwt>
<totfact> 0.11941735E+02</totfact>
</mgrwt>
</event>
<event>
 5    1  0.8274494E-003  0.4508465E+02  0.7546771E-02  0.1485752E+00
          1   -1    0    0  501    0 -0.00000000000E+00  0.00000000000E+00  0.65604364008E+03  0.65604364008E+03  0.00000000000E+00 0. -1.
          2   -1    0    0  502    0  0.00000000000E+00 -0.00000000000E+00 -0.36105635745E+03  0.36105635745E+03  0.00000000000E+00 0. -1.
         25    1    1    2    0    0  0.36097702057E+02 -0.27272480527E+02  0.11438968336E+03  0.17537625822E+03  0.12500000000E+03 0.  0.
          2    1    1    2  501    0  0.10258723921E+01  0.45682296726E+02  0.50883425421E+03  0.51088180914E+03  0.00000000000E+00 0. -1.
          3    1    1    2  502    0 -0.37123574450E+02 -0.18409816199E+02 -0.32823665494E+03  0.33084193017E+03  0.00000000000E+00 0. -1.
<mgrwt>
<rscale>  0 0.43222714E+02</rscale>
<asrwt>0</asrwt>
<pdfrwt beam="2">  1        2 0.55547132E-01 0.41437677E+02</pdfrwt>
<pdfrwt beam="1">  1        1 0.10092979E+00 0.45084645E+02</pdfrwt>
<totfact> 0.40441181E+02</totfact>
</mgrwt>
</event>
<event>
 5    1  0.8274494E-003  0.3488150E+02  0.7546771E-02  0.1557469E+00
          2   -1    0    0  502    0  0.00000000000E+00  0.00000000000E+00  0.41662301731E+03  0.41662301731E+03  0.00000000000E+00 0. -1.
          1   -1    0    0  501    0 -0.00000000000E+00 -0.00000000000E+00 -0.26635268595E+03  0.26635268595E+03  0.00000000000E+00 0. -1.
         25    1    1    2    0    0 -0.44892846672E+00  0.26679675775E+01 -0.40411059365E+02  0.13139776751E+03  0.12500000000E+03 0.  0.
          2    1    1    2  501    0 -0.26427931527E+02  0.20065116185E+02 -0.17807754228E+03  0.18114263860E+03  0.00000000000E+00 0. -1.
          1    1    1    2  502    0  0.26876859993E+02 -0.22733083763E+02  0.36875893301E+03  0.37043529715E+03  0.00000000000E+00 0. -1.
<mgrwt>
<rscale>  0 0.34021135E+02</rscale>
<asrwt>0</asrwt>
<pdfrwt beam="1">  1        2 0.64095849E-01 0.34881502E+02</pdfrwt>
<pdfrwt beam="2">  1        1 0.40977336E-01 0.33181990E+02</pdfrwt>
<totfact> 0.10549443E+03</totfact>
</mgrwt>
</event>
<event>
 5    1  0.8274494E-003  0.1263969E+03  0.7546771E-02  0.1236502E+00
          2   -1    0    0  502    0  0.00000000000E+00  0.00000000000E+00  0.65949992800E+03  0.65949992800E+03  0.00000000000E+00 0. -1.
          1   -1    0    0  501    0 -0.00000000000E+00 -0.00000000000E+00 -0.97769634576E+03  0.97769634576E+03  0.00000000000E+00 0. -1.
         25    1    1    2    0    0  0.19858417477E+03  0.11744294636E+03 -0.38386070559E+02  0.26519240286E+03  0.12500000000E+03 0.  0.
          2    1    1    2  501    0 -0.78907081851E+02 -0.92811178100E+02 -0.81448547546E+03  0.82354528235E+03  0.00000000000E+00 0. -1.
          1    1    1    2  502    0 -0.11967709292E+03 -0.24631768263E+02  0.53467512826E+03  0.54845858856E+03  0.00000000000E+00 0. -1.
<mgrwt>
<rscale>  0 0.12408762E+03</rscale>
<asrwt>0</asrwt>
<pdfrwt beam="1">  1        2 0.10146153E+00 0.12639690E+03</pdfrwt>
<pdfrwt beam="2">  1        1 0.15041482E+00 0.12182053E+03</pdfrwt>
<totfact> 0.11028795E+02</totfact>
</mgrwt>
</event>
<event>
 5    1  0.8274494E-003  0.5196315E+02  0.7546771E-02  0.1445817E+00
          1   -1    0    0  501    0 -0.00000000000E+00  0.00000000000E+00  0.60507689126E+03  0.60507689126E+03  0.00000000000E+00 0. -1.
          2   -1    0    0  502    0  0.00000000000E+00 -0.00000000000E+00 -0.17889954945E+04  0.17889954945E+04  0.00000000000E+00 0. -1.
         25    1    1    2    0    0 -0.18403398892E+01  0.59838450337E+01 -0.86322143577E+03  0.87224735048E+03  0.12500000000E+03 0.  0.
          2    1    1    2  501    0 -0.25638110560E+02 -0.45269177160E+02  0.59881158999E+03  0.60106732687E+03  0.00000000000E+00 0. -1.
          1    1    1    2  502    0  0.27478450449E+02  0.39285332126E+02 -0.91950875751E+03  0.92075770846E+03  0.00000000000E+00 0. -1.
<mgrwt>
<rscale>  0 0.49911918E+02</rscale>
<asrwt>0</asrwt>
<pdfrwt beam="2">  1        2 0.27523008E+00 0.47941658E+02</pdfrwt>
<pdfrwt beam="1">  1        1 0.93088753E-01 0.51963149E+02</pdfrwt>
<totfact> 0.57233581E+01</totfact>
</mgrwt>
</event>
<event>
 5    1  0.8274494E-003  0.8486694E+02  0.7546771E-02  0.1370448E+00
          1   -1    0    0  501    0 -0.00000000000E+00  0.00000000000E+00  0.91190176915E+03  0.91190176915E+03  0.00000000000E+00 0. -1.
          2   -1    0    0  502    0  0.00000000000E+00 -0.00000000000E+00 -0.85241088768E+02  0.85241088768E+02  0.00000000000E+00 0. -1.
         25    1    1    2    0    0  0.11695640474E+03  0.46874123471E+02  0.17108203933E+03  0.24651581743E+03  0.12500000000E+03 0.  0.
          2    1    1    2  501    0 -0.38971551338E+02 -0.35863758388E+02  0.66869065864E+03  0.67078475530E+03  0.00000000000E+00 0. -1.
          1    1    1    2  502    0 -0.77984853405E+02 -0.11010365083E+02 -0.13112017591E+02  0.79842285195E+02  0.00000000000E+00 0. -1.
<mgrwt>
<rscale>  0 0.67042798E+02</rscale>
<asrwt>0</asrwt>
<pdfrwt beam="2">  1        2 0.13114014E-01 0.84866936E+02</pdfrwt>
<pdfrwt beam="1">  1        1 0.14029257E+00 0.52962166E+02</pdfrwt>
<totfact> 0.12085673E+03</totfact>
</mgrwt>
</event>
<event>
 5    1  0.8274494E-003  0.5804056E+02  0.7546771E-02  0.1439641E+00
          1   -1    0    0  501    0 -0.00000000000E+00  0.00000000000E+00  0.15399325128E+04  0.15399325128E+04  0.00000000000E+00 0. -1.
          2   -1    0    0  502    0  0.00000000000E+00 -0.00000000000E+00 -0.20768091281E+04  0.20768091281E+04  0.00000000000E+00 0. -1.
         25    1    1    2    0    0  0.15030411400E+02  0.63687748330E+02  0.43736989684E+02  0.14771583131E+03  0.12500000000E+03 0.  0.
          2    1    1    2  501    0 -0.43072567587E+02 -0.12823998485E+02  0.14434397916E+04  0.14441392360E+04  0.00000000000E+00 0. -1.
          1    1    1    2  502    0  0.28042156187E+02 -0.50863749845E+02 -0.20240533966E+04  0.20248865736E+04  0.00000000000E+00 0. -1.
<mgrwt>
<rscale>  0 0.51072554E+02</rscale>
<asrwt>0</asrwt>
<pdfrwt beam="2">  1        2 0.31950910E+00 0.58040563E+02</pdfrwt>
<pdfrwt beam="1">  1        1 0.23691269E+00 0.44941084E+02</pdfrwt>
<totfact> 0.88878698E+00</totfact>
</mgrwt>
</event>
<event>
 5    1  0.8274494E-003  0.5186074E+02  0.7546771E-02  0.1483726E+00
         -2   -1    0    0    0  501 -0.00000000000E+00  0.00000000000E+00  0.82619384175E+02  0.82619384175E+02  0.00000000000E+00 0.  1.
          2   -1    0    0  502    0  0.00000000000E+00 -0.00000000000E+00 -0.97095077598E+03  0.97095077598E+03  0.00000000000E+00 0. -1.
         25    1    1    2    0    0 -0.70801296977E+02  0.36640000335E+02 -0.69568747405E+03  0.71130961953E+03  0.12500000000E+03 0.  0.
          1    1    1    2  502    0  0.36491927692E+02  0.18596825015E+01 -0.25711716630E+03  0.25970051292E+03  0.00000000000E+00 0. -1.
         -3    1    1    2    0  501  0.34309369285E+02 -0.38499682836E+02  0.64473248538E+02  0.82560027715E+02  0.00000000000E+00 0.  1.
<mgrwt>
<rscale>  0 0.43531073E+02</rscale>
<asrwt>0</asrwt>
<pdfrwt beam="2">  1        2 0.14937705E+00 0.36539283E+02</pdfrwt>
<pdfrwt beam="1">  1       -2 0.12710674E-01 0.51860742E+02</pdfrwt>
<totfact> 0.12430203E+03</totfact>
</mgrwt>
</event>
<event>
 5    1  0.8274494E-003  0.3391883E+03  0.7546771E-02  0.1192829E+00
          1   -1    0    0  501    0 -0.00000000000E+00  0.00000000000E+00  0.17443578611E+04  0.17443578611E+04  0.00000000000E+00 0. -1.
          2   -1    0    0  502    0  0.00000000000E+00 -0.00000000000E+00 -0.77321945224E+03  0.77321945224E+03  0.00000000000E+00 0. -1.
         25    1    1    2    0    0  0.81060921915E+02 -0.27409657940E+03  0.59577278010E+02  0.31760708423E+03  0.12500000000E+03 0.  0.
          2    1    1    2  501    0 -0.13731493827E+03  0.31921205102E+03  0.15342550695E+04  0.15731148540E+04  0.00000000000E+00 0. -1.
          1    1    1    2  502    0  0.56254016354E+02 -0.45115471623E+02 -0.62269393859E+03  0.62685537510E+03  0.00000000000E+00 0. -1.
<mgrwt>
<rscale>  0 0.15639382E+03</rscale>
<asrwt>0</asrwt>
<pdfrwt beam="2">  1        2 0.11895684E+00 0.72110472E+02</pdfrwt>
<pdfrwt beam="1">  1        1 0.26836275E+00 0.33918830E+03</pdfrwt>
<totfact> 0.25861337E+01</totfact>
</mgrwt>
</event>
<event>
 5    1  0.8274494E-003  0.5468961E+02  0.7546771E-02  0.1541506E+00
          1   -1    0    0  501    0 -0.00000000000E+00  0.00000000000E+00  0.62752663337E+03  0.62752663337E+03  0.00000000000E+00 0. -1.
          2   -1    0    0  502    0  0.00000000000E+00 -0.00000000000E+00 -0.75672110818E+03  0.75672110818E+03  0.00000000000E+00 0. -1.
         25    1    1    2    0    0  0.14442698607E+02  0.37213768536E+02 -0.12189375916E+03  0.17909925917E+03  0.12500000000E+03 0.  0.
          2    1    1    2  501    0 -0.37753108252E+02 -0.39772699725E+02  0.59744091753E+03  0.59995234375E+03  0.00000000000E+00 0. -1.
          1    1    1    2  502    0  0.23310409644E+02  0.25589311887E+01 -0.60474163318E+03  0.60519613865E+03  0.00000000000E+00 0. -1.
<mgrwt>
<rscale>  0 0.35811950E+02</rscale>
<asrwt>0</asrwt>
<pdfrwt beam="2">  1        2 0.11641863E+00 0.23450444E+02</pdfrwt>
<pdfrwt beam="1">  1        1 0.96542559E-01 0.54689614E+02</pdfrwt>
<totfact> 0.19821193E+02</totfact>
</mgrwt>
</event>
<event>
 5    1  0.9977308E-003  0.4747506E+02  0.7546771E-02  0.1463515E+00
          1   -1    0    0  501    0 -0.00000000000E+00  0.00000000000E+00  0.95691702842E+03  0.95691702842E+03  0.00000000000E+00 0. -1.
          2   -1    0    0  502    0  0.00000000000E+00 -0.00000000000E+00 -0.13421026733E+04  0.13421026733E+04  0.00000000000E+00 0. -1.
         25    1    1    2    0    0 -0.47604176453E+01 -0.12853872077E+01  0.12535699886E+03  0.17709796995E+03  0.12500000000E+03 0.  0.
          2    1    1    2  501    0  0.16567325549E+02  0.45846550340E+02  0.80454793924E+03  0.80602342956E+03  0.00000000000E+00 0. -1.
          3    1    1    2  502    0 -0.11806907904E+02 -0.44561163132E+02 -0.13150905830E+04  0.13158983022E+04  0.00000000000E+00 0. -1.
<mgrwt>
<rscale>  0 0.46781874E+02</rscale>
<asrwt>0</asrwt>
<pdfrwt beam="2">  1        2 0.20647733E+00 0.46098811E+02</pdfrwt>
<pdfrwt beam="1">  1        1 0.14721800E+00 0.47475059E+02</pdfrwt>
<totfact> 0.49865609E+01</totfact>
</mgrwt>
</event>
<event>
 5    1  0.8274494E-003  0.4499192E+02  0.7546771E-02  0.1563473E+00
          2   -1    0    0  502    0  0.00000000000E+00  0.00000000000E+00  0.48725421566E+03  0.48725421566E+03  0.00000000000E+00 0. -1.
          1   -1    0    0  501    0 -0.00000000000E+00 -0.00000000000E+00 -0.63520824289E+03  0.63520824289E+03  0.00000000000E+00 0. -1.
         25    1    1    2    0    0  0.51944943564E+02 -0.39144544408E+02  0.34131379983E+03  0.36925693287E+03  0.12500000000E+03 0.  0.
          2    1    1    2  501    0 -0.17935043757E+02  0.17077955468E+02 -0.61786912395E+03  0.61836524538E+03  0.00000000000E+00 0. -1.
          1    1    1    2  502    0 -0.34009899807E+02  0.22066588939E+02  0.12860129688E+03  0.13484028030E+03  0.00000000000E+00 0. -1.
<mgrwt>
<rscale>  0 0.33380241E+02</rscale>
<asrwt>0</asrwt>
<pdfrwt beam="1">  1        2 0.74962187E-01 0.44991920E+02</pdfrwt>
<pdfrwt beam="2">  1        1 0.97724345E-01 0.24765346E+02</pdfrwt>
<totfact> 0.31713439E+02</totfact>
</mgrwt>
</event>
<event>
 5    1  0.8274494E-003  0.4869985E+02  0.7546771E-02  0.1518142E+00
          1   -1    0    0  502    0  0.00000000000E+00  0.00000000000E+00  0.79730952672E+02  0.79730952672E+02  0.00000000000E+00 0. -1.
         -1   -1    0    0    0  501 -0.00000000000E+00 -0.00000000000E+00 -0.60844868552E+03  0.60844868552E+03  0.00000000000E+00 0.  1.
         25    1    1    2    0    0  0.55448559763E+02 -0.47154107987E+02 -0.44633379265E+03  0.46918749679E+03  0.12500000000E+03 0.  0.
          2    1    1    2  502    0 -0.25238402722E+02  0.17522157284E+02  0.61643861392E+02  0.68876473597E+02  0.00000000000E+00 0. -1.
         -2    1    1    2    0  501 -0.30210157041E+02  0.29631950702E+02 -0.14402780159E+03  0.15011566781E+03  0.00000000000E+00 0.  1.
<mgrwt>
<rscale>  0 0.38681843E+02</rscale>
<asrwt>0</asrwt>
<pdfrwt beam="1">  1        1 0.12266300E-01 0.30724631E+02</pdfrwt>
<pdfrwt beam="2">  1       -1 0.93607495E-01 0.48699852E+02</pdfrwt>
<totfact> 0.53742615E+02</totfact>
</mgrwt>
</event>
<event>
 5    1  0.8274494E-003  0.1017741E+03  0.7546771E-02  0.1294265E+00
          2   -1    0    0  502    0  0.00000000000E+00  0.00000000000E+00  0.67714491980E+02  0.67714491980E+02  0.00000000000E+00 0. -1.
          1   -1    0    0  501    0 -0.00000000000E+00 -0.00000000000E+00 -0.40404750779E+04  0.40404750779E+04  0.00000000000E+00 0. -1.
         25    1    1    2    0    0 -0.10132743408E+01  0.16337033584E+03 -0.83722744765E+03  0.86212858232E+03  0.12500000000E+03 0.  0.
          2    1    1    2  501    0  0.44227532866E+02 -0.73940882003E+02 -0.31450983402E+04  0.31462782614E+04  0.00000000000E+00 0. -1.
          1    1    1    2  502    0 -0.43214258526E+02 -0.89429453834E+02  0.95652019142E+01  0.99782726164E+02  0.00000000000E+00 0. -1.
<mgrwt>
<rscale>  0 0.93641496E+02</rscale>
<asrwt>0</asrwt>
<pdfrwt beam="1">  1        2 0.10417613E-01 0.10177412E+03</pdfrwt>
<pdfrwt beam="2">  1        1 0.62161163E+00 0.86158741E+02</pdfrwt>
<totfact> 0.11580302E+01</totfact>
</mgrwt>
</event>
<event>
 5    1  0.8274494E-003  0.4367253E+02  0.7546771E-02  0.1573814E+00
         -1   -1    0    0    0  501 -0.00000000000E+00  0.00000000000E+00  0.29945244891E+02  0.29945244891E+02  0.00000000000E+00 0.  1.
          1   -1    0    0  502    0  0.00000000000E+00 -0.00000000000E+00 -0.12632053102E+04  0.12632053102E+04  0.00000000000E+00 0. -1.
         25    1    1    2    0    0  0.25663257781E+02 -0.58950903479E+02 -0.89520171460E+03  0.90617047052E+03  0.12500000000E+03 0.  0.
          2    1    1    2  502    0 -0.17299641347E+02  0.16508781352E+02 -0.34264578272E+03  0.34347918404E+03  0.00000000000E+00 0. -1.
         -2    1    1    2    0  501 -0.83636164333E+01  0.42442122127E+02  0.45874320533E+01  0.43500900489E+02  0.00000000000E+00 0.  1.
<mgrwt>
<rscale>  0 0.32316070E+02</rscale>
<asrwt>0</asrwt>
<pdfrwt beam="2">  1        1 0.19433931E+00 0.23912705E+02</pdfrwt>
<pdfrwt beam="1">  1       -1 0.46069599E-02 0.43672533E+02</pdfrwt>
<totfact> 0.21163943E+03</totfact>
</mgrwt>
</event>
<event>
 5    1  0.8274494E-003  0.5843250E+02  0.7546771E-02  0.1427229E+00
          1   -1    0    0  501    0 -0.00000000000E+00  0.00000000000E+00  0.14893563471E+03  0.14893563471E+03  0.00000000000E+00 0. -1.
          2   -1    0    0  502    0  0.00000000000E+00 -0.00000000000E+00 -0.36988490943E+03  0.36988490943E+03  0.00000000000E+00 0. -1.
         25    1    1    2    0    0 -0.13064610460E+02 -0.27459091575E+02 -0.86017097515E+02  0.15475343880E+03  0.12500000000E+03 0.  0.
          2    1    1    2  501    0  0.38770512313E+02 -0.29998504177E+02  0.10507256254E+03  0.11594527277E+03  0.00000000000E+00 0. -1.
          1    1    1    2  502    0 -0.25705901853E+02  0.57457595752E+02 -0.24000473974E+03  0.24812183257E+03  0.00000000000E+00 0. -1.
<mgrwt>
<rscale>  0 0.53520295E+02</rscale>
<asrwt>0</asrwt>
<pdfrwt beam="2">  1        2 0.56905370E-01 0.58432496E+02</pdfrwt>
<pdfrwt beam="1">  1        1 0.22913175E-01 0.49021045E+02</pdfrwt>
<totfact> 0.24081484E+03</totfact>
</mgrwt>
</event>
<event>
 5    1  0.8274494E-003  0.7991130E+02  0.7546771E-02  0.1414196E+00
          2   -1    0    0  502    0  0.00000000000E+00  0.00000000000E+00  0.36055550152E+03  0.36055550152E+03  0.00000000000E+00 0. -1.
          1   -1    0    0  501    0 -0.00000000000E+00 -0.00000000000E+00 -0.74857920020E+03  0.74857920020E+03  0.00000000000E+00 0. -1.
         25    1    1    2    0    0  0.74337098520E+02 -0.45520916882E+02 -0.51816419118E+03  0.54010858826E+03  0.12500000000E+03 0.  0.
          2    1    1    2  501    0  0.53471025553E+01  0.39257612759E+02 -0.21302337664E+03  0.21667651156E+03  0.00000000000E+00 0. -1.
          1    1    1    2  502    0 -0.79684201075E+02  0.62633041231E+01  0.34316386914E+03  0.35234960190E+03  0.00000000000E+00 0. -1.
<mgrwt>
<rscale>  0 0.56268046E+02</rscale>
<asrwt>0</asrwt>
<pdfrwt beam="1">  1        2 0.55470078E-01 0.79911300E+02</pdfrwt>
<pdfrwt beam="2">  1        1 0.11516603E+00 0.39620092E+02</pdfrwt>
<totfact> 0.34096488E+02</totfact>
</mgrwt>
</event>
<event>
 5    1  0.8274494E-003  0.5229920E+02  0.7546771E-02  0.1474964E+00
         -1   -1    0    0    0  501 -0.00000000000E+00  0.00000000000E+00  0.17980897229E+03  0.17980897229E+03  0.00000000000E+00 0.  1.
          1   -1    0    0  502    0  0.00000000000E+00 -0.00000000000E+00 -0.39948235713E+03  0.39948235713E+03  0.00000000000E+00 0. -1.
         25    1    1    2    0    0  0.40851025764E+02 -0.24320624750E+02 -0.75260075365E+02  0.15345806606E+03  0.12500000000E+03 0.  0.
          2    1    1    2  502    0  0.10699969964E+02  0.37033607666E+02 -0.27874042038E+03  0.28139331799E+03  0.00000000000E+00 0. -1.
         -2    1    1    2    0  501 -0.51550995729E+02 -0.12712982916E+02  0.13432711091E+03  0.14443994538E+03  0.00000000000E+00 0.  1.
<mgrwt>
<rscale>  0 0.44900437E+02</rscale>
<asrwt>0</asrwt>
<pdfrwt beam="2">  1        1 0.61458824E-01 0.38548378E+02</pdfrwt>
<pdfrwt beam="1">  1       -1 0.27662919E-01 0.52299198E+02</pdfrwt>
<totfact> 0.70836115E+02</totfact>
</mgrwt>
</event>
<event>
 5    1  0.8274494E-003  0.1240211E+03  0.7546771E-02  0.1316655E+00
          2   -1    0    0  502    0  0.00000000000E+00  0.00000000000E+00  0.28932336844E+02  0.28932336844E+02  0.00000000000E+00 0. -1.
          1   -1    0    0  501    0 -0.00000000000E+00 -0.00000000000E+00 -0.14533113505E+04  0.14533113505E+04  0.00000000000E+00 0. -1.
         25    1    1    2    0    0 -0.11518808163E+02 -0.92358441249E+02 -0.37886126269E+03  0.40966281376E+03  0.12500000000E+03 0.  0.
          2    1    1    2  501    0 -0.30850829479E+02  0.13140711827E+03 -0.96012527159E+03  0.96956698663E+03  0.00000000000E+00 0. -1.
          1    1    1    2  502    0  0.42369637642E+02 -0.39048677020E+02 -0.85392479351E+02  0.10301388693E+03  0.00000000000E+00 0. -1.
<mgrwt>
<rscale>  0 0.84534093E+02</rscale>
<asrwt>0</asrwt>
<pdfrwt beam="1">  1        2 0.44511290E-02 0.57619314E+02</pdfrwt>
<pdfrwt beam="2">  1        1 0.22358635E+00 0.12402114E+03</pdfrwt>
<totfact> 0.17820883E+03</totfact>
</mgrwt>
</event>
<event>
 5    1  0.8274494E-003  0.8837856E+02  0.7546771E-02  0.1348315E+00
         -1   -1    0    0    0  501 -0.00000000000E+00  0.00000000000E+00  0.30400185415E+03  0.30400185415E+03  0.00000000000E+00 0.  1.
          1   -1    0    0  502    0  0.00000000000E+00 -0.00000000000E+00 -0.11540183562E+04  0.11540183562E+04  0.00000000000E+00 0. -1.
         25    1    1    2    0    0 -0.12743646755E+02  0.44205799362E+02 -0.15102412650E+03  0.20136990841E+03  0.12500000000E+03 0.  0.
          2    1    1    2  502    0  0.46588579320E+02  0.39785680078E+02 -0.96947660534E+03  0.97141046132E+03  0.00000000000E+00 0. -1.
         -2    1    1    2    0  501 -0.33844932565E+02 -0.83991479440E+02  0.27048422982E+03  0.28523984059E+03  0.00000000000E+00 0.  1.
<mgrwt>
<rscale>  0 0.73583350E+02</rscale>
<asrwt>0</asrwt>
<pdfrwt beam="2">  1        1 0.17754129E+00 0.61264966E+02</pdfrwt>
<pdfrwt beam="1">  1       -1 0.46769516E-01 0.88378558E+02</pdfrwt>
<totfact> 0.65251547E+01</totfact>
</mgrwt>
</event>
<event>
 5    1  0.8274494E-003  0.7227972E+02  0.7546771E-02  0.1390509E+00
          2   -1    0    0  502    0  0.00000000000E+00  0.00000000000E+00  0.24640742151E+03  0.24640742151E+03  0.00000000000E+00 0. -1.
          1   -1    0    0  501    0 -0.00000000000E+00 -0.00000000000E+00 -0.12277844884E+04  0.12277844884E+04  0.00000000000E+00 0. -1.
         25    1    1    2    0    0  0.26464896200E+02 -0.32654580003E+02  0.92299249818E+02  0.16096851817E+03  0.12500000000E+03 0.  0.
          2    1    1    2  501    0 -0.72361528163E+02  0.65397617927E+01 -0.11864637294E+04  0.11886863087E+04  0.00000000000E+00 0. -1.
          1    1    1    2  502    0  0.45896631963E+02  0.26114818210E+02  0.11278741278E+03  0.12453708298E+03  0.00000000000E+00 0. -1.
<mgrwt>
<rscale>  0 0.61780341E+02</rscale>
<asrwt>0</asrwt>
<pdfrwt beam="1">  1        2 0.37908834E-01 0.52806103E+02</pdfrwt>
<pdfrwt beam="2">  1        1 0.18888992E+00 0.72279724E+02</pdfrwt>
<totfact> 0.21967987E+02</totfact>
</mgrwt>
</event>
<event>
 5    1  0.8274494E-003  0.1027086E+03  0.7546771E-02  0.1332375E+00
          2   -1    0    0  502    0  0.00000000000E+00  0.00000000000E+00  0.91308025052E+03  0.91308025052E+03  0.00000000000E+00 0. -1.
         -2   -1    0    0    0  501 -0.00000000000E+00 -0.00000000000E+00 -0.35693059843E+03  0.35693059843E+03  0.00000000000E+00 0.  1.
         25    1    1    2    0    0 -0.65024014412E+02 -0.40703684527E+02  0.18197547141E+02  0.14778722241E+03  0.12500000000E+03 0.  0.
          1    1    1    2  502    0  0.41126857786E+02  0.96304476036E+02  0.82360230909E+03  0.83023293965E+03  0.00000000000E+00 0. -1.
         -1    1    1    2    0  501  0.23897156626E+02 -0.55600791508E+02 -0.28565020414E+03  0.29199068690E+03  0.00000000000E+00 0.  1.
<mgrwt>
<rscale>  0 0.78840320E+02</rscale>
<asrwt>0</asrwt>
<pdfrwt beam="1">  1        2 0.14047388E+00 0.10270856E+03</pdfrwt>
<pdfrwt beam="2">  1       -2 0.54912400E-01 0.60518775E+02</pdfrwt>
<totfact> 0.10065102E+02</totfact>
</mgrwt>
</event>
<event>
 5    1  0.1029262E-002  0.8207249E+02  0.7546771E-02  0.1342183E+00
          1   -1    0    0  501    0 -0.00000000000E+00  0.00000000000E+00  0.23121286072E+04  0.23121286072E+04  0.00000000000E+00 0. -1.
          2   -1    0    0  502    0  0.00000000000E+00 -0.00000000000E+00 -0.82778782624E+03  0.82778782624E+03  0.00000000000E+00 0. -1.
         25    1    1    2    0    0  0.93589736656E+01  0.37848064100E+02  0.10258000189E+04  0.10341231770E+04  0.12500000000E+03 0.  0.
          2    1    1    2  501    0 -0.87741079173E+02 -0.13514160702E+02  0.12785794564E+04  0.12816577374E+04  0.00000000000E+00 0. -1.
          1    1    1    2  502    0  0.78382105508E+02 -0.24333903398E+02 -0.82003869442E+03  0.82413551899E+03  0.00000000000E+00 0. -1.
<mgrwt>
<rscale>  0 0.75547888E+02</rscale>
<asrwt>0</asrwt>
<pdfrwt beam="2">  1        2 0.12735197E+00 0.82072488E+02</pdfrwt>
<pdfrwt beam="1">  1        1 0.35571209E+00 0.69541981E+02</pdfrwt>
<totfact> 0.12394053E+01</totfact>
</mgrwt>
</event>
<event>
 5    1  0.8274494E-003  0.5559525E+02  0.7546771E-02  0.1441375E+00
          1   -1    0    0  501    0 -0.00000000000E+00  0.00000000000E+00  0.69882356355E+02  0.69882356355E+02  0.00000000000E+00 0. -1.
          2   -1    0    0  502    0  0.00000000000E+00 -0.00000000000E+00 -0.92348903273E+03  0.92348903273E+03  0.00000000000E+00 0. -1.
         25    1    1    2    0    0  0.63635412251E+02  0.72865108060E+02 -0.33698558073E+03  0.37221374409E+03  0.12500000000E+03 0.  0.
          2    1    1    2  501    0 -0.37742006405E+02 -0.26842696108E+02  0.40509203130E+02  0.61530357711E+02  0.00000000000E+00 0. -1.
          1    1    1    2  502    0 -0.25893405846E+02 -0.46022411952E+02 -0.55713029877E+03  0.55962728729E+03  0.00000000000E+00 0. -1.
<mgrwt>
<rscale>  0 0.50742883E+02</rscale>
<asrwt>0</asrwt>
<pdfrwt beam="2">  1        2 0.14207522E+00 0.55595252E+02</pdfrwt>
<pdfrwt beam="1">  1        1 0.10751133E-01 0.46314030E+02</pdfrwt>
<totfact> 0.22391023E+03</totfact>
</mgrwt>
</event>
<event>
 5    1  0.8274494E-003  0.2183547E+03  0.7546771E-02  0.1169261E+00
          2   -1    0    0  502    0  0.00000000000E+00  0.00000000000E+00  0.10421541884E+04  0.10421541884E+04  0.00000000000E+00 0. -1.
         -2   -1    0    0    0  501 -0.00000000000E+00 -0.00000000000E+00 -0.35000848205E+03  0.35000848205E+03  0.00000000000E+00 0.  1.
         25    1    1    2    0    0 -0.10989920726E+03  0.22329319967E+03 -0.24302858137E+03  0.36962897633E+03  0.12500000000E+03 0.  0.
          1    1    1    2  502    0  0.13005257502E+03 -0.66178727953E+02  0.80323063782E+03  0.81637782542E+03  0.00000000000E+00 0. -1.
         -1    1    1    2    0  501 -0.20153367759E+02 -0.15711447172E+03  0.13194364990E+03  0.20615586871E+03  0.00000000000E+00 0.  1.
<mgrwt>
<rscale>  0 0.17850155E+03</rscale>
<asrwt>0</asrwt>
<pdfrwt beam="1">  1        2 0.16033141E+00 0.14592223E+03</pdfrwt>
<pdfrwt beam="2">  1       -2 0.53847459E-01 0.21835469E+03</pdfrwt>
<totfact> 0.85713372E+01</totfact>
</mgrwt>
</event>
<event>
 5    1  0.8274494E-003  0.1073184E+03  0.7546771E-02  0.1432631E+00
          1   -1    0    0  502    0  0.00000000000E+00  0.00000000000E+00  0.74618446616E+02  0.74618446616E+02  0.00000000000E+00 0. -1.
         -1   -1    0    0    0  501 -0.00000000000E+00 -0.00000000000E+00 -0.34319592366E+03  0.34319592366E+03  0.00000000000E+00 0.  1.
         25    1    1    2    0    0 -0.90055447021E+02  0.20545776946E+02 -0.59138441940E+02  0.16629632529E+03  0.12500000000E+03 0.  0.
          2    1    1    2  502    0 -0.13664622023E+02  0.21671454884E+02 -0.25331858100E+02  0.36028834101E+02  0.00000000000E+00 0. -1.
         -2    1    1    2    0  501  0.10372006904E+03 -0.42217231830E+02 -0.18410717701E+03  0.21548921089E+03  0.00000000000E+00 0.  1.
<mgrwt>
<rscale>  0 0.52435447E+02</rscale>
<asrwt>0</asrwt>
<pdfrwt beam="1">  1        1 0.11479761E-01 0.25619794E+02</pdfrwt>
<pdfrwt beam="2">  1       -1 0.52799372E-01 0.10731843E+03</pdfrwt>
<totfact> 0.17248865E+03</totfact>
</mgrwt>
</event>
<event>
 5    1  0.8274494E-003  0.7584411E+02  0.7546771E-02  0.1405546E+00
          1   -1    0    0  501    0 -0.00000000000E+00  0.00000000000E+00  0.15502814939E+03  0.15502814939E+03  0.00000000000E+00 0. -1.
          2   -1    0    0  502    0  0.00000000000E+00 -0.00000000000E+00 -0.16661776862E+04  0.16661776862E+04  0.00000000000E+00 0. -1.
         25    1    1    2    0    0  0.11177001007E+03 -0.42444164390E+02 -0.12070489931E+03  0.21092348129E+03  0.12500000000E+03 0.  0.
          2    1    1    2  501    0 -0.42241788658E+02  0.14496129820E+02  0.10440496424E+03  0.11355572661E+03  0.00000000000E+00 0. -1.
          1    1    1    2  502    0 -0.69528221414E+02  0.27948034570E+02 -0.14948496017E+04  0.14967266277E+04  0.00000000000E+00 0. -1.
<mgrwt>
<rscale>  0 0.58199571E+02</rscale>
<asrwt>0</asrwt>
<pdfrwt beam="2">  1        2 0.25633503E+00 0.75844108E+02</pdfrwt>
<pdfrwt beam="1">  1        1 0.23850484E-01 0.44659898E+02</pdfrwt>
<totfact> 0.32846302E+02</totfact>
</mgrwt>
</event>
<event>
 5    1  0.8274494E-003  0.3987518E+02  0.7546771E-02  0.1567566E+00
          1   -1    0    0  501    0 -0.00000000000E+00  0.00000000000E+00  0.30295290127E+03  0.30295290127E+03  0.00000000000E+00 0. -1.
          2   -1    0    0  502    0  0.00000000000E+00 -0.00000000000E+00 -0.33081503133E+03  0.33081503133E+03  0.00000000000E+00 0. -1.
         25    1    1    2    0    0  0.17497437253E+02  0.10676411685E+02 -0.13847376601E+03  0.18767026922E+03  0.12500000000E+03 0.  0.
          2    1    1    2  501    0  0.13639096397E+01  0.27198699122E+02  0.27500317235E+03  0.27634828439E+03  0.00000000000E+00 0. -1.
          1    1    1    2  502    0 -0.18861346892E+02 -0.37875110808E+02 -0.16439153640E+03  0.16974937899E+03  0.00000000000E+00 0. -1.
<mgrwt>
<rscale>  0 0.32953235E+02</rscale>
<asrwt>0</asrwt>
<pdfrwt beam="2">  1        2 0.50894620E-01 0.39875176E+02</pdfrwt>
<pdfrwt beam="1">  1        1 0.46608139E-01 0.27232875E+02</pdfrwt>
<totfact> 0.11439962E+03</totfact>
</mgrwt>
</event>
<event>
 5    1  0.8274494E-003  0.1548453E+03  0.7546771E-02  0.1229539E+00
          2   -1    0    0  502    0  0.00000000000E+00  0.00000000000E+00  0.42296153363E+03  0.42296153363E+03  0.00000000000E+00 0. -1.
          1   -1    0    0  501    0 -0.00000000000E+00 -0.00000000000E+00 -0.34670233414E+04  0.34670233414E+04  0.00000000000E+00 0. -1.
         25    1    1    2    0    0 -0.98624647970E+02 -0.24086856909E+03  0.22467772119E+02  0.28961058259E+03  0.12500000000E+03 0.  0.
          2    1    1    2  501    0  0.53758406291E+02  0.14393506719E+03 -0.33209183681E+04  0.33244707966E+04  0.00000000000E+00 0. -1.
          1    1    1    2  502    0  0.44866241679E+02  0.96933501901E+02  0.25438878823E+03  0.27590349582E+03  0.00000000000E+00 0. -1.
<mgrwt>
<rscale>  0 0.12860614E+03</rscale>
<asrwt>0</asrwt>
<pdfrwt beam="1">  1        2 0.65071007E-01 0.10681331E+03</pdfrwt>
<pdfrwt beam="2">  1        1 0.53338819E+00 0.15484531E+03</pdfrwt>
<totfact> 0.38051497E+00</totfact>
</mgrwt>
</event>
<event>
 5    1  0.8274494E-003  0.7339351E+02  0.7546771E-02  0.1440466E+00
         -2   -1    0    0    0  501 -0.00000000000E+00  0.00000000000E+00  0.26776052992E+03  0.26776052992E+03  0.00000000000E+00 0.  1.
          2   -1    0    0  502    0  0.00000000000E+00 -0.00000000000E+00 -0.33186136338E+04  0.33186136338E+04  0.00000000000E+00 0. -1.
         25    1    1    2    0    0 -0.95558104194E+02  0.48176018634E+02 -0.61861530800E+03  0.64012669007E+03  0.12500000000E+03 0.  0.
          1    1    1    2  502    0  0.62750122315E+02 -0.35089859424E+02 -0.26875460222E+04  0.26885074851E+04  0.00000000000E+00 0. -1.
         -1    1    1    2    0  501  0.32807981879E+02 -0.13086159210E+02  0.25530822635E+03  0.25773998851E+03  0.00000000000E+00 0.  1.
<mgrwt>
<rscale>  0 0.50915341E+02</rscale>
<asrwt>0</asrwt>
<pdfrwt beam="2">  1        2 0.51055594E+00 0.73393512E+02</pdfrwt>
<pdfrwt beam="1">  1       -2 0.41193928E-01 0.35321541E+02</pdfrwt>
<totfact> 0.93016747E+00</totfact>
</mgrwt>
</event>
<event>
 5    1  0.8274494E-003  0.5550232E+02  0.7546771E-02  0.1452145E+00
          2   -1    0    0  502    0  0.00000000000E+00  0.00000000000E+00  0.93552905226E+02  0.93552905226E+02  0.00000000000E+00 0. -1.
          1   -1    0    0  501    0 -0.00000000000E+00 -0.00000000000E+00 -0.65947428858E+03  0.65947428858E+03  0.00000000000E+00 0. -1.
         25    1    1    2    0    0  0.53436306298E+02  0.14041374490E+02 -0.16393835710E+03  0.21343238732E+03  0.12500000000E+03 0.  0.
          2    1    1    2  501    0 -0.28510180173E+02 -0.48879720856E+02 -0.46222459909E+03  0.46567546369E+03  0.00000000000E+00 0. -1.
          1    1    1    2  502    0 -0.24926126125E+02  0.34838346366E+02  0.60241572835E+02  0.73919342791E+02  0.00000000000E+00 0. -1.
<mgrwt>
<rscale>  0 0.48760248E+02</rscale>
<asrwt>0</asrwt>
<pdfrwt beam="1">  1        2 0.14392755E-01 0.42837158E+02</pdfrwt>
<pdfrwt beam="2">  1        1 0.10145758E+00 0.55502322E+02</pdfrwt>
<totfact> 0.16571785E+03</totfact>
</mgrwt>
</event>
<event>
 5    1  0.8274494E-003  0.2524159E+03  0.7546771E-02  0.1259987E+00
          1   -1    0    0  501    0 -0.00000000000E+00  0.00000000000E+00  0.42915373044E+02  0.42915373044E+02  0.00000000000E+00 0. -1.
          2   -1    0    0  502    0  0.00000000000E+00 -0.00000000000E+00 -0.28412071130E+04  0.28412071130E+04  0.00000000000E+00 0. -1.
         25    1    1    2    0    0 -0.13319583429E+03  0.19676830529E+03 -0.67161755511E+03  0.72329387981E+03  0.12500000000E+03 0.  0.
          2    1    1    2  501    0  0.13182786490E+03 -0.24496094200E+03 -0.11575828950E+04  0.11905387889E+04  0.00000000000E+00 0. -1.
          1    1    1    2  502    0  0.13679693858E+01  0.48192636708E+02 -0.96909128980E+03  0.97028981729E+03  0.00000000000E+00 0. -1.
<mgrwt>
<rscale>  0 0.11031540E+03</rscale>
<asrwt>0</asrwt>
<pdfrwt beam="2">  1        2 0.43710882E+00 0.48212048E+02</pdfrwt>
<pdfrwt beam="1">  1        1 0.66023645E-02 0.25241589E+03</pdfrwt>
<totfact> 0.51108779E+02</totfact>
</mgrwt>
</event>
<event>
 5    1  0.8274494E-003  0.8465096E+02  0.7546771E-02  0.1327072E+00
         -2   -1    0    0    0  501 -0.00000000000E+00  0.00000000000E+00  0.45937708549E+03  0.45937708549E+03  0.00000000000E+00 0.  1.
          2   -1    0    0  502    0  0.00000000000E+00 -0.00000000000E+00 -0.80275160329E+03  0.80275160329E+03  0.00000000000E+00 0. -1.
         25    1    1    2    0    0 -0.66818584340E+00 -0.11301857453E+03  0.13239234599E+03  0.21430440485E+03  0.12500000000E+03 0.  0.
          1    1    1    2  502    0 -0.57020643129E+02  0.51651634065E+02 -0.75359390141E+03  0.75751106480E+03  0.00000000000E+00 0. -1.
         -1    1    1    2    0  501  0.57688828972E+02  0.61366940466E+02  0.27782703762E+03  0.29031321913E+03  0.00000000000E+00 0.  1.
<mgrwt>
<rscale>  0 0.80701669E+02</rscale>
<asrwt>0</asrwt>
<pdfrwt beam="2">  1        2 0.12350025E+00 0.76936630E+02</pdfrwt>
<pdfrwt beam="1">  1       -2 0.70673399E-01 0.84650956E+02</pdfrwt>
<totfact> 0.71328957E+01</totfact>
</mgrwt>
</event>
<event>
 5    1  0.8274494E-003  0.1172764E+03  0.7546771E-02  0.1270499E+00
          2   -1    0    0  502    0  0.00000000000E+00  0.00000000000E+00  0.70038431888E+03  0.70038431888E+03  0.00000000000E+00 0. -1.
          1   -1    0    0  501    0 -0.00000000000E+00 -0.00000000000E+00 -0.33551224371E+03  0.33551224371E+03  0.00000000000E+00 0. -1.
         25    1    1    2    0    0  0.17548659975E+03  0.89295417058E+02  0.22202858484E+03  0.32201073070E+03  0.12500000000E+03 0.  0.
          2    1    1    2  501    0 -0.73254485182E+02 -0.58368065834E+02 -0.27087023814E+03  0.28660728640E+03  0.00000000000E+00 0. -1.
          1    1    1    2  502    0 -0.10223211457E+03 -0.30927351224E+02  0.41371372847E+03  0.42727854548E+03  0.00000000000E+00 0. -1.
<mgrwt>
<rscale>  0 0.10480764E+03</rscale>
<asrwt>0</asrwt>
<pdfrwt beam="1">  1        2 0.10775143E+00 0.11727637E+03</pdfrwt>
<pdfrwt beam="2">  1        1 0.51617268E-01 0.93664565E+02</pdfrwt>
<totfact> 0.44862840E+02</totfact>
</mgrwt>
</event>
<event>
 5    1  0.8274494E-003  0.9290108E+02  0.7546771E-02  0.1377938E+00
          1   -1    0    0  501    0 -0.00000000000E+00  0.00000000000E+00  0.86943243196E+03  0.86943243196E+03  0.00000000000E+00 0. -1.
          2   -1    0    0  502    0  0.00000000000E+00 -0.00000000000E+00 -0.34865321575E+03  0.34865321575E+03  0.00000000000E+00 0. -1.
         25    1    1    2    0    0  0.74445035570E+02  0.97959013395E+02  0.51913118650E+03  0.54796005368E+03  0.12500000000E+03 0.  0.
          2    1    1    2  501    0 -0.44286955782E+02 -0.10396524843E+02  0.32787102765E+03  0.33101183204E+03  0.00000000000E+00 0. -1.
          1    1    1    2  502    0 -0.30158079788E+02 -0.87562488552E+02 -0.32622299795E+03  0.33911376199E+03  0.00000000000E+00 0. -1.
<mgrwt>
<rscale>  0 0.65008874E+02</rscale>
<asrwt>0</asrwt>
<pdfrwt beam="2">  1        2 0.53638957E-01 0.92901076E+02</pdfrwt>
<pdfrwt beam="1">  1        1 0.13375883E+00 0.45490902E+02</pdfrwt>
<totfact> 0.28276417E+02</totfact>
</mgrwt>
</event>
<event>
 5    1  0.8274494E-003  0.3572212E+02  0.7546771E-02  0.1629179E+00
         -2   -1    0    0    0  501 -0.00000000000E+00  0.00000000000E+00  0.14909702971E+02  0.14909702971E+02  0.00000000000E+00 0.  1.
          2   -1    0    0  502    0  0.00000000000E+00 -0.00000000000E+00 -0.84306422193E+03  0.84306422193E+03  0.00000000000E+00 0. -1.
         25    1    1    2    0    0 -0.59070246834E+01  0.18094295045E+02 -0.55152093472E+03  0.56582915963E+03  0.12500000000E+03 0.  0.
          1    1    1    2  502    0 -0.18293144735E+02  0.10239271220E+02 -0.23632097806E+03  0.23724899682E+03  0.00000000000E+00 0. -1.
         -1    1    1    2    0  501  0.24200169419E+02 -0.28333566266E+02 -0.40312606178E+02  0.54895768453E+02  0.00000000000E+00 0.  1.
<mgrwt>
<rscale>  0 0.27365529E+02</rscale>
<asrwt>0</asrwt>
<pdfrwt beam="2">  1        2 0.12970221E+00 0.20963822E+02</pdfrwt>
<pdfrwt beam="1">  1       -2 0.22938001E-02 0.35722120E+02</pdfrwt>
<totfact> 0.17838421E+04</totfact>
</mgrwt>
</event>
<event>
 5    1  0.8274494E-003  0.5629946E+02  0.7546771E-02  0.1485162E+00
          1   -1    0    0  501    0 -0.00000000000E+00  0.00000000000E+00  0.14354605471E+03  0.14354605471E+03  0.00000000000E+00 0. -1.
          2   -1    0    0  502    0  0.00000000000E+00 -0.00000000000E+00 -0.59727370191E+03  0.59727370191E+03  0.00000000000E+00 0. -1.
         25    1    1    2    0    0 -0.56477437396E+02 -0.89760644204E+01 -0.92674108763E+02  0.16578227017E+03  0.12500000000E+03 0.  0.
          2    1    1    2  501    0  0.41517273865E+02  0.38749845674E+02  0.98810309850E+02  0.11396803017E+03  0.00000000000E+00 0. -1.
          3    1    1    2  502    0  0.14960163531E+02 -0.29773781254E+02 -0.45986384829E+03  0.46106945627E+03  0.00000000000E+00 0. -1.
<mgrwt>
<rscale>  0 0.43312244E+02</rscale>
<asrwt>0</asrwt>
<pdfrwt beam="2">  1        2 0.91888262E-01 0.33320933E+02</pdfrwt>
<pdfrwt beam="1">  1        1 0.22084008E-01 0.56299460E+02</pdfrwt>
<totfact> 0.15453986E+03</totfact>
</mgrwt>
</event>
<event>
 5    1  0.8274494E-003  0.8076888E+02  0.7546771E-02  0.1435238E+00
         -1   -1    0    0    0  502 -0.00000000000E+00  0.00000000000E+00  0.67166148294E+02  0.67166148294E+02  0.00000000000E+00 0.  1.
         -2   -1    0    0    0  501  0.00000000000E+00 -0.00000000000E+00 -0.11516029152E+04  0.11516029152E+04  0.00000000000E+00 0.  1.
         25    1    1    2    0    0 -0.73741280008E+02  0.33112350260E+02 -0.34906425530E+03  0.37947998424E+03  0.12500000000E+03 0.  0.
         -2    1    1    2    0  502  0.19024042705E+02  0.27426922729E+02  0.44238851402E+02  0.55418645460E+02  0.00000000000E+00 0.  1.
         -3    1    1    2    0  501  0.54717237303E+02 -0.60539272990E+02 -0.77961136304E+03  0.78387043381E+03  0.00000000000E+00 0.  1.
<mgrwt>
<rscale>  0 0.51922786E+02</rscale>
<asrwt>0</asrwt>
<pdfrwt beam="2">  1       -2 0.17716968E+00 0.80768885E+02</pdfrwt>
<pdfrwt beam="1">  1       -1 0.10333254E-01 0.33378890E+02</pdfrwt>
<totfact> 0.81398340E+01</totfact>
</mgrwt>
</event>
<event>
 5    1  0.8274494E-003  0.6600837E+02  0.7546771E-02  0.1528225E+00
          2   -1    0    0  502    0  0.00000000000E+00  0.00000000000E+00  0.88153286510E+03  0.88153286510E+03  0.00000000000E+00 0. -1.
          1   -1    0    0  501    0 -0.00000000000E+00 -0.00000000000E+00 -0.32363427932E+03  0.32363427932E+03  0.00000000000E+00 0. -1.
         25    1    1    2    0    0  0.24309021810E+02 -0.38538597834E+02  0.18592644104E+03  0.22862588117E+03  0.12500000000E+03 0.  0.
          2    1    1    2  501    0 -0.31178317613E+02  0.58590905717E+02 -0.29847197446E+03  0.30576216454E+03  0.00000000000E+00 0. -1.
          1    1    1    2  502    0  0.68692958029E+01 -0.20052307882E+02  0.67044411921E+03  0.67077909871E+03  0.00000000000E+00 0. -1.
<mgrwt>
<rscale>  0 0.37404972E+02</rscale>
<asrwt>0</asrwt>
<pdfrwt beam="1">  1        2 0.13562044E+00 0.21196280E+02</pdfrwt>
<pdfrwt beam="2">  1        1 0.49789889E-01 0.66008372E+02</pdfrwt>
<totfact> 0.38145181E+02</totfact>
</mgrwt>
</event>
<event>
 5    1  0.8274494E-003  0.1118085E+03  0.7546771E-02  0.1345436E+00
         -2   -1    0    0    0  501 -0.00000000000E+00  0.00000000000E+00  0.12920231847E+03  0.12920231847E+03  0.00000000000E+00 0.  1.
          2   -1    0    0  502    0  0.00000000000E+00 -0.00000000000E+00 -0.93745912299E+03  0.93745912299E+03  0.00000000000E+00 0. -1.
         25    1    1    2    0    0 -0.64062175475E+02 -0.19615136565E+02 -0.85109989738E+02  0.16540080490E+03  0.12500000000E+03 0.  0.
          1    1    1    2  502    0  0.11003229879E+03  0.38338211497E+02 -0.80072685534E+03  0.80916031916E+03  0.00000000000E+00 0. -1.
         -1    1    1    2    0  501 -0.45970123314E+02 -0.18723074932E+02  0.77580040552E+02  0.92100317396E+02  0.00000000000E+00 0.  1.
<mgrwt>
<rscale>  0 0.74497038E+02</rscale>
<asrwt>0</asrwt>
<pdfrwt beam="2">  1        2 0.14422448E+00 0.11180849E+03</pdfrwt>
<pdfrwt beam="1">  1       -2 0.19877280E-01 0.49636738E+02</pdfrwt>
<totfact> 0.59942536E+02</totfact>
</mgrwt>
</event>
<event>
 5    1  0.8274494E-003  0.6095179E+02  0.7546771E-02  0.1418851E+00
          1   -1    0    0  502    0  0.00000000000E+00  0.00000000000E+00  0.17541297959E+04  0.17541297959E+04  0.00000000000E+00 0. -1.
         -1   -1    0    0    0  501 -0.00000000000E+00 -0.00000000000E+00 -0.10038740916E+03  0.10038740916E+03  0.00000000000E+00 0.  1.
         25    1    1    2    0    0  0.23235784605E+02  0.51191027344E+02  0.21878647895E+03  0.25817231908E+03  0.12500000000E+03 0.  0.
          2    1    1    2  502    0  0.26671555403E+02 -0.55674108604E+02  0.15071782835E+04  0.15084420295E+04  0.00000000000E+00 0. -1.
         -2    1    1    2    0  501 -0.49907340008E+02  0.44830812598E+01 -0.72222375749E+02  0.87902856399E+02  0.00000000000E+00 0.  1.
<mgrwt>
<rscale>  0 0.55264727E+02</rscale>
<asrwt>0</asrwt>
<pdfrwt beam="1">  1        1 0.26986610E+00 0.60951793E+02</pdfrwt>
<pdfrwt beam="2">  1       -1 0.15444218E-01 0.50108289E+02</pdfrwt>
<totfact> 0.16336080E+02</totfact>
</mgrwt>
</event>
<event>
 5    1  0.8274494E-003  0.8233295E+02  0.7546771E-02  0.1486632E+00
          2   -1    0    0  502    0  0.00000000000E+00  0.00000000000E+00  0.43241861415E+03  0.43241861415E+03  0.00000000000E+00 0. -1.
          1   -1    0    0  501    0 -0.00000000000E+00 -0.00000000000E+00 -0.62615292913E+03  0.62615292913E+03  0.00000000000E+00 0. -1.
         25    1    1    2    0    0 -0.16420935482E+02 -0.57677327107E+02  0.33984137153E+03  0.36703334861E+03  0.12500000000E+03 0.  0.
          2    1    1    2  501    0  0.23402988515E+02  0.79120656588E+02 -0.60810229864E+03  0.61367433040E+03  0.00000000000E+00 0. -1.
          1    1    1    2  502    0 -0.69820530330E+01 -0.21443329481E+02  0.74526612135E+02  0.77863864276E+02  0.00000000000E+00 0. -1.
<mgrwt>
<rscale>  0 0.43089709E+02</rscale>
<asrwt>0</asrwt>
<pdfrwt beam="1">  1        2 0.66525941E-01 0.22551396E+02</pdfrwt>
<pdfrwt beam="2">  1        1 0.96331220E-01 0.82332952E+02</pdfrwt>
<totfact> 0.35077419E+02</totfact>
</mgrwt>
</event>
<event>
 5    1  0.8274494E-003  0.1083830E+03  0.7546771E-02  0.1380545E+00
          1   -1    0    0  501    0 -0.00000000000E+00  0.00000000000E+00  0.19007007042E+04  0.19007007042E+04  0.00000000000E+00 0. -1.
          2   -1    0    0  502    0  0.00000000000E+00 -0.00000000000E+00 -0.62427835930E+03  0.62427835930E+03  0.00000000000E+00 0. -1.
         25    1    1    2    0    0 -0.47698557251E+02  0.80990494313E+02  0.23574319927E+02  0.15816245159E+03  0.12500000000E+03 0.  0.
          2    1    1    2  501    0  0.19807545361E+02 -0.10705150446E+03  0.18075385714E+04  0.18108141955E+04  0.00000000000E+00 0. -1.
          1    1    1    2  502    0  0.27891011889E+02  0.26061010148E+02 -0.55469054642E+03  0.55600241644E+03  0.00000000000E+00 0. -1.
<mgrwt>
<rscale>  0 0.64320838E+02</rscale>
<asrwt>0</asrwt>
<pdfrwt beam="2">  1        2 0.96042825E-01 0.38171780E+02</pdfrwt>
<pdfrwt beam="1">  1        1 0.29241549E+00 0.10838295E+03</pdfrwt>
<totfact> 0.30061126E+01</totfact>
</mgrwt>
</event>
<event>
 5    1  0.8274494E-003  0.4692890E+02  0.7546771E-02  0.1468087E+00
          2   -1    0    0  502    0  0.00000000000E+00  0.00000000000E+00  0.82631042546E+03  0.82631042546E+03  0.00000000000E+00 0. -1.
          1   -1    0    0  501    0 -0.00000000000E+00 -0.00000000000E+00 -0.42896248000E+03  0.42896248000E+03  0.00000000000E+00 0. -1.
         25    1    1    2    0    0  0.70127157252E+02  0.59161952030E+02 -0.11061837657E+03  0.19047146764E+03  0.12500000000E+03 0.  0.
          2    1    1    2  501    0 -0.35812306392E+02 -0.27452996246E+02 -0.27588900973E+03  0.27955488545E+03  0.00000000000E+00 0. -1.
          1    1    1    2  502    0 -0.34314850860E+02 -0.31708955784E+02  0.78385533176E+03  0.78524655236E+03  0.00000000000E+00 0. -1.
<mgrwt>
<rscale>  0 0.46017675E+02</rscale>
<asrwt>0</asrwt>
<pdfrwt beam="1">  1        2 0.12712468E+00 0.46928901E+02</pdfrwt>
<pdfrwt beam="2">  1        1 0.65994228E-01 0.45124143E+02</pdfrwt>
<totfact> 0.28368080E+02</totfact>
</mgrwt>
</event>
<event>
 5    1  0.8274494E-003  0.7139999E+02  0.7546771E-02  0.1447205E+00
          2   -1    0    0  502    0  0.00000000000E+00  0.00000000000E+00  0.10631162845E+04  0.10631162845E+04  0.00000000000E+00 0. -1.
          1   -1    0    0  501    0 -0.00000000000E+00 -0.00000000000E+00 -0.32427195554E+02  0.32427195554E+02  0.00000000000E+00 0. -1.
         25    1    1    2    0    0 -0.50765487933E+02  0.57990014297E+02  0.28922130666E+03  0.32436698468E+03  0.12500000000E+03 0.  0.
          2    1    1    2  501    0  0.66232726807E+02 -0.27113495940E+02  0.74467237263E+02  0.10328255026E+03  0.00000000000E+00 0. -1.
          1    1    1    2  502    0 -0.15467238874E+02 -0.30876518357E+02  0.66700054499E+03  0.66789394508E+03  0.00000000000E+00 0. -1.
<mgrwt>
<rscale>  0 0.49656067E+02</rscale>
<asrwt>0</asrwt>
<pdfrwt beam="1">  1        2 0.16355632E+00 0.34533967E+02</pdfrwt>
<pdfrwt beam="2">  1        1 0.49888001E-02 0.71399994E+02</pdfrwt>
<totfact> 0.54296939E+03</totfact>
</mgrwt>
</event>
<event>
 5    1  0.8274494E-003  0.5790924E+02  0.7546771E-02  0.1526683E+00
          1   -1    0    0  501    0 -0.00000000000E+00  0.00000000000E+00  0.24052989915E+03  0.24052989915E+03  0.00000000000E+00 0. -1.
          2   -1    0    0  502    0  0.00000000000E+00 -0.00000000000E+00 -0.13165203045E+04  0.13165203045E+04  0.00000000000E+00 0. -1.
         25    1    1    2    0    0 -0.37925062177E+02 -0.57089227768E+02  0.94155445670E+02  0.17084419281E+03  0.12500000000E+03 0.  0.
          2    1    1    2  501    0  0.45252679196E+02  0.33806420708E+02  0.10052107775E+03  0.11530466655E+03  0.00000000000E+00 0. -1.
          1    1    1    2  502    0 -0.73276170186E+01  0.23282807060E+02 -0.12706669287E+04  0.12709013443E+04  0.00000000000E+00 0. -1.
<mgrwt>
<rscale>  0 0.37596374E+02</rscale>
<asrwt>0</asrwt>
<pdfrwt beam="2">  1        2 0.20254158E+00 0.24408668E+02</pdfrwt>
<pdfrwt beam="1">  1        1 0.37004601E-01 0.57909238E+02</pdfrwt>
<totfact> 0.31969328E+02</totfact>
</mgrwt>
</event>
<event>
 5    1  0.8274494E-003  0.3839616E+02  0.7546771E-02  0.1541675E+00
          1   -1    0    0  501    0 -0.00000000000E+00  0.00000000000E+00  0.48671708792E+03  0.48671708792E+03  0.00000000000E+00 0. -1.
          2   -1    0    0  502    0  0.00000000000E+00 -0.00000000000E+00 -0.32312184895E+02  0.32312184895E+02  0.00000000000E+00 0. -1.
         25    1    1    2    0    0  0.17020289818E+02  0.48679384118E+02  0.20930636726E+03  0.24918573009E+03  0.12500000000E+03 0.  0.
          2    1    1    2  501    0  0.15744439418E+02 -0.29416701201E+02  0.22380339028E+03  0.22627679330E+03  0.00000000000E+00 0. -1.
          1    1    1    2  502    0 -0.32764729236E+02 -0.19262682916E+02  0.21295145487E+02  0.43566749435E+02  0.00000000000E+00 0. -1.
<mgrwt>
<rscale>  0 0.35792339E+02</rscale>
<asrwt>0</asrwt>
<pdfrwt beam="2">  1        2 0.49711057E-02 0.38396158E+02</pdfrwt>
<pdfrwt beam="1">  1        1 0.74879547E-01 0.33365097E+02</pdfrwt>
<totfact> 0.87633696E+03</totfact>
</mgrwt>
</event>
<event>
 5    1  0.8274494E-003  0.1308515E+03  0.7546771E-02  0.1265018E+00
          2   -1    0    0  502    0  0.00000000000E+00  0.00000000000E+00  0.15816844707E+04  0.15816844707E+04  0.00000000000E+00 0. -1.
          1   -1    0    0  501    0 -0.00000000000E+00 -0.00000000000E+00 -0.49971419696E+03  0.49971419696E+03  0.00000000000E+00 0. -1.
         25    1    1    2    0    0 -0.99344870276E+02  0.34906151434E+02 -0.20635280221E+01  0.16345366562E+03  0.12500000000E+03 0.  0.
          2    1    1    2  501    0  0.70077264810E+02 -0.11846180497E+03 -0.40424563220E+03  0.42703460449E+03  0.00000000000E+00 0. -1.
          1    1    1    2  502    0  0.29267605465E+02  0.83555653538E+02  0.14882794340E+04  0.14909103976E+04  0.00000000000E+00 0. -1.
<mgrwt>
<rscale>  0 0.10763231E+03</rscale>
<asrwt>0</asrwt>
<pdfrwt beam="1">  1        2 0.24333607E+00 0.88533270E+02</pdfrwt>
<pdfrwt beam="2">  1        1 0.76879108E-01 0.13085153E+03</pdfrwt>
<totfact> 0.85485545E+01</totfact>
</mgrwt>
</event>
<event>
 5    1  0.8274494E-003  0.1646373E+03  0.7546771E-02  0.1226746E+00
          1   -1    0    0  501    0 -0.00000000000E+00  0.00000000000E+00  0.41482530818E+03  0.41482530818E+03  0.00000000000E+00 0. -1.
          2   -1    0    0  502    0  0.00000000000E+00 -0.00000000000E+00 -0.50653876139E+03  0.50653876139E+03  0.00000000000E+00 0. -1.
         25    1    1    2    0    0 -0.25397950626E+02 -0.67068074567E+02  0.14822674249E+03  0.20673497457E+03  0.12500000000E+03 0.  0.
          2    1    1    2  501    0 -0.60294560417E+01 -0.10323260932E+03  0.20914367319E+03  0.23331181283E+03  0.00000000000E+00 0. -1.
          3    1    1    2  502    0  0.31427406668E+02  0.17030068389E+03 -0.44908386888E+03  0.48131728217E+03  0.00000000000E+00 0. -1.
<mgrwt>
<rscale>  0 0.13047952E+03</rscale>
<asrwt>0</asrwt>
<pdfrwt beam="2">  1        2 0.77929040E-01 0.16463733E+03</pdfrwt>
<pdfrwt beam="1">  1        1 0.63819278E-01 0.10340854E+03</pdfrwt>
<totfact> 0.49460211E+02</totfact>
</mgrwt>
</event>
<event>
 5    1  0.8274494E-003  0.7369484E+02  0.7546771E-02  0.1399360E+00
          1   -1    0    0  502    0  0.00000000000E+00  0.00000000000E+00  0.41946263677E+03  0.41946263677E+03  0.00000000000E+00 0. -1.
         -1   -1    0    0    0  501 -0.00000000000E+00 -0.00000000000E+00 -0.38606057113E+03  0.38606057113E+03  0.00000000000E+00 0.  1.
         25    1    1    2    0    0 -0.81125103366E+02 -0.71294868834E+02  0.10786380196E+03  0.19729125802E+03  0.12500000000E+03 0.  0.
          2    1    1    2  502    0  0.33746308471E+02  0.62108126165E+02  0.26044472105E+03  0.26986605084E+03  0.00000000000E+00 0. -1.
         -2    1    1    2    0  501  0.47378794895E+02  0.91867426689E+01 -0.33490645737E+03  0.33836589905E+03  0.00000000000E+00 0.  1.
<mgrwt>
<rscale>  0 0.59637270E+02</rscale>
<asrwt>0</asrwt>
<pdfrwt beam="1">  1        1 0.64532713E-01 0.73694844E+02</pdfrwt>
<pdfrwt beam="2">  1       -1 0.59393934E-01 0.48261231E+02</pdfrwt>
<totfact> 0.17851586E+02</totfact>
</mgrwt>
</event>
<event>
 5    1  0.8274494E-003  0.8920728E+02  0.7546771E-02  0.1342727E+00
          1   -1    0    0  501    0 -0.00000000000E+00  0.00000000000E+00  0.28107652386E+03  0.28107652386E+03  0.00000000000E+00 0. -1.
          2   -1    0    0  502    0  0.00000000000E+00 -0.00000000000E+00 -0.14716400094E+03  0.14716400094E+03  0.00000000000E+00 0. -1.
         25    1    1    2    0    0 -0.79670487458E+02  0.37905672954E+02 -0.21328443915E+02  0.15448019010E+03  0.12500000000E+03 0.  0.
          2    1    1    2  501    0  0.88270221857E+02  0.25191266315E+02  0.18265975401E+03  0.20442802572E+03  0.00000000000E+00 0. -1.
          1    1    1    2  502    0 -0.85997343985E+01 -0.63096939269E+02 -0.27418787175E+02  0.69332308969E+02  0.00000000000E+00 0. -1.
<mgrwt>
<rscale>  0 0.75370720E+02</rscale>
<asrwt>0</asrwt>
<pdfrwt beam="2">  1        2 0.22640616E-01 0.63680289E+02</pdfrwt>
<pdfrwt beam="1">  1        1 0.43242542E-01 0.89207281E+02</pdfrwt>
<totfact> 0.29604630E+03</totfact>
</mgrwt>
</event>
<event>
 5    1  0.8274494E-003  0.4143744E+02  0.7546771E-02  0.1512966E+00
          1   -1    0    0  501    0 -0.00000000000E+00  0.00000000000E+00  0.98556143282E+03  0.98556143282E+03  0.00000000000E+00 0. -1.
          2   -1    0    0  502    0  0.00000000000E+00 -0.00000000000E+00 -0.25972607709E+03  0.25972607709E+03  0.00000000000E+00 0. -1.
         25    1    1    2    0    0  0.45025257778E+01  0.22435912021E+02 -0.10494714460E+02  0.12750992870E+03  0.12500000000E+03 0.  0.
          2    1    1    2  501    0  0.32739891977E+02 -0.25742934430E+02  0.92474820393E+03  0.92568560531E+03  0.00000000000E+00 0. -1.
          1    1    1    2  502    0 -0.37242417755E+02  0.33070224088E+01 -0.18841813375E+03  0.19209197589E+03  0.00000000000E+00 0. -1.
<mgrwt>
<rscale>  0 0.39361182E+02</rscale>
<asrwt>0</asrwt>
<pdfrwt beam="2">  1        2 0.39957858E-01 0.37388957E+02</pdfrwt>
<pdfrwt beam="1">  1        1 0.15162483E+00 0.41437440E+02</pdfrwt>
<totfact> 0.31454549E+02</totfact>
</mgrwt>
</event>
<event>
 5    1  0.8274494E-003  0.1226059E+03  0.7546771E-02  0.1406717E+00
          2   -1    0    0  502    0  0.00000000000E+00  0.00000000000E+00  0.15326545018E+04  0.15326545018E+04  0.00000000000E+00 0. -1.
          1   -1    0    0  501    0 -0.00000000000E+00 -0.00000000000E+00 -0.19206421325E+02  0.19206421325E+02  0.00000000000E+00 0. -1.
         25    1    1    2    0    0  0.23729290776E+02  0.10854784036E+03  0.57648996566E+03  0.60025943841E+03  0.12500000000E+03 0.  0.
          2    1    1    2  501    0  0.65236170593E+01  0.26585472204E+02  0.13044014104E+03  0.13328156402E+03  0.00000000000E+00 0. -1.
          1    1    1    2  502    0 -0.30252907836E+02 -0.13513331257E+03  0.80651797373E+03  0.81831992066E+03  0.00000000000E+00 0. -1.
<mgrwt>
<rscale>  0 0.57933004E+02</rscale>
<asrwt>0</asrwt>
<pdfrwt beam="1">  1        2 0.23579290E+00 0.27374165E+02</pdfrwt>
<pdfrwt beam="2">  1        1 0.29548352E-02 0.12260586E+03</pdfrwt>
<totfact> 0.69368110E+03</totfact>
</mgrwt>
</event>
<event>
 5    1  0.8274494E-003  0.7761716E+02  0.7546771E-02  0.1421147E+00
         -1   -1    0    0    0  501 -0.00000000000E+00  0.00000000000E+00  0.14082030786E+03  0.14082030786E+03  0.00000000000E+00 0.  1.
          1   -1    0    0  502    0  0.00000000000E+00 -0.00000000000E+00 -0.22455009531E+04  0.22455009531E+04  0.00000000000E+00 0. -1.
         25    1    1    2    0    0  0.46512201968E+02  0.10065796781E+03 -0.48607795309E+02  0.17402048495E+03  0.12500000000E+03 0.  0.
          2    1    1    2  502    0 -0.17326276267E+02 -0.75303676096E+02 -0.21286588987E+04  0.21300609265E+04  0.00000000000E+00 0. -1.
         -2    1    1    2    0  501 -0.29185925700E+02 -0.25354291718E+02  0.72586048798E+02  0.82239849511E+02  0.00000000000E+00 0.  1.
<mgrwt>
<rscale>  0 0.54779034E+02</rscale>
<asrwt>0</asrwt>
<pdfrwt beam="2">  1        1 0.34546167E+00 0.77617165E+02</pdfrwt>
<pdfrwt beam="1">  1       -1 0.21664664E-01 0.38660812E+02</pdfrwt>
<totfact> 0.45887456E+01</totfact>
</mgrwt>
</event>
<event>
 5    1  0.8274494E-003  0.8840347E+02  0.7546771E-02  0.1315151E+00
          2   -1    0    0  502    0  0.00000000000E+00  0.00000000000E+00  0.72186265862E+03  0.72186265862E+03  0.00000000000E+00 0. -1.
         -2   -1    0    0    0  501 -0.00000000000E+00 -0.00000000000E+00 -0.36508220922E+03  0.36508220922E+03  0.00000000000E+00 0.  1.
         25    1    1    2    0    0  0.29587648664E+02  0.79731916143E+02 -0.23952351918E+02  0.15307293219E+03  0.12500000000E+03 0.  0.
          1    1    1    2  502    0  0.60069054834E+02 -0.55722625692E+02  0.64685749611E+03  0.65202601377E+03  0.00000000000E+00 0. -1.
         -1    1    1    2    0  501 -0.89656703498E+02 -0.24009290452E+02 -0.26612469479E+03  0.28184592189E+03  0.00000000000E+00 0.  1.
<mgrwt>
<rscale>  0 0.85107671E+02</rscale>
<asrwt>0</asrwt>
<pdfrwt beam="1">  1        2 0.11105579E+00 0.81934745E+02</pdfrwt>
<pdfrwt beam="2">  1       -2 0.56166494E-01 0.88403468E+02</pdfrwt>
<totfact> 0.12958350E+02</totfact>
</mgrwt>
</event>
<event>
 5    1  0.8274494E-003  0.8759557E+02  0.7546771E-02  0.1337372E+00
         -3   -1    0    0    0  501 -0.00000000000E+00  0.00000000000E+00  0.11112335322E+03  0.11112335322E+03  0.00000000000E+00 0.  1.
          1   -1    0    0  502    0  0.00000000000E+00 -0.00000000000E+00 -0.39558605115E+03  0.39558605115E+03  0.00000000000E+00 0. -1.
         25    1    1    2    0    0 -0.61356404065E+00 -0.73563647334E+02 -0.20933279202E+03  0.25467077666E+03  0.12500000000E+03 0.  0.
          2    1    1    2  502    0 -0.66927127511E+02  0.11632975285E+02 -0.12896286219E+03  0.14576002996E+03  0.00000000000E+00 0. -1.
         -2    1    1    2    0  501  0.67540691552E+02  0.61930672049E+02  0.53832956286E+02  0.10627859774E+03  0.00000000000E+00 0.  1.
<mgrwt>
<rscale>  0 0.77138965E+02</rscale>
<asrwt>0</asrwt>
<pdfrwt beam="2">  1        1 0.60859392E-01 0.67930601E+02</pdfrwt>
<pdfrwt beam="1">  1       -3 0.17095901E-01 0.87595574E+02</pdfrwt>
<totfact> 0.93080811E+02</totfact>
</mgrwt>
</event>
<event>
 5    1  0.8274494E-003  0.6013366E+02  0.7546771E-02  0.1409646E+00
          2   -1    0    0  502    0  0.00000000000E+00  0.00000000000E+00  0.15745397244E+03  0.15745397244E+03  0.00000000000E+00 0. -1.
          1   -1    0    0  501    0 -0.00000000000E+00 -0.00000000000E+00 -0.65637807774E+03  0.65637807774E+03  0.00000000000E+00 0. -1.
         25    1    1    2    0    0 -0.92036694090E+02 -0.30237118203E+00 -0.15438235798E+03  0.21892865720E+03  0.12500000000E+03 0.  0.
          2    1    1    2  501    0  0.42842747480E+02  0.33764200488E+02 -0.46095314303E+03  0.46416949740E+03  0.00000000000E+00 0. -1.
          1    1    1    2  502    0  0.49193946609E+02 -0.33461829306E+02  0.11641139571E+03  0.13073389558E+03  0.00000000000E+00 0. -1.
<mgrwt>
<rscale>  0 0.57272957E+02</rscale>
<asrwt>0</asrwt>
<pdfrwt beam="1">  1        2 0.24223688E-01 0.60133656E+02</pdfrwt>
<pdfrwt beam="2">  1        1 0.10098124E+00 0.54548348E+02</pdfrwt>
<totfact> 0.95489638E+02</totfact>
</mgrwt>
</event>
<event>
 5    1  0.8274494E-003  0.1514468E+03  0.7546771E-02  0.1229509E+00
          2   -1    0    0  502    0  0.00000000000E+00  0.00000000000E+00  0.10897846603E+04  0.10897846603E+04  0.00000000000E+00 0. -1.
          1   -1    0    0  501    0 -0.00000000000E+00 -0.00000000000E+00 -0.45448465185E+03  0.45448465185E+03  0.00000000000E+00 0. -1.
         25    1    1    2    0    0 -0.88159037020E+02  0.49756337543E+02  0.11148938479E+03  0.19571047967E+03  0.12500000000E+03 0.  0.
          2    1    1    2  501    0  0.15474919168E+03  0.36846222581E+02 -0.39367112013E+03  0.42459616964E+03  0.00000000000E+00 0. -1.
          1    1    1    2  502    0 -0.66590154663E+02 -0.86602560124E+02  0.91748174375E+03  0.92396266280E+03  0.00000000000E+00 0. -1.
<mgrwt>
<rscale>  0 0.12862603E+03</rscale>
<asrwt>0</asrwt>
<pdfrwt beam="1">  1        2 0.16765918E+00 0.10924400E+03</pdfrwt>
<pdfrwt beam="2">  1        1 0.69920716E-01 0.15144680E+03</pdfrwt>
<totfact> 0.17306406E+02</totfact>
</mgrwt>
</event>
<event>
 5    1  0.8274494E-003  0.1918351E+03  0.7546771E-02  0.1217973E+00
          1   -1    0    0  501    0 -0.00000000000E+00  0.00000000000E+00  0.23467355578E+03  0.23467355578E+03  0.00000000000E+00 0. -1.
          2   -1    0    0  502    0  0.00000000000E+00 -0.00000000000E+00 -0.71750817733E+03  0.71750817733E+03  0.00000000000E+00 0. -1.
         25    1    1    2    0    0  0.86761173864E+01  0.21749234459E+03 -0.19391587568E+03  0.31718537452E+03  0.12500000000E+03 0.  0.
          2    1    1    2  501    0 -0.86139788295E+02 -0.45191711259E+02  0.13760110638E+03  0.16851236860E+03  0.00000000000E+00 0. -1.
          1    1    1    2  502    0  0.77463670909E+02 -0.17230063333E+03 -0.42651985225E+03  0.46648399000E+03  0.00000000000E+00 0. -1.
<mgrwt>
<rscale>  0 0.13660414E+03</rscale>
<asrwt>0</asrwt>
<pdfrwt beam="2">  1        2 0.11038587E+00 0.19183512E+03</pdfrwt>
<pdfrwt beam="1">  1        1 0.36103625E-01 0.97274631E+02</pdfrwt>
<totfact> 0.66485003E+02</totfact>
</mgrwt>
</event>
<event>
 5    1  0.8274494E-003  0.1388156E+03  0.7546771E-02  0.1264070E+00
          1   -1    0    0  501    0 -0.00000000000E+00  0.00000000000E+00  0.35762533972E+03  0.35762533972E+03  0.00000000000E+00 0. -1.
          2   -1    0    0  502    0  0.00000000000E+00 -0.00000000000E+00 -0.45508480484E+03  0.45508480484E+03  0.00000000000E+00 0. -1.
         25    1    1    2    0    0 -0.14878874488E+03  0.23297999783E+02  0.93220513936E+02  0.21678549678E+03  0.12500000000E+03 0.  0.
          2    1    1    2  501    0  0.10449786896E+03 -0.94942226600E+02  0.17261015902E+03  0.22299797758E+03  0.00000000000E+00 0. -1.
          1    1    1    2  502    0  0.44290875919E+02  0.71644226817E+02 -0.36329013807E+03  0.37292667020E+03  0.00000000000E+00 0. -1.
<mgrwt>
<rscale>  0 0.10813115E+03</rscale>
<asrwt>0</asrwt>
<pdfrwt beam="2">  1        2 0.70013046E-01 0.84229312E+02</pdfrwt>
<pdfrwt beam="1">  1        1 0.55019284E-01 0.13881564E+03</pdfrwt>
<totfact> 0.67231581E+02</totfact>
</mgrwt>
</event>
<event>
 5    1  0.8274494E-003  0.8721759E+02  0.7546771E-02  0.1441605E+00
          1   -1    0    0  502    0  0.00000000000E+00  0.00000000000E+00  0.12722006692E+03  0.12722006692E+03  0.00000000000E+00 0. -1.
         -1   -1    0    0    0  501 -0.00000000000E+00 -0.00000000000E+00 -0.34449250989E+03  0.34449250989E+03  0.00000000000E+00 0.  1.
         25    1    1    2    0    0 -0.54137986788E+02 -0.33063207722E+02 -0.22817338855E+02  0.14202016854E+03  0.12500000000E+03 0.  0.
          2    1    1    2  502    0 -0.29428247105E+02 -0.15978642946E+01  0.56063954488E+02  0.63338312978E+02  0.00000000000E+00 0. -1.
         -2    1    1    2    0  501  0.83566233893E+02  0.34661072017E+02 -0.25051905860E+03  0.26635409530E+03  0.00000000000E+00 0.  1.
<mgrwt>
<rscale>  0 0.50699522E+02</rscale>
<asrwt>0</asrwt>
<pdfrwt beam="1">  1        1 0.19572319E-01 0.29471595E+02</pdfrwt>
<pdfrwt beam="2">  1       -1 0.52998846E-01 0.87217593E+02</pdfrwt>
<totfact> 0.90246387E+02</totfact>
</mgrwt>
</event>
<event>
 5    1  0.8274494E-003  0.5185291E+02  0.7546771E-02  0.1458289E+00
          2   -1    0    0  502    0  0.00000000000E+00  0.00000000000E+00  0.13579753909E+04  0.13579753909E+04  0.00000000000E+00 0. -1.
          1   -1    0    0  501    0 -0.00000000000E+00 -0.00000000000E+00 -0.13201123594E+02  0.13201123594E+02  0.00000000000E+00 0. -1.
         25    1    1    2    0    0 -0.31736718437E+02  0.15947102105E+02  0.45340684415E+03  0.47166120858E+03  0.12500000000E+03 0.  0.
          2    1    1    2  501    0  0.21396890927E+02  0.38261007453E+02  0.15491388399E+03  0.16099702819E+03  0.00000000000E+00 0. -1.
          1    1    1    2  502    0  0.10339827510E+02 -0.54208109558E+02  0.73645353913E+03  0.73851827769E+03  0.00000000000E+00 0. -1.
<mgrwt>
<rscale>  0 0.47677091E+02</rscale>
<asrwt>0</asrwt>
<pdfrwt beam="1">  1        2 0.20891918E+00 0.51852909E+02</pdfrwt>
<pdfrwt beam="2">  1        1 0.20309432E-02 0.43837560E+02</pdfrwt>
<totfact> 0.11668421E+04</totfact>
</mgrwt>
</event>
<event>
 5    1  0.8274494E-003  0.7698819E+02  0.7546771E-02  0.1459764E+00
         -1   -1    0    0    0  501 -0.00000000000E+00  0.00000000000E+00  0.17418151252E+03  0.17418151252E+03  0.00000000000E+00 0.  1.
          1   -1    0    0  502    0  0.00000000000E+00 -0.00000000000E+00 -0.22343727855E+03  0.22343727855E+03  0.00000000000E+00 0. -1.
         25    1    1    2    0    0  0.16637872091E+02  0.94311755825E+02 -0.64399032063E+02  0.17012866133E+03  0.12500000000E+03 0.  0.
          2    1    1    2  502    0 -0.22043423531E+02 -0.19165797705E+02 -0.91991005754E+02  0.96517280641E+02  0.00000000000E+00 0. -1.
         -2    1    1    2    0  501  0.54055514402E+01 -0.75145958120E+02  0.10713427179E+03  0.13097284909E+03  0.00000000000E+00 0.  1.
<mgrwt>
<rscale>  0 0.47422003E+02</rscale>
<asrwt>0</asrwt>
<pdfrwt beam="2">  1        1 0.34374966E-01 0.29210278E+02</pdfrwt>
<pdfrwt beam="1">  1       -1 0.26797156E-01 0.76988188E+02</pdfrwt>
<totfact> 0.14909657E+03</totfact>
</mgrwt>
</event>
<event>
 5    1  0.8274494E-003  0.1212710E+03  0.7546771E-02  0.1344749E+00
          2   -1    0    0  502    0  0.00000000000E+00  0.00000000000E+00  0.12574179058E+04  0.12574179058E+04  0.00000000000E+00 0. -1.
         -2   -1    0    0    0  501 -0.00000000000E+00 -0.00000000000E+00 -0.26507408532E+03  0.26507408532E+03  0.00000000000E+00 0.  1.
         25    1    1    2    0    0  0.49988237972E+02 -0.57701186845E+02  0.76371070665E+03  0.77762927822E+03  0.12500000000E+03 0.  0.
          1    1    1    2  502    0  0.25210902803E+02 -0.38517519814E+02  0.47111887315E+03  0.47336263223E+03  0.00000000000E+00 0. -1.
         -1    1    1    2    0  501 -0.75199140775E+02  0.96218706659E+02 -0.24248575937E+03  0.27150008062E+03  0.00000000000E+00 0.  1.
<mgrwt>
<rscale>  0 0.74717269E+02</rscale>
<asrwt>0</asrwt>
<pdfrwt beam="1">  1        2 0.19344891E+00 0.46034649E+02</pdfrwt>
<pdfrwt beam="2">  1       -2 0.40780629E-01 0.12127105E+03</pdfrwt>
<totfact> 0.12076905E+02</totfact>
</mgrwt>
</event>
<event>
 5    1  0.9851493E-003  0.5871315E+02  0.7546771E-02  0.1455340E+00
         -2   -1    0    0    0  501 -0.00000000000E+00  0.00000000000E+00  0.13142080684E+02  0.13142080684E+02  0.00000000000E+00 0.  1.
          2   -1    0    0  502    0  0.00000000000E+00 -0.00000000000E+00 -0.11107260963E+04  0.11107260963E+04  0.00000000000E+00 0. -1.
         25    1    1    2    0    0 -0.42168065567E+02 -0.26121104364E+02 -0.55884014597E+03  0.57479367307E+03  0.12500000000E+03 0.  0.
          3    1    1    2  502    0  0.64337344489E+02 -0.66406472524E+01 -0.38070139146E+03  0.38615662826E+03  0.00000000000E+00 0. -1.
         -3    1    1    2    0  501 -0.22169278922E+02  0.32761751616E+02 -0.15804247815E+03  0.16291787562E+03  0.00000000000E+00 0.  1.
<mgrwt>
<rscale>  0 0.48192899E+02</rscale>
<asrwt>0</asrwt>
<pdfrwt beam="2">  1        2 0.17088093E+00 0.58713152E+02</pdfrwt>
<pdfrwt beam="1">  1       -2 0.20218587E-02 0.39557671E+02</pdfrwt>
<totfact> 0.14481370E+04</totfact>
</mgrwt>
</event>
<event>
 5    1  0.8274494E-003  0.4651629E+02  0.7546771E-02  0.1573560E+00
          2   -1    0    0  502    0  0.00000000000E+00  0.00000000000E+00  0.16791562039E+04  0.16791562039E+04  0.00000000000E+00 0. -1.
          1   -1    0    0  501    0 -0.00000000000E+00 -0.00000000000E+00 -0.40942627228E+02  0.40942627228E+02  0.00000000000E+00 0. -1.
         25    1    1    2    0    0 -0.66571250194E+02  0.12411321429E+02  0.28949216983E+03  0.32251587348E+03  0.12500000000E+03 0.  0.
          2    1    1    2  501    0  0.22472853863E+02  0.77529953289E+00 -0.18786148130E+02  0.29301017247E+02  0.00000000000E+00 0. -1.
          1    1    1    2  502    0  0.44098396331E+02 -0.13186620962E+02  0.13675075550E+04  0.13682819404E+04  0.00000000000E+00 0. -1.
<mgrwt>
<rscale>  0 0.32341547E+02</rscale>
<asrwt>0</asrwt>
<pdfrwt beam="1">  1        2 0.25833167E+00 0.46516288E+02</pdfrwt>
<pdfrwt beam="2">  1        1 0.62988670E-02 0.22486224E+02</pdfrwt>
<totfact> 0.16854660E+03</totfact>
</mgrwt>
</event>
<event>
 5    1  0.8274494E-003  0.1034865E+03  0.7546771E-02  0.1436411E+00
          2   -1    0    0  502    0  0.00000000000E+00  0.00000000000E+00  0.50054785978E+03  0.50054785978E+03  0.00000000000E+00 0. -1.
         -2   -1    0    0    0  501 -0.00000000000E+00 -0.00000000000E+00 -0.32973204791E+03  0.32973204791E+03  0.00000000000E+00 0.  1.
         25    1    1    2    0    0 -0.12818716907E+03 -0.69724383935E+01  0.40142819629E+03  0.43960227705E+03  0.12500000000E+03 0.  0.
          1    1    1    2  502    0  0.25671473254E+02 -0.27915768004E+01  0.69099819830E+02  0.73767218604E+02  0.00000000000E+00 0. -1.
         -1    1    1    2    0  501  0.10251569581E+03  0.97640151938E+01 -0.29971220425E+03  0.31691041204E+03  0.00000000000E+00 0.  1.
<mgrwt>
<rscale>  0 0.51694409E+02</rscale>
<asrwt>0</asrwt>
<pdfrwt beam="1">  1        2 0.77007363E-01 0.25822809E+02</pdfrwt>
<pdfrwt beam="2">  1       -2 0.50728007E-01 0.10348650E+03</pdfrwt>
<totfact> 0.24202606E+02</totfact>
</mgrwt>
</event>
<event>
 5    1  0.8274494E-003  0.3615502E+02  0.7546771E-02  0.1601672E+00
          2   -1    0    0  502    0  0.00000000000E+00  0.00000000000E+00  0.72722461036E+03  0.72722461036E+03  0.00000000000E+00 0. -1.
         -2   -1    0    0    0  501 -0.00000000000E+00 -0.00000000000E+00 -0.34616220410E+03  0.34616220410E+03  0.00000000000E+00 0.  1.
         25    1    1    2    0    0 -0.24527258080E+02 -0.58799716213E+01 -0.10091770906E+03  0.16262086107E+03  0.12500000000E+03 0.  0.
          1    1    1    2  502    0  0.29115436731E+01 -0.24187158564E+02  0.69455886568E+03  0.69498598088E+03  0.00000000000E+00 0. -1.
         -1    1    1    2    0  501  0.21615714407E+02  0.30067130185E+02 -0.21257875036E+03  0.21577997250E+03  0.00000000000E+00 0.  1.
<mgrwt>
<rscale>  0 0.29678278E+02</rscale>
<asrwt>0</asrwt>
<pdfrwt beam="1">  1        2 0.11188071E+00 0.24361768E+02</pdfrwt>
<pdfrwt beam="2">  1       -2 0.53255724E-01 0.36155020E+02</pdfrwt>
<totfact> 0.14801128E+02</totfact>
</mgrwt>
</event>
<event>
 5    1  0.8274494E-003  0.6292449E+02  0.7546771E-02  0.1401101E+00
         -2   -1    0    0    0  501 -0.00000000000E+00  0.00000000000E+00  0.12489864813E+03  0.12489864813E+03  0.00000000000E+00 0.  1.
          2   -1    0    0  502    0  0.00000000000E+00 -0.00000000000E+00 -0.28990746144E+04  0.28990746144E+04  0.00000000000E+00 0. -1.
         25    1    1    2    0    0 -0.25860138167E+02  0.10044110837E+03 -0.59030482232E+02  0.17282002439E+03  0.12500000000E+03 0.  0.
          1    1    1    2  502    0  0.36495578202E+02 -0.42142011987E+02 -0.27699047656E+04  0.27704657166E+04  0.00000000000E+00 0. -1.
         -3    1    1    2    0  501 -0.10635440035E+02 -0.58299096381E+02  0.54759281533E+02  0.80687521573E+02  0.00000000000E+00 0.  1.
<mgrwt>
<rscale>  0 0.59227827E+02</rscale>
<asrwt>0</asrwt>
<pdfrwt beam="2">  1        2 0.44601146E+00 0.55748331E+02</pdfrwt>
<pdfrwt beam="1">  1       -2 0.19215178E-01 0.62924494E+02</pdfrwt>
<totfact> 0.65366904E+01</totfact>
</mgrwt>
</event>
<event>
 5    1  0.8274494E-003  0.1368910E+03  0.7546771E-02  0.1291898E+00
         -2   -1    0    0    0  501 -0.00000000000E+00  0.00000000000E+00  0.44402197534E+03  0.44402197534E+03  0.00000000000E+00 0.  1.
          2   -1    0    0  502    0  0.00000000000E+00 -0.00000000000E+00 -0.23272883678E+04  0.23272883678E+04  0.00000000000E+00 0. -1.
         25    1    1    2    0    0  0.19584334708E+03 -0.14756052739E+02 -0.13582417234E+04  0.13780485975E+04  0.12500000000E+03 0.  0.
          1    1    1    2  502    0 -0.59902680963E+02  0.26456535525E+02 -0.94726379730E+03  0.94952460797E+03  0.00000000000E+00 0. -1.
         -3    1    1    2    0  501 -0.13594066612E+03 -0.11700482786E+02  0.42223912824E+03  0.44373713775E+03  0.00000000000E+00 0.  1.
<mgrwt>
<rscale>  0 0.94680010E+02</rscale>
<asrwt>0</asrwt>
<pdfrwt beam="2">  1        2 0.35804436E+00 0.65484956E+02</pdfrwt>
<pdfrwt beam="1">  1       -2 0.68311074E-01 0.13689105E+03</pdfrwt>
<totfact> 0.12231178E+01</totfact>
</mgrwt>
</event>
<event>
 5    1  0.8274494E-003  0.1471329E+03  0.7546771E-02  0.1393296E+00
         -2   -1    0    0    0  501 -0.00000000000E+00  0.00000000000E+00  0.24547368595E+03  0.24547368595E+03  0.00000000000E+00 0.  1.
          2   -1    0    0  502    0  0.00000000000E+00 -0.00000000000E+00 -0.15158000874E+04  0.15158000874E+04  0.00000000000E+00 0. -1.
         25    1    1    2    0    0  0.26612615278E+02 -0.16808182592E+03 -0.22307700288E+03  0.30716132685E+03  0.12500000000E+03 0.  0.
          1    1    1    2  502    0 -0.20853344725E+01  0.25282530409E+02 -0.12247340163E+04  0.12249967207E+04  0.00000000000E+00 0. -1.
         -1    1    1    2    0  501 -0.24527280806E+02  0.14279929551E+03  0.17748461771E+03  0.22911572584E+03  0.00000000000E+00 0.  1.
<mgrwt>
<rscale>  0 0.61094381E+02</rscale>
<asrwt>0</asrwt>
<pdfrwt beam="2">  1        2 0.23320001E+00 0.25368385E+02</pdfrwt>
<pdfrwt beam="1">  1       -2 0.37765183E-01 0.14713287E+03</pdfrwt>
<totfact> 0.10955024E+02</totfact>
</mgrwt>
</event>
<event>
 5    1  0.8274494E-003  0.5001249E+02  0.7546771E-02  0.1541246E+00
          1   -1    0    0  501    0 -0.00000000000E+00  0.00000000000E+00  0.94503816202E+03  0.94503816202E+03  0.00000000000E+00 0. -1.
          2   -1    0    0  502    0  0.00000000000E+00 -0.00000000000E+00 -0.25339824436E+03  0.25339824436E+03  0.00000000000E+00 0. -1.
         25    1    1    2    0    0 -0.13140486399E+02 -0.55802365901E+02  0.54666525157E+02  0.14798650410E+03  0.12500000000E+03 0.  0.
          2    1    1    2  501    0  0.32022998206E+02  0.38387747378E+02  0.84216967697E+03  0.84365209439E+03  0.00000000000E+00 0. -1.
          1    1    1    2  502    0 -0.18882511807E+02  0.17414618523E+02 -0.20519628447E+03  0.20679780790E+03  0.00000000000E+00 0. -1.
<mgrwt>
<rscale>  0 0.35842254E+02</rscale>
<asrwt>0</asrwt>
<pdfrwt beam="2">  1        2 0.38984346E-01 0.25686926E+02</pdfrwt>
<pdfrwt beam="1">  1        1 0.14539049E+00 0.50012491E+02</pdfrwt>
<totfact> 0.33721414E+02</totfact>
</mgrwt>
</event>
<event>
 5    1  0.8274494E-003  0.5688549E+02  0.7546771E-02  0.1450363E+00
          1   -1    0    0  501    0 -0.00000000000E+00  0.00000000000E+00  0.41564182034E+03  0.41564182034E+03  0.00000000000E+00 0. -1.
          2   -1    0    0  502    0  0.00000000000E+00 -0.00000000000E+00 -0.97361344150E+03  0.97361344150E+03  0.00000000000E+00 0. -1.
         25    1    1    2    0    0 -0.52384885144E+02  0.85125246583E+01 -0.19473854771E+03  0.23741259704E+03  0.12500000000E+03 0.  0.
          2    1    1    2  501    0  0.33326268524E+02 -0.46328533026E+02  0.39164324073E+03  0.39577948551E+03  0.00000000000E+00 0. -1.
          1    1    1    2  502    0  0.19058616620E+02  0.37816008367E+02 -0.75487631418E+03  0.75606317928E+03  0.00000000000E+00 0. -1.
<mgrwt>
<rscale>  0 0.49080937E+02</rscale>
<asrwt>0</asrwt>
<pdfrwt beam="2">  1        2 0.14978668E+00 0.42347153E+02</pdfrwt>
<pdfrwt beam="1">  1        1 0.63944896E-01 0.56885485E+02</pdfrwt>
<totfact> 0.24114251E+02</totfact>
</mgrwt>
</event>
<event>
 5    1  0.8274494E-003  0.1000225E+03  0.7546771E-02  0.1379831E+00
          1   -1    0    0  501    0 -0.00000000000E+00  0.00000000000E+00  0.42828727308E+03  0.42828727308E+03  0.00000000000E+00 0. -1.
          2   -1    0    0  502    0  0.00000000000E+00 -0.00000000000E+00 -0.74483641270E+03  0.74483641270E+03  0.00000000000E+00 0. -1.
         25    1    1    2    0    0  0.16294657998E+02  0.69740727430E+02 -0.10734020623E+03  0.17965579539E+03  0.12500000000E+03 0.  0.
          2    1    1    2  501    0 -0.24116521139E+02  0.33900728544E+02  0.38651369211E+03  0.38874631854E+03  0.00000000000E+00 0. -1.
          1    1    1    2  502    0  0.78218631404E+01 -0.10364145597E+03 -0.59572262549E+03  0.60472157185E+03  0.00000000000E+00 0. -1.
<mgrwt>
<rscale>  0 0.64508182E+02</rscale>
<asrwt>0</asrwt>
<pdfrwt beam="2">  1        2 0.11459022E+00 0.10002254E+03</pdfrwt>
<pdfrwt beam="1">  1        1 0.65890349E-01 0.41603678E+02</pdfrwt>
<totfact> 0.31333187E+02</totfact>
</mgrwt>
</event>
<event>
 5    1  0.8274494E-003  0.5497110E+02  0.7546771E-02  0.1511078E+00
         -1   -1    0    0    0  501 -0.00000000000E+00  0.00000000000E+00  0.41759697973E+03  0.41759697973E+03  0.00000000000E+00 0.  1.
          1   -1    0    0  502    0  0.00000000000E+00 -0.00000000000E+00 -0.67795581745E+02  0.67795581745E+02  0.00000000000E+00 0. -1.
         25    1    1    2    0    0 -0.36683712417E+01  0.36158900461E+02  0.27060612407E+02  0.13295939145E+03  0.12500000000E+03 0.  0.
          2    1    1    2  502    0  0.23492586913E+02  0.16216243550E+02  0.40172731514E+01  0.28827186445E+02  0.00000000000E+00 0. -1.
         -2    1    1    2    0  501 -0.19824215671E+02 -0.52375144011E+02  0.31872351242E+03  0.32360598358E+03  0.00000000000E+00 0.  1.
<mgrwt>
<rscale>  0 0.39613119E+02</rscale>
<asrwt>0</asrwt>
<pdfrwt beam="2">  1        1 0.10430090E-01 0.28545896E+02</pdfrwt>
<pdfrwt beam="1">  1       -1 0.64245688E-01 0.54971096E+02</pdfrwt>
<totfact> 0.13737696E+03</totfact>
</mgrwt>
</event>
<event>
 5    1  0.8274494E-003  0.8942431E+02  0.7546771E-02  0.1403100E+00
          1   -1    0    0  501    0 -0.00000000000E+00  0.00000000000E+00  0.34027663241E+03  0.34027663241E+03  0.00000000000E+00 0. -1.
          2   -1    0    0  502    0  0.00000000000E+00 -0.00000000000E+00 -0.52006975433E+03  0.52006975433E+03  0.00000000000E+00 0. -1.
         25    1    1    2    0    0 -0.54270499732E+02  0.94501387724E+02  0.10651712395E+03  0.19709565474E+03  0.12500000000E+03 0.  0.
          2    1    1    2  501    0  0.37982358314E+02 -0.69552160380E+01  0.18225413789E+03  0.18629977282E+03  0.00000000000E+00 0. -1.
          3    1    1    2  502    0  0.16288141419E+02 -0.87546171686E+02 -0.46856438376E+03  0.47695095918E+03  0.00000000000E+00 0. -1.
<mgrwt>
<rscale>  0 0.58762427E+02</rscale>
<asrwt>0</asrwt>
<pdfrwt beam="2">  1        2 0.80010731E-01 0.89424310E+02</pdfrwt>
<pdfrwt beam="1">  1        1 0.52350251E-01 0.38613917E+02</pdfrwt>
<totfact> 0.62227167E+02</totfact>
</mgrwt>
</event>
<event>
 5    1  0.8274494E-003  0.5652500E+02  0.7546771E-02  0.1526558E+00
          2   -1    0    0  502    0  0.00000000000E+00  0.00000000000E+00  0.88132013588E+02  0.88132013588E+02  0.00000000000E+00 0. -1.
          1   -1    0    0  501    0 -0.00000000000E+00 -0.00000000000E+00 -0.46287148591E+03  0.46287148591E+03  0.00000000000E+00 0. -1.
         25    1    1    2    0    0  0.99992223033E+01 -0.31940268697E+02 -0.35227086507E+03  0.37528646070E+03  0.12500000000E+03 0.  0.
          2    1    1    2  501    0 -0.29268280433E+01 -0.24855445964E+02 -0.86375010761E+02  0.89927759899E+02  0.00000000000E+00 0. -1.
          1    1    1    2  502    0 -0.70723942600E+01  0.56795714661E+02  0.63906403506E+02  0.85789278896E+02  0.00000000000E+00 0. -1.
<mgrwt>
<rscale>  0 0.37611980E+02</rscale>
<asrwt>0</asrwt>
<pdfrwt beam="1">  1        2 0.13558771E-01 0.56524999E+02</pdfrwt>
<pdfrwt beam="2">  1        1 0.71210999E-01 0.25027176E+02</pdfrwt>
<totfact> 0.28846402E+03</totfact>
</mgrwt>
</event>
<event>
 5    1  0.8274494E-003  0.7044302E+02  0.7546771E-02  0.1483404E+00
          1   -1    0    0  501    0 -0.00000000000E+00  0.00000000000E+00  0.15402545397E+04  0.15402545397E+04  0.00000000000E+00 0. -1.
          2   -1    0    0  502    0  0.00000000000E+00 -0.00000000000E+00 -0.26910182069E+02  0.26910182069E+02  0.00000000000E+00 0. -1.
         25    1    1    2    0    0  0.46508312463E+02  0.31784538764E+01  0.34855211668E+03  0.37321133924E+03  0.12500000000E+03 0.  0.
          2    1    1    2  501    0 -0.71376943682E+02 -0.13593170778E+02  0.11647277574E+04  0.11669919414E+04  0.00000000000E+00 0. -1.
          1    1    1    2  502    0  0.24868631219E+02  0.10414716902E+02  0.64483479649E-01  0.26961441077E+02  0.00000000000E+00 0. -1.
<mgrwt>
<rscale>  0 0.43580270E+02</rscale>
<asrwt>0</asrwt>
<pdfrwt beam="2">  1        2 0.41400292E-02 0.26961364E+02</pdfrwt>
<pdfrwt beam="1">  1        1 0.23696217E+00 0.70443021E+02</pdfrwt>
<totfact> 0.16538923E+03</totfact>
</mgrwt>
</event>
<event>
 5    1  0.8274494E-003  0.1051647E+03  0.7546771E-02  0.1379481E+00
         -1   -1    0    0    0  501 -0.00000000000E+00  0.00000000000E+00  0.29218234631E+02  0.29218234631E+02  0.00000000000E+00 0.  1.
          1   -1    0    0  502    0  0.00000000000E+00 -0.00000000000E+00 -0.34351008506E+04  0.34351008506E+04  0.00000000000E+00 0. -1.
         25    1    1    2    0    0  0.10491413000E+03 -0.41626073777E+02 -0.50018665101E+03  0.52777967992E+03  0.12500000000E+03 0.  0.
          2    1    1    2  502    0 -0.27648669943E+02 -0.28465110640E+02 -0.27428981426E+04  0.27431851801E+04  0.00000000000E+00 0. -1.
         -2    1    1    2    0  501 -0.77265460057E+02  0.70091184418E+02 -0.16279782233E+03  0.19335422521E+03  0.00000000000E+00 0.  1.
<mgrwt>
<rscale>  0 0.64600412E+02</rscale>
<asrwt>0</asrwt>
<pdfrwt beam="2">  1        1 0.52847751E+00 0.39682634E+02</pdfrwt>
<pdfrwt beam="1">  1       -1 0.44951091E-02 0.10516472E+03</pdfrwt>
<totfact> 0.96788450E+01</totfact>
</mgrwt>
</event>
<event>
 5    1  0.8274494E-003  0.2882764E+02  0.7546771E-02  0.1611699E+00
          2   -1    0    0  502    0  0.00000000000E+00  0.00000000000E+00  0.11307102978E+04  0.11307102978E+04  0.00000000000E+00 0. -1.
         -2   -1    0    0    0  501 -0.00000000000E+00 -0.00000000000E+00 -0.67347776496E+02  0.67347776496E+02  0.00000000000E+00 0.  1.
         25    1    1    2    0    0  0.13625821011E+02  0.38828935989E+02  0.70410458870E+02  0.14925140531E+03  0.12500000000E+03 0.  0.
          1    1    1    2  502    0 -0.25841196087E+02 -0.12769732628E+02  0.10132048220E+04  0.10136147418E+04  0.00000000000E+00 0. -1.
         -1    1    1    2    0  501  0.12215375076E+02 -0.26059203361E+02 -0.20252759570E+02  0.35191927175E+02  0.00000000000E+00 0.  1.
<mgrwt>
<rscale>  0 0.28803887E+02</rscale>
<asrwt>0</asrwt>
<pdfrwt beam="1">  1        2 0.17395542E+00 0.28827637E+02</pdfrwt>
<pdfrwt beam="2">  1       -2 0.10361197E-01 0.28780158E+02</pdfrwt>
<totfact> 0.13460282E+03</totfact>
</mgrwt>
</event>
<event>
 5    1  0.8274494E-003  0.8724444E+02  0.7546771E-02  0.1345592E+00
          1   -1    0    0  501    0 -0.00000000000E+00  0.00000000000E+00  0.17977772517E+04  0.17977772517E+04  0.00000000000E+00 0. -1.
          2   -1    0    0  502    0  0.00000000000E+00 -0.00000000000E+00 -0.24603951201E+04  0.24603951201E+04  0.00000000000E+00 0. -1.
         25    1    1    2    0    0  0.10923960971E+02  0.13767825572E+03 -0.19654257141E+03  0.27079257264E+03  0.12500000000E+03 0.  0.
          2    1    1    2  501    0  0.22985164416E+02 -0.83958207420E+02  0.17591227383E+04  0.17612751366E+04  0.00000000000E+00 0. -1.
          1    1    1    2  502    0 -0.33909125387E+02 -0.53720048296E+02 -0.22251980353E+04  0.22261046625E+04  0.00000000000E+00 0. -1.
<mgrwt>
<rscale>  0 0.74447111E+02</rscale>
<asrwt>0</asrwt>
<pdfrwt beam="2">  1        2 0.37852232E+00 0.63526942E+02</pdfrwt>
<pdfrwt beam="1">  1        1 0.27658112E+00 0.87244437E+02</pdfrwt>
<totfact> 0.36208112E+00</totfact>
</mgrwt>
</event>
<event>
 5    1  0.8274494E-003  0.6395279E+02  0.7546771E-02  0.1397880E+00
          1   -1    0    0  501    0 -0.00000000000E+00  0.00000000000E+00  0.11029098755E+03  0.11029098755E+03  0.00000000000E+00 0. -1.
          2   -1    0    0  502    0  0.00000000000E+00 -0.00000000000E+00 -0.41304000179E+04  0.41304000179E+04  0.00000000000E+00 0. -1.
         25    1    1    2    0    0  0.85290191354E+02 -0.41317565436E+02 -0.21226056910E+04  0.21283941077E+04  0.12500000000E+03 0.  0.
          2    1    1    2  501    0 -0.24829983923E+02  0.50495555752E+02  0.99525838388E+02  0.11433163062E+03  0.00000000000E+00 0. -1.
          1    1    1    2  502    0 -0.60460207430E+02 -0.91779903164E+01 -0.19970291778E+04  0.19979652672E+04  0.00000000000E+00 0. -1.
<mgrwt>
<rscale>  0 0.59988605E+02</rscale>
<asrwt>0</asrwt>
<pdfrwt beam="2">  1        2 0.63544617E+00 0.63952789E+02</pdfrwt>
<pdfrwt beam="1">  1        1 0.16967844E-01 0.56270145E+02</pdfrwt>
<totfact> 0.19633478E+01</totfact>
</mgrwt>
</event>
<event>
 5    1  0.8274494E-003  0.1067250E+03  0.7546771E-02  0.1296034E+00
          1   -1    0    0  501    0 -0.00000000000E+00  0.00000000000E+00  0.12903033904E+03  0.12903033904E+03  0.00000000000E+00 0. -1.
          2   -1    0    0  502    0  0.00000000000E+00 -0.00000000000E+00 -0.82165647025E+03  0.82165647025E+03  0.00000000000E+00 0. -1.
         25    1    1    2    0    0 -0.73097116781E+02 -0.56661711979E+02 -0.41356083934E+03  0.44182723537E+03  0.12500000000E+03 0.  0.
          2    1    1    2  501    0 -0.54943022160E+02  0.59275560371E+02  0.88363515909E+02  0.11975157070E+03  0.00000000000E+00 0. -1.
          1    1    1    2  502    0  0.12804013894E+03 -0.26138483919E+01 -0.36742880778E+03  0.38910800322E+03  0.00000000000E+00 0. -1.
<mgrwt>
<rscale>  0 0.92875282E+02</rscale>
<asrwt>0</asrwt>
<pdfrwt beam="2">  1        2 0.12640869E+00 0.10672504E+03</pdfrwt>
<pdfrwt beam="1">  1        1 0.19850821E-01 0.80822817E+02</pdfrwt>
<totfact> 0.11974885E+03</totfact>
</mgrwt>
</event>
<event>
 5    1  0.8274494E-003  0.1136827E+03  0.7546771E-02  0.1410035E+00
         -1   -1    0    0    0  501 -0.00000000000E+00  0.00000000000E+00  0.31752341682E+03  0.31752341682E+03  0.00000000000E+00 0.  1.
          1   -1    0    0  502    0  0.00000000000E+00 -0.00000000000E+00 -0.80410440138E+03  0.80410440138E+03  0.00000000000E+00 0. -1.
         25    1    1    2    0    0  0.10836480452E+03  0.13811461039E+01  0.15914788390E+03  0.22956020425E+03  0.12500000000E+03 0.  0.
          2    1    1    2  502    0 -0.10981952435E+03 -0.30110824460E+02 -0.76293329805E+03  0.77138460379E+03  0.00000000000E+00 0. -1.
         -2    1    1    2    0  501  0.14547198289E+01  0.28729678356E+02  0.11720442958E+03  0.12068301016E+03  0.00000000000E+00 0.  1.
<mgrwt>
<rscale>  0 0.57186106E+02</rscale>
<asrwt>0</asrwt>
<pdfrwt beam="2">  1        1 0.12370837E+00 0.11368267E+03</pdfrwt>
<pdfrwt beam="1">  1       -1 0.48849756E-01 0.28766484E+02</pdfrwt>
<totfact> 0.10438623E+02</totfact>
</mgrwt>
</event>
<event>
 5    1  0.8274494E-003  0.1191660E+03  0.7546771E-02  0.1267047E+00
          2   -1    0    0  502    0  0.00000000000E+00  0.00000000000E+00  0.35788975135E+04  0.35788975135E+04  0.00000000000E+00 0. -1.
          1   -1    0    0  501    0 -0.00000000000E+00 -0.00000000000E+00 -0.27825594108E+03  0.27825594108E+03  0.00000000000E+00 0. -1.
         25    1    1    2    0    0  0.15838679292E+03  0.96901622304E+01  0.89571311684E+03  0.91820872524E+03  0.12500000000E+03 0.  0.
          2    1    1    2  501    0 -0.99539671366E+02  0.65288927000E+02 -0.25284314374E+03  0.27946456931E+03  0.00000000000E+00 0. -1.
          1    1    1    2  502    0 -0.58847121552E+02 -0.74979089230E+02  0.26577715993E+04  0.26594801601E+04  0.00000000000E+00 0. -1.
<mgrwt>
<rscale>  0 0.10657505E+03</rscale>
<asrwt>0</asrwt>
<pdfrwt beam="1">  1        2 0.55059959E+00 0.95314467E+02</pdfrwt>
<pdfrwt beam="2">  1        1 0.42808609E-01 0.11916597E+03</pdfrwt>
<totfact> 0.14326246E+01</totfact>
</mgrwt>
</event>
<event>
 5    1  0.8274494E-003  0.1064641E+03  0.7546771E-02  0.1434854E+00
          1   -1    0    0  501    0 -0.00000000000E+00  0.00000000000E+00  0.40230104901E+03  0.40230104901E+03  0.00000000000E+00 0. -1.
          2   -1    0    0  502    0  0.00000000000E+00 -0.00000000000E+00 -0.13276616443E+03  0.13276616443E+03  0.00000000000E+00 0. -1.
         25    1    1    2    0    0  0.24360549723E+02  0.10226872556E+03  0.12127572099E+03  0.20343335300E+03  0.12500000000E+03 0.  0.
          2    1    1    2  501    0 -0.48912601097E+02 -0.95775314886E+02  0.22576659152E+03  0.25007180436E+03  0.00000000000E+00 0. -1.
          1    1    1    2  502    0  0.24552051374E+02 -0.64934106772E+01 -0.77507427924E+02  0.81562056082E+02  0.00000000000E+00 0. -1.
<mgrwt>
<rscale>  0 0.51997929E+02</rscale>
<asrwt>0</asrwt>
<pdfrwt beam="2">  1        2 0.20425564E-01 0.25396212E+02</pdfrwt>
<pdfrwt beam="1">  1        1 0.61892469E-01 0.10646409E+03</pdfrwt>
<totfact> 0.20350067E+03</totfact>
</mgrwt>
</event>
<event>
 5    1  0.8274494E-003  0.9477843E+02  0.7546771E-02  0.1447566E+00
          2   -1    0    0  502    0  0.00000000000E+00  0.00000000000E+00  0.92134643465E+03  0.92134643465E+03  0.00000000000E+00 0. -1.
         -2   -1    0    0    0  501 -0.00000000000E+00 -0.00000000000E+00 -0.23844762648E+02  0.23844762648E+02  0.00000000000E+00 0.  1.
         25    1    1    2    0    0  0.36146921722E+02  0.76314937041E+02  0.31108613010E+03  0.34573132619E+03  0.12500000000E+03 0.  0.
          1    1    1    2  502    0 -0.62093265400E+02 -0.76368638536E+02  0.46527117333E+03  0.47556808902E+03  0.00000000000E+00 0. -1.
         -1    1    1    2    0  501  0.25946343678E+02  0.53701494299E-01  0.12114436857E+03  0.12389178209E+03  0.00000000000E+00 0.  1.
<mgrwt>
<rscale>  0 0.49589909E+02</rscale>
<asrwt>0</asrwt>
<pdfrwt beam="1">  1        2 0.14174558E+00 0.94778433E+02</pdfrwt>
<pdfrwt beam="2">  1       -2 0.36684257E-02 0.25946399E+02</pdfrwt>
<totfact> 0.73591381E+03</totfact>
</mgrwt>
</event>
<event>
 5    1  0.8274494E-003  0.3941882E+02  0.7546771E-02  0.1534206E+00
         -2   -1    0    0    0  501 -0.00000000000E+00  0.00000000000E+00  0.11249132055E+03  0.11249132055E+03  0.00000000000E+00 0.  1.
          2   -1    0    0  502    0  0.00000000000E+00 -0.00000000000E+00 -0.35289950012E+03  0.35289950012E+03  0.00000000000E+00 0. -1.
         25    1    1    2    0    0  0.20112870763E+02 -0.14314538554E+02 -0.25640423933E+03  0.28631724979E+03  0.12500000000E+03 0.  0.
          1    1    1    2  502    0 -0.22755526271E+02 -0.25427764479E+02 -0.73543788061E+02  0.81074496266E+02  0.00000000000E+00 0. -1.
         -1    1    1    2    0  501  0.26426555079E+01  0.39742303033E+02  0.89539847813E+02  0.97999074613E+02  0.00000000000E+00 0.  1.
<mgrwt>
<rscale>  0 0.36675496E+02</rscale>
<asrwt>0</asrwt>
<pdfrwt beam="2">  1        2 0.54292230E-01 0.34123089E+02</pdfrwt>
<pdfrwt beam="1">  1       -2 0.17306357E-01 0.39418824E+02</pdfrwt>
<totfact> 0.22509940E+03</totfact>
</mgrwt>
</event>
<event>
 5    1  0.1044408E-002  0.9800427E+02  0.7546771E-02  0.1306263E+00
          2   -1    0    0  502    0  0.00000000000E+00  0.00000000000E+00  0.19712632485E+04  0.19712632485E+04  0.00000000000E+00 0. -1.
          1   -1    0    0  501    0 -0.00000000000E+00 -0.00000000000E+00 -0.14453374490E+04  0.14453374490E+04  0.00000000000E+00 0. -1.
         25    1    1    2    0    0  0.53418788357E+02 -0.10504505160E+03 -0.48652581883E+03  0.51596550486E+03  0.12500000000E+03 0.  0.
          2    1    1    2  501    0  0.26124790987E+02  0.95546594248E+02 -0.94067026869E+03  0.94587113857E+03  0.00000000000E+00 0. -1.
          3    1    1    2  502    0 -0.79543579344E+02  0.94984573479E+01  0.19531218870E+04  0.19547640541E+04  0.00000000000E+00 0. -1.
<mgrwt>
<rscale>  0 0.88605830E+02</rscale>
<asrwt>0</asrwt>
<pdfrwt beam="1">  1        2 0.30327127E+00 0.80108687E+02</pdfrwt>
<pdfrwt beam="2">  1        1 0.22235961E+00 0.98004267E+02</pdfrwt>
<totfact> 0.10253661E+01</totfact>
</mgrwt>
</event>
<event>
 5    1  0.8274494E-003  0.1773852E+03  0.7546771E-02  0.1258312E+00
          2   -1    0    0  502    0  0.00000000000E+00  0.00000000000E+00  0.52175209661E+03  0.52175209661E+03  0.00000000000E+00 0. -1.
          1   -1    0    0  501    0 -0.00000000000E+00 -0.00000000000E+00 -0.90792170844E+03  0.90792170844E+03  0.00000000000E+00 0. -1.
         25    1    1    2    0    0  0.11786580633E+03  0.51658863497E+02  0.66495667564E+02  0.19133128412E+03  0.12500000000E+03 0.  0.
          2    1    1    2  501    0  0.68959902784E+02  0.10433438877E+02 -0.81926266115E+03  0.82222602293E+03  0.00000000000E+00 0. -1.
          1    1    1    2  502    0 -0.18682570912E+03 -0.62092302373E+02  0.36659738175E+03  0.41611649800E+03  0.00000000000E+00 0. -1.
<mgrwt>
<rscale>  0 0.11122806E+03</rscale>
<asrwt>0</asrwt>
<pdfrwt beam="1">  1        2 0.80269554E-01 0.17738522E+03</pdfrwt>
<pdfrwt beam="2">  1        1 0.13968026E+00 0.69744712E+02</pdfrwt>
<totfact> 0.16643428E+02</totfact>
</mgrwt>
</event>
<event>
 5    1  0.8274494E-003  0.1024870E+03  0.7546771E-02  0.1281869E+00
          2   -1    0    0  502    0  0.00000000000E+00  0.00000000000E+00  0.16876988774E+04  0.16876988774E+04  0.00000000000E+00 0. -1.
         -2   -1    0    0    0  501 -0.00000000000E+00 -0.00000000000E+00 -0.15685026920E+03  0.15685026920E+03  0.00000000000E+00 0.  1.
         25    1    1    2    0    0  0.12861105617E+02 -0.19441587825E+03  0.33828348326E+02  0.23394935115E+03  0.12500000000E+03 0.  0.
          1    1    1    2  502    0  0.82228171411E+01  0.10063030426E+03  0.15102025256E+04  0.15135738308E+04  0.00000000000E+00 0. -1.
         -1    1    1    2    0  501 -0.21083922758E+02  0.93785573989E+02 -0.13182265740E+02  0.97025964655E+02  0.00000000000E+00 0.  1.
<mgrwt>
<rscale>  0 0.99255691E+02</rscale>
<asrwt>0</asrwt>
<pdfrwt beam="1">  1        2 0.25964597E+00 0.10248696E+03</pdfrwt>
<pdfrwt beam="2">  1       -2 0.24130812E-01 0.96126301E+02</pdfrwt>
<totfact> 0.17559551E+02</totfact>
</mgrwt>
</event>
<event>
 5    1  0.8274494E-003  0.5044626E+02  0.7546771E-02  0.1479923E+00
          1   -1    0    0  501    0 -0.00000000000E+00  0.00000000000E+00  0.50590593324E+03  0.50590593324E+03  0.00000000000E+00 0. -1.
          2   -1    0    0  502    0  0.00000000000E+00 -0.00000000000E+00 -0.27746828379E+03  0.27746828379E+03  0.00000000000E+00 0. -1.
         25    1    1    2    0    0  0.82343486880E+02 -0.84961887742E+01  0.27845165854E+03  0.31624825880E+03  0.12500000000E+03 0.  0.
          2    1    1    2  501    0 -0.45999551365E+02 -0.44589358372E+01  0.20452385635E+03  0.20968034874E+03  0.00000000000E+00 0. -1.
          1    1    1    2  502    0 -0.36343935515E+02  0.12955124611E+02 -0.25453786543E+03  0.25744560948E+03  0.00000000000E+00 0. -1.
<mgrwt>
<rscale>  0 0.44118171E+02</rscale>
<asrwt>0</asrwt>
<pdfrwt beam="2">  1        2 0.42687428E-01 0.38583894E+02</pdfrwt>
<pdfrwt beam="1">  1        1 0.77831682E-01 0.50446256E+02</pdfrwt>
<totfact> 0.73510701E+02</totfact>
</mgrwt>
</event>
<event>
 5    1  0.8274494E-003  0.6810806E+02  0.7546771E-02  0.1409552E+00
          2   -1    0    0  502    0  0.00000000000E+00  0.00000000000E+00  0.63276888455E+02  0.63276888455E+02  0.00000000000E+00 0. -1.
          1   -1    0    0  501    0 -0.00000000000E+00 -0.00000000000E+00 -0.58721212978E+03  0.58721212978E+03  0.00000000000E+00 0. -1.
         25    1    1    2    0    0  0.58057310393E+02  0.79470278550E+02 -0.29364669319E+03  0.33397538365E+03  0.12500000000E+03 0.  0.
          2    1    1    2  501    0 -0.13065108951E+02 -0.62189602816E+02 -0.25468563716E+03  0.26249384287E+03  0.00000000000E+00 0. -1.
          1    1    1    2  502    0 -0.44992201442E+02 -0.17280675733E+02  0.24397089021E+02  0.54019791717E+02  0.00000000000E+00 0. -1.
<mgrwt>
<rscale>  0 0.57293826E+02</rscale>
<asrwt>0</asrwt>
<pdfrwt beam="1">  1        2 0.97349064E-02 0.48196680E+02</pdfrwt>
<pdfrwt beam="2">  1        1 0.90340324E-01 0.68108062E+02</pdfrwt>
<totfact> 0.30482843E+03</totfact>
</mgrwt>
</event>
<event>
 5    1  0.8274494E-003  0.1278556E+03  0.7546771E-02  0.1387982E+00
          1   -1    0    0  502    0  0.00000000000E+00  0.00000000000E+00  0.15341611721E+04  0.15341611721E+04  0.00000000000E+00 0. -1.
         -1   -1    0    0    0  501 -0.00000000000E+00 -0.00000000000E+00 -0.61003627809E+03  0.61003627809E+03  0.00000000000E+00 0.  1.
         25    1    1    2    0    0  0.90981044647E+02  0.77029502277E+02 -0.91901623993E+01  0.17297558727E+03  0.12500000000E+03 0.  0.
          2    1    1    2  502    0 -0.11451627850E+03 -0.57684117481E+02  0.14489877017E+04  0.14546500593E+04  0.00000000000E+00 0. -1.
         -2    1    1    2    0  501  0.23535233855E+02 -0.19345384796E+02 -0.51567264530E+03  0.51657180358E+03  0.00000000000E+00 0.  1.
<mgrwt>
<rscale>  0 0.62411497E+02</rscale>
<asrwt>0</asrwt>
<pdfrwt beam="1">  1        1 0.23602479E+00 0.12785563E+03</pdfrwt>
<pdfrwt beam="2">  1       -1 0.93851736E-01 0.30465573E+02</pdfrwt>
<totfact> 0.93474169E+00</totfact>
</mgrwt>
</event>
<event>
 5    1  0.8274494E-003  0.6596149E+02  0.7546771E-02  0.1509037E+00
         -1   -1    0    0    0  502 -0.00000000000E+00  0.00000000000E+00  0.15088934251E+04  0.15088934251E+04  0.00000000000E+00 0.  1.
         -2   -1    0    0    0  501  0.00000000000E+00 -0.00000000000E+00 -0.11712852764E+02  0.11712852764E+02  0.00000000000E+00 0.  1.
         25    1    1    2    0    0 -0.38192966778E+02  0.32904994543E+02  0.82706556692E+03  0.83797606969E+03  0.12500000000E+03 0.  0.
         -2    1    1    2    0  502 -0.24109359365E+02 -0.74771418975E+00  0.46945153348E+03  0.47007080592E+03  0.00000000000E+00 0.  1.
         -1    1    1    2    0  501  0.62302326143E+02 -0.32157280353E+02  0.20066347193E+03  0.21255940226E+03  0.00000000000E+00 0.  1.
<mgrwt>
<rscale>  0 0.39888018E+02</rscale>
<asrwt>0</asrwt>
<pdfrwt beam="2">  1       -2 0.18019785E-02 0.65961493E+02</pdfrwt>
<pdfrwt beam="1">  1       -1 0.23213730E+00 0.24120951E+02</pdfrwt>
<totfact> 0.73205956E+02</totfact>
</mgrwt>
</event>
<event>
 5    1  0.8274494E-003  0.1074745E+03  0.7546771E-02  0.1273376E+00
          2   -1    0    0  502    0  0.00000000000E+00  0.00000000000E+00  0.63634491932E+02  0.63634491932E+02  0.00000000000E+00 0. -1.
         -2   -1    0    0    0  501 -0.00000000000E+00 -0.00000000000E+00 -0.16862445777E+04  0.16862445777E+04  0.00000000000E+00 0.  1.
         25    1    1    2    0    0 -0.44238315970E+01  0.36620937475E+02 -0.34657721438E+03  0.37027210113E+03  0.12500000000E+03 0.  0.
          1    1    1    2  502    0 -0.10150588367E+03 -0.54777290807E+02 -0.17700470198E+02  0.11669319883E+03  0.00000000000E+00 0. -1.
         -1    1    1    2    0  501  0.10592971527E+03  0.18156353332E+02 -0.12583324012E+04  0.12629137697E+04  0.00000000000E+00 0.  1.
<mgrwt>
<rscale>  0 0.10336447E+03</rscale>
<asrwt>0</asrwt>
<pdfrwt beam="1">  1        2 0.97899214E-02 0.99411658E+02</pdfrwt>
<pdfrwt beam="2">  1       -2 0.25942225E+00 0.10747445E+03</pdfrwt>
<totfact> 0.42826572E+01</totfact>
</mgrwt>
</event>
<event>
 5    1  0.8274494E-003  0.6213347E+02  0.7546771E-02  0.1443118E+00
          2   -1    0    0  502    0  0.00000000000E+00  0.00000000000E+00  0.32900209305E+02  0.32900209305E+02  0.00000000000E+00 0. -1.
          1   -1    0    0  501    0 -0.00000000000E+00 -0.00000000000E+00 -0.54800429058E+03  0.54800429058E+03  0.00000000000E+00 0. -1.
         25    1    1    2    0    0  0.44442422945E+02  0.26729565107E+02 -0.34828782065E+03  0.37365626533E+03  0.12500000000E+03 0.  0.
          2    1    1    2  501    0 -0.21419683297E+02  0.34849776207E+02 -0.11933807728E+03  0.12615421683E+03  0.00000000000E+00 0. -1.
          1    1    1    2  502    0 -0.23022739648E+02 -0.61579341314E+02 -0.47478183347E+02  0.81094017729E+02  0.00000000000E+00 0. -1.
<mgrwt>
<rscale>  0 0.50414666E+02</rscale>
<asrwt>0</asrwt>
<pdfrwt beam="1">  1        2 0.50615710E-02 0.62133472E+02</pdfrwt>
<pdfrwt beam="2">  1        1 0.84308347E-01 0.40906109E+02</pdfrwt>
<totfact> 0.77481213E+03</totfact>
</mgrwt>
</event>
<event>
 5    1  0.8274494E-003  0.6825799E+02  0.7546771E-02  0.1418888E+00
          2   -1    0    0  502    0  0.00000000000E+00  0.00000000000E+00  0.22558179007E+03  0.22558179007E+03  0.00000000000E+00 0. -1.
          1   -1    0    0  501    0 -0.00000000000E+00 -0.00000000000E+00 -0.12227753228E+04  0.12227753228E+04  0.00000000000E+00 0. -1.
         25    1    1    2    0    0 -0.91107279195E+02 -0.38413201044E+02 -0.91190812255E+02  0.18362155259E+03  0.12500000000E+03 0.  0.
          2    1    1    2  501    0  0.43766839036E+02 -0.92420159325E+01 -0.10786002655E+04  0.10795274354E+04  0.00000000000E+00 0. -1.
          1    1    1    2  502    0  0.47340440159E+02  0.47655216976E+02  0.17259754501E+03  0.18520812489E+03  0.00000000000E+00 0. -1.
<mgrwt>
<rscale>  0 0.55256816E+02</rscale>
<asrwt>0</asrwt>
<pdfrwt beam="1">  1        2 0.34704891E-01 0.68257987E+02</pdfrwt>
<pdfrwt beam="2">  1        1 0.18811928E+00 0.44731991E+02</pdfrwt>
<totfact> 0.25383825E+02</totfact>
</mgrwt>
</event>
<event>
 5    1  0.8274494E-003  0.2024663E+03  0.7546771E-02  0.1327209E+00
         -1   -1    0    0    0  501 -0.00000000000E+00  0.00000000000E+00  0.11115212945E+04  0.11115212945E+04  0.00000000000E+00 0.  1.
          1   -1    0    0  502    0  0.00000000000E+00 -0.00000000000E+00 -0.40144338995E+03  0.40144338995E+03  0.00000000000E+00 0. -1.
         25    1    1    2    0    0  0.14565862472E+03  0.16611449042E+03  0.12067784131E+03  0.28106689642E+03  0.12500000000E+03 0.  0.
          2    1    1    2  502    0 -0.11357712693E+03 -0.16438060162E+03 -0.28986022918E+03  0.35205070432E+03  0.00000000000E+00 0. -1.
         -2    1    1    2    0  501 -0.32081497794E+02 -0.17338887958E+01  0.87926029241E+03  0.87984708369E+03  0.00000000000E+00 0.  1.
<mgrwt>
<rscale>  0 0.80652965E+02</rscale>
<asrwt>0</asrwt>
<pdfrwt beam="2">  1        1 0.61760522E-01 0.20246627E+03</pdfrwt>
<pdfrwt beam="1">  1       -1 0.17100327E+00 0.32128319E+02</pdfrwt>
<totfact> 0.19081337E+01</totfact>
</mgrwt>
</event>
<event>
 5    1  0.8274494E-003  0.1019066E+03  0.7546771E-02  0.1305621E+00
          1   -1    0    0  501    0 -0.00000000000E+00  0.00000000000E+00  0.10145326586E+03  0.10145326586E+03  0.00000000000E+00 0. -1.
          2   -1    0    0  502    0  0.00000000000E+00 -0.00000000000E+00 -0.25542755115E+04  0.25542755115E+04  0.00000000000E+00 0. -1.
         25    1    1    2    0    0 -0.30025343722E+02 -0.12926674677E+02 -0.15358720821E+04  0.15412970748E+04  0.12500000000E+03 0.  0.
          2    1    1    2  501    0  0.58675804532E+02  0.84929999155E+02  0.69820459941E+02  0.12462283667E+03  0.00000000000E+00 0. -1.
          1    1    1    2  502    0 -0.28650460810E+02 -0.72003324478E+02 -0.98677062341E+03  0.98980886582E+03  0.00000000000E+00 0. -1.
<mgrwt>
<rscale>  0 0.88865943E+02</rscale>
<asrwt>0</asrwt>
<pdfrwt beam="2">  1        2 0.39296547E+00 0.77494049E+02</pdfrwt>
<pdfrwt beam="1">  1        1 0.15608194E-01 0.10190661E+03</pdfrwt>
<totfact> 0.20457892E+02</totfact>
</mgrwt>
</event>
<event>
 5    1  0.8274494E-003  0.2578170E+03  0.7546771E-02  0.1166194E+00
          1   -1    0    0  501    0 -0.00000000000E+00  0.00000000000E+00  0.24605627629E+04  0.24605627629E+04  0.00000000000E+00 0. -1.
          2   -1    0    0  502    0  0.00000000000E+00 -0.00000000000E+00 -0.45668392262E+03  0.45668392262E+03  0.00000000000E+00 0. -1.
         25    1    1    2    0    0 -0.33623382641E+03  0.85401526653E+02  0.20493952880E+03  0.42186706110E+03  0.12500000000E+03 0.  0.
          2    1    1    2  501    0  0.21637511139E+03 -0.13036915618E+03  0.21276638558E+04  0.21426077076E+04  0.00000000000E+00 0. -1.
          1    1    1    2  502    0  0.11985871502E+03  0.44967629531E+02 -0.32872454427E+03  0.35277191679E+03  0.00000000000E+00 0. -1.
<mgrwt>
<rscale>  0 0.18167225E+03</rscale>
<asrwt>0</asrwt>
<pdfrwt beam="2">  1        2 0.70259067E-01 0.12801640E+03</pdfrwt>
<pdfrwt beam="1">  1        1 0.37854811E+00 0.25781703E+03</pdfrwt>
<totfact> 0.16173307E+01</totfact>
</mgrwt>
</event>
<event>
 5    1  0.8274494E-003  0.1725044E+03  0.7546771E-02  0.1314445E+00
          1   -1    0    0  501    0 -0.00000000000E+00  0.00000000000E+00  0.11320623562E+03  0.11320623562E+03  0.00000000000E+00 0. -1.
          2   -1    0    0  502    0  0.00000000000E+00 -0.00000000000E+00 -0.21636474772E+04  0.21636474772E+04  0.00000000000E+00 0. -1.
         25    1    1    2    0    0 -0.11791309727E+03  0.16620961520E+03 -0.94632726391E+03  0.97605810539E+03  0.12500000000E+03 0.  0.
          2    1    1    2  501    0  0.78459423182E+02 -0.15107485460E+03  0.23976611115E+02  0.17191384662E+03  0.00000000000E+00 0. -1.
          1    1    1    2  502    0  0.39453674090E+02 -0.15134760606E+02 -0.11280905888E+04  0.11288817608E+04  0.00000000000E+00 0. -1.
<mgrwt>
<rscale>  0 0.85378665E+02</rscale>
<asrwt>0</asrwt>
<pdfrwt beam="2">  1        2 0.33286881E+00 0.42256992E+02</pdfrwt>
<pdfrwt beam="1">  1        1 0.17416346E-01 0.17250439E+03</pdfrwt>
<totfact> 0.31038223E+02</totfact>
</mgrwt>
</event>
<event>
 5    1  0.8274494E-003  0.6677013E+02  0.7546771E-02  0.1501298E+00
          1   -1    0    0  501    0 -0.00000000000E+00  0.00000000000E+00  0.90556847143E+03  0.90556847143E+03  0.00000000000E+00 0. -1.
          2   -1    0    0  502    0  0.00000000000E+00 -0.00000000000E+00 -0.55832920871E+03  0.55832920871E+03  0.00000000000E+00 0. -1.
         25    1    1    2    0    0 -0.27218170179E+02 -0.37421263757E+02 -0.16636886488E+03  0.21317781069E+03  0.12500000000E+03 0.  0.
          2    1    1    2  501    0 -0.44038475813E+01 -0.24731914271E+02  0.87868421537E+03  0.87904323659E+03  0.00000000000E+00 0. -1.
          1    1    1    2  502    0  0.31622017760E+02  0.62153178028E+02 -0.36507608777E+03  0.37167663285E+03  0.00000000000E+00 0. -1.
<mgrwt>
<rscale>  0 0.40955196E+02</rscale>
<asrwt>0</asrwt>
<pdfrwt beam="2">  1        2 0.85896802E-01 0.66770126E+02</pdfrwt>
<pdfrwt beam="1">  1        1 0.13931823E+00 0.25120937E+02</pdfrwt>
<totfact> 0.16795838E+02</totfact>
</mgrwt>
</event>
<event>
 5    1  0.8274494E-003  0.5377563E+02  0.7546771E-02  0.1452142E+00
          2   -1    0    0  502    0  0.00000000000E+00  0.00000000000E+00  0.62208398733E+02  0.62208398733E+02  0.00000000000E+00 0. -1.
          1   -1    0    0  501    0 -0.00000000000E+00 -0.00000000000E+00 -0.41181792729E+03  0.41181792729E+03  0.00000000000E+00 0. -1.
         25    1    1    2    0    0 -0.46362762700E+02  0.70242352550E+02 -0.12443104868E+03  0.19542666075E+03  0.12500000000E+03 0.  0.
          2    1    1    2  501    0  0.62993309271E+01 -0.51540149024E+02 -0.22843914392E+03  0.23426589809E+03  0.00000000000E+00 0. -1.
          1    1    1    2  502    0  0.40063431773E+02 -0.18702203526E+02  0.32606640479E+01  0.44333767178E+02  0.00000000000E+00 0. -1.
<mgrwt>
<rscale>  0 0.48760838E+02</rscale>
<asrwt>0</asrwt>
<pdfrwt beam="1">  1        2 0.95705231E-02 0.44213697E+02</pdfrwt>
<pdfrwt beam="2">  1        1 0.63356603E-01 0.53775627E+02</pdfrwt>
<totfact> 0.48601416E+03</totfact>
</mgrwt>
</event>
<event>
 5    1  0.8274494E-003  0.2252914E+03  0.7546771E-02  0.1199804E+00
          2   -1    0    0  502    0  0.00000000000E+00  0.00000000000E+00  0.35558914574E+03  0.35558914574E+03  0.00000000000E+00 0. -1.
          1   -1    0    0  501    0 -0.00000000000E+00 -0.00000000000E+00 -0.16819235625E+04  0.16819235625E+04  0.00000000000E+00 0. -1.
         25    1    1    2    0    0 -0.14870631665E+03 -0.58454295127E+02 -0.44043007509E+03  0.48490630464E+03  0.12500000000E+03 0.  0.
          2    1    1    2  501    0 -0.83204169641E+02  0.56542882705E+02 -0.11765099757E+04  0.11808030125E+04  0.00000000000E+00 0. -1.
          3    1    1    2  502    0  0.23191048629E+03  0.19114124226E+01  0.29060563400E+03  0.37180339113E+03  0.00000000000E+00 0. -1.
<mgrwt>
<rscale>  0 0.15054548E+03</rscale>
<asrwt>0</asrwt>
<pdfrwt beam="1">  1        2 0.54706023E-01 0.22529135E+03</pdfrwt>
<pdfrwt beam="2">  1        1 0.25875747E+00 0.10059837E+03</pdfrwt>
<totfact> 0.74688663E+01</totfact>
</mgrwt>
</event>
<event>
 5    1  0.8274494E-003  0.3777853E+02  0.7546771E-02  0.1539899E+00
          1   -1    0    0  502    0  0.00000000000E+00  0.00000000000E+00  0.11873032691E+04  0.11873032691E+04  0.00000000000E+00 0. -1.
         -1   -1    0    0    0  501 -0.00000000000E+00 -0.00000000000E+00 -0.18305032945E+03  0.18305032945E+03  0.00000000000E+00 0.  1.
         25    1    1    2    0    0  0.24519419200E+02  0.59617130237E+02  0.59803730021E+03  0.61435251817E+03  0.12500000000E+03 0.  0.
          2    1    1    2  502    0  0.32877281929E+01 -0.34146572159E+02  0.57856172706E+03  0.57957783737E+03  0.00000000000E+00 0. -1.
         -2    1    1    2    0  501 -0.27807147393E+02 -0.25470558078E+02 -0.17234608760E+03  0.17642324304E+03  0.00000000000E+00 0.  1.
<mgrwt>
<rscale>  0 0.35999623E+02</rscale>
<asrwt>0</asrwt>
<pdfrwt beam="1">  1        1 0.18266204E+00 0.34304483E+02</pdfrwt>
<pdfrwt beam="2">  1       -1 0.28161590E-01 0.37778529E+02</pdfrwt>
<totfact> 0.15120786E+02</totfact>
</mgrwt>
</event>
<event>
 5    1  0.8274494E-003  0.8658207E+02  0.7546771E-02  0.1438887E+00
          2   -1    0    0  502    0  0.00000000000E+00  0.00000000000E+00  0.20215160250E+03  0.20215160250E+03  0.00000000000E+00 0. -1.
          1   -1    0    0  501    0 -0.00000000000E+00 -0.00000000000E+00 -0.71453318743E+03  0.71453318743E+03  0.00000000000E+00 0. -1.
         25    1    1    2    0    0 -0.79647090865E+02  0.26362963278E+02 -0.14475287592E+03  0.20884697748E+03  0.12500000000E+03 0.  0.
          2    1    1    2  501    0  0.11624984550E+02  0.27977694945E+02 -0.52612877377E+03  0.52700035889E+03  0.00000000000E+00 0. -1.
          1    1    1    2  502    0  0.68022106316E+02 -0.54340658223E+02  0.15850006476E+03  0.18083745356E+03  0.00000000000E+00 0. -1.
<mgrwt>
<rscale>  0 0.51216731E+02</rscale>
<asrwt>0</asrwt>
<pdfrwt beam="1">  1        2 0.31100247E-01 0.86582075E+02</pdfrwt>
<pdfrwt beam="2">  1        1 0.10992818E+00 0.30296727E+02</pdfrwt>
<totfact> 0.67493478E+02</totfact>
</mgrwt>
</event>
<event>
 5    1  0.8274494E-003  0.5368854E+02  0.7546771E-02  0.1496843E+00
          2   -1    0    0  502    0  0.00000000000E+00  0.00000000000E+00  0.95853519651E+03  0.95853519651E+03  0.00000000000E+00 0. -1.
          1   -1    0    0  501    0 -0.00000000000E+00 -0.00000000000E+00 -0.20878314213E+03  0.20878314213E+03  0.00000000000E+00 0. -1.
         25    1    1    2    0    0  0.32199689615E+02 -0.73331411774E+02  0.26138716618E+03  0.30060367032E+03  0.12500000000E+03 0.  0.
          2    1    1    2  501    0 -0.33972566100E+02  0.41166188389E+02 -0.18501740101E+03  0.19256227302E+03  0.00000000000E+00 0. -1.
          1    1    1    2  502    0  0.17728764854E+01  0.32165223385E+02  0.67338228920E+03  0.67415239531E+03  0.00000000000E+00 0. -1.
<mgrwt>
<rscale>  0 0.41587557E+02</rscale>
<asrwt>0</asrwt>
<pdfrwt beam="1">  1        2 0.14746695E+00 0.32214045E+02</pdfrwt>
<pdfrwt beam="2">  1        1 0.32120484E-01 0.53688537E+02</pdfrwt>
<totfact> 0.57113192E+02</totfact>
</mgrwt>
</event>
<event>
 5    1  0.8274494E-003  0.9732553E+02  0.7546771E-02  0.1387184E+00
          1   -1    0    0  502    0  0.00000000000E+00  0.00000000000E+00  0.61476689271E+03  0.61476689271E+03  0.00000000000E+00 0. -1.
         -1   -1    0    0    0  501 -0.00000000000E+00 -0.00000000000E+00 -0.21704131167E+03  0.21704131167E+03  0.00000000000E+00 0.  1.
         25    1    1    2    0    0 -0.59560358530E+01  0.72819317202E+02  0.46474407014E+01  0.14486105766E+03  0.12500000000E+03 0.  0.
          2    1    1    2  502    0 -0.27444270909E+02 -0.95334592771E+02  0.53258271613E+03  0.54174368673E+03  0.00000000000E+00 0. -1.
         -2    1    1    2    0  501  0.33400306762E+02  0.22515275570E+02 -0.13950457580E+03  0.14520345999E+03  0.00000000000E+00 0.  1.
<mgrwt>
<rscale>  0 0.62612461E+02</rscale>
<asrwt>0</asrwt>
<pdfrwt beam="1">  1        1 0.94579522E-01 0.97325529E+02</pdfrwt>
<pdfrwt beam="2">  1       -1 0.33390971E-01 0.40280493E+02</pdfrwt>
<totfact> 0.29377401E+02</totfact>
</mgrwt>
</event>
<event>
 5    1  0.8274494E-003  0.1371592E+03  0.7546771E-02  0.1286350E+00
          1   -1    0    0  501    0 -0.00000000000E+00  0.00000000000E+00  0.58815935698E+03  0.58815935698E+03  0.00000000000E+00 0. -1.
          2   -1    0    0  502    0  0.00000000000E+00 -0.00000000000E+00 -0.33472231880E+03  0.33472231880E+03  0.00000000000E+00 0. -1.
         25    1    1    2    0    0 -0.75459401354E+02 -0.13030365446E+03 -0.64923490022E+02  0.20618734970E+03  0.12500000000E+03 0.  0.
          2    1    1    2  501    0  0.68559454818E+02 -0.62958206904E+01  0.49135945381E+03  0.49615939884E+03  0.00000000000E+00 0. -1.
          3    1    1    2  502    0  0.68999465353E+01  0.13659947515E+03 -0.17299892560E+03  0.22053492724E+03  0.00000000000E+00 0. -1.
<mgrwt>
<rscale>  0 0.97175764E+02</rscale>
<asrwt>0</asrwt>
<pdfrwt beam="2">  1        2 0.51495742E-01 0.13715925E+03</pdfrwt>
<pdfrwt beam="1">  1        1 0.90486055E-01 0.68847921E+02</pdfrwt>
<totfact> 0.49979251E+02</totfact>
</mgrwt>
</event>
<event>
 5    1  0.8274494E-003  0.9810112E+02  0.7546771E-02  0.1468166E+00
          2   -1    0    0  502    0  0.00000000000E+00  0.00000000000E+00  0.12280382738E+04  0.12280382738E+04  0.00000000000E+00 0. -1.
          1   -1    0    0  501    0 -0.00000000000E+00 -0.00000000000E+00 -0.58723268853E+03  0.58723268853E+03  0.00000000000E+00 0. -1.
         25    1    1    2    0    0 -0.53902626777E+02 -0.89534806401E+02  0.42539487985E+03  0.45553021693E+03  0.12500000000E+03 0.  0.
          2    1    1    2  501    0  0.21474456172E+02 -0.20685692124E+01 -0.56896239156E+03  0.56937126223E+03  0.00000000000E+00 0. -1.
          1    1    1    2  502    0  0.32428170605E+02  0.91603375613E+02  0.78437309693E+03  0.79036948313E+03  0.00000000000E+00 0. -1.
<mgrwt>
<rscale>  0 0.46004558E+02</rscale>
<asrwt>0</asrwt>
<pdfrwt beam="1">  1        2 0.18892896E+00 0.98101119E+02</pdfrwt>
<pdfrwt beam="2">  1        1 0.90343491E-01 0.21573856E+02</pdfrwt>
<totfact> 0.11067273E+02</totfact>
</mgrwt>
</event>
<event>
 5    1  0.8274494E-003  0.6513944E+02  0.7546771E-02  0.1437148E+00
          1   -1    0    0  502    0  0.00000000000E+00  0.00000000000E+00  0.12831809209E+04  0.12831809209E+04  0.00000000000E+00 0. -1.
         -1   -1    0    0    0  501 -0.00000000000E+00 -0.00000000000E+00 -0.11398969022E+03  0.11398969022E+03  0.00000000000E+00 0.  1.
         25    1    1    2    0    0  0.34863229408E+02 -0.12818503524E+00  0.45630630489E+03  0.47440057449E+03  0.12500000000E+03 0.  0.
          2    1    1    2  502    0 -0.65347308852E+02 -0.26986617583E+02  0.81226780262E+03  0.81533890590E+03  0.00000000000E+00 0. -1.
         -2    1    1    2    0  501  0.30484079445E+02  0.27114802619E+02 -0.99382876879E+02  0.10743113067E+03  0.00000000000E+00 0.  1.
<mgrwt>
<rscale>  0 0.51551633E+02</rscale>
<asrwt>0</asrwt>
<pdfrwt beam="1">  1        1 0.19741244E+00 0.65139443E+02</pdfrwt>
<pdfrwt beam="2">  1       -1 0.17536876E-01 0.40798182E+02</pdfrwt>
<totfact> 0.26126092E+02</totfact>
</mgrwt>
</event>
<event>
 5    1  0.8274494E-003  0.8613074E+02  0.7546771E-02  0.1443236E+00
          2   -1    0    0  502    0  0.00000000000E+00  0.00000000000E+00  0.10449757965E+04  0.10449757965E+04  0.00000000000E+00 0. -1.
          1   -1    0    0  501    0 -0.00000000000E+00 -0.00000000000E+00 -0.21469771765E+03  0.21469771765E+03  0.00000000000E+00 0. -1.
         25    1    1    2    0    0 -0.10403901160E+02 -0.59037891288E+02  0.87512846133E+02  0.16394270952E+03  0.12500000000E+03 0.  0.
          2    1    1    2  501    0  0.63499729942E+01  0.88240893719E+02 -0.16514127164E+03  0.18734571540E+03  0.00000000000E+00 0. -1.
          1    1    1    2  502    0  0.40539281655E+01 -0.29203002432E+02  0.90790650431E+03  0.90838508919E+03  0.00000000000E+00 0. -1.
<mgrwt>
<rscale>  0 0.50392422E+02</rscale>
<asrwt>0</asrwt>
<pdfrwt beam="1">  1        2 0.16076550E+00 0.29483041E+02</pdfrwt>
<pdfrwt beam="2">  1        1 0.33030419E-01 0.86130741E+02</pdfrwt>
<totfact> 0.50124882E+02</totfact>
</mgrwt>
</event>
<event>
 5    1  0.8274494E-003  0.1575250E+03  0.7546771E-02  0.1274235E+00
          2   -1    0    0  502    0  0.00000000000E+00  0.00000000000E+00  0.17607689929E+03  0.17607689929E+03  0.00000000000E+00 0. -1.
         -2   -1    0    0    0  501 -0.00000000000E+00 -0.00000000000E+00 -0.61171584276E+03  0.61171584276E+03  0.00000000000E+00 0.  1.
         25    1    1    2    0    0  0.96814457457E+02  0.99803183947E+02 -0.93813065225E+02  0.20918796788E+03  0.12500000000E+03 0.  0.
          3    1    1    2  502    0 -0.61142545175E+02 -0.15683380899E+03  0.54250366149E+02  0.17685688197E+03  0.00000000000E+00 0. -1.
         -1    1    1    2    0  501 -0.35671912282E+02  0.57030625041E+02 -0.39607624439E+03  0.40174789220E+03  0.00000000000E+00 0.  1.
<mgrwt>
<rscale>  0 0.10293874E+03</rscale>
<asrwt>0</asrwt>
<pdfrwt beam="1">  1        2 0.27088754E-01 0.15752501E+03</pdfrwt>
<pdfrwt beam="2">  1       -2 0.94110129E-01 0.67267953E+02</pdfrwt>
<totfact> 0.19996473E+02</totfact>
</mgrwt>
</event>
<event>
 5    1  0.8274494E-003  0.2714181E+03  0.7546771E-02  0.1140763E+00
          1   -1    0    0  501    0 -0.00000000000E+00  0.00000000000E+00  0.53066426409E+03  0.53066426409E+03  0.00000000000E+00 0. -1.
          2   -1    0    0  502    0  0.00000000000E+00 -0.00000000000E+00 -0.24304045264E+04  0.24304045264E+04  0.00000000000E+00 0. -1.
         25    1    1    2    0    0 -0.19551822469E+03 -0.55713425871E+02 -0.11653183326E+03  0.26558620101E+03  0.12500000000E+03 0.  0.
          2    1    1    2  501    0  0.19732094220E+03  0.21976088620E+03  0.40493295981E+03  0.50119966408E+03  0.00000000000E+00 0. -1.
          1    1    1    2  502    0 -0.18027175165E+01 -0.16404746033E+03 -0.21881413888E+04  0.21942829254E+04  0.00000000000E+00 0. -1.
<mgrwt>
<rscale>  0 0.21101690E+03</rscale>
<asrwt>0</asrwt>
<pdfrwt beam="2">  1        2 0.37390840E+00 0.16405737E+03</pdfrwt>
<pdfrwt beam="1">  1        1 0.81640653E-01 0.27141807E+03</pdfrwt>
<totfact> 0.26646842E+01</totfact>
</mgrwt>
</event>
<event>
 5    1  0.8274494E-003  0.1443506E+03  0.7546771E-02  0.1224199E+00
          2   -1    0    0  502    0  0.00000000000E+00  0.00000000000E+00  0.14720086238E+04  0.14720086238E+04  0.00000000000E+00 0. -1.
         -2   -1    0    0    0  501 -0.00000000000E+00 -0.00000000000E+00 -0.14252300151E+04  0.14252300151E+04  0.00000000000E+00 0.  1.
         25    1    1    2    0    0  0.12752377105E+02 -0.23207084946E+03  0.54155881652E+02  0.26940185933E+03  0.12500000000E+03 0.  0.
          1    1    1    2  502    0 -0.67817415524E+02  0.10033969675E+03  0.13035467326E+04  0.13091605481E+04  0.00000000000E+00 0. -1.
         -1    1    1    2    0  501  0.55065038419E+02  0.13173115271E+03 -0.13109240056E+04  0.13186762314E+04  0.00000000000E+00 0.  1.
<mgrwt>
<rscale>  0 0.13221980E+03</rscale>
<asrwt>0</asrwt>
<pdfrwt beam="1">  1        2 0.22646286E+00 0.12110845E+03</pdfrwt>
<pdfrwt beam="2">  1       -2 0.21926616E+00 0.14435057E+03</pdfrwt>
<totfact> 0.17552656E+00</totfact>
</mgrwt>
</event>
<event>
 5    1  0.8274494E-003  0.1855595E+03  0.7546771E-02  0.1307563E+00
          1   -1    0    0  501    0 -0.00000000000E+00  0.00000000000E+00  0.43641223502E+03  0.43641223502E+03  0.00000000000E+00 0. -1.
          2   -1    0    0  502    0  0.00000000000E+00 -0.00000000000E+00 -0.12958834807E+04  0.12958834807E+04  0.00000000000E+00 0. -1.
         25    1    1    2    0    0 -0.32337071817E+02 -0.15071965027E+03 -0.33233547615E+02  0.20122516711E+03  0.12500000000E+03 0.  0.
          2    1    1    2  501    0 -0.32521273191E+02 -0.26278470045E+02  0.34360384844E+03  0.34613840564E+03  0.00000000000E+00 0. -1.
          1    1    1    2  502    0  0.64858345009E+02  0.17699812031E+03 -0.11698415465E+04  0.11849321430E+04  0.00000000000E+00 0. -1.
<mgrwt>
<rscale>  0 0.88082346E+02</rscale>
<asrwt>0</asrwt>
<pdfrwt beam="2">  1        2 0.19936669E+00 0.18555954E+03</pdfrwt>
<pdfrwt beam="1">  1        1 0.67140345E-01 0.41811376E+02</pdfrwt>
<totfact> 0.13837058E+02</totfact>
</mgrwt>
</event>
<event>
 5    1  0.8274494E-003  0.4751605E+02  0.7546771E-02  0.1548268E+00
          2   -1    0    0  502    0  0.00000000000E+00  0.00000000000E+00  0.10794283960E+04  0.10794283960E+04  0.00000000000E+00 0. -1.
          1   -1    0    0  501    0 -0.00000000000E+00 -0.00000000000E+00 -0.15971318690E+04  0.15971318690E+04  0.00000000000E+00 0. -1.
         25    1    1    2    0    0 -0.26032458107E+01  0.21896423857E+02  0.12652813161E+03  0.17922220385E+03  0.12500000000E+03 0.  0.
          2    1    1    2  501    0  0.11385572878E+02 -0.46194034394E+02 -0.15702443646E+04  0.15709649534E+04  0.00000000000E+00 0. -1.
          1    1    1    2  502    0 -0.87823270678E+01  0.24297610537E+02  0.92601275998E+03  0.92637310777E+03  0.00000000000E+00 0. -1.
<mgrwt>
<rscale>  0 0.35037533E+02</rscale>
<asrwt>0</asrwt>
<pdfrwt beam="1">  1        2 0.16606591E+00 0.25836082E+02</pdfrwt>
<pdfrwt beam="2">  1        1 0.24571259E+00 0.47516055E+02</pdfrwt>
<totfact> 0.27218726E+01</totfact>
</mgrwt>
</event>
<event>
 5    1  0.8274494E-003  0.4041457E+02  0.7546771E-02  0.1513191E+00
          2   -1    0    0  502    0  0.00000000000E+00  0.00000000000E+00  0.31739789591E+02  0.31739789591E+02  0.00000000000E+00 0. -1.
          1   -1    0    0  501    0 -0.00000000000E+00 -0.00000000000E+00 -0.31337431066E+04  0.31337431066E+04  0.00000000000E+00 0. -1.
         25    1    1    2    0    0 -0.39955696244E+02 -0.65172480865E+02 -0.50136366016E+03  0.52233555274E+03  0.12500000000E+03 0.  0.
          2    1    1    2  501    0  0.25027996115E+02  0.28960827627E+02 -0.26035873818E+04  0.26038687342E+04  0.00000000000E+00 0. -1.
          1    1    1    2  502    0  0.14927700129E+02  0.36211653239E+02  0.29477249917E+01  0.39278609243E+02  0.00000000000E+00 0. -1.
<mgrwt>
<rscale>  0 0.39331275E+02</rscale>
<asrwt>0</asrwt>
<pdfrwt beam="1">  1        2 0.48830430E-02 0.40414569E+02</pdfrwt>
<pdfrwt beam="2">  1        1 0.48211448E+00 0.38277018E+02</pdfrwt>
<totfact> 0.15301294E+02</totfact>
</mgrwt>
</event>
<event>
 5    1  0.8274494E-003  0.8088583E+02  0.7546771E-02  0.1330103E+00
          2   -1    0    0  502    0  0.00000000000E+00  0.00000000000E+00  0.10656953051E+04  0.10656953051E+04  0.00000000000E+00 0. -1.
          1   -1    0    0  501    0 -0.00000000000E+00 -0.00000000000E+00 -0.15337439861E+04  0.15337439861E+04  0.00000000000E+00 0. -1.
         25    1    1    2    0    0  0.39042215501E+02 -0.27003299905E+02 -0.60559367060E+02  0.14678525040E+03  0.12500000000E+03 0.  0.
          2    1    1    2  501    0 -0.58091197733E+02 -0.52641733164E+02 -0.14273548161E+04  0.14295060372E+04  0.00000000000E+00 0. -1.
          1    1    1    2  502    0  0.19048982232E+02  0.79645033068E+02  0.10198655021E+04  0.10231480037E+04  0.00000000000E+00 0. -1.
<mgrwt>
<rscale>  0 0.79630555E+02</rscale>
<asrwt>0</asrwt>
<pdfrwt beam="1">  1        2 0.16395313E+00 0.80885826E+02</pdfrwt>
<pdfrwt beam="2">  1        1 0.23596061E+00 0.78394766E+02</pdfrwt>
<totfact> 0.26908123E+01</totfact>
</mgrwt>
</event>
<event>
 5    1  0.8274494E-003  0.6454237E+02  0.7546771E-02  0.1392694E+00
          2   -1    0    0  502    0  0.00000000000E+00  0.00000000000E+00  0.19412978419E+04  0.19412978419E+04  0.00000000000E+00 0. -1.
         -2   -1    0    0    0  501 -0.00000000000E+00 -0.00000000000E+00 -0.23227591259E+02  0.23227591259E+02  0.00000000000E+00 0.  1.
         25    1    1    2    0    0 -0.22872362748E+02  0.65062917698E+02  0.49504160351E+03  0.51521599106E+03  0.12500000000E+03 0.  0.
          1    1    1    2  502    0 -0.34574567568E+02 -0.56313136214E+02  0.13669737500E+04  0.13685699847E+04  0.00000000000E+00 0. -1.
         -1    1    1    2    0  501  0.57446930316E+02 -0.87497814848E+01  0.56054897165E+02  0.80739457361E+02  0.00000000000E+00 0.  1.
<mgrwt>
<rscale>  0 0.61241505E+02</rscale>
<asrwt>0</asrwt>
<pdfrwt beam="1">  1        2 0.29866108E+00 0.64542373E+02</pdfrwt>
<pdfrwt beam="2">  1       -2 0.35734771E-02 0.58109453E+02</pdfrwt>
<totfact> 0.25676240E+03</totfact>
</mgrwt>
</event>
<event>
 5    1  0.8274494E-003  0.7003907E+02  0.7546771E-02  0.1391390E+00
         -2   -1    0    0    0  501 -0.00000000000E+00  0.00000000000E+00  0.52956757403E+02  0.52956757403E+02  0.00000000000E+00 0.  1.
          2   -1    0    0  502    0  0.00000000000E+00 -0.00000000000E+00 -0.19086966924E+04  0.19086966924E+04  0.00000000000E+00 0. -1.
         25    1    1    2    0    0  0.73907989591E+02 -0.56490730542E+02 -0.35162401540E+03  0.38460114635E+03  0.12500000000E+03 0.  0.
          1    1    1    2  502    0 -0.46094292954E+01  0.53914922667E+02 -0.15066868702E+04  0.15076582473E+04  0.00000000000E+00 0. -1.
         -1    1    1    2    0  501 -0.69298560296E+02  0.25758078751E+01  0.25709506191E+01  0.69394056175E+02  0.00000000000E+00 0.  1.
<mgrwt>
<rscale>  0 0.61562380E+02</rscale>
<asrwt>0</asrwt>
<pdfrwt beam="2">  1        2 0.29364559E+00 0.54111604E+02</pdfrwt>
<pdfrwt beam="1">  1       -2 0.81471950E-02 0.70039074E+02</pdfrwt>
<totfact> 0.81917692E+02</totfact>
</mgrwt>
</event>
<event>
 5    1  0.8274494E-003  0.1418955E+03  0.7546771E-02  0.1326115E+00
          1   -1    0    0  501    0 -0.00000000000E+00  0.00000000000E+00  0.72693412116E+03  0.72693412116E+03  0.00000000000E+00 0. -1.
          2   -1    0    0  502    0  0.00000000000E+00 -0.00000000000E+00 -0.75551750407E+03  0.75551750407E+03  0.00000000000E+00 0. -1.
         25    1    1    2    0    0 -0.17694943461E+03  0.51966182933E+02 -0.47328056080E+02  0.22776420146E+03  0.12500000000E+03 0.  0.
          2    1    1    2  501    0  0.43535976775E+02 -0.15723335580E+02  0.62812171976E+03  0.62982497520E+03  0.00000000000E+00 0. -1.
          1    1    1    2  502    0  0.13341345783E+03 -0.36242847352E+02 -0.60937704659E+03  0.62486244856E+03  0.00000000000E+00 0. -1.
<mgrwt>
<rscale>  0 0.81043792E+02</rscale>
<asrwt>0</asrwt>
<pdfrwt beam="2">  1        2 0.11623346E+00 0.14189546E+03</pdfrwt>
<pdfrwt beam="1">  1        1 0.11183602E+00 0.46288277E+02</pdfrwt>
<totfact> 0.15401345E+02</totfact>
</mgrwt>
</event>
<event>
 5    1  0.8274494E-003  0.1071739E+03  0.7546771E-02  0.1293014E+00
          1   -1    0    0  501    0 -0.00000000000E+00  0.00000000000E+00  0.14537397361E+03  0.14537397361E+03  0.00000000000E+00 0. -1.
          2   -1    0    0  502    0  0.00000000000E+00 -0.00000000000E+00 -0.21933774942E+04  0.21933774942E+04  0.00000000000E+00 0. -1.
         25    1    1    2    0    0 -0.17235832972E+03 -0.50866876044E+02 -0.75070669212E+03  0.78197210340E+03  0.12500000000E+03 0.  0.
          2    1    1    2  501    0  0.74072315898E+02  0.36948813658E+02  0.11461584545E+03  0.14138145154E+03  0.00000000000E+00 0. -1.
          1    1    1    2  502    0  0.98286013819E+02  0.13918062385E+02 -0.14119126739E+04  0.14153979128E+04  0.00000000000E+00 0. -1.
<mgrwt>
<rscale>  0 0.94188444E+02</rscale>
<asrwt>0</asrwt>
<pdfrwt beam="2">  1        2 0.33744270E+00 0.10717389E+03</pdfrwt>
<pdfrwt beam="1">  1        1 0.22365226E-01 0.82776342E+02</pdfrwt>
<totfact> 0.19007626E+02</totfact>
</mgrwt>
</event>
<event>
 5    1  0.8274494E-003  0.1018321E+03  0.7546771E-02  0.1420913E+00
          2   -1    0    0  502    0  0.00000000000E+00  0.00000000000E+00  0.94175703578E+03  0.94175703578E+03  0.00000000000E+00 0. -1.
          1   -1    0    0  501    0 -0.00000000000E+00 -0.00000000000E+00 -0.45149244464E+03  0.45149244464E+03  0.00000000000E+00 0. -1.
         25    1    1    2    0    0 -0.49627586533E+02  0.11541019391E+03 -0.98986793512E+02  0.20299210697E+03  0.12500000000E+03 0.  0.
          2    1    1    2  501    0  0.29688152490E+02 -0.93641403542E+02 -0.29222100778E+03  0.30829079818E+03  0.00000000000E+00 0. -1.
          1    1    1    2  502    0  0.19939434043E+02 -0.21768790365E+02  0.88147239243E+03  0.88196657526E+03  0.00000000000E+00 0. -1.
<mgrwt>
<rscale>  0 0.54828244E+02</rscale>
<asrwt>0</asrwt>
<pdfrwt beam="1">  1        2 0.14488570E+00 0.29520523E+02</pdfrwt>
<pdfrwt beam="2">  1        1 0.69460376E-01 0.10183208E+03</pdfrwt>
<totfact> 0.22891696E+02</totfact>
</mgrwt>
</event>
<event>
 5    1  0.8274494E-003  0.1125611E+03  0.7546771E-02  0.1432337E+00
          1   -1    0    0  501    0 -0.00000000000E+00  0.00000000000E+00  0.20461443050E+03  0.20461443050E+03  0.00000000000E+00 0. -1.
          2   -1    0    0  502    0  0.00000000000E+00 -0.00000000000E+00 -0.25047921274E+04  0.25047921274E+04  0.00000000000E+00 0. -1.
         25    1    1    2    0    0 -0.10398186615E+03  0.32660778053E+01 -0.26203093930E+02  0.16472552287E+03  0.12500000000E+03 0.  0.
          2    1    1    2  501    0 -0.54737311171E+01  0.23861143298E+02  0.13291525495E+03  0.13515095593E+03  0.00000000000E+00 0. -1.
          1    1    1    2  502    0  0.10945559727E+03 -0.27127221103E+02 -0.24068898580E+04  0.24095300791E+04  0.00000000000E+00 0. -1.
<mgrwt>
<rscale>  0 0.52493810E+02</rscale>
<asrwt>0</asrwt>
<pdfrwt beam="2">  1        2 0.38535265E+00 0.11256109E+03</pdfrwt>
<pdfrwt beam="1">  1        1 0.31479142E-01 0.24480929E+02</pdfrwt>
<totfact> 0.82884676E+01</totfact>
</mgrwt>
</event>
<event>
 5    1  0.8274494E-003  0.1020297E+03  0.7546771E-02  0.1426811E+00
          1   -1    0    0  501    0 -0.00000000000E+00  0.00000000000E+00  0.82780326159E+02  0.82780326159E+02  0.00000000000E+00 0. -1.
          2   -1    0    0  502    0  0.00000000000E+00 -0.00000000000E+00 -0.13264924653E+04  0.13264924653E+04  0.00000000000E+00 0. -1.
         25    1    1    2    0    0 -0.37307717311E+02 -0.68165643019E+02 -0.17632031631E+03  0.22967863332E+03  0.12500000000E+03 0.  0.
          2    1    1    2  501    0 -0.21962169092E+02 -0.17631246736E+02  0.49978942315E+02  0.57368043435E+02  0.00000000000E+00 0. -1.
          3    1    1    2  502    0  0.59269886403E+02  0.85796889755E+02 -0.11173707652E+04  0.11222261147E+04  0.00000000000E+00 0. -1.
<mgrwt>
<rscale>  0 0.53605429E+02</rscale>
<asrwt>0</asrwt>
<pdfrwt beam="2">  1        2 0.20407576E+00 0.10202975E+03</pdfrwt>
<pdfrwt beam="1">  1        1 0.12735435E-01 0.28163766E+02</pdfrwt>
<totfact> 0.10045968E+03</totfact>
</mgrwt>
</event>
<event>
 5    1  0.8274494E-003  0.1243394E+03  0.7546771E-02  0.1383469E+00
          1   -1    0    0  501    0 -0.00000000000E+00  0.00000000000E+00  0.12102806937E+04  0.12102806937E+04  0.00000000000E+00 0. -1.
          2   -1    0    0  502    0  0.00000000000E+00 -0.00000000000E+00 -0.34801088107E+03  0.34801088107E+03  0.00000000000E+00 0. -1.
         25    1    1    2    0    0 -0.83607138051E+02 -0.85508980489E+02  0.11380130105E+03  0.20706925266E+03  0.12500000000E+03 0.  0.
          2    1    1    2  501    0  0.10762337770E+03  0.63624794015E+02  0.10452333893E+04  0.10526840665E+04  0.00000000000E+00 0. -1.
          1    1    1    2  502    0 -0.24016239648E+02  0.21884186474E+02 -0.29676487772E+03  0.29853825556E+03  0.00000000000E+00 0. -1.
<mgrwt>
<rscale>  0 0.63560774E+02</rscale>
<asrwt>0</asrwt>
<pdfrwt beam="2">  1        2 0.53540136E-01 0.32491497E+02</pdfrwt>
<pdfrwt beam="1">  1        1 0.18619703E+00 0.12433936E+03</pdfrwt>
<totfact> 0.15131474E+02</totfact>
</mgrwt>
</event>
<event>
 5    1  0.8274494E-003  0.6553359E+02  0.7546771E-02  0.1417030E+00
          1   -1    0    0  502    0  0.00000000000E+00  0.00000000000E+00  0.13081793153E+04  0.13081793153E+04  0.00000000000E+00 0. -1.
         -1   -1    0    0    0  501 -0.00000000000E+00 -0.00000000000E+00 -0.54986389760E+02  0.54986389760E+02  0.00000000000E+00 0.  1.
         25    1    1    2    0    0  0.26753743498E+02 -0.24903979454E+02  0.23038540220E+03  0.26464769889E+03  0.12500000000E+03 0.  0.
          2    1    1    2  502    0 -0.15621782760E+02 -0.44607824160E+02  0.10269137285E+04  0.10280008287E+04  0.00000000000E+00 0. -1.
         -2    1    1    2    0  501 -0.11131960737E+02  0.69511803614E+02 -0.41062051722E+01  0.70517177429E+02  0.00000000000E+00 0.  1.
<mgrwt>
<rscale>  0 0.55654185E+02</rscale>
<asrwt>0</asrwt>
<pdfrwt beam="1">  1        1 0.20125833E+00 0.47264131E+02</pdfrwt>
<pdfrwt beam="2">  1       -1 0.84594455E-02 0.65533593E+02</pdfrwt>
<totfact> 0.80151846E+02</totfact>
</mgrwt>
</event>
<event>
 5    1  0.8274494E-003  0.1576447E+03  0.7546771E-02  0.1364819E+00
          2   -1    0    0  502    0  0.00000000000E+00  0.00000000000E+00  0.92920602509E+03  0.92920602509E+03  0.00000000000E+00 0. -1.
          1   -1    0    0  501    0 -0.00000000000E+00 -0.00000000000E+00 -0.25435447865E+03  0.25435447865E+03  0.00000000000E+00 0. -1.
         25    1    1    2    0    0 -0.16436118868E+03 -0.14375808459E+02  0.26994916406E+03  0.34017468364E+03  0.12500000000E+03 0.  0.
          2    1    1    2  501    0  0.15652250801E+03 -0.14454196593E+02 -0.19064441332E+03  0.24709008812E+03  0.00000000000E+00 0. -1.
          3    1    1    2  502    0  0.78386806677E+01  0.28830005052E+02  0.59554679571E+03  0.59629573198E+03  0.00000000000E+00 0. -1.
<mgrwt>
<rscale>  0 0.68628668E+02</rscale>
<asrwt>0</asrwt>
<pdfrwt beam="1">  1        2 0.14295477E+00 0.29876648E+02</pdfrwt>
<pdfrwt beam="2">  1        1 0.39131459E-01 0.15764466E+03</pdfrwt>
<totfact> 0.47400256E+02</totfact>
</mgrwt>
</event>
<event>
 5    1  0.8274494E-003  0.9253833E+02  0.7546771E-02  0.1405988E+00
          2   -1    0    0  502    0  0.00000000000E+00  0.00000000000E+00  0.22568964879E+03  0.22568964879E+03  0.00000000000E+00 0. -1.
          1   -1    0    0  501    0 -0.00000000000E+00 -0.00000000000E+00 -0.26084475204E+03  0.26084475204E+03  0.00000000000E+00 0. -1.
         25    1    1    2    0    0  0.12036777961E+03  0.26530521298E+02  0.10128276567E+02  0.17584041889E+03  0.12500000000E+03 0.  0.
          2    1    1    2  501    0 -0.34388693463E+02 -0.12163277689E+02 -0.16141545619E+03  0.16548557961E+03  0.00000000000E+00 0. -1.
          1    1    1    2  502    0 -0.85979086149E+02 -0.14367243609E+02  0.11613207638E+03  0.14520840233E+03  0.00000000000E+00 0. -1.
<mgrwt>
<rscale>  0 0.58098751E+02</rscale>
<asrwt>0</asrwt>
<pdfrwt beam="1">  1        2 0.34721485E-01 0.92538328E+02</pdfrwt>
<pdfrwt beam="2">  1        1 0.40129962E-01 0.36476397E+02</pdfrwt>
<totfact> 0.20530694E+03</totfact>
</mgrwt>
</event>
<event>
 5    1  0.8274494E-003  0.1840514E+03  0.7546771E-02  0.1197806E+00
          2   -1    0    0  502    0  0.00000000000E+00  0.00000000000E+00  0.19616286210E+04  0.19616286210E+04  0.00000000000E+00 0. -1.
          1   -1    0    0  501    0 -0.00000000000E+00 -0.00000000000E+00 -0.65666980929E+03  0.65666980929E+03  0.00000000000E+00 0. -1.
         25    1    1    2    0    0 -0.23864787460E+03 -0.56253526887E+02  0.25493088872E+03  0.37514267334E+03  0.12500000000E+03 0.  0.
          2    1    1    2  501    0  0.13324368185E+03  0.12500789727E+03 -0.58009278428E+03  0.60818458670E+03  0.00000000000E+00 0. -1.
          1    1    1    2  502    0  0.10540419275E+03 -0.68754370379E+02  0.16301207073E+04  0.16349711702E+04  0.00000000000E+00 0. -1.
<mgrwt>
<rscale>  0 0.15219107E+03</rscale>
<asrwt>0</asrwt>
<pdfrwt beam="1">  1        2 0.30178902E+00 0.12584597E+03</pdfrwt>
<pdfrwt beam="2">  1        1 0.10102613E+00 0.18405136E+03</pdfrwt>
<totfact> 0.36309043E+01</totfact>
</mgrwt>
</event>
<event>
 5    1  0.8274494E-003  0.4768600E+02  0.7546771E-02  0.1477836E+00
          1   -1    0    0  501    0 -0.00000000000E+00  0.00000000000E+00  0.22091005681E+03  0.22091005681E+03  0.00000000000E+00 0. -1.
          2   -1    0    0  502    0  0.00000000000E+00 -0.00000000000E+00 -0.13976599653E+04  0.13976599653E+04  0.00000000000E+00 0. -1.
         25    1    1    2    0    0  0.36953729849E+02  0.59189174773E+02 -0.38589072028E+03  0.41158909674E+03  0.12500000000E+03 0.  0.
          2    1    1    2  501    0  0.27988648214E+01 -0.47539683597E+02  0.20489959096E+03  0.21036087454E+03  0.00000000000E+00 0. -1.
          1    1    1    2  502    0 -0.39752594670E+02 -0.11649491176E+02 -0.99575877919E+03  0.99662005085E+03  0.00000000000E+00 0. -1.
<mgrwt>
<rscale>  0 0.44445057E+02</rscale>
<asrwt>0</asrwt>
<pdfrwt beam="2">  1        2 0.21502461E+00 0.41424382E+02</pdfrwt>
<pdfrwt beam="1">  1        1 0.33986163E-01 0.47686001E+02</pdfrwt>
<totfact> 0.30828440E+02</totfact>
</mgrwt>
</event>
<event>
 5    1  0.8274494E-003  0.4785273E+02  0.7546771E-02  0.1501477E+00
          1   -1    0    0  501    0 -0.00000000000E+00  0.00000000000E+00  0.53118996614E+02  0.53118996614E+02  0.00000000000E+00 0. -1.
          2   -1    0    0  502    0  0.00000000000E+00 -0.00000000000E+00 -0.14508249714E+04  0.14508249714E+04  0.00000000000E+00 0. -1.
         25    1    1    2    0    0  0.26124014746E+01  0.39883035507E+02 -0.49286347404E+03  0.51003616069E+03  0.12500000000E+03 0.  0.
          2    1    1    2  501    0 -0.34906409383E+02 -0.26753956366E+01  0.36907354344E+02  0.50870108733E+02  0.00000000000E+00 0. -1.
          1    1    1    2  502    0  0.32294007908E+02 -0.37207639870E+02 -0.94174985511E+03  0.94303769862E+03  0.00000000000E+00 0. -1.
<mgrwt>
<rscale>  0 0.40930016E+02</rscale>
<asrwt>0</asrwt>
<pdfrwt beam="2">  1        2 0.22320379E+00 0.47852734E+02</pdfrwt>
<pdfrwt beam="1">  1        1 0.81721554E-02 0.35008787E+02</pdfrwt>
<totfact> 0.16381393E+03</totfact>
</mgrwt>
</event>
<event>
 5    1  0.8274494E-003  0.7378528E+02  0.7546771E-02  0.1431036E+00
          2   -1    0    0  502    0  0.00000000000E+00  0.00000000000E+00  0.98354176054E+03  0.98354176054E+03  0.00000000000E+00 0. -1.
          1   -1    0    0  501    0 -0.00000000000E+00 -0.00000000000E+00 -0.53942577547E+03  0.53942577547E+03  0.00000000000E+00 0. -1.
         25    1    1    2    0    0  0.12954825117E+02 -0.89144150761E+02  0.63694507515E+03  0.65531560020E+03  0.12500000000E+03 0.  0.
          2    1    1    2  501    0  0.23008309339E+02  0.29884093475E+02 -0.52599790410E+03  0.52734830658E+03  0.00000000000E+00 0. -1.
          1    1    1    2  502    0 -0.35963134456E+02  0.59260057285E+02  0.33316881402E+03  0.34030362922E+03  0.00000000000E+00 0. -1.
<mgrwt>
<rscale>  0 0.52752551E+02</rscale>
<asrwt>0</asrwt>
<pdfrwt beam="1">  1        2 0.15131412E+00 0.73785284E+02</pdfrwt>
<pdfrwt beam="2">  1        1 0.82988581E-01 0.37715267E+02</pdfrwt>
<totfact> 0.16882364E+02</totfact>
</mgrwt>
</event>
<event>
 5    1  0.8274494E-003  0.1312320E+03  0.7546771E-02  0.1438471E+00
         -2   -1    0    0    0  501 -0.00000000000E+00  0.00000000000E+00  0.13776358057E+03  0.13776358057E+03  0.00000000000E+00 0.  1.
          2   -1    0    0  502    0  0.00000000000E+00 -0.00000000000E+00 -0.46371326412E+03  0.46371326412E+03  0.00000000000E+00 0. -1.
         25    1    1    2    0    0 -0.53265365353E+02  0.12245114284E+03 -0.14161558347E+03  0.23132543097E+03  0.12500000000E+03 0.  0.
          1    1    1    2  502    0  0.19624581319E+02  0.41135554552E+01 -0.23044180306E+03  0.23131249454E+03  0.00000000000E+00 0. -1.
         -1    1    1    2    0  501  0.33640784034E+02 -0.12656469830E+03  0.46107702986E+02  0.13883891918E+03  0.00000000000E+00 0.  1.
<mgrwt>
<rscale>  0 0.51296620E+02</rscale>
<asrwt>0</asrwt>
<pdfrwt beam="2">  1        2 0.71340501E-01 0.20051073E+02</pdfrwt>
<pdfrwt beam="1">  1       -2 0.21194397E-01 0.13123204E+03</pdfrwt>
<totfact> 0.12927035E+03</totfact>
</mgrwt>
</event>
<event>
 5    1  0.8274494E-003  0.4289595E+02  0.7546771E-02  0.1519613E+00
          1   -1    0    0  501    0 -0.00000000000E+00  0.00000000000E+00  0.67639869298E+03  0.67639869298E+03  0.00000000000E+00 0. -1.
          2   -1    0    0  502    0  0.00000000000E+00 -0.00000000000E+00 -0.20051118867E+04  0.20051118867E+04  0.00000000000E+00 0. -1.
         25    1    1    2    0    0 -0.38512623911E+02  0.24852989230E+02 -0.23516951832E+03  0.27024173553E+03  0.12500000000E+03 0.  0.
          2    1    1    2  501    0  0.29878272243E+02  0.17328823185E+02  0.65814518730E+03  0.65905089852E+03  0.00000000000E+00 0. -1.
          1    1    1    2  502    0  0.86343516676E+01 -0.42181812415E+02 -0.17516888627E+04  0.17522179456E+04  0.00000000000E+00 0. -1.
<mgrwt>
<rscale>  0 0.38491797E+02</rscale>
<asrwt>0</asrwt>
<pdfrwt beam="2">  1        2 0.30847874E+00 0.42895950E+02</pdfrwt>
<pdfrwt beam="1">  1        1 0.10406134E+00 0.34539821E+02</pdfrwt>
<totfact> 0.39917416E+01</totfact>
</mgrwt>
</event>
<event>
 5    1  0.8274494E-003  0.1056999E+03  0.7546771E-02  0.1310340E+00
          2   -1    0    0  502    0  0.00000000000E+00  0.00000000000E+00  0.26178439426E+03  0.26178439426E+03  0.00000000000E+00 0. -1.
          1   -1    0    0  501    0 -0.00000000000E+00 -0.00000000000E+00 -0.32608194359E+03  0.32608194359E+03  0.00000000000E+00 0. -1.
         25    1    1    2    0    0 -0.14260237828E+02 -0.56038513802E+02  0.14506815363E+02  0.13848868944E+03  0.12500000000E+03 0.  0.
          2    1    1    2  501    0  0.81141752593E+02  0.81521710125E+02 -0.24377641729E+03  0.26954909546E+03  0.00000000000E+00 0. -1.
          1    1    1    2  502    0 -0.66881514765E+02 -0.25483196323E+02  0.16497205260E+03  0.17982855294E+03  0.00000000000E+00 0. -1.
<mgrwt>
<rscale>  0 0.86977813E+02</rscale>
<asrwt>0</asrwt>
<pdfrwt beam="1">  1        2 0.40274522E-01 0.71571854E+02</pdfrwt>
<pdfrwt beam="2">  1        1 0.50166453E-01 0.10569993E+03</pdfrwt>
<totfact> 0.13443010E+03</totfact>
</mgrwt>
</event>
<event>
 5    1  0.8274494E-003  0.6915503E+02  0.7546771E-02  0.1408817E+00
          2   -1    0    0  502    0  0.00000000000E+00  0.00000000000E+00  0.35709052953E+03  0.35709052953E+03  0.00000000000E+00 0. -1.
          1   -1    0    0  501    0 -0.00000000000E+00 -0.00000000000E+00 -0.20642102298E+04  0.20642102298E+04  0.00000000000E+00 0. -1.
         25    1    1    2    0    0 -0.75732020122E+01 -0.80058965557E+02 -0.23193896755E+03  0.27547681576E+03  0.12500000000E+03 0.  0.
          2    1    1    2  501    0  0.43052006509E+02  0.20631638982E+02 -0.18066121814E+04  0.18072428486E+04  0.00000000000E+00 0. -1.
          1    1    1    2  502    0 -0.35478804497E+02  0.59427326575E+02  0.33143144867E+03  0.33858109499E+03  0.00000000000E+00 0. -1.
<mgrwt>
<rscale>  0 0.57458546E+02</rscale>
<asrwt>0</asrwt>
<pdfrwt beam="1">  1        2 0.54937005E-01 0.69155032E+02</pdfrwt>
<pdfrwt beam="2">  1        1 0.31757080E+00 0.47740337E+02</pdfrwt>
<totfact> 0.47229208E+01</totfact>
</mgrwt>
</event>
<event>
 5    1  0.8274494E-003  0.1124077E+03  0.7546771E-02  0.1372129E+00
         -2   -1    0    0    0  501 -0.00000000000E+00  0.00000000000E+00  0.15161955352E+04  0.15161955352E+04  0.00000000000E+00 0.  1.
          2   -1    0    0  502    0  0.00000000000E+00 -0.00000000000E+00 -0.61680762456E+02  0.61680762456E+02  0.00000000000E+00 0. -1.
         25    1    1    2    0    0  0.11023079907E+03 -0.55535458412E+02  0.79881039115E+03  0.81789856169E+03  0.12500000000E+03 0.  0.
          1    1    1    2  502    0 -0.32896699188E+02 -0.21746193485E+02 -0.39743932851E+02  0.55988123267E+02  0.00000000000E+00 0. -1.
         -1    1    1    2    0  501 -0.77334099878E+02  0.77281651897E+02  0.69544831441E+03  0.70398961266E+03  0.00000000000E+00 0.  1.
<mgrwt>
<rscale>  0 0.66578931E+02</rscale>
<asrwt>0</asrwt>
<pdfrwt beam="2">  1        2 0.94893492E-02 0.39434626E+02</pdfrwt>
<pdfrwt beam="1">  1       -2 0.23326082E+00 0.11240766E+03</pdfrwt>
<totfact> 0.58551256E+01</totfact>
</mgrwt>
</event>
<event>
 5    1  0.8274494E-003  0.9078078E+02  0.7546771E-02  0.1488099E+00
          1   -1    0    0  501    0 -0.00000000000E+00  0.00000000000E+00  0.16906577109E+04  0.16906577109E+04  0.00000000000E+00 0. -1.
          2   -1    0    0  502    0  0.00000000000E+00 -0.00000000000E+00 -0.12560751601E+04  0.12560751601E+04  0.00000000000E+00 0. -1.
         25    1    1    2    0    0 -0.76372881887E+02  0.60798910637E+02  0.42506081631E+03  0.45368603922E+03  0.12500000000E+03 0.  0.
          2    1    1    2  501    0  0.18198200994E+02  0.88684088340E+01  0.12495436892E+04  0.12497076676E+04  0.00000000000E+00 0. -1.
          1    1    1    2  502    0  0.58174680893E+02 -0.69667319471E+02 -0.12400219548E+04  0.12433391642E+04  0.00000000000E+00 0. -1.
<mgrwt>
<rscale>  0 0.42869271E+02</rscale>
<asrwt>0</asrwt>
<pdfrwt beam="2">  1        2 0.19324233E+00 0.90780782E+02</pdfrwt>
<pdfrwt beam="1">  1        1 0.26010119E+00 0.20244090E+02</pdfrwt>
<totfact> 0.19688124E+01</totfact>
</mgrwt>
</event>
<event>
 5    1  0.8274494E-003  0.4920198E+02  0.7546771E-02  0.1533366E+00
          2   -1    0    0  502    0  0.00000000000E+00  0.00000000000E+00  0.32147915255E+03  0.32147915255E+03  0.00000000000E+00 0. -1.
          1   -1    0    0  501    0 -0.00000000000E+00 -0.00000000000E+00 -0.73057091664E+03  0.73057091664E+03  0.00000000000E+00 0. -1.
         25    1    1    2    0    0  0.63121141980E+02  0.99494977333E+01  0.98754911555E+01  0.14073306788E+03  0.12500000000E+03 0.  0.
          2    1    1    2  501    0 -0.15893287175E+02 -0.22429078664E+02 -0.66243096938E+03  0.66300109302E+03  0.00000000000E+00 0. -1.
          1    1    1    2  502    0 -0.47227854804E+02  0.12479580931E+02  0.24346371413E+03  0.24831590829E+03  0.00000000000E+00 0. -1.
<mgrwt>
<rscale>  0 0.36776715E+02</rscale>
<asrwt>0</asrwt>
<pdfrwt beam="1">  1        2 0.49458332E-01 0.49201984E+02</pdfrwt>
<pdfrwt beam="2">  1        1 0.11239552E+00 0.27489273E+02</pdfrwt>
<totfact> 0.40275271E+02</totfact>
</mgrwt>
</event>
<event>
 5    1  0.8274494E-003  0.4515710E+02  0.7546771E-02  0.1522585E+00
         -2   -1    0    0    0  501 -0.00000000000E+00  0.00000000000E+00  0.16768538085E+02  0.16768538085E+02  0.00000000000E+00 0.  1.
          2   -1    0    0  502    0  0.00000000000E+00 -0.00000000000E+00 -0.23479605269E+04  0.23479605269E+04  0.00000000000E+00 0. -1.
         25    1    1    2    0    0 -0.26918729569E+02  0.20953483803E+02 -0.60873366422E+03  0.62237074195E+03  0.12500000000E+03 0.  0.
          1    1    1    2  502    0  0.19669178505E+02  0.25451030369E+02 -0.16759553292E+04  0.16762639699E+04  0.00000000000E+00 0. -1.
         -1    1    1    2    0  501  0.72495510639E+01 -0.46404514171E+02 -0.46502995387E+02  0.66094353057E+02  0.00000000000E+00 0.  1.
<mgrwt>
<rscale>  0 0.38111797E+02</rscale>
<asrwt>0</asrwt>
<pdfrwt beam="2">  1        2 0.36122490E+00 0.32165689E+02</pdfrwt>
<pdfrwt beam="1">  1       -2 0.25797737E-02 0.45157095E+02</pdfrwt>
<totfact> 0.27332554E+03</totfact>
</mgrwt>
</event>
<event>
 5    1  0.8274494E-003  0.8684426E+02  0.7546771E-02  0.1443121E+00
          2   -1    0    0  502    0  0.00000000000E+00  0.00000000000E+00  0.10920444944E+03  0.10920444944E+03  0.00000000000E+00 0. -1.
         -2   -1    0    0    0  501 -0.00000000000E+00 -0.00000000000E+00 -0.40533914023E+03  0.40533914023E+03  0.00000000000E+00 0.  1.
         25    1    1    2    0    0  0.23462222528E+02  0.75533491274E+02 -0.16784613600E+03  0.22372552282E+03  0.12500000000E+03 0.  0.
          1    1    1    2  502    0 -0.25041953503E+02  0.15145700665E+02  0.68306576904E+02  0.74312045674E+02  0.00000000000E+00 0. -1.
         -1    1    1    2    0  501  0.15797309749E+01 -0.90679191939E+02 -0.19659513169E+03  0.21650602117E+03  0.00000000000E+00 0.  1.
<mgrwt>
<rscale>  0 0.50414022E+02</rscale>
<asrwt>0</asrwt>
<pdfrwt beam="1">  1        2 0.16800684E-01 0.29265879E+02</pdfrwt>
<pdfrwt beam="2">  1       -2 0.62359868E-01 0.86844260E+02</pdfrwt>
<totfact> 0.76022163E+02</totfact>
</mgrwt>
</event>
<event>
 5    1  0.8274494E-003  0.4031796E+02  0.7546771E-02  0.1561726E+00
         -2   -1    0    0    0  501 -0.00000000000E+00  0.00000000000E+00  0.13805711560E+03  0.13805711560E+03  0.00000000000E+00 0.  1.
          2   -1    0    0  502    0  0.00000000000E+00 -0.00000000000E+00 -0.90311351662E+02  0.90311351662E+02  0.00000000000E+00 0. -1.
         25    1    1    2    0    0 -0.19497511593E+02 -0.62381895213E+00  0.67950161137E+01  0.12669536042E+03  0.12500000000E+03 0.  0.
          1    1    1    2  502    0  0.46311261280E+02 -0.72402111688E+01 -0.57762241124E+01  0.47228363767E+02  0.00000000000E+00 0. -1.
         -1    1    1    2    0  501 -0.26813749687E+02  0.78640301209E+01  0.46726971937E+02  0.54444743074E+02  0.00000000000E+00 0.  1.
<mgrwt>
<rscale>  0 0.33565028E+02</rscale>
<asrwt>0</asrwt>
<pdfrwt beam="2">  1        2 0.13894054E-01 0.40317958E+02</pdfrwt>
<pdfrwt beam="1">  1       -2 0.21239556E-01 0.27943159E+02</pdfrwt>
<totfact> 0.66741337E+03</totfact>
</mgrwt>
</event>
<event>
 5    1  0.8274494E-003  0.8890245E+02  0.7546771E-02  0.1402239E+00
          1   -1    0    0  501    0 -0.00000000000E+00  0.00000000000E+00  0.11679237842E+04  0.11679237842E+04  0.00000000000E+00 0. -1.
          2   -1    0    0  502    0  0.00000000000E+00 -0.00000000000E+00 -0.11084331609E+04  0.11084331609E+04  0.00000000000E+00 0. -1.
         25    1    1    2    0    0  0.46116592831E+02 -0.24988791541E+02 -0.68197433828E+02  0.15174672918E+03  0.12500000000E+03 0.  0.
          2    1    1    2  501    0  0.28062250662E+02 -0.27234735270E+02  0.11237477112E+04  0.11244279164E+04  0.00000000000E+00 0. -1.
          1    1    1    2  502    0 -0.74178843494E+02  0.52223526810E+02 -0.99605965414E+03  0.10001822995E+04  0.00000000000E+00 0. -1.
<mgrwt>
<rscale>  0 0.58962299E+02</rscale>
<asrwt>0</asrwt>
<pdfrwt beam="2">  1        2 0.17052818E+00 0.88902450E+02</pdfrwt>
<pdfrwt beam="1">  1        1 0.17968058E+00 0.39105252E+02</pdfrwt>
<totfact> 0.46262024E+01</totfact>
</mgrwt>
</event>
<event>
 5    1  0.8274494E-003  0.4768582E+02  0.7546771E-02  0.1463436E+00
         -1   -1    0    0    0  501 -0.00000000000E+00  0.00000000000E+00  0.25501307065E+03  0.25501307065E+03  0.00000000000E+00 0.  1.
          1   -1    0    0  502    0  0.00000000000E+00 -0.00000000000E+00 -0.14241801230E+04  0.14241801230E+04  0.00000000000E+00 0. -1.
         25    1    1    2    0    0  0.74955712355E+02 -0.16750319326E+00  0.83065132924E+02  0.16775936093E+03  0.12500000000E+03 0.  0.
          2    1    1    2  502    0 -0.37361962294E+02 -0.26699350535E+02 -0.13773195087E+04  0.13780848307E+04  0.00000000000E+00 0. -1.
         -2    1    1    2    0  501 -0.37593750061E+02  0.26866853728E+02  0.12508732340E+03  0.13334900205E+03  0.00000000000E+00 0.  1.
<mgrwt>
<rscale>  0 0.46795275E+02</rscale>
<asrwt>0</asrwt>
<pdfrwt beam="2">  1        1 0.21910463E+00 0.45921363E+02</pdfrwt>
<pdfrwt beam="1">  1       -1 0.39232781E-01 0.47685818E+02</pdfrwt>
<totfact> 0.60644537E+01</totfact>
</mgrwt>
</event>
<event>
 5    1  0.8274494E-003  0.5143846E+02  0.7546771E-02  0.1464052E+00
          2   -1    0    0  502    0  0.00000000000E+00  0.00000000000E+00  0.21772577042E+04  0.21772577042E+04  0.00000000000E+00 0. -1.
         -2   -1    0    0    0  501 -0.00000000000E+00 -0.00000000000E+00 -0.29539723295E+03  0.29539723295E+03  0.00000000000E+00 0.  1.
         25    1    1    2    0    0  0.83165629865E+02 -0.40787098981E+02  0.21391505292E+03  0.26450852406E+03  0.12500000000E+03 0.  0.
          1    1    1    2  502    0 -0.47851382213E+02  0.17353205854E+02  0.19360467833E+04  0.19367157860E+04  0.00000000000E+00 0. -1.
         -1    1    1    2    0  501 -0.35314247651E+02  0.23433893127E+02 -0.26810136497E+03  0.27143062711E+03  0.00000000000E+00 0.  1.
<mgrwt>
<rscale>  0 0.46691225E+02</rscale>
<asrwt>0</asrwt>
<pdfrwt beam="1">  1        2 0.33496271E+00 0.51438459E+02</pdfrwt>
<pdfrwt beam="2">  1       -2 0.45445730E-01 0.42382112E+02</pdfrwt>
<totfact> 0.33923105E+01</totfact>
</mgrwt>
</event>
<event>
 5    1  0.8274494E-003  0.1168261E+03  0.7546771E-02  0.1325587E+00
          2   -1    0    0  502    0  0.00000000000E+00  0.00000000000E+00  0.22553236299E+03  0.22553236299E+03  0.00000000000E+00 0. -1.
          1   -1    0    0  501    0 -0.00000000000E+00 -0.00000000000E+00 -0.32281818693E+03  0.32281818693E+03  0.00000000000E+00 0. -1.
         25    1    1    2    0    0 -0.46646140476E+02 -0.64579188242E+02  0.17661334132E+02  0.14927577398E+03  0.12500000000E+03 0.  0.
          2    1    1    2  501    0  0.10285682773E+03  0.70137749436E+02 -0.23525610048E+03  0.26616585754E+03  0.00000000000E+00 0. -1.
          3    1    1    2  502    0 -0.56210687258E+02 -0.55585611939E+01  0.12030894241E+03  0.13290891839E+03  0.00000000000E+00 0. -1.
<mgrwt>
<rscale>  0 0.81233657E+02</rscale>
<asrwt>0</asrwt>
<pdfrwt beam="1">  1        2 0.34697287E-01 0.56484856E+02</pdfrwt>
<pdfrwt beam="2">  1        1 0.49664336E-01 0.11682613E+03</pdfrwt>
<totfact> 0.15817859E+03</totfact>
</mgrwt>
</event>
<event>
 5    1  0.8274494E-003  0.1957746E+03  0.7546771E-02  0.1383999E+00
         -1   -1    0    0    0  501 -0.00000000000E+00  0.00000000000E+00  0.22716507017E+03  0.22716507017E+03  0.00000000000E+00 0.  1.
          1   -1    0    0  502    0  0.00000000000E+00 -0.00000000000E+00 -0.45077711102E+03  0.45077711102E+03  0.00000000000E+00 0. -1.
         25    1    1    2    0    0  0.97867612883E+02 -0.15852697390E+03 -0.18195859607E+03  0.28886467729E+03  0.12500000000E+03 0.  0.
          2    1    1    2  502    0 -0.88385253504E+01 -0.18549103837E+02 -0.15794926580E+03  0.15928012855E+03  0.00000000000E+00 0. -1.
         -2    1    1    2    0  501 -0.89029087532E+02  0.17707607774E+03  0.11629582102E+03  0.22979737535E+03  0.00000000000E+00 0.  1.
<mgrwt>
<rscale>  0 0.63424185E+02</rscale>
<asrwt>0</asrwt>
<pdfrwt beam="2">  1        1 0.69350324E-01 0.20547233E+02</pdfrwt>
<pdfrwt beam="1">  1       -1 0.34948472E-01 0.19577465E+03</pdfrwt>
<totfact> 0.42667285E+02</totfact>
</mgrwt>
</event>
<event>
 5    1  0.8274494E-003  0.6053531E+02  0.7546771E-02  0.1407347E+00
          1   -1    0    0  501    0 -0.00000000000E+00  0.00000000000E+00  0.27228292461E+04  0.27228292461E+04  0.00000000000E+00 0. -1.
          2   -1    0    0  502    0  0.00000000000E+00 -0.00000000000E+00 -0.32461206132E+03  0.32461206132E+03  0.00000000000E+00 0. -1.
         25    1    1    2    0    0 -0.35287230703E+02 -0.10541310030E+03  0.22445492527E+03  0.27993235583E+03  0.12500000000E+03 0.  0.
          2    1    1    2  501    0  0.43110622185E+01  0.59760922561E+02  0.24677057392E+04  0.24684330188E+04  0.00000000000E+00 0. -1.
          1    1    1    2  502    0  0.30976168484E+02  0.45652177735E+02 -0.29394347966E+03  0.29907593280E+03  0.00000000000E+00 0. -1.
<mgrwt>
<rscale>  0 0.57790023E+02</rscale>
<asrwt>0</asrwt>
<pdfrwt beam="2">  1        2 0.49940319E-01 0.55169234E+02</pdfrwt>
<pdfrwt beam="1">  1        1 0.41889679E+00 0.60535312E+02</pdfrwt>
<totfact> 0.19357733E+01</totfact>
</mgrwt>
</event>
<event>
 5    1  0.8274494E-003  0.5164637E+02  0.7546771E-02  0.1556502E+00
          2   -1    0    0  502    0  0.00000000000E+00  0.00000000000E+00  0.13500585144E+04  0.13500585144E+04  0.00000000000E+00 0. -1.
          1   -1    0    0  501    0 -0.00000000000E+00 -0.00000000000E+00 -0.26376834350E+03  0.26376834350E+03  0.00000000000E+00 0. -1.
         25    1    1    2    0    0 -0.12539648520E+02 -0.36890254616E+02 -0.24707158492E+02  0.13324255083E+03  0.12500000000E+03 0.  0.
          2    1    1    2  501    0  0.17136457582E+02 -0.14656298137E+02 -0.18358669352E+03  0.18496631934E+03  0.00000000000E+00 0. -1.
          1    1    1    2  502    0 -0.45968090622E+01  0.51546552753E+02  0.12945840230E+04  0.12956179878E+04  0.00000000000E+00 0. -1.
<mgrwt>
<rscale>  0 0.34125988E+02</rscale>
<asrwt>0</asrwt>
<pdfrwt beam="1">  1        2 0.20770131E+00 0.51646374E+02</pdfrwt>
<pdfrwt beam="2">  1        1 0.40579746E-01 0.22549174E+02</pdfrwt>
<totfact> 0.25611726E+02</totfact>
</mgrwt>
</event>
<event>
 5    1  0.8274494E-003  0.8678086E+02  0.7546771E-02  0.1373469E+00
         -3   -1    0    0    0  501 -0.00000000000E+00  0.00000000000E+00  0.26440890711E+03  0.26440890711E+03  0.00000000000E+00 0.  1.
          1   -1    0    0  502    0  0.00000000000E+00 -0.00000000000E+00 -0.13636040460E+04  0.13636040460E+04  0.00000000000E+00 0. -1.
         25    1    1    2    0    0 -0.19490938237E+02  0.33031481440E+02  0.23381967382E+01  0.13077248412E+03  0.12500000000E+03 0.  0.
          2    1    1    2  502    0  0.56955775692E+02 -0.66921174541E+02 -0.12946481727E+04  0.12976271788E+04  0.00000000000E+00 0. -1.
         -2    1    1    2    0  501 -0.37464837455E+02  0.33889693101E+02  0.19311483706E+03  0.19961329023E+03  0.00000000000E+00 0.  1.
<mgrwt>
<rscale>  0 0.66212116E+02</rscale>
<asrwt>0</asrwt>
<pdfrwt beam="2">  1        1 0.20978524E+00 0.86780856E+02</pdfrwt>
<pdfrwt beam="1">  1       -3 0.40678293E-01 0.50518564E+02</pdfrwt>
<totfact> 0.29276038E+01</totfact>
</mgrwt>
</event>
<event>
 5    1  0.8274494E-003  0.1278934E+03  0.7546771E-02  0.1276855E+00
          1   -1    0    0  501    0 -0.00000000000E+00  0.00000000000E+00  0.14711867286E+03  0.14711867286E+03  0.00000000000E+00 0. -1.
          2   -1    0    0  502    0  0.00000000000E+00 -0.00000000000E+00 -0.22895861486E+04  0.22895861486E+04  0.00000000000E+00 0. -1.
         25    1    1    2    0    0 -0.79622975339E+02  0.12669607342E+02 -0.22302348845E+03  0.26807613387E+03  0.12500000000E+03 0.  0.
          2    1    1    2  501    0  0.10324866426E+03 -0.89937391183E+02  0.85910801280E+02  0.16164679638E+03  0.00000000000E+00 0. -1.
          3    1    1    2  502    0 -0.23625688922E+02  0.77267783841E+02 -0.20053547885E+04  0.20069818912E+04  0.00000000000E+00 0. -1.
<mgrwt>
<rscale>  0 0.10165462E+03</rscale>
<asrwt>0</asrwt>
<pdfrwt beam="2">  1        2 0.35224402E+00 0.80799032E+02</pdfrwt>
<pdfrwt beam="1">  1        1 0.22633642E-01 0.12789337E+03</pdfrwt>
<totfact> 0.17530149E+02</totfact>
</mgrwt>
</event>
<event>
 5    1  0.8274494E-003  0.2329478E+02  0.7546771E-02  0.1689978E+00
          2   -1    0    0  502    0  0.00000000000E+00  0.00000000000E+00  0.41707721345E+03  0.41707721345E+03  0.00000000000E+00 0. -1.
          1   -1    0    0  501    0 -0.00000000000E+00 -0.00000000000E+00 -0.19503020703E+03  0.19503020703E+03  0.00000000000E+00 0. -1.
         25    1    1    2    0    0  0.18258200792E+02  0.25257459582E+01  0.69875153164E+02  0.14438586606E+03  0.12500000000E+03 0.  0.
          2    1    1    2  501    0 -0.12691587321E+02  0.19683785731E+02 -0.15647929828E+03  0.15822230753E+03  0.00000000000E+00 0. -1.
          1    1    1    2  502    0 -0.55666134711E+01 -0.22209531689E+02  0.30865115154E+03  0.30949924689E+03  0.00000000000E+00 0. -1.
<mgrwt>
<rscale>  0 0.23094790E+02</rscale>
<asrwt>0</asrwt>
<pdfrwt beam="1">  1        2 0.64165725E-01 0.22896517E+02</pdfrwt>
<pdfrwt beam="2">  1        1 0.30004647E-01 0.23294781E+02</pdfrwt>
<totfact> 0.15020695E+03</totfact>
</mgrwt>
</event>
<event>
 5    1  0.8407144E-003  0.1218589E+03  0.7546771E-02  0.1244436E+00
          1   -1    0    0  501    0 -0.00000000000E+00  0.00000000000E+00  0.99359350503E+03  0.99359350503E+03  0.00000000000E+00 0. -1.
          2   -1    0    0  502    0  0.00000000000E+00 -0.00000000000E+00 -0.14562020310E+04  0.14562020310E+04  0.00000000000E+00 0. -1.
         25    1    1    2    0    0  0.26752286062E+02  0.21295406593E+02  0.12707442826E+03  0.18149955776E+03  0.12500000000E+03 0.  0.
          2    1    1    2  501    0 -0.66023672039E+02  0.96086165786E+02  0.83255704683E+03  0.84068002995E+03  0.00000000000E+00 0. -1.
          1    1    1    2  502    0  0.39271385977E+02 -0.11738157238E+03 -0.14222400011E+04  0.14276159483E+04  0.00000000000E+00 0. -1.
<mgrwt>
<rscale>  0 0.11919195E+03</rscale>
<asrwt>0</asrwt>
<pdfrwt beam="2">  1        2 0.22403108E+00 0.12185893E+03</pdfrwt>
<pdfrwt beam="1">  1        1 0.15286054E+00 0.11658335E+03</pdfrwt>
<totfact> 0.35915396E+01</totfact>
</mgrwt>
</event>
<event>
 5    1  0.8274494E-003  0.5811320E+02  0.7546771E-02  0.1409564E+00
          1   -1    0    0  501    0 -0.00000000000E+00  0.00000000000E+00  0.11834334833E+03  0.11834334833E+03  0.00000000000E+00 0. -1.
          2   -1    0    0  502    0  0.00000000000E+00 -0.00000000000E+00 -0.24921125639E+03  0.24921125639E+03  0.00000000000E+00 0. -1.
         25    1    1    2    0    0  0.22634121044E+02 -0.52582742060E+01  0.13571491436E+02  0.12786374882E+03  0.12500000000E+03 0.  0.
          2    1    1    2  501    0 -0.64215401577E+02  0.45855585667E+02  0.52850380535E+01  0.79084032293E+02  0.00000000000E+00 0. -1.
          1    1    1    2  502    0  0.41581280533E+02 -0.40597311461E+02 -0.14972443755E+03  0.16060682360E+03  0.00000000000E+00 0. -1.
<mgrwt>
<rscale>  0 0.57291258E+02</rscale>
<asrwt>0</asrwt>
<pdfrwt beam="2">  1        2 0.38340193E-01 0.58113205E+02</pdfrwt>
<pdfrwt beam="1">  1        1 0.18206669E-01 0.56480936E+02</pdfrwt>
<totfact> 0.48254231E+03</totfact>
</mgrwt>
</event>
<event>
 5    1  0.8274494E-003  0.6606065E+02  0.7546771E-02  0.1374471E+00
          2   -1    0    0  502    0  0.00000000000E+00  0.00000000000E+00  0.11856960380E+03  0.11856960380E+03  0.00000000000E+00 0. -1.
          1   -1    0    0  501    0 -0.00000000000E+00 -0.00000000000E+00 -0.51047015489E+03  0.51047015489E+03  0.00000000000E+00 0. -1.
         25    1    1    2    0    0 -0.11110836254E+02  0.21513766887E+02 -0.11672323116E+03  0.17272986291E+03  0.12500000000E+03 0.  0.
          2    1    1    2  501    0  0.57105267152E+02  0.33211412526E+02 -0.34802878253E+03  0.35424291514E+03  0.00000000000E+00 0. -1.
          1    1    1    2  502    0 -0.45994430899E+02 -0.54725179413E+02  0.72851462598E+02  0.10206698065E+03  0.00000000000E+00 0. -1.
<mgrwt>
<rscale>  0 0.65939778E+02</rscale>
<asrwt>0</asrwt>
<pdfrwt beam="1">  1        2 0.18241477E-01 0.65819127E+02</pdfrwt>
<pdfrwt beam="2">  1        1 0.78533872E-01 0.66060650E+02</pdfrwt>
<totfact> 0.18057519E+03</totfact>
</mgrwt>
</event>
<event>
 5    1  0.8274494E-003  0.1856660E+03  0.7546771E-02  0.1265695E+00
          2   -1    0    0  502    0  0.00000000000E+00  0.00000000000E+00  0.16173006864E+04  0.16173006864E+04  0.00000000000E+00 0. -1.
          1   -1    0    0  501    0 -0.00000000000E+00 -0.00000000000E+00 -0.33793701620E+03  0.33793701620E+03  0.00000000000E+00 0. -1.
         25    1    1    2    0    0 -0.13307675931E+03  0.34537116084E+02  0.24969511881E+03  0.31124731101E+03  0.12500000000E+03 0.  0.
          2    1    1    2  501    0 -0.61829187829E+02 -0.43998245325E+01 -0.29666617883E+03  0.30307264573E+03  0.00000000000E+00 0. -1.
          1    1    1    2  502    0  0.19490594713E+03 -0.30137291551E+02  0.13263347303E+04  0.13409177459E+04  0.00000000000E+00 0. -1.
<mgrwt>
<rscale>  0 0.10727818E+03</rscale>
<asrwt>0</asrwt>
<pdfrwt beam="1">  1        2 0.24881549E+00 0.18566602E+03</pdfrwt>
<pdfrwt beam="2">  1        1 0.51990311E-01 0.61985538E+02</pdfrwt>
<totfact> 0.12678617E+02</totfact>
</mgrwt>
</event>
<event>
 5    1  0.8274494E-003  0.5639943E+02  0.7546771E-02  0.1415721E+00
         -2   -1    0    0    0  501 -0.00000000000E+00  0.00000000000E+00  0.56477360768E+03  0.56477360768E+03  0.00000000000E+00 0.  1.
          2   -1    0    0  502    0  0.00000000000E+00 -0.00000000000E+00 -0.64436507577E+03  0.64436507577E+03  0.00000000000E+00 0. -1.
         25    1    1    2    0    0 -0.39782462170E+02 -0.70714975788E+02 -0.25362542429E+03  0.29416680293E+03  0.12500000000E+03 0.  0.
          1    1    1    2  502    0  0.53139412684E+02  0.15936662035E+02 -0.36691853800E+03  0.37108892183E+03  0.00000000000E+00 0. -1.
         -1    1    1    2    0  501 -0.13356950514E+02  0.54778313753E+02  0.54095249419E+03  0.54388295869E+03  0.00000000000E+00 0.  1.
<mgrwt>
<rscale>  0 0.55936663E+02</rscale>
<asrwt>0</asrwt>
<pdfrwt beam="2">  1        2 0.99133089E-01 0.55477693E+02</pdfrwt>
<pdfrwt beam="1">  1       -2 0.86888247E-01 0.56399431E+02</pdfrwt>
<totfact> 0.60001456E+01</totfact>
</mgrwt>
</event>
<event>
 5    1  0.1264258E-002  0.8646818E+02  0.7546771E-02  0.1348613E+00
          1   -1    0    0  501    0 -0.00000000000E+00  0.00000000000E+00  0.15274077083E+04  0.15274077083E+04  0.00000000000E+00 0. -1.
          2   -1    0    0  502    0  0.00000000000E+00 -0.00000000000E+00 -0.22452997413E+04  0.22452997413E+04  0.00000000000E+00 0. -1.
         25    1    1    2    0    0  0.38430344338E+02  0.12382759138E+03  0.18433387783E+03  0.25770941439E+03  0.12500000000E+03 0.  0.
          2    1    1    2  501    0 -0.49428806836E+02 -0.38183128303E+02  0.13047947762E+04  0.13062888525E+04  0.00000000000E+00 0. -1.
          1    1    1    2  502    0  0.10998462498E+02 -0.85644463077E+02 -0.22070206870E+04  0.22087091826E+04  0.00000000000E+00 0. -1.
<mgrwt>
<rscale>  0 0.73489714E+02</rscale>
<asrwt>0</asrwt>
<pdfrwt beam="2">  1        2 0.34543073E+00 0.86468184E+02</pdfrwt>
<pdfrwt beam="1">  1        1 0.23498580E+00 0.62459253E+02</pdfrwt>
<totfact> 0.68528302E+00</totfact>
</mgrwt>
</event>
<event>
 5    1  0.8274494E-003  0.1060791E+03  0.7546771E-02  0.1432321E+00
          2   -1    0    0  502    0  0.00000000000E+00  0.00000000000E+00  0.88785272141E+02  0.88785272141E+02  0.00000000000E+00 0. -1.
          1   -1    0    0  501    0 -0.00000000000E+00 -0.00000000000E+00 -0.24156534455E+04  0.24156534455E+04  0.00000000000E+00 0. -1.
         25    1    1    2    0    0 -0.11614386881E+03  0.16908617793E+02 -0.14481809023E+04  0.14582963434E+04  0.12500000000E+03 0.  0.
          2    1    1    2  501    0  0.10490085218E+02 -0.23767866713E+02 -0.92868940939E+03  0.92905272859E+03  0.00000000000E+00 0. -1.
          1    1    1    2  502    0  0.10565378359E+03  0.68592489201E+01  0.50002138274E+02  0.11708964564E+03  0.00000000000E+00 0. -1.
<mgrwt>
<rscale>  0 0.52496856E+02</rscale>
<asrwt>0</asrwt>
<pdfrwt beam="1">  1        2 0.13659271E-01 0.10607907E+03</pdfrwt>
<pdfrwt beam="2">  1        1 0.37163903E+00 0.25979865E+02</pdfrwt>
<totfact> 0.14548113E+02</totfact>
</mgrwt>
</event>
<event>
 5    1  0.8274494E-003  0.8876680E+02  0.7546771E-02  0.1420375E+00
          1   -1    0    0  501    0 -0.00000000000E+00  0.00000000000E+00  0.69867107011E+02  0.69867107011E+02  0.00000000000E+00 0. -1.
          2   -1    0    0  502    0  0.00000000000E+00 -0.00000000000E+00 -0.61660152047E+03  0.61660152047E+03  0.00000000000E+00 0. -1.
         25    1    1    2    0    0 -0.64692688003E+02 -0.37410623406E+01 -0.38356048097E+03  0.40858632135E+03  0.12500000000E+03 0.  0.
          2    1    1    2  501    0  0.89023899575E+02 -0.20015889710E+02  0.18457929135E+02  0.93094498680E+02  0.00000000000E+00 0. -1.
          1    1    1    2  502    0 -0.24331211572E+02  0.23756952050E+02 -0.18163186163E+03  0.18478780746E+03  0.00000000000E+00 0. -1.
<mgrwt>
<rscale>  0 0.54941735E+02</rscale>
<asrwt>0</asrwt>
<pdfrwt beam="2">  1        2 0.94861769E-01 0.34005891E+02</pdfrwt>
<pdfrwt beam="1">  1        1 0.10748786E-01 0.88766804E+02</pdfrwt>
<totfact> 0.37989913E+03</totfact>
</mgrwt>
</event>
<event>
 5    1  0.8274494E-003  0.6511986E+02  0.7546771E-02  0.1419474E+00
         -1   -1    0    0    0  501 -0.00000000000E+00  0.00000000000E+00  0.44831989476E+03  0.44831989476E+03  0.00000000000E+00 0.  1.
          1   -1    0    0  502    0  0.00000000000E+00 -0.00000000000E+00 -0.38005321072E+03  0.38005321072E+03  0.00000000000E+00 0. -1.
         25    1    1    2    0    0  0.27873219420E+02  0.76960112219E+02 -0.26493412125E+03  0.30416256153E+03  0.12500000000E+03 0.  0.
          2    1    1    2  502    0 -0.44519760926E+02 -0.14024812978E+02 -0.87142491776E+02  0.98856048702E+02  0.00000000000E+00 0. -1.
         -2    1    1    2    0  501  0.16646541506E+02 -0.62935299241E+02  0.42034329706E+03  0.42535449524E+03  0.00000000000E+00 0.  1.
<mgrwt>
<rscale>  0 0.55132326E+02</rscale>
<asrwt>0</asrwt>
<pdfrwt beam="2">  1        1 0.58469725E-01 0.46676595E+02</pdfrwt>
<pdfrwt beam="1">  1       -1 0.68972292E-01 0.65119862E+02</pdfrwt>
<totfact> 0.15197206E+02</totfact>
</mgrwt>
</event>
<event>
 5    1  0.8274494E-003  0.1028353E+03  0.7546771E-02  0.1321127E+00
          1   -1    0    0  501    0 -0.00000000000E+00  0.00000000000E+00  0.82814544349E+03  0.82814544349E+03  0.00000000000E+00 0. -1.
          2   -1    0    0  502    0  0.00000000000E+00 -0.00000000000E+00 -0.18886081811E+03  0.18886081811E+03  0.00000000000E+00 0. -1.
         25    1    1    2    0    0  0.33175198352E+02  0.69056337780E+02 -0.54620044351E+02  0.15645357400E+03  0.12500000000E+03 0.  0.
          2    1    1    2  501    0 -0.18465524368E+02  0.64159343694E+02  0.72077485300E+03  0.72386033577E+03  0.00000000000E+00 0. -1.
          1    1    1    2  502    0 -0.14709673985E+02 -0.13321568147E+03 -0.26870183274E+02  0.13669235183E+03  0.00000000000E+00 0. -1.
<mgrwt>
<rscale>  0 0.82859328E+02</rscale>
<asrwt>0</asrwt>
<pdfrwt beam="2">  1        2 0.29055511E-01 0.10283528E+03</pdfrwt>
<pdfrwt beam="1">  1        1 0.12740699E+00 0.66763740E+02</pdfrwt>
<totfact> 0.56914704E+02</totfact>
</mgrwt>
</event>
<event>
 5    1  0.8274494E-003  0.8398368E+02  0.7546771E-02  0.1368178E+00
          1   -1    0    0  501    0 -0.00000000000E+00  0.00000000000E+00  0.70180283732E+03  0.70180283732E+03  0.00000000000E+00 0. -1.
          2   -1    0    0  502    0  0.00000000000E+00 -0.00000000000E+00 -0.28716953409E+03  0.28716953409E+03  0.00000000000E+00 0. -1.
         25    1    1    2    0    0 -0.44458523477E+02 -0.40436299078E+01  0.10664331718E+02  0.13316020135E+03  0.12500000000E+03 0.  0.
          2    1    1    2  501    0 -0.37777056937E+02  0.39332233507E+02  0.61978455136E+03  0.62217925128E+03  0.00000000000E+00 0. -1.
          1    1    1    2  502    0  0.82235580415E+02 -0.35288603599E+02 -0.21581557985E+03  0.23363291878E+03  0.00000000000E+00 0. -1.
<mgrwt>
<rscale>  0 0.67676431E+02</rscale>
<asrwt>0</asrwt>
<pdfrwt beam="2">  1        2 0.44179928E-01 0.83983676E+02</pdfrwt>
<pdfrwt beam="1">  1        1 0.10796967E+00 0.54535590E+02</pdfrwt>
<totfact> 0.46585075E+02</totfact>
</mgrwt>
</event>
<event>
 5    1  0.8274494E-003  0.1029771E+03  0.7546771E-02  0.1387741E+00
         -1   -1    0    0    0  501 -0.00000000000E+00  0.00000000000E+00  0.55865315861E+03  0.55865315861E+03  0.00000000000E+00 0.  1.
          1   -1    0    0  502    0  0.00000000000E+00 -0.00000000000E+00 -0.54819228408E+02  0.54819228408E+02  0.00000000000E+00 0. -1.
         25    1    1    2    0    0  0.94285379390E+01  0.10610194003E+03  0.24476730292E+03  0.29475846313E+03  0.12500000000E+03 0.  0.
          2    1    1    2  502    0  0.35636946192E+02 -0.12898355595E+02 -0.19158460018E+01  0.37947726899E+02  0.00000000000E+00 0. -1.
         -2    1    1    2    0  501 -0.45065484131E+02 -0.93203584439E+02  0.26098247328E+03  0.28076619699E+03  0.00000000000E+00 0.  1.
<mgrwt>
<rscale>  0 0.62472100E+02</rscale>
<asrwt>0</asrwt>
<pdfrwt beam="2">  1        1 0.84337278E-02 0.37899334E+02</pdfrwt>
<pdfrwt beam="1">  1       -1 0.85946636E-01 0.10297709E+03</pdfrwt>
<totfact> 0.10216493E+03</totfact>
</mgrwt>
</event>
<event>
 5    1  0.8274494E-003  0.5036407E+02  0.7546771E-02  0.1473228E+00
          1   -1    0    0  501    0 -0.00000000000E+00  0.00000000000E+00  0.64243889994E+03  0.64243889994E+03  0.00000000000E+00 0. -1.
          2   -1    0    0  502    0  0.00000000000E+00 -0.00000000000E+00 -0.12632891508E+03  0.12632891508E+03  0.00000000000E+00 0. -1.
         25    1    1    2    0    0  0.80364328113E+02 -0.20816929981E+02  0.13045682674E+03  0.19883599637E+03  0.12500000000E+03 0.  0.
          2    1    1    2  501    0 -0.31364030736E+02  0.25666471689E+02  0.47027966989E+03  0.47202270931E+03  0.00000000000E+00 0. -1.
          1    1    1    2  502    0 -0.49000297377E+02 -0.48495417080E+01 -0.84626511772E+02  0.97909109344E+02  0.00000000000E+00 0. -1.
<mgrwt>
<rscale>  0 0.45178811E+02</rscale>
<asrwt>0</asrwt>
<pdfrwt beam="2">  1        2 0.19435218E-01 0.50364073E+02</pdfrwt>
<pdfrwt beam="1">  1        1 0.98836752E-01 0.40527401E+02</pdfrwt>
<totfact> 0.12533431E+03</totfact>
</mgrwt>
</event>
<event>
 5    1  0.8274494E-003  0.3745453E+02  0.7546771E-02  0.1528008E+00
         -2   -1    0    0    0  501  0.00000000000E+00  0.00000000000E+00  0.14644358240E+03  0.14644358240E+03  0.00000000000E+00 0.  1.
         -1   -1    0    0    0  502 -0.00000000000E+00 -0.00000000000E+00 -0.95310071041E+03  0.95310071041E+03  0.00000000000E+00 0.  1.
         25    1    1    2    0    0  0.66908728781E+01 -0.23075883695E+01 -0.86881767914E+02  0.15239269779E+03  0.12500000000E+03 0.  0.
         -2    1    1    2    0  502 -0.10846488490E+02 -0.35849626419E+02 -0.82978930259E+03  0.83063417262E+03  0.00000000000E+00 0.  1.
         -1    1    1    2    0  501  0.41556156123E+01  0.38157214789E+02  0.11001394250E+03  0.11651742241E+03  0.00000000000E+00 0.  1.
<mgrwt>
<rscale>  0 0.37431847E+02</rscale>
<asrwt>0</asrwt>
<pdfrwt beam="1">  1       -2 0.22529783E-01 0.37409176E+02</pdfrwt>
<pdfrwt beam="2">  1       -1 0.14663087E+00 0.37454533E+02</pdfrwt>
<totfact> 0.54209822E+01</totfact>
</mgrwt>
</event>
<event>
 5    1  0.8274494E-003  0.4030612E+02  0.7546771E-02  0.1585477E+00
          1   -1    0    0  501    0 -0.00000000000E+00  0.00000000000E+00  0.87936212444E+03  0.87936212444E+03  0.00000000000E+00 0. -1.
          2   -1    0    0  502    0  0.00000000000E+00 -0.00000000000E+00 -0.33758174139E+03  0.33758174139E+03  0.00000000000E+00 0. -1.
         25    1    1    2    0    0 -0.40317420842E+02  0.47499276728E+02 -0.12416702574E+03  0.18687997751E+03  0.12500000000E+03 0.  0.
          2    1    1    2  501    0  0.19620631057E+02 -0.35134875162E+02  0.84672752932E+03  0.84768327666E+03  0.00000000000E+00 0. -1.
          1    1    1    2  502    0  0.20696789785E+02 -0.12364401566E+02 -0.18078012053E+03  0.18238061167E+03  0.00000000000E+00 0. -1.
<mgrwt>
<rscale>  0 0.31172637E+02</rscale>
<asrwt>0</asrwt>
<pdfrwt beam="2">  1        2 0.51935653E-01 0.24108827E+02</pdfrwt>
<pdfrwt beam="1">  1        1 0.13528648E+00 0.40306122E+02</pdfrwt>
<totfact> 0.28678414E+02</totfact>
</mgrwt>
</event>
<event>
 5    1  0.8274494E-003  0.4399513E+02  0.7546771E-02  0.1564675E+00
         -2   -1    0    0    0  501 -0.00000000000E+00  0.00000000000E+00  0.13480958592E+04  0.13480958592E+04  0.00000000000E+00 0.  1.
          2   -1    0    0  502    0  0.00000000000E+00 -0.00000000000E+00 -0.98570558430E+02  0.98570558430E+02  0.00000000000E+00 0. -1.
         25    1    1    2    0    0  0.18246534710E+02 -0.61287219185E+02  0.35645150135E+03  0.38310799010E+03  0.12500000000E+03 0.  0.
          1    1    1    2  502    0 -0.26039131941E+00  0.43729127920E+02 -0.79460793008E+02  0.90699074184E+02  0.00000000000E+00 0. -1.
         -1    1    1    2    0  501 -0.17986143390E+02  0.17558091264E+02  0.97253459247E+03  0.97285935339E+03  0.00000000000E+00 0.  1.
<mgrwt>
<rscale>  0 0.33254096E+02</rscale>
<asrwt>0</asrwt>
<pdfrwt beam="2">  1        2 0.15164702E-01 0.43995133E+02</pdfrwt>
<pdfrwt beam="1">  1       -2 0.20739935E+00 0.25135392E+02</pdfrwt>
<totfact> 0.54348392E+01</totfact>
</mgrwt>
</event>
<event>
 5    1  0.8274494E-003  0.6920504E+02  0.7546771E-02  0.1419741E+00
         -3   -1    0    0    0  501 -0.00000000000E+00  0.00000000000E+00  0.20985903952E+03  0.20985903952E+03  0.00000000000E+00 0.  1.
          1   -1    0    0  502    0  0.00000000000E+00 -0.00000000000E+00 -0.13338637121E+04  0.13338637121E+04  0.00000000000E+00 0. -1.
         25    1    1    2    0    0 -0.69798654951E+02  0.33951150320E+02 -0.96094031346E+02  0.17573729172E+03  0.12500000000E+03 0.  0.
          2    1    1    2  502    0  0.35135587806E+02  0.26204279791E+02 -0.11904409030E+04  0.11912475466E+04  0.00000000000E+00 0. -1.
         -2    1    1    2    0  501  0.34663067145E+02 -0.60155430110E+02  0.16253026177E+03  0.17673791327E+03  0.00000000000E+00 0.  1.
<mgrwt>
<rscale>  0 0.55075764E+02</rscale>
<asrwt>0</asrwt>
<pdfrwt beam="2">  1        1 0.20520980E+00 0.43831197E+02</pdfrwt>
<pdfrwt beam="1">  1       -3 0.32286006E-01 0.69205042E+02</pdfrwt>
<totfact> 0.51358111E+01</totfact>
</mgrwt>
</event>
<event>
 5    1  0.8274494E-003  0.7883882E+02  0.7546771E-02  0.1391009E+00
          2   -1    0    0  502    0  0.00000000000E+00  0.00000000000E+00  0.20844916147E+04  0.20844916147E+04  0.00000000000E+00 0. -1.
         -2   -1    0    0    0  501 -0.00000000000E+00 -0.00000000000E+00 -0.54216363785E+02  0.54216363785E+02  0.00000000000E+00 0.  1.
         25    1    1    2    0    0 -0.49851872675E+02 -0.51656235843E+02  0.28823643257E+03  0.32227134060E+03  0.12500000000E+03 0.  0.
          3    1    1    2  502    0  0.38356559689E+02 -0.29220615969E+02  0.17336465406E+04  0.17343169831E+04  0.00000000000E+00 0. -1.
         -1    1    1    2    0  501  0.11495312987E+02  0.80876851812E+02  0.83922777464E+01  0.82119654806E+02  0.00000000000E+00 0.  1.
<mgrwt>
<rscale>  0 0.61656530E+02</rscale>
<asrwt>0</asrwt>
<pdfrwt beam="1">  1        2 0.32069096E+00 0.48218980E+02</pdfrwt>
<pdfrwt beam="2">  1       -2 0.83409807E-02 0.78838825E+02</pdfrwt>
<totfact> 0.66381232E+02</totfact>
</mgrwt>
</event>
<event>
 5    1  0.8274494E-003  0.4393262E+02  0.7546771E-02  0.1538463E+00
          2   -1    0    0  502    0  0.00000000000E+00  0.00000000000E+00  0.10406406359E+03  0.10406406359E+03  0.00000000000E+00 0. -1.
         -2   -1    0    0    0  501 -0.00000000000E+00 -0.00000000000E+00 -0.10693598130E+04  0.10693598130E+04  0.00000000000E+00 0.  1.
         25    1    1    2    0    0 -0.71345108486E+01  0.15798158093E+02 -0.23673790074E+03  0.26827284002E+03  0.12500000000E+03 0.  0.
          1    1    1    2  502    0  0.57540882374E+01  0.29215188791E+02  0.85145738951E+02  0.90202182064E+02  0.00000000000E+00 0. -1.
         -1    1    1    2    0  501  0.13804226112E+01 -0.45013346885E+02 -0.81370358763E+03  0.81494885452E+03  0.00000000000E+00 0.  1.
<mgrwt>
<rscale>  0 0.36168457E+02</rscale>
<asrwt>0</asrwt>
<pdfrwt beam="1">  1        2 0.16009856E-01 0.29776447E+02</pdfrwt>
<pdfrwt beam="2">  1       -2 0.16451689E+00 0.43932618E+02</pdfrwt>
<totfact> 0.89267250E+01</totfact>
</mgrwt>
</event>
<event>
 5    1  0.8274494E-003  0.1087043E+03  0.7546771E-02  0.1402962E+00
          1   -1    0    0  501    0 -0.00000000000E+00  0.00000000000E+00  0.46338993681E+03  0.46338993681E+03  0.00000000000E+00 0. -1.
          2   -1    0    0  502    0  0.00000000000E+00 -0.00000000000E+00 -0.84397155955E+03  0.84397155955E+03  0.00000000000E+00 0. -1.
         25    1    1    2    0    0 -0.10971334022E+03 -0.21893097480E+01 -0.14536523541E+03  0.22090238062E+03  0.12500000000E+03 0.  0.
          2    1    1    2  501    0  0.10483542375E+03 -0.29234222211E+02  0.41827086983E+03  0.43219859598E+03  0.00000000000E+00 0. -1.
          1    1    1    2  502    0  0.48779164754E+01  0.31423531959E+02 -0.65348725717E+03  0.65426051975E+03  0.00000000000E+00 0. -1.
<mgrwt>
<rscale>  0 0.58794419E+02</rscale>
<asrwt>0</asrwt>
<pdfrwt beam="2">  1        2 0.12984178E+00 0.31799881E+02</pdfrwt>
<pdfrwt beam="1">  1        1 0.71290760E-01 0.10870430E+03</pdfrwt>
<totfact> 0.25157407E+02</totfact>
</mgrwt>
</event>
<event>
 5    1  0.8274494E-003  0.4485651E+02  0.7546771E-02  0.1508121E+00
         -2   -1    0    0    0  501 -0.00000000000E+00  0.00000000000E+00  0.12854290960E+03  0.12854290960E+03  0.00000000000E+00 0.  1.
          2   -1    0    0  502    0  0.00000000000E+00 -0.00000000000E+00 -0.23733444839E+03  0.23733444839E+03  0.00000000000E+00 0. -1.
         25    1    1    2    0    0  0.32374979008E+02 -0.24643864947E+02  0.77612565561E+02  0.15265703285E+03  0.12500000000E+03 0.  0.
          1    1    1    2  502    0 -0.12633589151E+02 -0.33380589419E+02 -0.10773862634E+03  0.11349662079E+03  0.00000000000E+00 0. -1.
         -1    1    1    2    0  501 -0.19741389857E+02  0.58024454366E+02 -0.78665478009E+02  0.99723704345E+02  0.00000000000E+00 0.  1.
<mgrwt>
<rscale>  0 0.40012355E+02</rscale>
<asrwt>0</asrwt>
<pdfrwt beam="2">  1        2 0.36512992E-01 0.35691334E+02</pdfrwt>
<pdfrwt beam="1">  1       -2 0.19775833E-01 0.44856505E+02</pdfrwt>
<totfact> 0.27250608E+03</totfact>
</mgrwt>
</event>
<event>
 5    1  0.8274494E-003  0.1578848E+03  0.7546771E-02  0.1288626E+00
          1   -1    0    0  501    0 -0.00000000000E+00  0.00000000000E+00  0.68882073482E+03  0.68882073482E+03  0.00000000000E+00 0. -1.
          2   -1    0    0  502    0  0.00000000000E+00 -0.00000000000E+00 -0.34386546822E+04  0.34386546822E+04  0.00000000000E+00 0. -1.
         25    1    1    2    0    0  0.11137709592E+03  0.57075735350E+01  0.60093955786E+02  0.17797111398E+03  0.12500000000E+03 0.  0.
          2    1    1    2  501    0 -0.16531216415E+03 -0.28475932739E+02  0.55718197741E+03  0.58188550963E+03  0.00000000000E+00 0. -1.
          1    1    1    2  502    0  0.53935068229E+02  0.22768359204E+02 -0.33671098806E+04  0.33676187934E+04  0.00000000000E+00 0. -1.
<mgrwt>
<rscale>  0 0.96141517E+02</rscale>
<asrwt>0</asrwt>
<pdfrwt beam="2">  1        2 0.52902379E+00 0.58543913E+02</pdfrwt>
<pdfrwt beam="1">  1        1 0.10597242E+00 0.15788475E+03</pdfrwt>
<totfact> 0.59592262E+00</totfact>
</mgrwt>
</event>
<event>
 5    1  0.8274494E-003  0.1649528E+03  0.7546771E-02  0.1364121E+00
          1   -1    0    0  501    0 -0.00000000000E+00  0.00000000000E+00  0.74813326955E+03  0.74813326955E+03  0.00000000000E+00 0. -1.
          2   -1    0    0  502    0  0.00000000000E+00 -0.00000000000E+00 -0.13276454320E+04  0.13276454320E+04  0.00000000000E+00 0. -1.
         25    1    1    2    0    0  0.30830592142E+02 -0.16009115676E+03  0.32258693643E+03  0.38244873570E+03  0.12500000000E+03 0.  0.
          2    1    1    2  501    0  0.28096095213E+02  0.59530586083E+01  0.38983912231E+03  0.39089560084E+03  0.00000000000E+00 0. -1.
          1    1    1    2  502    0 -0.58926687355E+02  0.15413809815E+03 -0.12919382211E+04  0.13024343650E+04  0.00000000000E+00 0. -1.
<mgrwt>
<rscale>  0 0.68828914E+02</rscale>
<asrwt>0</asrwt>
<pdfrwt beam="2">  1        2 0.20425314E+00 0.16495282E+03</pdfrwt>
<pdfrwt beam="1">  1        1 0.11509743E+00 0.28719845E+02</pdfrwt>
<totfact> 0.68192896E+01</totfact>
</mgrwt>
</event>
<event>
 5    1  0.1027146E-002  0.7538448E+02  0.7546771E-02  0.1425173E+00
          1   -1    0    0  502    0  0.00000000000E+00  0.00000000000E+00  0.73582852436E+03  0.73582852436E+03  0.00000000000E+00 0. -1.
         -1   -1    0    0    0  501 -0.00000000000E+00 -0.00000000000E+00 -0.23914152992E+02  0.23914152992E+02  0.00000000000E+00 0.  1.
         25    1    1    2    0    0  0.25540443835E+02 -0.70538401486E+02  0.43549480113E+03  0.45924797459E+03  0.12500000000E+03 0.  0.
          2    1    1    2  502    0  0.33493341096E+02  0.19182415291E+02  0.11058939049E+03  0.11713147418E+03  0.00000000000E+00 0. -1.
         -2    1    1    2    0  501 -0.59033784931E+02  0.51355986195E+02  0.16583017975E+03  0.18336322859E+03  0.00000000000E+00 0.  1.
<mgrwt>
<rscale>  0 0.53941213E+02</rscale>
<asrwt>0</asrwt>
<pdfrwt beam="1">  1        1 0.11320437E+00 0.38597525E+02</pdfrwt>
<pdfrwt beam="2">  1       -1 0.36791010E-02 0.75384481E+02</pdfrwt>
<totfact> 0.69938726E+03</totfact>
</mgrwt>
</event>
<event>
 5    1  0.8274494E-003  0.8410631E+02  0.7546771E-02  0.1429875E+00
          2   -1    0    0  502    0  0.00000000000E+00  0.00000000000E+00  0.23728250670E+03  0.23728250670E+03  0.00000000000E+00 0. -1.
          1   -1    0    0  501    0 -0.00000000000E+00 -0.00000000000E+00 -0.12166444642E+04  0.12166444642E+04  0.00000000000E+00 0. -1.
         25    1    1    2    0    0 -0.51978834911E+02 -0.25039886911E+02 -0.10597170845E+03  0.17373485030E+03  0.12500000000E+03 0.  0.
          2    1    1    2  501    0 -0.32320505012E+02  0.83404709707E+01 -0.10674414387E+04  0.10679632032E+04  0.00000000000E+00 0. -1.
          1    1    1    2  502    0  0.84299339922E+02  0.16699415940E+02  0.19405118958E+03  0.21222891740E+03  0.00000000000E+00 0. -1.
<mgrwt>
<rscale>  0 0.52985006E+02</rscale>
<asrwt>0</asrwt>
<pdfrwt beam="1">  1        2 0.36505001E-01 0.84106312E+02</pdfrwt>
<pdfrwt beam="2">  1        1 0.18717607E+00 0.33379312E+02</pdfrwt>
<totfact> 0.25013992E+02</totfact>
</mgrwt>
</event>
<event>
 5    1  0.8274494E-003  0.7538388E+02  0.7546771E-02  0.1399777E+00
         -2   -1    0    0    0  501 -0.00000000000E+00  0.00000000000E+00  0.46353768984E+02  0.46353768984E+02  0.00000000000E+00 0.  1.
          2   -1    0    0  502    0  0.00000000000E+00 -0.00000000000E+00 -0.49821909030E+03  0.49821909030E+03  0.00000000000E+00 0. -1.
         25    1    1    2    0    0  0.56711996521E+02  0.81287456729E+02 -0.16551566404E+03  0.22987895992E+03  0.12500000000E+03 0.  0.
          1    1    1    2  502    0 -0.63858726473E+02 -0.34809201775E+02 -0.23040278891E+03  0.24160931814E+03  0.00000000000E+00 0. -1.
         -1    1    1    2    0  501  0.71467299518E+01 -0.46478254954E+02 -0.55946868360E+02  0.73084581219E+02  0.00000000000E+00 0.  1.
<mgrwt>
<rscale>  0 0.59538975E+02</rscale>
<asrwt>0</asrwt>
<pdfrwt beam="2">  1        2 0.76649090E-01 0.75383881E+02</pdfrwt>
<pdfrwt beam="1">  1       -2 0.71313491E-02 0.47024504E+02</pdfrwt>
<totfact> 0.62451898E+03</totfact>
</mgrwt>
</event>
<event>
 5    1  0.8274494E-003  0.2908323E+03  0.7546771E-02  0.1222273E+00
          1   -1    0    0  501    0 -0.00000000000E+00  0.00000000000E+00  0.11685246138E+04  0.11685246138E+04  0.00000000000E+00 0. -1.
          2   -1    0    0  502    0  0.00000000000E+00 -0.00000000000E+00 -0.13905811340E+04  0.13905811340E+04  0.00000000000E+00 0. -1.
         25    1    1    2    0    0 -0.25524229706E+03  0.49657268397E+02 -0.49050843352E+03  0.56906765667E+03  0.12500000000E+03 0.  0.
          2    1    1    2  501    0  0.29209282346E+03 -0.63071997034E+00  0.11092208749E+04  0.11470351192E+04  0.00000000000E+00 0. -1.
          1    1    1    2  502    0 -0.36850526403E+02 -0.49026548427E+02 -0.84076896161E+03  0.84300297186E+03  0.00000000000E+00 0. -1.
<mgrwt>
<rscale>  0 0.13355600E+03</rscale>
<asrwt>0</asrwt>
<pdfrwt beam="2">  1        2 0.21393556E+00 0.61331588E+02</pdfrwt>
<pdfrwt beam="1">  1        1 0.17977302E+00 0.29083227E+03</pdfrwt>
<totfact> 0.28878437E+01</totfact>
</mgrwt>
</event>
<event>
 5    1  0.8274494E-003  0.9355051E+02  0.7546771E-02  0.1349646E+00
          2   -1    0    0  502    0  0.00000000000E+00  0.00000000000E+00  0.47916664478E+03  0.47916664478E+03  0.00000000000E+00 0. -1.
          1   -1    0    0  501    0 -0.00000000000E+00 -0.00000000000E+00 -0.16271314716E+04  0.16271314716E+04  0.00000000000E+00 0. -1.
         25    1    1    2    0    0  0.52220848027E+02 -0.82411805865E+01 -0.47315466539E+02  0.14373130278E+03  0.12500000000E+03 0.  0.
          2    1    1    2  501    0  0.37400112795E+02  0.43309893876E+02 -0.15256922696E+04  0.15267650169E+04  0.00000000000E+00 0. -1.
          1    1    1    2  502    0 -0.89620960823E+02 -0.35068713289E+02  0.42504290929E+03  0.43580179670E+03  0.00000000000E+00 0. -1.
<mgrwt>
<rscale>  0 0.73166090E+02</rscale>
<asrwt>0</asrwt>
<pdfrwt beam="1">  1        2 0.73717946E-01 0.93550514E+02</pdfrwt>
<pdfrwt beam="2">  1        1 0.25032792E+00 0.57223381E+02</pdfrwt>
<totfact> 0.62731382E+01</totfact>
</mgrwt>
</event>
<event>
 5    1  0.8274494E-003  0.1128880E+03  0.7546771E-02  0.1283023E+00
         -2   -1    0    0    0  501 -0.00000000000E+00  0.00000000000E+00  0.13931933579E+03  0.13931933579E+03  0.00000000000E+00 0.  1.
          2   -1    0    0  502    0  0.00000000000E+00 -0.00000000000E+00 -0.66133644373E+03  0.66133644373E+03  0.00000000000E+00 0. -1.
         25    1    1    2    0    0 -0.55260405020E+02 -0.59101942936E+02  0.17380529943E+02  0.14991275744E+03  0.12500000000E+03 0.  0.
          1    1    1    2  502    0  0.11708146087E+03 -0.11421177266E+01 -0.55130850694E+03  0.56360486401E+03  0.00000000000E+00 0. -1.
         -1    1    1    2    0  501 -0.61821055848E+02  0.60244060663E+02  0.11910869056E+02  0.87138158076E+02  0.00000000000E+00 0.  1.
<mgrwt>
<rscale>  0 0.98714367E+02</rscale>
<asrwt>0</asrwt>
<pdfrwt beam="2">  1        2 0.10174407E+00 0.11288804E+03</pdfrwt>
<pdfrwt beam="1">  1       -2 0.21433744E-01 0.86320275E+02</pdfrwt>
<totfact> 0.83142278E+02</totfact>
</mgrwt>
</event>
<event>
 5    1  0.8274494E-003  0.1038460E+03  0.7546771E-02  0.1342869E+00
          1   -1    0    0  502    0  0.00000000000E+00  0.00000000000E+00  0.10916749156E+04  0.10916749156E+04  0.00000000000E+00 0. -1.
         -1   -1    0    0    0  501 -0.00000000000E+00 -0.00000000000E+00 -0.36095242267E+02  0.36095242267E+02  0.00000000000E+00 0.  1.
         25    1    1    2    0    0  0.63888140532E+02  0.29385091273E+02  0.22111731542E+03  0.26355842857E+03  0.12500000000E+03 0.  0.
          2    1    1    2  502    0 -0.11106665221E+03 -0.18289775367E+01  0.77707749141E+03  0.78497679841E+03  0.00000000000E+00 0. -1.
         -2    1    1    2    0  501  0.47178511676E+02 -0.27556113737E+02  0.57384866485E+02  0.79234930869E+02  0.00000000000E+00 0.  1.
<mgrwt>
<rscale>  0 0.75324521E+02</rscale>
<asrwt>0</asrwt>
<pdfrwt beam="1">  1        1 0.16794996E+00 0.10384595E+03</pdfrwt>
<pdfrwt beam="2">  1       -1 0.55531150E-02 0.54636539E+02</pdfrwt>
<totfact> 0.19097593E+03</totfact>
</mgrwt>
</event>
<event>
 5    1  0.8274494E-003  0.1075240E+03  0.7546771E-02  0.1379277E+00
          1   -1    0    0  501    0 -0.00000000000E+00  0.00000000000E+00  0.22152119996E+03  0.22152119996E+03  0.00000000000E+00 0. -1.
          2   -1    0    0  502    0  0.00000000000E+00 -0.00000000000E+00 -0.17466542948E+04  0.17466542948E+04  0.00000000000E+00 0. -1.
         25    1    1    2    0    0 -0.86891476037E+02 -0.25608311703E+02  0.98453440131E+02  0.18309558736E+03  0.12500000000E+03 0.  0.
          2    1    1    2  501    0  0.11913388570E+03  0.47329566056E+02  0.29495578787E+02  0.13154071504E+03  0.00000000000E+00 0. -1.
          3    1    1    2  502    0 -0.32242409661E+02 -0.21721254353E+02 -0.16530821138E+04  0.16535391924E+04  0.00000000000E+00 0. -1.
<mgrwt>
<rscale>  0 0.64654179E+02</rscale>
<asrwt>0</asrwt>
<pdfrwt beam="2">  1        2 0.26871605E+00 0.38876547E+02</pdfrwt>
<pdfrwt beam="1">  1        1 0.34080184E-01 0.10752403E+03</pdfrwt>
<totfact> 0.21178741E+02</totfact>
</mgrwt>
</event>
<event>
 5    1  0.8274494E-003  0.1110120E+03  0.7546771E-02  0.1406221E+00
         -2   -1    0    0    0  501 -0.00000000000E+00  0.00000000000E+00  0.24409578273E+03  0.24409578273E+03  0.00000000000E+00 0.  1.
          2   -1    0    0  502    0  0.00000000000E+00 -0.00000000000E+00 -0.41755363282E+03  0.41755363282E+03  0.00000000000E+00 0. -1.
         25    1    1    2    0    0 -0.79929048358E+02 -0.98630114097E+02 -0.91367880507E+02  0.20022397900E+03  0.12500000000E+03 0.  0.
          1    1    1    2  502    0  0.49675987200E+02  0.96197067460E+02 -0.25963550087E+03  0.28130441305E+03  0.00000000000E+00 0. -1.
         -1    1    1    2    0  501  0.30253061158E+02  0.24330466366E+01  0.17754553129E+03  0.18012102350E+03  0.00000000000E+00 0.  1.
<mgrwt>
<rscale>  0 0.58045642E+02</rscale>
<asrwt>0</asrwt>
<pdfrwt beam="2">  1        2 0.64239020E-01 0.11101201E+03</pdfrwt>
<pdfrwt beam="1">  1       -2 0.37553198E-01 0.30350740E+02</pdfrwt>
<totfact> 0.50209546E+02</totfact>
</mgrwt>
</event>
<event>
 5    1  0.8274494E-003  0.3955887E+02  0.7546771E-02  0.1570281E+00
          1   -1    0    0  501    0 -0.00000000000E+00  0.00000000000E+00  0.36265636798E+03  0.36265636798E+03  0.00000000000E+00 0. -1.
          2   -1    0    0  502    0  0.00000000000E+00 -0.00000000000E+00 -0.21212804774E+04  0.21212804774E+04  0.00000000000E+00 0. -1.
         25    1    1    2    0    0 -0.63791862256E+02  0.13713499613E+02  0.30250790124E+03  0.33375663600E+03  0.12500000000E+03 0.  0.
          2    1    1    2  501    0  0.24296397574E+02 -0.11747921066E+02  0.40231398450E+02  0.48444752097E+02  0.00000000000E+00 0. -1.
          1    1    1    2  502    0  0.39495464682E+02 -0.19655785467E+01 -0.21013634091E+04  0.21017354573E+04  0.00000000000E+00 0. -1.
<mgrwt>
<rscale>  0 0.32674110E+02</rscale>
<asrwt>0</asrwt>
<pdfrwt beam="2">  1        2 0.32635084E+00 0.39558868E+02</pdfrwt>
<pdfrwt beam="1">  1        1 0.55793287E-01 0.26987564E+02</pdfrwt>
<totfact> 0.76668937E+01</totfact>
</mgrwt>
</event>
<event>
 5    1  0.8274494E-003  0.1238845E+03  0.7546771E-02  0.1256546E+00
          1   -1    0    0  501    0 -0.00000000000E+00  0.00000000000E+00  0.29147680199E+03  0.29147680199E+03  0.00000000000E+00 0. -1.
          2   -1    0    0  502    0  0.00000000000E+00 -0.00000000000E+00 -0.30322697492E+03  0.30322697492E+03  0.00000000000E+00 0. -1.
         25    1    1    2    0    0 -0.63772727399E+02  0.26766164928E+02  0.13351838638E+01  0.14286416997E+03  0.12500000000E+03 0.  0.
          2    1    1    2  501    0 -0.82296801851E+01  0.10128685855E+03  0.18150798087E+03  0.20801899545E+03  0.00000000000E+00 0. -1.
          1    1    1    2  502    0  0.72002407584E+02 -0.12805302348E+03 -0.19459333767E+03  0.24382061148E+03  0.00000000000E+00 0. -1.
<mgrwt>
<rscale>  0 0.11220173E+03</rscale>
<asrwt>0</asrwt>
<pdfrwt beam="2">  1        2 0.46650304E-01 0.12388455E+03</pdfrwt>
<pdfrwt beam="1">  1        1 0.44842585E-01 0.10162064E+03</pdfrwt>
<totfact> 0.13296421E+03</totfact>
</mgrwt>
</event>
<event>
 5    1  0.8274494E-003  0.2757856E+03  0.7546771E-02  0.1194151E+00
          2   -1    0    0  502    0  0.00000000000E+00  0.00000000000E+00  0.17116557354E+03  0.17116557354E+03  0.00000000000E+00 0. -1.
          1   -1    0    0  501    0 -0.00000000000E+00 -0.00000000000E+00 -0.68030710704E+03  0.68030710704E+03  0.00000000000E+00 0. -1.
         25    1    1    2    0    0  0.11231471082E+03 -0.24079437377E+03 -0.20492958294E+03  0.35807493444E+03  0.12500000000E+03 0.  0.
          2    1    1    2  501    0  0.83681355834E+02  0.25259131364E+02 -0.12093338474E+03  0.14921620748E+03  0.00000000000E+00 0. -1.
          1    1    1    2  502    0 -0.19599606666E+03  0.21553524240E+03 -0.18327856582E+03  0.34418153866E+03  0.00000000000E+00 0. -1.
<mgrwt>
<rscale>  0 0.15526286E+03</rscale>
<asrwt>0</asrwt>
<pdfrwt beam="1">  1        2 0.26333165E-01 0.27578564E+03</pdfrwt>
<pdfrwt beam="2">  1        1 0.10466263E+00 0.87410486E+02</pdfrwt>
<totfact> 0.84715740E+02</totfact>
</mgrwt>
</event>
<event>
 5    1  0.8274494E-003  0.5853346E+02  0.7546771E-02  0.1536598E+00
          1   -1    0    0  501    0 -0.00000000000E+00  0.00000000000E+00  0.11030072114E+04  0.11030072114E+04  0.00000000000E+00 0. -1.
          2   -1    0    0  502    0  0.00000000000E+00 -0.00000000000E+00 -0.96600267019E+02  0.96600267019E+02  0.00000000000E+00 0. -1.
         25    1    1    2    0    0 -0.35480420117E+02  0.40360418569E+02  0.90111642387E+03  0.91133069353E+03  0.12500000000E+03 0.  0.
          2    1    1    2  501    0 -0.17218974387E+02 -0.14672881741E+02  0.18663835824E+03  0.18800442363E+03  0.00000000000E+00 0. -1.
          1    1    1    2  502    0  0.52699394505E+02 -0.25687536829E+02 -0.81347837729E+02  0.10027236126E+03  0.00000000000E+00 0. -1.
<mgrwt>
<rscale>  0 0.36389352E+02</rscale>
<asrwt>0</asrwt>
<pdfrwt beam="2">  1        2 0.14861580E-01 0.58533461E+02</pdfrwt>
<pdfrwt beam="1">  1        1 0.16969341E+00 0.22622700E+02</pdfrwt>
<totfact> 0.80478427E+02</totfact>
</mgrwt>
</event>
<event>
 5    1  0.8274494E-003  0.4962685E+02  0.7546771E-02  0.1451624E+00
         -1   -1    0    0    0  501 -0.00000000000E+00  0.00000000000E+00  0.69441406677E+02  0.69441406677E+02  0.00000000000E+00 0.  1.
          1   -1    0    0  502    0  0.00000000000E+00 -0.00000000000E+00 -0.18115722711E+04  0.18115722711E+04  0.00000000000E+00 0. -1.
         25    1    1    2    0    0 -0.28868507988E+02  0.64046917918E+02 -0.25880736923E+03  0.29587438689E+03  0.12500000000E+03 0.  0.
          2    1    1    2  502    0  0.45784629703E+02 -0.19027405902E+02 -0.15223787310E+04  0.15231858965E+04  0.00000000000E+00 0. -1.
         -2    1    1    2    0  501 -0.16916121715E+02 -0.45019512017E+02  0.39055235830E+02  0.61953394433E+02  0.00000000000E+00 0.  1.
<mgrwt>
<rscale>  0 0.48853776E+02</rscale>
<asrwt>0</asrwt>
<pdfrwt beam="2">  1        1 0.27870343E+00 0.49626854E+02</pdfrwt>
<pdfrwt beam="1">  1       -1 0.10683293E-01 0.48092740E+02</pdfrwt>
<totfact> 0.26813656E+02</totfact>
</mgrwt>
</event>
<event>
 5    1  0.8274494E-003  0.6604409E+02  0.7546771E-02  0.1414205E+00
         -2   -1    0    0    0  501  0.00000000000E+00  0.00000000000E+00  0.19886840422E+03  0.19886840422E+03  0.00000000000E+00 0.  1.
         -1   -1    0    0    0  502 -0.00000000000E+00 -0.00000000000E+00 -0.10143387166E+03  0.10143387166E+03  0.00000000000E+00 0.  1.
         25    1    1    2    0    0  0.32646686099E+02  0.73959107577E+02  0.71079931090E+02  0.16496397277E+03  0.12500000000E+03 0.  0.
         -2    1    1    2    0  502  0.14255054489E+02 -0.64057955454E+02 -0.20051596903E+02  0.68619929858E+02  0.00000000000E+00 0.  1.
         -1    1    1    2    0  501 -0.46901740589E+02 -0.99011521231E+01  0.46406198369E+02  0.66718373262E+02  0.00000000000E+00 0.  1.
<mgrwt>
<rscale>  0 0.56265907E+02</rscale>
<asrwt>0</asrwt>
<pdfrwt beam="1">  1       -2 0.30595139E-01 0.47935437E+02</pdfrwt>
<pdfrwt beam="2">  1       -1 0.15605211E-01 0.66044089E+02</pdfrwt>
<totfact> 0.19913419E+03</totfact>
</mgrwt>
</event>
<event>
 5    1  0.8274494E-003  0.8168502E+02  0.7546771E-02  0.1398468E+00
          2   -1    0    0  502    0  0.00000000000E+00  0.00000000000E+00  0.24912294708E+03  0.24912294708E+03  0.00000000000E+00 0. -1.
          1   -1    0    0  501    0 -0.00000000000E+00 -0.00000000000E+00 -0.22141619364E+04  0.22141619364E+04  0.00000000000E+00 0. -1.
         25    1    1    2    0    0 -0.11361289854E+03  0.42520109989E+02  0.68397328143E+02  0.18713376223E+03  0.12500000000E+03 0.  0.
          2    1    1    2  501    0  0.69765599354E+02 -0.42049815164E+02 -0.21500360714E+04  0.21515786144E+04  0.00000000000E+00 0. -1.
          1    1    1    2  502    0  0.43847299191E+02 -0.47029482488E+00  0.11659975396E+03  0.12457250679E+03  0.00000000000E+00 0. -1.
<mgrwt>
<rscale>  0 0.59848757E+02</rscale>
<asrwt>0</asrwt>
<pdfrwt beam="1">  1        2 0.38326606E-01 0.43849821E+02</pdfrwt>
<pdfrwt beam="2">  1        1 0.34064031E+00 0.81685024E+02</pdfrwt>
<totfact> 0.50944900E+01</totfact>
</mgrwt>
</event>
<event>
 5    1  0.8274494E-003  0.1732289E+03  0.7546771E-02  0.1215254E+00
          2   -1    0    0  502    0  0.00000000000E+00  0.00000000000E+00  0.99618161287E+03  0.99618161287E+03  0.00000000000E+00 0. -1.
          1   -1    0    0  501    0 -0.00000000000E+00 -0.00000000000E+00 -0.14177615429E+03  0.14177615429E+03  0.00000000000E+00 0. -1.
         25    1    1    2    0    0 -0.15348768480E+03  0.15650861007E+03  0.23763567368E+03  0.34662534215E+03  0.12500000000E+03 0.  0.
          2    1    1    2  501    0  0.42698574037E+02 -0.16047046054E+03  0.14034335875E+01  0.16605994869E+03  0.00000000000E+00 0. -1.
          1    1    1    2  502    0  0.11078911077E+03  0.39618504685E+01  0.61536635131E+03  0.62527247632E+03  0.00000000000E+00 0. -1.
<mgrwt>
<rscale>  0 0.13857902E+03</rscale>
<asrwt>0</asrwt>
<pdfrwt beam="1">  1        2 0.15325871E+00 0.11085993E+03</pdfrwt>
<pdfrwt beam="2">  1        1 0.21811717E-01 0.17322893E+03</pdfrwt>
<totfact> 0.84592917E+02</totfact>
</mgrwt>
</event>
<event>
 5    1  0.8274494E-003  0.7082498E+02  0.7546771E-02  0.1431174E+00
         -2   -1    0    0    0  501 -0.00000000000E+00  0.00000000000E+00  0.37967729584E+03  0.37967729584E+03  0.00000000000E+00 0.  1.
          2   -1    0    0  502    0  0.00000000000E+00 -0.00000000000E+00 -0.10537257744E+04  0.10537257744E+04  0.00000000000E+00 0. -1.
         25    1    1    2    0    0 -0.77550857169E+02  0.53997759638E+02 -0.33513938262E+03  0.36996391618E+03  0.12500000000E+03 0.  0.
          1    1    1    2  502    0  0.86606300607E+01 -0.38283420250E+02 -0.69717130107E+03  0.69827533954E+03  0.00000000000E+00 0. -1.
         -1    1    1    2    0  501  0.68890227109E+02 -0.15714339388E+02  0.35826220509E+03  0.36516381454E+03  0.00000000000E+00 0.  1.
<mgrwt>
<rscale>  0 0.52725122E+02</rscale>
<asrwt>0</asrwt>
<pdfrwt beam="2">  1        2 0.16211166E+00 0.39250819E+02</pdfrwt>
<pdfrwt beam="1">  1       -2 0.58411892E-01 0.70824982E+02</pdfrwt>
<totfact> 0.77410625E+01</totfact>
</mgrwt>
</event>
<event>
 5    1  0.8274494E-003  0.8451329E+02  0.7546771E-02  0.1364411E+00
          1   -1    0    0  501    0 -0.00000000000E+00  0.00000000000E+00  0.79043810707E+03  0.79043810707E+03  0.00000000000E+00 0. -1.
          2   -1    0    0  502    0  0.00000000000E+00 -0.00000000000E+00 -0.82870059050E+03  0.82870059050E+03  0.00000000000E+00 0. -1.
         25    1    1    2    0    0  0.12051142776E+03 -0.70560548506E+02 -0.11603366617E+03  0.22043277186E+03  0.12500000000E+03 0.  0.
          2    1    1    2  501    0 -0.72544215665E+02  0.41817554241E+02  0.73467245534E+03  0.73942882532E+03  0.00000000000E+00 0. -1.
          1    1    1    2  502    0 -0.47967212099E+02  0.28742994266E+02 -0.65690127260E+03  0.65927710039E+03  0.00000000000E+00 0. -1.
<mgrwt>
<rscale>  0 0.68745606E+02</rscale>
<asrwt>0</asrwt>
<pdfrwt beam="2">  1        2 0.12749240E+00 0.55919703E+02</pdfrwt>
<pdfrwt beam="1">  1        1 0.12160586E+00 0.84513295E+02</pdfrwt>
<totfact> 0.12288562E+02</totfact>
</mgrwt>
</event>
<event>
 5    1  0.8274494E-003  0.2629079E+02  0.7546771E-02  0.1648739E+00
          2   -1    0    0  502    0  0.00000000000E+00  0.00000000000E+00  0.22042824639E+04  0.22042824639E+04  0.00000000000E+00 0. -1.
         -2   -1    0    0    0  501 -0.00000000000E+00 -0.00000000000E+00 -0.10417837345E+02  0.10417837345E+02  0.00000000000E+00 0.  1.
         25    1    1    2    0    0 -0.22623598933E+01  0.93113928244E+01  0.41597238854E+03  0.43445350538E+03  0.12500000000E+03 0.  0.
          3    1    1    2  502    0  0.26520290014E+02 -0.15598703051E+01  0.16272729495E+04  0.16274897884E+04  0.00000000000E+00 0. -1.
         -3    1    1    2    0  501 -0.24257930121E+02 -0.77515225192E+01  0.15061928851E+03  0.15275700752E+03  0.00000000000E+00 0.  1.
<mgrwt>
<rscale>  0 0.25875267E+02</rscale>
<asrwt>0</asrwt>
<pdfrwt beam="1">  1        2 0.33912001E+00 0.26290786E+02</pdfrwt>
<pdfrwt beam="2">  1       -2 0.16027460E-02 0.25466316E+02</pdfrwt>
<totfact> 0.58024588E+03</totfact>
</mgrwt>
</event>
<event>
 5    1  0.8274494E-003  0.8682223E+02  0.7546771E-02  0.1346245E+00
          1   -1    0    0  501    0 -0.00000000000E+00  0.00000000000E+00  0.11915667071E+03  0.11915667071E+03  0.00000000000E+00 0. -1.
          2   -1    0    0  502    0  0.00000000000E+00 -0.00000000000E+00 -0.14634401383E+04  0.14634401383E+04  0.00000000000E+00 0. -1.
         25    1    1    2    0    0 -0.12368045347E+03  0.66900064968E+02 -0.32976572966E+03  0.37966157262E+03  0.12500000000E+03 0.  0.
          2    1    1    2  501    0  0.62752821834E+02 -0.95734691308E+01  0.81737867747E+02  0.10349225567E+03  0.00000000000E+00 0. -1.
          1    1    1    2  502    0  0.60927631631E+02 -0.57326595837E+02 -0.10962556057E+04  0.10994429807E+04  0.00000000000E+00 0. -1.
<mgrwt>
<rscale>  0 0.74238652E+02</rscale>
<asrwt>0</asrwt>
<pdfrwt beam="2">  1        2 0.22514464E+00 0.86822226E+02</pdfrwt>
<pdfrwt beam="1">  1        1 0.18331795E-01 0.63478878E+02</pdfrwt>
<totfact> 0.57607215E+02</totfact>
</mgrwt>
</event>
<event>
 5    1  0.8274494E-003  0.5984136E+02  0.7546771E-02  0.1544525E+00
         -1   -1    0    0    0  501 -0.00000000000E+00  0.00000000000E+00  0.56327137971E+02  0.56327137971E+02  0.00000000000E+00 0.  1.
          1   -1    0    0  502    0  0.00000000000E+00 -0.00000000000E+00 -0.45451270936E+03  0.45451270936E+03  0.00000000000E+00 0. -1.
         25    1    1    2    0    0 -0.22613070457E+02 -0.53927936575E+02 -0.34583026610E+03  0.37234815194E+03  0.12500000000E+03 0.  0.
          2    1    1    2  502    0  0.33848329668E+01  0.62410759548E+02 -0.81408020182E+02  0.10263442771E+03  0.00000000000E+00 0. -1.
         -2    1    1    2    0  501  0.19228237490E+02 -0.84828229723E+01  0.29052714898E+02  0.35857267680E+02  0.00000000000E+00 0.  1.
<mgrwt>
<rscale>  0 0.35463247E+02</rscale>
<asrwt>0</asrwt>
<pdfrwt beam="2">  1        1 0.69925033E-01 0.59841360E+02</pdfrwt>
<pdfrwt beam="1">  1       -1 0.86657134E-02 0.21016265E+02</pdfrwt>
<totfact> 0.32612760E+03</totfact>
</mgrwt>
</event>
<event>
 5    1  0.8274494E-003  0.9195000E+02  0.7546771E-02  0.1331493E+00
          1   -1    0    0  501    0 -0.00000000000E+00  0.00000000000E+00  0.15008251876E+04  0.15008251876E+04  0.00000000000E+00 0. -1.
          2   -1    0    0  502    0  0.00000000000E+00 -0.00000000000E+00 -0.33979806522E+03  0.33979806522E+03  0.00000000000E+00 0. -1.
         25    1    1    2    0    0  0.10683551036E+03  0.98433933327E+02  0.82660686841E+03  0.84853225065E+03  0.12500000000E+03 0.  0.
          2    1    1    2  501    0 -0.47525331031E+02 -0.64919181765E+02  0.65724773139E+03  0.66215386253E+03  0.00000000000E+00 0. -1.
          1    1    1    2  502    0 -0.59310179328E+02 -0.33514751562E+02 -0.32282747741E+03  0.32993713965E+03  0.00000000000E+00 0. -1.
<mgrwt>
<rscale>  0 0.79145686E+02</rscale>
<asrwt>0</asrwt>
<pdfrwt beam="2">  1        2 0.52276626E-01 0.68124415E+02</pdfrwt>
<pdfrwt beam="1">  1        1 0.23089618E+00 0.91949995E+02</pdfrwt>
<totfact> 0.10303365E+02</totfact>
</mgrwt>
</event>
<event>
 5    1  0.8274494E-003  0.5815448E+02  0.7546771E-02  0.1473110E+00
          2   -1    0    0  502    0  0.00000000000E+00  0.00000000000E+00  0.33638388283E+03  0.33638388283E+03  0.00000000000E+00 0. -1.
          1   -1    0    0  501    0 -0.00000000000E+00 -0.00000000000E+00 -0.61718073851E+03  0.61718073851E+03  0.00000000000E+00 0. -1.
         25    1    1    2    0    0 -0.26509126631E+02 -0.45146420925E+02 -0.11435247756E+03  0.17732011234E+03  0.12500000000E+03 0.  0.
          2    1    1    2  501    0 -0.27247149790E+02  0.22171151957E+02 -0.46787773317E+03  0.46919456555E+03  0.00000000000E+00 0. -1.
          1    1    1    2  502    0  0.53756276420E+02  0.22975268969E+02  0.30143335505E+03  0.30704994345E+03  0.00000000000E+00 0. -1.
<mgrwt>
<rscale>  0 0.45197820E+02</rscale>
<asrwt>0</asrwt>
<pdfrwt beam="1">  1        2 0.51751367E-01 0.58154481E+02</pdfrwt>
<pdfrwt beam="2">  1        1 0.94950882E-01 0.35127869E+02</pdfrwt>
<totfact> 0.47616253E+02</totfact>
</mgrwt>
</event>
<event>
 5    1  0.8274494E-003  0.1032586E+03  0.7546771E-02  0.1315474E+00
          1   -1    0    0  501    0 -0.00000000000E+00  0.00000000000E+00  0.35478950942E+03  0.35478950942E+03  0.00000000000E+00 0. -1.
          2   -1    0    0  502    0  0.00000000000E+00 -0.00000000000E+00 -0.31948478330E+03  0.31948478330E+03  0.00000000000E+00 0. -1.
         25    1    1    2    0    0  0.28774091298E+02  0.64224651992E+02  0.55543948540E+02  0.15382745032E+03  0.12500000000E+03 0.  0.
          2    1    1    2  501    0  0.20995535768E+02 -0.11336862361E+03  0.23179547165E+03  0.25888684404E+03  0.00000000000E+00 0. -1.
          1    1    1    2  502    0 -0.49769627066E+02  0.49143971622E+02 -0.25203469407E+03  0.26155999836E+03  0.00000000000E+00 0. -1.
<mgrwt>
<rscale>  0 0.84984140E+02</rscale>
<asrwt>0</asrwt>
<pdfrwt beam="2">  1        2 0.49151505E-01 0.69943876E+02</pdfrwt>
<pdfrwt beam="1">  1        1 0.54583001E-01 0.10325856E+03</pdfrwt>
<totfact> 0.98543088E+02</totfact>
</mgrwt>
</event>
<event>
 5    1  0.8274494E-003  0.3901063E+02  0.7546771E-02  0.1566623E+00
          1   -1    0    0  501    0 -0.00000000000E+00  0.00000000000E+00  0.19970741210E+04  0.19970741210E+04  0.00000000000E+00 0. -1.
          2   -1    0    0  502    0  0.00000000000E+00 -0.00000000000E+00 -0.17977479309E+03  0.17977479309E+03  0.00000000000E+00 0. -1.
         25    1    1    2    0    0 -0.62015422586E+02  0.65700322706E+01  0.34612512637E+03  0.37325149841E+03  0.12500000000E+03 0.  0.
          2    1    1    2  501    0  0.35452359559E+02 -0.15429798937E+02  0.16359764108E+04  0.16364332450E+04  0.00000000000E+00 0. -1.
          1    1    1    2  502    0  0.26563063027E+02  0.88597666664E+01 -0.16480220928E+03  0.16716417070E+03  0.00000000000E+00 0. -1.
<mgrwt>
<rscale>  0 0.33050893E+02</rscale>
<asrwt>0</asrwt>
<pdfrwt beam="2">  1        2 0.27657662E-01 0.28001639E+02</pdfrwt>
<pdfrwt beam="1">  1        1 0.30724216E+00 0.39010628E+02</pdfrwt>
<totfact> 0.10588274E+02</totfact>
</mgrwt>
</event>
<event>
 5    1  0.8274494E-003  0.5643039E+02  0.7546771E-02  0.1511775E+00
         -2   -1    0    0    0  501 -0.00000000000E+00  0.00000000000E+00  0.18567592668E+03  0.18567592668E+03  0.00000000000E+00 0.  1.
          2   -1    0    0  502    0  0.00000000000E+00 -0.00000000000E+00 -0.47842257901E+03  0.47842257901E+03  0.00000000000E+00 0. -1.
         25    1    1    2    0    0  0.59087578157E+02 -0.45374300280E+02 -0.90667822322E+02  0.17145210125E+03  0.12500000000E+03 0.  0.
          1    1    1    2  502    0 -0.31415648767E+02  0.45898782453E+02 -0.34378875749E+03  0.34825902859E+03  0.00000000000E+00 0. -1.
         -1    1    1    2    0  501 -0.27671929390E+02 -0.52448217347E+00  0.14170992749E+03  0.14438737585E+03  0.00000000000E+00 0.  1.
<mgrwt>
<rscale>  0 0.39519845E+02</rscale>
<asrwt>0</asrwt>
<pdfrwt beam="2">  1        2 0.73603472E-01 0.56430386E+02</pdfrwt>
<pdfrwt beam="1">  1       -2 0.28565528E-01 0.27676899E+02</pdfrwt>
<totfact> 0.70474415E+02</totfact>
</mgrwt>
</event>
<event>
 5    1  0.8274494E-003  0.3935202E+02  0.7546771E-02  0.1513105E+00
          1   -1    0    0  501    0 -0.00000000000E+00  0.00000000000E+00  0.67727820942E+02  0.67727820942E+02  0.00000000000E+00 0. -1.
          2   -1    0    0  502    0  0.00000000000E+00 -0.00000000000E+00 -0.96647422917E+03  0.96647422917E+03  0.00000000000E+00 0. -1.
         25    1    1    2    0    0 -0.67552672115E+01  0.40272662357E+02 -0.42961764959E+03  0.44929260601E+03  0.12500000000E+03 0.  0.
          2    1    1    2  501    0  0.37070294746E+02 -0.13149513523E+02  0.50320920824E+02  0.63869488263E+02  0.00000000000E+00 0. -1.
          1    1    1    2  502    0 -0.30315027535E+02 -0.27123148833E+02 -0.51944967945E+03  0.52103995584E+03  0.00000000000E+00 0. -1.
<mgrwt>
<rscale>  0 0.39342711E+02</rscale>
<asrwt>0</asrwt>
<pdfrwt beam="2">  1        2 0.14868834E+00 0.39352023E+02</pdfrwt>
<pdfrwt beam="1">  1        1 0.10419665E-01 0.39333401E+02</pdfrwt>
<totfact> 0.22093887E+03</totfact>
</mgrwt>
</event>
<event>
 5    1  0.8274494E-003  0.4584787E+02  0.7546771E-02  0.1538117E+00
          2   -1    0    0  502    0  0.00000000000E+00  0.00000000000E+00  0.22420734927E+04  0.22420734927E+04  0.00000000000E+00 0. -1.
         -2   -1    0    0    0  501 -0.00000000000E+00 -0.00000000000E+00 -0.17620785581E+02  0.17620785581E+02  0.00000000000E+00 0.  1.
         25    1    1    2    0    0  0.28379016420E+02  0.11516393472E+02  0.13524223937E+04  0.13585320485E+04  0.12500000000E+03 0.  0.
          1    1    1    2  502    0 -0.44072284662E+01  0.28255336927E+02  0.84872165924E+03  0.84920329874E+03  0.00000000000E+00 0. -1.
         -1    1    1    2    0  501 -0.23971787953E+02 -0.39771730399E+02  0.23308654249E+02  0.51958931085E+02  0.00000000000E+00 0.  1.
<mgrwt>
<rscale>  0 0.36209265E+02</rscale>
<asrwt>0</asrwt>
<pdfrwt beam="1">  1        2 0.34493416E+00 0.28596988E+02</pdfrwt>
<pdfrwt beam="2">  1       -2 0.27108919E-02 0.45847866E+02</pdfrwt>
<totfact> 0.29232966E+03</totfact>
</mgrwt>
</event>
<event>
 5    1  0.8274494E-003  0.8353569E+02  0.7546771E-02  0.1485649E+00
          1   -1    0    0  502    0  0.00000000000E+00  0.00000000000E+00  0.26649945921E+03  0.26649945921E+03  0.00000000000E+00 0. -1.
         -1   -1    0    0    0  501 -0.00000000000E+00 -0.00000000000E+00 -0.31252398910E+03  0.31252398910E+03  0.00000000000E+00 0.  1.
         25    1    1    2    0    0 -0.41364401523E+01  0.62355338653E+02 -0.17066067216E+03  0.22057960789E+03  0.12500000000E+03 0.  0.
          2    1    1    2  502    0  0.11210945877E+02 -0.83588084165E+02  0.23299971438E+03  0.24779330101E+03  0.00000000000E+00 0. -1.
         -2    1    1    2    0  501 -0.70745057252E+01  0.21232745512E+02 -0.10836357210E+03  0.11065053941E+03  0.00000000000E+00 0.  1.
<mgrwt>
<rscale>  0 0.43238342E+02</rscale>
<asrwt>0</asrwt>
<pdfrwt beam="1">  1        1 0.40999916E-01 0.83535686E+02</pdfrwt>
<pdfrwt beam="2">  1       -1 0.48080614E-01 0.22380306E+02</pdfrwt>
<totfact> 0.45226323E+02</totfact>
</mgrwt>
</event>
<event>
 5    1  0.8274494E-003  0.5278604E+02  0.7546771E-02  0.1558320E+00
          2   -1    0    0  502    0  0.00000000000E+00  0.00000000000E+00  0.12304521384E+04  0.12304521384E+04  0.00000000000E+00 0. -1.
          1   -1    0    0  501    0 -0.00000000000E+00 -0.00000000000E+00 -0.32412239576E+03  0.32412239576E+03  0.00000000000E+00 0. -1.
         25    1    1    2    0    0 -0.44833918687E+02  0.21899896191E+02  0.56117909770E+03  0.57709329005E+03  0.12500000000E+03 0.  0.
          2    1    1    2  501    0  0.52790255824E+02 -0.15943814685E+01 -0.31377802581E+03  0.31819177023E+03  0.00000000000E+00 0. -1.
          1    1    1    2  502    0 -0.79563371366E+01 -0.20305514723E+02  0.65892867071E+03  0.65928947384E+03  0.00000000000E+00 0. -1.
<mgrwt>
<rscale>  0 0.33929224E+02</rscale>
<asrwt>0</asrwt>
<pdfrwt beam="1">  1        2 0.18930033E+00 0.21808650E+02</pdfrwt>
<pdfrwt beam="2">  1        1 0.49864985E-01 0.52786036E+02</pdfrwt>
<totfact> 0.24851471E+02</totfact>
</mgrwt>
</event>
<event>
 5    1  0.8274494E-003  0.1068810E+03  0.7546771E-02  0.1280962E+00
          1   -1    0    0  501    0 -0.00000000000E+00  0.00000000000E+00  0.84970717075E+03  0.84970717075E+03  0.00000000000E+00 0. -1.
          2   -1    0    0  502    0  0.00000000000E+00 -0.00000000000E+00 -0.17604601951E+04  0.17604601951E+04  0.00000000000E+00 0. -1.
         25    1    1    2    0    0  0.26039439153E+02 -0.19165471325E+03 -0.18914188564E+03  0.29800878243E+03  0.12500000000E+03 0.  0.
          2    1    1    2  501    0  0.85304172672E+01  0.10534947854E+03  0.79032774627E+03  0.79736392392E+03  0.00000000000E+00 0. -1.
          1    1    1    2  502    0 -0.34569856421E+02  0.86305234714E+02 -0.15119388850E+04  0.15147946595E+04  0.00000000000E+00 0. -1.
<mgrwt>
<rscale>  0 0.99683834E+02</rscale>
<asrwt>0</asrwt>
<pdfrwt beam="2">  1        2 0.27084003E+00 0.92971332E+02</pdfrwt>
<pdfrwt beam="1">  1        1 0.13072418E+00 0.10688098E+03</pdfrwt>
<totfact> 0.33185845E+01</totfact>
</mgrwt>
</event>
<event>
 5    1  0.8274494E-003  0.1704447E+03  0.7546771E-02  0.1241744E+00
          1   -1    0    0  501    0 -0.00000000000E+00  0.00000000000E+00  0.89314839213E+02  0.89314839213E+02  0.00000000000E+00 0. -1.
          2   -1    0    0  502    0  0.00000000000E+00 -0.00000000000E+00 -0.16999815941E+04  0.16999815941E+04  0.00000000000E+00 0. -1.
         25    1    1    2    0    0  0.62134190794E+02 -0.23097362889E+03 -0.56558383317E+03  0.62667339759E+03  0.12500000000E+03 0.  0.
          2    1    1    2  501    0 -0.42151476770E+02  0.74558870115E+02  0.18325006399E+02  0.87587544584E+02  0.00000000000E+00 0. -1.
          1    1    1    2  502    0 -0.19982714024E+02  0.15641475877E+03 -0.10634079282E+04  0.10750354912E+04  0.00000000000E+00 0. -1.
<mgrwt>
<rscale>  0 0.12082400E+03</rscale>
<asrwt>0</asrwt>
<pdfrwt beam="2">  1        2 0.26153563E+00 0.17044469E+03</pdfrwt>
<pdfrwt beam="1">  1        1 0.13740744E-01 0.85649122E+02</pdfrwt>
<totfact> 0.60103622E+02</totfact>
</mgrwt>
</event>
<event>
 5    1  0.8274494E-003  0.7923768E+02  0.7546771E-02  0.1344612E+00
          2   -1    0    0  502    0  0.00000000000E+00  0.00000000000E+00  0.11692153374E+04  0.11692153374E+04  0.00000000000E+00 0. -1.
         -2   -1    0    0    0  501 -0.00000000000E+00 -0.00000000000E+00 -0.44564707058E+02  0.44564707058E+02  0.00000000000E+00 0.  1.
         25    1    1    2    0    0  0.49579444939E+02 -0.13385282729E+02  0.37911193548E+03  0.40247751089E+03  0.12500000000E+03 0.  0.
          1    1    1    2  502    0 -0.72294590279E+02 -0.53394984319E+02  0.73441399720E+03  0.73989286482E+03  0.00000000000E+00 0. -1.
         -1    1    1    2    0  501  0.22715145340E+02  0.66780267049E+02  0.11124697695E+02  0.71409668769E+02  0.00000000000E+00 0.  1.
<mgrwt>
<rscale>  0 0.74761299E+02</rscale>
<asrwt>0</asrwt>
<pdfrwt beam="1">  1        2 0.17987926E+00 0.79237677E+02</pdfrwt>
<pdfrwt beam="2">  1       -2 0.68561097E-02 0.70537805E+02</pdfrwt>
<totfact> 0.24335935E+03</totfact>
</mgrwt>
</event>
<event>
 5    1  0.8274494E-003  0.6283081E+02  0.7546771E-02  0.1502844E+00
          2   -1    0    0  502    0  0.00000000000E+00  0.00000000000E+00  0.89021012383E+02  0.89021012383E+02  0.00000000000E+00 0. -1.
          1   -1    0    0  501    0 -0.00000000000E+00 -0.00000000000E+00 -0.65505848740E+03  0.65505848740E+03  0.00000000000E+00 0. -1.
         25    1    1    2    0    0 -0.71120354255E+02  0.37304823491E+02 -0.58266727428E+02  0.15959250036E+03  0.12500000000E+03 0.  0.
          2    1    1    2  501    0  0.45284739067E+02 -0.42805337516E+02 -0.53956518118E+03  0.54315153433E+03  0.00000000000E+00 0. -1.
          1    1    1    2  502    0  0.25835615188E+02  0.55005140250E+01  0.31794433591E+02  0.41335465088E+02  0.00000000000E+00 0. -1.
<mgrwt>
<rscale>  0 0.40738864E+02</rscale>
<asrwt>0</asrwt>
<pdfrwt beam="1">  1        2 0.13695540E-01 0.26414668E+02</pdfrwt>
<pdfrwt beam="2">  1        1 0.10077823E+00 0.62830812E+02</pdfrwt>
<totfact> 0.17019674E+03</totfact>
</mgrwt>
</event>
<event>
 5    1  0.8274494E-003  0.3708504E+02  0.7546771E-02  0.1575912E+00
          2   -1    0    0  502    0  0.00000000000E+00  0.00000000000E+00  0.12810956140E+04  0.12810956140E+04  0.00000000000E+00 0. -1.
          1   -1    0    0  501    0 -0.00000000000E+00 -0.00000000000E+00 -0.14079075164E+02  0.14079075164E+02  0.00000000000E+00 0. -1.
         25    1    1    2    0    0  0.30870132553E+02  0.62679549204E+01  0.10098686253E+04  0.10180628138E+04  0.12500000000E+03 0.  0.
          2    1    1    2  501    0 -0.30903333169E+02  0.21527466834E+02  0.29678710270E+02  0.47950742148E+02  0.00000000000E+00 0. -1.
          1    1    1    2  502    0  0.33200616715E-01 -0.27795421754E+02  0.22746920326E+03  0.22916113327E+03  0.00000000000E+00 0. -1.
<mgrwt>
<rscale>  0 0.32105998E+02</rscale>
<asrwt>0</asrwt>
<pdfrwt beam="1">  1        2 0.19709154E+00 0.27795442E+02</pdfrwt>
<pdfrwt beam="2">  1        1 0.21660126E-02 0.37085043E+02</pdfrwt>
<totfact> 0.11954133E+04</totfact>
</mgrwt>
</event>
<event>
 5    1  0.8274494E-003  0.5829639E+02  0.7546771E-02  0.1438028E+00
          2   -1    0    0  502    0  0.00000000000E+00  0.00000000000E+00  0.10625351556E+04  0.10625351556E+04  0.00000000000E+00 0. -1.
          1   -1    0    0  501    0 -0.00000000000E+00 -0.00000000000E+00 -0.54358946803E+02  0.54358946803E+02  0.00000000000E+00 0. -1.
         25    1    1    2    0    0  0.77962988549E+01 -0.42703532742E+02  0.80222465259E+02  0.15474177819E+03  0.12500000000E+03 0.  0.
          2    1    1    2  501    0  0.31461758021E+02  0.65280940866E+02  0.63027222900E+02  0.96041003142E+02  0.00000000000E+00 0. -1.
          1    1    1    2  502    0 -0.39258056876E+02 -0.22577408124E+02  0.86492652068E+03  0.86611132111E+03  0.00000000000E+00 0. -1.
<mgrwt>
<rscale>  0 0.51381737E+02</rscale>
<asrwt>0</asrwt>
<pdfrwt beam="1">  1        2 0.16346693E+00 0.45287243E+02</pdfrwt>
<pdfrwt beam="2">  1        1 0.83629157E-02 0.58296391E+02</pdfrwt>
<totfact> 0.26524981E+03</totfact>
</mgrwt>
</event>
<event>
 5    1  0.8274494E-003  0.1123951E+03  0.7546771E-02  0.1334913E+00
          1   -1    0    0  501    0 -0.00000000000E+00  0.00000000000E+00  0.11086700955E+04  0.11086700955E+04  0.00000000000E+00 0. -1.
          2   -1    0    0  502    0  0.00000000000E+00 -0.00000000000E+00 -0.13496864661E+03  0.13496864661E+03  0.00000000000E+00 0. -1.
         25    1    1    2    0    0 -0.73085264954E+02 -0.28834746326E+01  0.28822295131E+03  0.32256354419E+03  0.12500000000E+03 0.  0.
          2    1    1    2  501    0  0.12211007409E+03 -0.19967998258E+02  0.79200050457E+03  0.80160737920E+03  0.00000000000E+00 0. -1.
          1    1    1    2  502    0 -0.49024809137E+02  0.22851472891E+02 -0.10652200702E+03  0.11946781870E+03  0.00000000000E+00 0. -1.
<mgrwt>
<rscale>  0 0.77970109E+02</rscale>
<asrwt>0</asrwt>
<pdfrwt beam="2">  1        2 0.20764408E-01 0.54089017E+02</pdfrwt>
<pdfrwt beam="1">  1        1 0.17056462E+00 0.11239505E+03</pdfrwt>
<totfact> 0.48416021E+02</totfact>
</mgrwt>
</event>
<event>
 5    1  0.8274494E-003  0.1235313E+03  0.7546771E-02  0.1282910E+00
          1   -1    0    0  501    0 -0.00000000000E+00  0.00000000000E+00  0.41544029901E+03  0.41544029901E+03  0.00000000000E+00 0. -1.
          2   -1    0    0  502    0  0.00000000000E+00 -0.00000000000E+00 -0.61848832427E+03  0.61848832427E+03  0.00000000000E+00 0. -1.
         25    1    1    2    0    0  0.98824323713E+02 -0.94069271370E+02 -0.23344699216E+02  0.18650804207E+03  0.12500000000E+03 0.  0.
          2    1    1    2  501    0 -0.12310014181E+03  0.18925844692E+02  0.31902745167E+03  0.34247678378E+03  0.00000000000E+00 0. -1.
          1    1    1    2  502    0  0.24275818093E+02  0.75143426679E+02 -0.49873077772E+03  0.50494379742E+03  0.00000000000E+00 0. -1.
<mgrwt>
<rscale>  0 0.98767138E+02</rscale>
<asrwt>0</asrwt>
<pdfrwt beam="2">  1        2 0.95152050E-01 0.78967398E+02</pdfrwt>
<pdfrwt beam="1">  1        1 0.63913892E-01 0.12353133E+03</pdfrwt>
<totfact> 0.39993057E+02</totfact>
</mgrwt>
</event>
<event>
 5    1  0.8274494E-003  0.6730515E+02  0.7546771E-02  0.1390420E+00
          2   -1    0    0  502    0  0.00000000000E+00  0.00000000000E+00  0.10388885610E+04  0.10388885610E+04  0.00000000000E+00 0. -1.
          1   -1    0    0  501    0 -0.00000000000E+00 -0.00000000000E+00 -0.39238824403E+03  0.39238824403E+03  0.00000000000E+00 0. -1.
         25    1    1    2    0    0 -0.42472745464E+02 -0.11280450605E+03 -0.57420851233E+02  0.18289599462E+03  0.12500000000E+03 0.  0.
          2    1    1    2  501    0  0.18415991228E+02  0.61406410007E+02 -0.26761601279E+03  0.27518762004E+03  0.00000000000E+00 0. -1.
          1    1    1    2  502    0  0.24056754236E+02  0.51398096043E+02  0.97153718096E+03  0.97319319032E+03  0.00000000000E+00 0. -1.
<mgrwt>
<rscale>  0 0.61802306E+02</rscale>
<asrwt>0</asrwt>
<pdfrwt beam="1">  1        2 0.15982901E+00 0.56749376E+02</pdfrwt>
<pdfrwt beam="2">  1        1 0.60367422E-01 0.67305146E+02</pdfrwt>
<totfact> 0.23351787E+02</totfact>
</mgrwt>
</event>
<event>
 5    1  0.8274494E-003  0.3598758E+02  0.7546771E-02  0.1551368E+00
          2   -1    0    0  502    0  0.00000000000E+00  0.00000000000E+00  0.15243707116E+04  0.15243707116E+04  0.00000000000E+00 0. -1.
         -2   -1    0    0    0  501 -0.00000000000E+00 -0.00000000000E+00 -0.80854882602E+02  0.80854882602E+02  0.00000000000E+00 0.  1.
         25    1    1    2    0    0 -0.40468061317E+00  0.86800943111E+01  0.70688173176E+03  0.71790130972E+03  0.12500000000E+03 0.  0.
          1    1    1    2  502    0 -0.33045133163E+02  0.51219812571E+01  0.80726835744E+03  0.80796065278E+03  0.00000000000E+00 0. -1.
         -3    1    1    2    0  501  0.33449813776E+02 -0.13802075568E+02 -0.70634260171E+02  0.79363631731E+02  0.00000000000E+00 0.  1.
<mgrwt>
<rscale>  0 0.34690270E+02</rscale>
<asrwt>0</asrwt>
<pdfrwt beam="1">  1        2 0.23451855E+00 0.33439730E+02</pdfrwt>
<pdfrwt beam="2">  1       -2 0.12439214E-01 0.35987577E+02</pdfrwt>
<totfact> 0.65433524E+02</totfact>
</mgrwt>
</event>
<event>
 5    1  0.8274494E-003  0.8204511E+02  0.7546771E-02  0.1337547E+00
         -1   -1    0    0    0  501 -0.00000000000E+00  0.00000000000E+00  0.62984120380E+02  0.62984120380E+02  0.00000000000E+00 0.  1.
          1   -1    0    0  502    0  0.00000000000E+00 -0.00000000000E+00 -0.12351770484E+04  0.12351770484E+04  0.00000000000E+00 0. -1.
         25    1    1    2    0    0  0.14020065509E+03 -0.22369175720E+02 -0.32035142832E+03  0.37203043066E+03  0.12500000000E+03 0.  0.
          2    1    1    2  502    0 -0.77198012450E+02 -0.13334153839E+02 -0.85009153455E+03  0.85369370965E+03  0.00000000000E+00 0. -1.
         -2    1    1    2    0  501 -0.63002642645E+02  0.35703329559E+02 -0.17499651986E+01  0.72437028515E+02  0.00000000000E+00 0.  1.
<mgrwt>
<rscale>  0 0.77080279E+02</rscale>
<asrwt>0</asrwt>
<pdfrwt beam="2">  1        1 0.19002723E+00 0.82045110E+02</pdfrwt>
<pdfrwt beam="1">  1       -1 0.96898650E-02 0.72415887E+02</pdfrwt>
<totfact> 0.70195393E+02</totfact>
</mgrwt>
</event>
<event>
 5    1  0.8274494E-003  0.2969746E+02  0.7546771E-02  0.1643748E+00
          1   -1    0    0  501    0 -0.00000000000E+00  0.00000000000E+00  0.96988512790E+02  0.96988512790E+02  0.00000000000E+00 0. -1.
          2   -1    0    0  502    0  0.00000000000E+00 -0.00000000000E+00 -0.18398265871E+04  0.18398265871E+04  0.00000000000E+00 0. -1.
         25    1    1    2    0    0 -0.48347009687E+02 -0.15332977929E+02 -0.62163667038E+01  0.13504138911E+03  0.12500000000E+03 0.  0.
          2    1    1    2  501    0  0.23189499637E+02 -0.37711421010E+00  0.28307549743E+02  0.36595252165E+02  0.00000000000E+00 0. -1.
          1    1    1    2  502    0  0.25157510050E+02  0.15710092140E+02 -0.17649292574E+04  0.17651784586E+04  0.00000000000E+00 0. -1.
<mgrwt>
<rscale>  0 0.26244243E+02</rscale>
<asrwt>0</asrwt>
<pdfrwt beam="2">  1        2 0.28305023E+00 0.29697460E+02</pdfrwt>
<pdfrwt beam="1">  1        1 0.14921310E-01 0.23192566E+02</pdfrwt>
<totfact> 0.50825477E+02</totfact>
</mgrwt>
</event>
<event>
 5    1  0.8274494E-003  0.1314686E+03  0.7546771E-02  0.1336198E+00
         -1   -1    0    0    0  501 -0.00000000000E+00  0.00000000000E+00  0.30099761615E+03  0.30099761615E+03  0.00000000000E+00 0.  1.
          1   -1    0    0  502    0  0.00000000000E+00 -0.00000000000E+00 -0.17233042301E+04  0.17233042301E+04  0.00000000000E+00 0. -1.
         25    1    1    2    0    0 -0.59452922858E+02 -0.16043724937E+03 -0.64940371638E+03  0.68309951535E+03  0.12500000000E+03 0.  0.
          2    1    1    2  502    0  0.31895439724E+02  0.32765303055E+02 -0.10415151372E+04  0.10425184244E+04  0.00000000000E+00 0. -1.
         -2    1    1    2    0  501  0.27557483134E+02  0.12767194631E+03  0.26861223962E+03  0.29868390654E+03  0.00000000000E+00 0.  1.
<mgrwt>
<rscale>  0 0.77534245E+02</rscale>
<asrwt>0</asrwt>
<pdfrwt beam="2">  1        1 0.26512372E+00 0.45726187E+02</pdfrwt>
<pdfrwt beam="1">  1       -1 0.46307326E-01 0.13146863E+03</pdfrwt>
<totfact> 0.29825011E+01</totfact>
</mgrwt>
</event>
<event>
 5    1  0.8274494E-003  0.1249035E+03  0.7546771E-02  0.1285004E+00
         -1   -1    0    0    0  501 -0.00000000000E+00  0.00000000000E+00  0.45315841181E+02  0.45315841181E+02  0.00000000000E+00 0.  1.
          1   -1    0    0  502    0  0.00000000000E+00 -0.00000000000E+00 -0.37365052719E+04  0.37365052719E+04  0.00000000000E+00 0. -1.
         25    1    1    2    0    0 -0.13264375756E+03 -0.31076462496E+02 -0.33275586145E+03  0.38067253154E+03  0.12500000000E+03 0.  0.
          2    1    1    2  502    0  0.45886816000E+02 -0.61295535130E+02 -0.31872126871E+04  0.31881322833E+04  0.00000000000E+00 0. -1.
         -2    1    1    2    0  501  0.86756941557E+02  0.92371997626E+02 -0.17122088212E+03  0.21301629826E+03  0.00000000000E+00 0.  1.
<mgrwt>
<rscale>  0 0.97794063E+02</rscale>
<asrwt>0</asrwt>
<pdfrwt beam="2">  1        1 0.57484718E+00 0.76568548E+02</pdfrwt>
<pdfrwt beam="1">  1       -1 0.69716652E-02 0.12490349E+03</pdfrwt>
<totfact> 0.26672514E+01</totfact>
</mgrwt>
</event>
<event>
 5    1  0.8274494E-003  0.4276766E+02  0.7546771E-02  0.1506475E+00
          2   -1    0    0  502    0  0.00000000000E+00  0.00000000000E+00  0.11572589193E+02  0.11572589193E+02  0.00000000000E+00 0. -1.
         -2   -1    0    0    0  501 -0.00000000000E+00 -0.00000000000E+00 -0.10639857038E+04  0.10639857038E+04  0.00000000000E+00 0.  1.
         25    1    1    2    0    0 -0.31083303760E+01 -0.37766776408E+01 -0.57873765218E+03  0.59210319629E+03  0.12500000000E+03 0.  0.
          3    1    1    2  502    0  0.92369518064E+01  0.46102941085E+02 -0.15654324508E+03  0.16345210318E+03  0.00000000000E+00 0. -1.
         -3    1    1    2    0  501 -0.61286214304E+01 -0.42326263444E+02 -0.31713221738E+03  0.32000299354E+03  0.00000000000E+00 0.  1.
<mgrwt>
<rscale>  0 0.40236977E+02</rscale>
<asrwt>0</asrwt>
<pdfrwt beam="1">  1        2 0.17803984E-02 0.37856043E+02</pdfrwt>
<pdfrwt beam="2">  1       -2 0.16369010E+00 0.42767658E+02</pdfrwt>
<totfact> 0.13779733E+03</totfact>
</mgrwt>
</event>
<event>
 5    1  0.8274494E-003  0.1027761E+03  0.7546771E-02  0.1300617E+00
          1   -1    0    0  502    0  0.00000000000E+00  0.00000000000E+00  0.18554675335E+04  0.18554675335E+04  0.00000000000E+00 0. -1.
         -1   -1    0    0    0  501 -0.00000000000E+00 -0.00000000000E+00 -0.84254951371E+02  0.84254951371E+02  0.00000000000E+00 0.  1.
         25    1    1    2    0    0  0.17570013061E+03  0.19598815493E+02  0.53361222810E+03  0.57586600824E+03  0.12500000000E+03 0.  0.
          2    1    1    2  502    0 -0.96011640676E+02 -0.85701383403E+01  0.12725134933E+04  0.12761591880E+04  0.00000000000E+00 0. -1.
         -2    1    1    2    0  501 -0.79688489931E+02 -0.11028677152E+02 -0.34913139262E+02  0.87697288671E+02  0.00000000000E+00 0.  1.
<mgrwt>
<rscale>  0 0.90929307E+02</rscale>
<asrwt>0</asrwt>
<pdfrwt beam="1">  1        1 0.28545651E+00 0.10277614E+03</pdfrwt>
<pdfrwt beam="2">  1       -1 0.12962302E-01 0.80448040E+02</pdfrwt>
<totfact> 0.17865299E+02</totfact>
</mgrwt>
</event>
<event>
 5    1  0.8274494E-003  0.1152683E+03  0.7546771E-02  0.1372055E+00
          2   -1    0    0  502    0  0.00000000000E+00  0.00000000000E+00  0.18638842999E+04  0.18638842999E+04  0.00000000000E+00 0. -1.
         -2   -1    0    0    0  501 -0.00000000000E+00 -0.00000000000E+00 -0.13167446613E+03  0.13167446613E+03  0.00000000000E+00 0.  1.
         25    1    1    2    0    0  0.14566324955E+03 -0.35103980524E+02  0.52736518044E+03  0.56230694932E+03  0.12500000000E+03 0.  0.
          1    1    1    2  502    0 -0.38422494045E+02 -0.20940286447E+01  0.12904858373E+04  0.12910593980E+04  0.00000000000E+00 0. -1.
         -3    1    1    2    0  501 -0.10724075550E+03  0.37198009169E+02 -0.85641183982E+02  0.14219241865E+03  0.00000000000E+00 0.  1.
<mgrwt>
<rscale>  0 0.66599299E+02</rscale>
<asrwt>0</asrwt>
<pdfrwt beam="1">  1        2 0.28675141E+00 0.38479514E+02</pdfrwt>
<pdfrwt beam="2">  1       -2 0.20257612E-01 0.11526826E+03</pdfrwt>
<totfact> 0.21545959E+02</totfact>
</mgrwt>
</event>
<event>
 5    1  0.8274494E-003  0.7509465E+02  0.7546771E-02  0.1446212E+00
         -2   -1    0    0    0  501  0.00000000000E+00  0.00000000000E+00  0.71072816069E+03  0.71072816069E+03  0.00000000000E+00 0.  1.
         -1   -1    0    0    0  502 -0.00000000000E+00 -0.00000000000E+00 -0.12283189984E+03  0.12283189984E+03  0.00000000000E+00 0.  1.
         25    1    1    2    0    0 -0.71969285303E+02  0.72949129044E+02  0.52364908387E+02  0.16990655398E+03  0.12500000000E+03 0.  0.
         -2    1    1    2    0  502  0.44529536262E+02 -0.54478335690E+02 -0.44125825754E+02  0.83053339233E+02  0.00000000000E+00 0.  1.
         -1    1    1    2    0  501  0.27439749041E+02 -0.18470793354E+02  0.57965717821E+03  0.58060016731E+03  0.00000000000E+00 0.  1.
<mgrwt>
<rscale>  0 0.49839049E+02</rscale>
<asrwt>0</asrwt>
<pdfrwt beam="1">  1       -2 0.10934279E+00 0.33077334E+02</pdfrwt>
<pdfrwt beam="2">  1       -1 0.18897216E-01 0.75094649E+02</pdfrwt>
<totfact> 0.11648815E+02</totfact>
</mgrwt>
</event>
<event>
 5    1  0.8274494E-003  0.9034069E+02  0.7546771E-02  0.1393154E+00
         -1   -1    0    0    0  502 -0.00000000000E+00  0.00000000000E+00  0.66121200066E+02  0.66121200066E+02  0.00000000000E+00 0.  1.
         -2   -1    0    0    0  501  0.00000000000E+00 -0.00000000000E+00 -0.50371653820E+03  0.50371653820E+03  0.00000000000E+00 0.  1.
         25    1    1    2    0    0  0.63119423253E+02 -0.89077431316E+02 -0.86671924448E+02  0.18723213626E+03  0.12500000000E+03 0.  0.
         -2    1    1    2    0  502  0.10859777969E+02  0.39911684814E+02 -0.34226061033E+02  0.53687061906E+02  0.00000000000E+00 0.  1.
         -1    1    1    2    0  501 -0.73979201223E+02  0.49165746502E+02 -0.31669735266E+03  0.32891854010E+03  0.00000000000E+00 0.  1.
<mgrwt>
<rscale>  0 0.61128879E+02</rscale>
<asrwt>0</asrwt>
<pdfrwt beam="2">  1       -2 0.77494851E-01 0.90340694E+02</pdfrwt>
<pdfrwt beam="1">  1       -1 0.10172492E-01 0.41362753E+02</pdfrwt>
<totfact> 0.60562162E+02</totfact>
</mgrwt>
</event>
<event>
 5    1  0.8274494E-003  0.3127417E+03  0.7546771E-02  0.1163068E+00
          1   -1    0    0  501    0 -0.00000000000E+00  0.00000000000E+00  0.17966600191E+04  0.17966600191E+04  0.00000000000E+00 0. -1.
          2   -1    0    0  502    0  0.00000000000E+00 -0.00000000000E+00 -0.56995911382E+03  0.56995911382E+03  0.00000000000E+00 0. -1.
         25    1    1    2    0    0  0.15290549229E+03 -0.18222811201E+03 -0.16398821511E+03  0.31480836881E+03  0.12500000000E+03 0.  0.
          2    1    1    2  501    0 -0.26228611352E+03  0.17958100642E+03  0.16970161110E+04  0.17265303426E+04  0.00000000000E+00 0. -1.
          1    1    1    2  502    0  0.10938062123E+03  0.26471055889E+01 -0.30632699054E+03  0.32528042149E+03  0.00000000000E+00 0. -1.
<mgrwt>
<rscale>  0 0.18498079E+03</rscale>
<asrwt>0</asrwt>
<pdfrwt beam="2">  1        2 0.87686019E-01 0.10941265E+03</pdfrwt>
<pdfrwt beam="1">  1        1 0.27640923E+00 0.31274166E+03</pdfrwt>
<totfact> 0.33817769E+01</totfact>
</mgrwt>
</event>
<event>
 5    1  0.8274494E-003  0.1682836E+03  0.7546771E-02  0.1333608E+00
          1   -1    0    0  501    0 -0.00000000000E+00  0.00000000000E+00  0.78583004575E+02  0.78583004575E+02  0.00000000000E+00 0. -1.
          2   -1    0    0  502    0  0.00000000000E+00 -0.00000000000E+00 -0.27335642247E+04  0.27335642247E+04  0.00000000000E+00 0. -1.
         25    1    1    2    0    0  0.15592458111E+03  0.96008445324E+02 -0.27068927542E+03  0.34989681393E+03  0.12500000000E+03 0.  0.
          2    1    1    2  501    0  0.57320814880E+00 -0.36535248918E+02  0.26824319067E+02  0.45328766523E+02  0.00000000000E+00 0. -1.
          1    1    1    2  502    0 -0.15649778926E+03 -0.59473196406E+02 -0.24111162638E+04  0.24169216488E+04  0.00000000000E+00 0. -1.
<mgrwt>
<rscale>  0 0.78415804E+02</rscale>
<asrwt>0</asrwt>
<pdfrwt beam="2">  1        2 0.42054837E+00 0.16828356E+03</pdfrwt>
<pdfrwt beam="1">  1        1 0.12089692E-01 0.36539745E+02</pdfrwt>
<totfact> 0.19134124E+02</totfact>
</mgrwt>
</event>
<event>
 5    1  0.8274494E-003  0.8446896E+02  0.7546771E-02  0.1321641E+00
          1   -1    0    0  501    0 -0.00000000000E+00  0.00000000000E+00  0.22126440018E+03  0.22126440018E+03  0.00000000000E+00 0. -1.
          2   -1    0    0  502    0  0.00000000000E+00 -0.00000000000E+00 -0.69136749420E+03  0.69136749420E+03  0.00000000000E+00 0. -1.
         25    1    1    2    0    0 -0.26519013936E+02 -0.60577702640E+02 -0.12314040048E+02  0.14194911673E+03  0.12500000000E+03 0.  0.
          2    1    1    2  501    0  0.80549002498E+02 -0.76241052773E+01  0.14263618555E+03  0.16398582321E+03  0.00000000000E+00 0. -1.
          3    1    1    2  502    0 -0.54029988563E+02  0.68201807917E+02 -0.60042523953E+03  0.60669695444E+03  0.00000000000E+00 0. -1.
<mgrwt>
<rscale>  0 0.82669828E+02</rscale>
<asrwt>0</asrwt>
<pdfrwt beam="2">  1        2 0.10636423E+00 0.84468960E+02</pdfrwt>
<pdfrwt beam="1">  1        1 0.34040678E-01 0.80909015E+02</pdfrwt>
<totfact> 0.76363800E+02</totfact>
</mgrwt>
</event>
<event>
 5    1  0.8274494E-003  0.4924633E+02  0.7546771E-02  0.1491255E+00
          1   -1    0    0  501    0 -0.00000000000E+00  0.00000000000E+00  0.35943080326E+02  0.35943080326E+02  0.00000000000E+00 0. -1.
          2   -1    0    0  502    0  0.00000000000E+00 -0.00000000000E+00 -0.24376067344E+04  0.24376067344E+04  0.00000000000E+00 0. -1.
         25    1    1    2    0    0 -0.57100163248E+01  0.25257928466E+01 -0.17465453463E+04  0.17510238806E+04  0.12500000000E+03 0.  0.
          2    1    1    2  501    0  0.58928705765E+01  0.48892484914E+02  0.14186472398E+02  0.51248970759E+02  0.00000000000E+00 0. -1.
          1    1    1    2  502    0 -0.18285425170E+00 -0.51418277761E+02 -0.66930478020E+03  0.67127696335E+03  0.00000000000E+00 0. -1.
<mgrwt>
<rscale>  0 0.42400456E+02</rscale>
<asrwt>0</asrwt>
<pdfrwt beam="2">  1        2 0.37501643E+00 0.36506246E+02</pdfrwt>
<pdfrwt beam="1">  1        1 0.55297046E-02 0.49246330E+02</pdfrwt>
<totfact> 0.96089353E+02</totfact>
</mgrwt>
</event>
<event>
 5    1  0.8274494E-003  0.1104172E+03  0.7546771E-02  0.1343158E+00
          2   -1    0    0  502    0  0.00000000000E+00  0.00000000000E+00  0.17591615309E+04  0.17591615309E+04  0.00000000000E+00 0. -1.
          1   -1    0    0  501    0 -0.00000000000E+00 -0.00000000000E+00 -0.35316139383E+03  0.35316139383E+03  0.00000000000E+00 0. -1.
         25    1    1    2    0    0  0.45861111609E+02  0.90786253196E+02 -0.15807397731E+02  0.16192670919E+03  0.12500000000E+03 0.  0.
          2    1    1    2  501    0  0.10207775651E+00 -0.11347303353E+03 -0.25170410405E+03  0.27609979311E+03  0.00000000000E+00 0. -1.
          1    1    1    2  502    0 -0.45963189365E+02  0.22686780335E+02  0.16735116388E+04  0.16742964224E+04  0.00000000000E+00 0. -1.
<mgrwt>
<rscale>  0 0.75230842E+02</rscale>
<asrwt>0</asrwt>
<pdfrwt beam="1">  1        2 0.27064023E+00 0.51257241E+02</pdfrwt>
<pdfrwt beam="2">  1        1 0.54332523E-01 0.11041717E+03</pdfrwt>
<totfact> 0.11433916E+02</totfact>
</mgrwt>
</event>
<event>
 5    1  0.8274494E-003  0.4611971E+02  0.7546771E-02  0.1485592E+00
          1   -1    0    0  501    0 -0.00000000000E+00  0.00000000000E+00  0.12184583937E+03  0.12184583937E+03  0.00000000000E+00 0. -1.
          2   -1    0    0  502    0  0.00000000000E+00 -0.00000000000E+00 -0.59829170269E+03  0.59829170269E+03  0.00000000000E+00 0. -1.
         25    1    1    2    0    0 -0.52132985962E+02 -0.57390873506E+02 -0.17411460738E+02  0.14812062501E+03  0.12500000000E+03 0.  0.
          2    1    1    2  501    0  0.10148041617E+02  0.39262914329E+02  0.48049310403E+02  0.62875236942E+02  0.00000000000E+00 0. -1.
          1    1    1    2  502    0  0.41984944346E+02  0.18127959177E+02 -0.50708371298E+03  0.50914168011E+03  0.00000000000E+00 0. -1.
<mgrwt>
<rscale>  0 0.43246966E+02</rscale>
<asrwt>0</asrwt>
<pdfrwt beam="2">  1        2 0.92044879E-01 0.46119707E+02</pdfrwt>
<pdfrwt beam="1">  1        1 0.18745514E-01 0.40553165E+02</pdfrwt>
<totfact> 0.18470392E+03</totfact>
</mgrwt>
</event>
<event>
 5    1  0.8274494E-003  0.1416439E+03  0.7546771E-02  0.1261721E+00
          1   -1    0    0  501    0 -0.00000000000E+00  0.00000000000E+00  0.12212225297E+03  0.12212225297E+03  0.00000000000E+00 0. -1.
          2   -1    0    0  502    0  0.00000000000E+00 -0.00000000000E+00 -0.91942176754E+03  0.91942176754E+03  0.00000000000E+00 0. -1.
         25    1    1    2    0    0  0.67485663110E+02 -0.47044591485E+02 -0.16095303474E+03  0.21976894163E+03  0.12500000000E+03 0.  0.
          2    1    1    2  501    0 -0.14605650486E+03  0.78047692569E+02  0.13789671263E+02  0.16617490773E+03  0.00000000000E+00 0. -1.
          1    1    1    2  502    0  0.78570841745E+02 -0.31003101084E+02 -0.65013615109E+03  0.65560017114E+03  0.00000000000E+00 0. -1.
<mgrwt>
<rscale>  0 0.10938076E+03</rscale>
<asrwt>0</asrwt>
<pdfrwt beam="2">  1        2 0.14144950E+00 0.84466381E+02</pdfrwt>
<pdfrwt beam="1">  1        1 0.18788039E-01 0.14164394E+03</pdfrwt>
<totfact> 0.11463699E+03</totfact>
</mgrwt>
</event>
<event>
 5    1  0.8274494E-003  0.1415543E+03  0.7546771E-02  0.1370746E+00
         -1   -1    0    0    0  501 -0.00000000000E+00  0.00000000000E+00  0.62207543719E+03  0.62207543719E+03  0.00000000000E+00 0.  1.
          1   -1    0    0  502    0  0.00000000000E+00 -0.00000000000E+00 -0.42955477075E+03  0.42955477075E+03  0.00000000000E+00 0. -1.
         25    1    1    2    0    0 -0.12075136859E+03  0.21036311975E+02  0.98428146177E+02  0.20083953644E+03  0.12500000000E+03 0.  0.
          2    1    1    2  502    0 -0.17321691438E+02  0.26518650201E+02 -0.36636458108E+03  0.36773126883E+03  0.00000000000E+00 0. -1.
         -2    1    1    2    0  501  0.13807306003E+03 -0.47554962176E+02  0.46045710134E+03  0.48305940267E+03  0.00000000000E+00 0.  1.
<mgrwt>
<rscale>  0 0.66960243E+02</rscale>
<asrwt>0</asrwt>
<pdfrwt beam="2">  1        1 0.66085350E-01 0.31674592E+02</pdfrwt>
<pdfrwt beam="1">  1       -1 0.95703913E-01 0.14155428E+03</pdfrwt>
<totfact> 0.65905315E+01</totfact>
</mgrwt>
</event>
<event>
 5    1  0.8274494E-003  0.8503593E+02  0.7546771E-02  0.1391285E+00
          1   -1    0    0  502    0  0.00000000000E+00  0.00000000000E+00  0.37752988833E+03  0.37752988833E+03  0.00000000000E+00 0. -1.
         -1   -1    0    0    0  501 -0.00000000000E+00 -0.00000000000E+00 -0.30245914854E+03  0.30245914854E+03  0.00000000000E+00 0.  1.
         25    1    1    2    0    0 -0.66107681498E+02 -0.10260016851E+02  0.15672106680E+03  0.21133382663E+03  0.12500000000E+03 0.  0.
          2    1    1    2  502    0  0.78774149816E+02  0.53029856163E+02  0.17984863677E+03  0.20337911514E+03  0.00000000000E+00 0. -1.
         -2    1    1    2    0  501 -0.12666468318E+02 -0.42769839313E+02 -0.26149896378E+03  0.26527609511E+03  0.00000000000E+00 0.  1.
<mgrwt>
<rscale>  0 0.61588276E+02</rscale>
<asrwt>0</asrwt>
<pdfrwt beam="1">  1        1 0.58081521E-01 0.85035927E+02</pdfrwt>
<pdfrwt beam="2">  1       -1 0.46532177E-01 0.44606037E+02</pdfrwt>
<totfact> 0.31430105E+02</totfact>
</mgrwt>
</event>
<event>
 5    1  0.8274494E-003  0.7726819E+02  0.7546771E-02  0.1362207E+00
          1   -1    0    0  501    0 -0.00000000000E+00  0.00000000000E+00  0.29216469621E+02  0.29216469621E+02  0.00000000000E+00 0. -1.
          2   -1    0    0  502    0  0.00000000000E+00 -0.00000000000E+00 -0.19983259442E+04  0.19983259442E+04  0.00000000000E+00 0. -1.
         25    1    1    2    0    0 -0.12865714004E+02  0.25235961642E+02 -0.18723224441E+03  0.22689930301E+03  0.12500000000E+03 0.  0.
          2    1    1    2  501    0 -0.62261575121E+02  0.22055834317E+01 -0.10669355257E+03  0.12355113312E+03  0.00000000000E+00 0. -1.
          1    1    1    2  502    0  0.75127289125E+02 -0.27441545074E+02 -0.16751836776E+04  0.16770919777E+04  0.00000000000E+00 0. -1.
<mgrwt>
<rscale>  0 0.69381961E+02</rscale>
<asrwt>0</asrwt>
<pdfrwt beam="2">  1        2 0.30743481E+00 0.77268186E+02</pdfrwt>
<pdfrwt beam="1">  1        1 0.44948408E-02 0.62300629E+02</pdfrwt>
<totfact> 0.19445665E+03</totfact>
</mgrwt>
</event>
<event>
 5    1  0.8274494E-003  0.1885900E+03  0.7546771E-02  0.1288492E+00
         -1   -1    0    0    0  502 -0.00000000000E+00  0.00000000000E+00  0.18426563416E+04  0.18426563416E+04  0.00000000000E+00 0.  1.
         -2   -1    0    0    0  501  0.00000000000E+00 -0.00000000000E+00 -0.43241053606E+03  0.43241053606E+03  0.00000000000E+00 0.  1.
         25    1    1    2    0    0 -0.21789972233E+03 -0.56871470929E+02 -0.29620892895E+02  0.25926251271E+03  0.12500000000E+03 0.  0.
         -2    1    1    2    0  502  0.17202717751E+03  0.74305153482E+02  0.17206202494E+04  0.17307942247E+04  0.00000000000E+00 0.  1.
         -1    1    1    2    0  501  0.45872544824E+02 -0.17433682553E+02 -0.28075355097E+03  0.28501014024E+03  0.00000000000E+00 0.  1.
<mgrwt>
<rscale>  0 0.96201870E+02</rscale>
<asrwt>0</asrwt>
<pdfrwt beam="2">  1       -2 0.66524699E-01 0.49073655E+02</pdfrwt>
<pdfrwt beam="1">  1       -1 0.28348559E+00 0.18858998E+03</pdfrwt>
<totfact> 0.83068129E-01</totfact>
</mgrwt>
</event>
<event>
 5    1  0.8274494E-003  0.7325637E+02  0.7546771E-02  0.1438085E+00
         -2   -1    0    0    0  501 -0.00000000000E+00  0.00000000000E+00  0.27778904061E+03  0.27778904061E+03  0.00000000000E+00 0.  1.
          2   -1    0    0  502    0  0.00000000000E+00 -0.00000000000E+00 -0.75181941009E+03  0.75181941009E+03  0.00000000000E+00 0. -1.
         25    1    1    2    0    0  0.66470238179E+02  0.67080133631E+02 -0.22923130069E+03  0.27765090691E+03  0.12500000000E+03 0.  0.
          1    1    1    2  502    0 -0.48170245206E+00 -0.36020432410E+02 -0.49246264919E+03  0.49377845683E+03  0.00000000000E+00 0. -1.
         -1    1    1    2    0  501 -0.65988535727E+02 -0.31059701221E+02  0.24766358040E+03  0.25817908696E+03  0.00000000000E+00 0.  1.
<mgrwt>
<rscale>  0 0.51370829E+02</rscale>
<asrwt>0</asrwt>
<pdfrwt beam="2">  1        2 0.11566452E+00 0.36023653E+02</pdfrwt>
<pdfrwt beam="1">  1       -2 0.42736776E-01 0.73256371E+02</pdfrwt>
<totfact> 0.21622233E+02</totfact>
</mgrwt>
</event>
<event>
 5    1  0.8274494E-003  0.1670832E+03  0.7546771E-02  0.1287204E+00
          1   -1    0    0  501    0 -0.00000000000E+00  0.00000000000E+00  0.80328988087E+02  0.80328988087E+02  0.00000000000E+00 0. -1.
          2   -1    0    0  502    0  0.00000000000E+00 -0.00000000000E+00 -0.17227702598E+04  0.17227702598E+04  0.00000000000E+00 0. -1.
         25    1    1    2    0    0 -0.12582480068E+03  0.54849135793E+02 -0.16800069432E+03  0.25037879594E+03  0.12500000000E+03 0.  0.
          2    1    1    2  501    0 -0.44234411738E+02 -0.34446412290E+02  0.11256135601E+02  0.57183381241E+02  0.00000000000E+00 0. -1.
          1    1    1    2  502    0  0.17005921242E+03 -0.20402723503E+02 -0.14856967130E+04  0.14955370708E+04  0.00000000000E+00 0. -1.
<mgrwt>
<rscale>  0 0.96785585E+02</rscale>
<asrwt>0</asrwt>
<pdfrwt beam="2">  1        2 0.26504156E+00 0.16708316E+03</pdfrwt>
<pdfrwt beam="1">  1        1 0.12358307E-01 0.56064592E+02</pdfrwt>
<totfact> 0.65499655E+02</totfact>
</mgrwt>
</event>
<event>
 5    1  0.8274494E-003  0.1337727E+03  0.7546771E-02  0.1277211E+00
          1   -1    0    0  501    0 -0.00000000000E+00  0.00000000000E+00  0.13694130618E+03  0.13694130618E+03  0.00000000000E+00 0. -1.
          2   -1    0    0  502    0  0.00000000000E+00 -0.00000000000E+00 -0.62558229898E+03  0.62558229898E+03  0.00000000000E+00 0. -1.
         25    1    1    2    0    0 -0.11997014243E+03 -0.70821616890E+02 -0.14087743982E+03  0.23426478511E+03  0.12500000000E+03 0.  0.
          2    1    1    2  501    0  0.62467234451E+02  0.12200905918E+03  0.32011782761E+02  0.14075908545E+03  0.00000000000E+00 0. -1.
          1    1    1    2  502    0  0.57502907976E+02 -0.51187442286E+02 -0.37977533574E+03  0.38749973459E+03  0.00000000000E+00 0. -1.
<mgrwt>
<rscale>  0 0.10148168E+03</rscale>
<asrwt>0</asrwt>
<pdfrwt beam="2">  1        2 0.96243433E-01 0.76985315E+02</pdfrwt>
<pdfrwt beam="1">  1        1 0.21067893E-01 0.13377267E+03</pdfrwt>
<totfact> 0.15731497E+03</totfact>
</mgrwt>
</event>
<event>
 5    1  0.8274494E-003  0.6468665E+02  0.7546771E-02  0.1459597E+00
         -2   -1    0    0    0  501 -0.00000000000E+00  0.00000000000E+00  0.12945841470E+03  0.12945841470E+03  0.00000000000E+00 0.  1.
          2   -1    0    0  502    0  0.00000000000E+00 -0.00000000000E+00 -0.36099563641E+04  0.36099563641E+04  0.00000000000E+00 0. -1.
         25    1    1    2    0    0  0.76559688426E+02  0.30032787266E+02 -0.22310486400E+03  0.26863382986E+03  0.12500000000E+03 0.  0.
          1    1    1    2  502    0 -0.45510081253E+02 -0.45764212141E+02 -0.33609300703E+04  0.33615497123E+04  0.00000000000E+00 0. -1.
         -1    1    1    2    0  501 -0.31049607173E+02  0.15731424876E+02  0.10353698488E+03  0.10923123670E+03  0.00000000000E+00 0.  1.
<mgrwt>
<rscale>  0 0.47450761E+02</rscale>
<asrwt>0</asrwt>
<pdfrwt beam="2">  1        2 0.55537794E+00 0.64686649E+02</pdfrwt>
<pdfrwt beam="1">  1       -2 0.19916678E-01 0.34807411E+02</pdfrwt>
<totfact> 0.22015727E+01</totfact>
</mgrwt>
</event>
<event>
 5    1  0.8274494E-003  0.1006751E+03  0.7546771E-02  0.1421166E+00
         -2   -1    0    0    0  501 -0.00000000000E+00  0.00000000000E+00  0.11738794731E+03  0.11738794731E+03  0.00000000000E+00 0.  1.
          2   -1    0    0  502    0  0.00000000000E+00 -0.00000000000E+00 -0.26623054443E+04  0.26623054443E+04  0.00000000000E+00 0. -1.
         25    1    1    2    0    0  0.11741685247E+03 -0.43905894021E+02 -0.85198106929E+03  0.87017882484E+03  0.12500000000E+03 0.  0.
          1    1    1    2  502    0 -0.29543165870E+02 -0.39170724670E+01 -0.17779672280E+04  0.17782169738E+04  0.00000000000E+00 0. -1.
         -1    1    1    2    0  501 -0.87873686603E+02  0.47822966488E+02  0.85030800292E+02  0.13129759297E+03  0.00000000000E+00 0.  1.
<mgrwt>
<rscale>  0 0.54774895E+02</rscale>
<asrwt>0</asrwt>
<pdfrwt beam="2">  1        2 0.40958545E+00 0.29801713E+02</pdfrwt>
<pdfrwt beam="1">  1       -2 0.18059685E-01 0.10067506E+03</pdfrwt>
<totfact> 0.10963129E+02</totfact>
</mgrwt>
</event>
<event>
 5    1  0.8274494E-003  0.8195279E+02  0.7546771E-02  0.1356276E+00
          1   -1    0    0  501    0 -0.00000000000E+00  0.00000000000E+00  0.16295582937E+04  0.16295582937E+04  0.00000000000E+00 0. -1.
          2   -1    0    0  502    0  0.00000000000E+00 -0.00000000000E+00 -0.98535937737E+03  0.98535937737E+03  0.00000000000E+00 0. -1.
         25    1    1    2    0    0 -0.88363472247E+02 -0.23399412249E+02 -0.98550984709E+02  0.18355634641E+03  0.12500000000E+03 0.  0.
          2    1    1    2  501    0  0.42237827577E+02 -0.45037903568E+02  0.15844360400E+04  0.15856386763E+04  0.00000000000E+00 0. -1.
          1    1    1    2  502    0  0.46125644670E+02  0.68437315817E+02 -0.84168613902E+03  0.84572264833E+03  0.00000000000E+00 0. -1.
<mgrwt>
<rscale>  0 0.71134914E+02</rscale>
<asrwt>0</asrwt>
<pdfrwt beam="2">  1        2 0.15159375E+00 0.81952786E+02</pdfrwt>
<pdfrwt beam="1">  1        1 0.25070128E+00 0.61745015E+02</pdfrwt>
<totfact> 0.26710712E+01</totfact>
</mgrwt>
</event>
<event>
 5    1  0.8274494E-003  0.1948402E+03  0.7546771E-02  0.1274273E+00
          2   -1    0    0  502    0  0.00000000000E+00  0.00000000000E+00  0.82881935751E+03  0.82881935751E+03  0.00000000000E+00 0. -1.
          1   -1    0    0  501    0 -0.00000000000E+00 -0.00000000000E+00 -0.19640128001E+04  0.19640128001E+04  0.00000000000E+00 0. -1.
         25    1    1    2    0    0 -0.22245904983E+03 -0.52831110098E+02  0.13852806140E+03  0.29511722898E+03  0.12500000000E+03 0.  0.
          2    1    1    2  501    0  0.33639928914E+02  0.42707502600E+02 -0.18707079485E+04  0.18714977436E+04  0.00000000000E+00 0. -1.
          1    1    1    2  502    0  0.18881912091E+03  0.10123607498E+02  0.59698644455E+03  0.62621718503E+03  0.00000000000E+00 0. -1.
<mgrwt>
<rscale>  0 0.10292000E+03</rscale>
<asrwt>0</asrwt>
<pdfrwt beam="1">  1        2 0.12751067E+00 0.19484017E+03</pdfrwt>
<pdfrwt beam="2">  1        1 0.30215582E+00 0.54365206E+02</pdfrwt>
<totfact> 0.20360195E+01</totfact>
</mgrwt>
</event>
<event>
 5    1  0.8274494E-003  0.6416606E+02  0.7546771E-02  0.1418660E+00
         -2   -1    0    0    0  501 -0.00000000000E+00  0.00000000000E+00  0.77219738339E+02  0.77219738339E+02  0.00000000000E+00 0.  1.
          2   -1    0    0  502    0  0.00000000000E+00 -0.00000000000E+00 -0.54670563511E+03  0.54670563511E+03  0.00000000000E+00 0. -1.
         25    1    1    2    0    0  0.11770847233E+02 -0.24135087291E+02 -0.85934008675E+02  0.15404774951E+03  0.12500000000E+03 0.  0.
          1    1    1    2  502    0 -0.58425829822E+02  0.33912168435E+02 -0.40988815186E+03  0.41541775335E+03  0.00000000000E+00 0. -1.
         -1    1    1    2    0  501  0.46654982589E+02 -0.97770811438E+01  0.26336263762E+02  0.54459870593E+02  0.00000000000E+00 0.  1.
<mgrwt>
<rscale>  0 0.55305471E+02</rscale>
<asrwt>0</asrwt>
<pdfrwt beam="2">  1        2 0.84108559E-01 0.64166063E+02</pdfrwt>
<pdfrwt beam="1">  1       -2 0.11879960E-01 0.47668425E+02</pdfrwt>
<totfact> 0.26152869E+03</totfact>
</mgrwt>
</event>
<event>
 5    1  0.8274494E-003  0.6792310E+02  0.7546771E-02  0.1466006E+00
          2   -1    0    0  502    0  0.00000000000E+00  0.00000000000E+00  0.74992886990E+02  0.74992886990E+02  0.00000000000E+00 0. -1.
          1   -1    0    0  501    0 -0.00000000000E+00 -0.00000000000E+00 -0.25087253933E+04  0.25087253933E+04  0.00000000000E+00 0. -1.
         25    1    1    2    0    0  0.22856308956E+02 -0.82825905657E+02 -0.24382330048E+03  0.28715386706E+03  0.12500000000E+03 0.  0.
          2    1    1    2  501    0 -0.38707959913E+02  0.55435077769E+02 -0.22379856995E+04  0.22390067765E+04  0.00000000000E+00 0. -1.
          1    1    1    2  502    0  0.15851650957E+02  0.27390827888E+02  0.48076493734E+02  0.57557636681E+02  0.00000000000E+00 0. -1.
<mgrwt>
<rscale>  0 0.46363369E+02</rscale>
<asrwt>0</asrwt>
<pdfrwt beam="1">  1        2 0.11537366E-01 0.31646995E+02</pdfrwt>
<pdfrwt beam="2">  1        1 0.38595779E+00 0.67923098E+02</pdfrwt>
<totfact> 0.12236591E+02</totfact>
</mgrwt>
</event>
<event>
 5    1  0.8274494E-003  0.9304468E+02  0.7546771E-02  0.1367765E+00
         -1   -1    0    0    0  502 -0.00000000000E+00  0.00000000000E+00  0.15307259250E+04  0.15307259250E+04  0.00000000000E+00 0.  1.
         -2   -1    0    0    0  501  0.00000000000E+00 -0.00000000000E+00 -0.55987600940E+02  0.55987600940E+02  0.00000000000E+00 0.  1.
         25    1    1    2    0    0  0.29933307093E+02 -0.12458630935E+03  0.18456533663E+03  0.25711303903E+03  0.12500000000E+03 0.  0.
         -2    1    1    2    0  502 -0.28546905667E+01  0.49311230951E+02  0.12261330769E+04  0.12271275683E+04  0.00000000000E+00 0.  1.
         -3    1    1    2    0  501 -0.27078616526E+02  0.75275078400E+02  0.64039910579E+02  0.10247291861E+03  0.00000000000E+00 0.  1.
<mgrwt>
<rscale>  0 0.67792549E+02</rscale>
<asrwt>0</asrwt>
<pdfrwt beam="2">  1       -2 0.86134782E-02 0.93044682E+02</pdfrwt>
<pdfrwt beam="1">  1       -1 0.23549626E+00 0.49393793E+02</pdfrwt>
<totfact> 0.67576095E+01</totfact>
</mgrwt>
</event>
<event>
 5    1  0.8274494E-003  0.3690994E+03  0.7546771E-02  0.1178021E+00
          1   -1    0    0  501    0 -0.00000000000E+00  0.00000000000E+00  0.20145677563E+04  0.20145677563E+04  0.00000000000E+00 0. -1.
          2   -1    0    0  502    0  0.00000000000E+00 -0.00000000000E+00 -0.14022866273E+04  0.14022866273E+04  0.00000000000E+00 0. -1.
         25    1    1    2    0    0  0.28932132359E+03 -0.98813170740E+02  0.18708062078E+03  0.37959851115E+03  0.12500000000E+03 0.  0.
          2    1    1    2  501    0 -0.36633893791E+03  0.11204517381E+03  0.17088325682E+04  0.17512472939E+04  0.00000000000E+00 0. -1.
          1    1    1    2  502    0  0.77017614318E+02 -0.13232003075E+02 -0.12836320600E+04  0.12860085786E+04  0.00000000000E+00 0. -1.
<mgrwt>
<rscale>  0 0.16983416E+03</rscale>
<asrwt>0</asrwt>
<pdfrwt beam="2">  1        2 0.21573640E+00 0.78146010E+02</pdfrwt>
<pdfrwt beam="1">  1        1 0.30993350E+00 0.36909938E+03</pdfrwt>
<totfact> 0.74398008E+00</totfact>
</mgrwt>
</event>
<event>
 5    1  0.8274494E-003  0.5029848E+02  0.7546771E-02  0.1478606E+00
          1   -1    0    0  501    0 -0.00000000000E+00  0.00000000000E+00  0.16733526629E+04  0.16733526629E+04  0.00000000000E+00 0. -1.
          2   -1    0    0  502    0  0.00000000000E+00 -0.00000000000E+00 -0.24903531100E+03  0.24903531100E+03  0.00000000000E+00 0. -1.
         25    1    1    2    0    0 -0.14599073124E+02  0.70089870463E+02  0.84273748469E+03  0.85496034468E+03  0.12500000000E+03 0.  0.
          2    1    1    2  501    0 -0.16194903042E+02 -0.46061788538E+02  0.82220476491E+03  0.82365322721E+03  0.00000000000E+00 0. -1.
          1    1    1    2  502    0  0.30793976165E+02 -0.24028081926E+02 -0.24062489769E+03  0.24377440201E+03  0.00000000000E+00 0. -1.
<mgrwt>
<rscale>  0 0.44323993E+02</rscale>
<asrwt>0</asrwt>
<pdfrwt beam="2">  1        2 0.38313126E-01 0.39059156E+02</pdfrwt>
<pdfrwt beam="1">  1        1 0.25743886E+00 0.50298485E+02</pdfrwt>
<totfact> 0.11686288E+02</totfact>
</mgrwt>
</event>
<event>
 5    1  0.8274494E-003  0.9713106E+02  0.7546771E-02  0.1353720E+00
          1   -1    0    0  501    0 -0.00000000000E+00  0.00000000000E+00  0.14117267360E+03  0.14117267360E+03  0.00000000000E+00 0. -1.
          2   -1    0    0  502    0  0.00000000000E+00 -0.00000000000E+00 -0.44382028725E+03  0.44382028725E+03  0.00000000000E+00 0. -1.
         25    1    1    2    0    0  0.49293529525E+02 -0.45177333248E+02 -0.29287062795E+01  0.14179005894E+03  0.12500000000E+03 0.  0.
          2    1    1    2  501    0 -0.75403385750E+02  0.91570752785E+02  0.18943900819E+02  0.12012387243E+03  0.00000000000E+00 0. -1.
          1    1    1    2  502    0  0.26109856225E+02 -0.46393419537E+02 -0.31866280819E+03  0.32307902948E+03  0.00000000000E+00 0. -1.
<mgrwt>
<rscale>  0 0.71908768E+02</rscale>
<asrwt>0</asrwt>
<pdfrwt beam="2">  1        2 0.68280042E-01 0.53236021E+02</pdfrwt>
<pdfrwt beam="1">  1        1 0.21718873E-01 0.97131056E+02</pdfrwt>
<totfact> 0.21818073E+03</totfact>
</mgrwt>
</event>
<event>
 5    1  0.8274494E-003  0.1738774E+03  0.7546771E-02  0.1235343E+00
         -2   -1    0    0    0  501 -0.00000000000E+00  0.00000000000E+00  0.17223489971E+03  0.17223489971E+03  0.00000000000E+00 0.  1.
          2   -1    0    0  502    0  0.00000000000E+00 -0.00000000000E+00 -0.11144399993E+04  0.11144399993E+04  0.00000000000E+00 0. -1.
         25    1    1    2    0    0 -0.11058343974E+03  0.12962408985E+03 -0.12264779349E+03  0.24433293487E+03  0.12500000000E+03 0.  0.
          1    1    1    2  502    0  0.16679122043E+03 -0.59832952535E+02 -0.90280449054E+03  0.92003002210E+03  0.00000000000E+00 0. -1.
         -1    1    1    2    0  501 -0.56207780682E+02 -0.69791137312E+02  0.83247184418E+02  0.12231194206E+03  0.00000000000E+00 0.  1.
<mgrwt>
<rscale>  0 0.12482512E+03</rscale>
<asrwt>0</asrwt>
<pdfrwt beam="2">  1        2 0.17145231E+00 0.17387736E+03</pdfrwt>
<pdfrwt beam="1">  1       -2 0.26497677E-01 0.89610923E+02</pdfrwt>
<totfact> 0.28933902E+02</totfact>
</mgrwt>
</event>
<event>
 5    1  0.8274494E-003  0.1172905E+03  0.7546771E-02  0.1295859E+00
          2   -1    0    0  502    0  0.00000000000E+00  0.00000000000E+00  0.80184569335E+03  0.80184569335E+03  0.00000000000E+00 0. -1.
          1   -1    0    0  501    0 -0.00000000000E+00 -0.00000000000E+00 -0.28189803095E+03  0.28189803095E+03  0.00000000000E+00 0. -1.
         25    1    1    2    0    0  0.12205319846E+03  0.13369351370E+03  0.46748646636E+02  0.22490303427E+03  0.12500000000E+03 0.  0.
          2    1    1    2  501    0 -0.62212674587E+02 -0.90737517500E+02 -0.17486975075E+03  0.20659899247E+03  0.00000000000E+00 0. -1.
          1    1    1    2  502    0 -0.59840523875E+02 -0.42955996200E+02  0.64806876652E+03  0.65224169757E+03  0.00000000000E+00 0. -1.
<mgrwt>
<rscale>  0 0.92950882E+02</rscale>
<asrwt>0</asrwt>
<pdfrwt beam="1">  1        2 0.12336088E+00 0.73662106E+02</pdfrwt>
<pdfrwt beam="2">  1        1 0.43368928E-01 0.11729052E+03</pdfrwt>
<totfact> 0.48006153E+02</totfact>
</mgrwt>
</event>
<event>
 5    1  0.8274494E-003  0.5554246E+02  0.7546771E-02  0.1505844E+00
          2   -1    0    0  502    0  0.00000000000E+00  0.00000000000E+00  0.57528943364E+02  0.57528943364E+02  0.00000000000E+00 0. -1.
          1   -1    0    0  501    0 -0.00000000000E+00 -0.00000000000E+00 -0.84630515809E+03  0.84630515809E+03  0.00000000000E+00 0. -1.
         25    1    1    2    0    0  0.11630347456E+02 -0.44974774019E+02 -0.17079014022E+03  0.21668471860E+03  0.12500000000E+03 0.  0.
          2    1    1    2  501    0 -0.40361526524E+02  0.39359564108E+02 -0.64491404397E+03  0.64737342564E+03  0.00000000000E+00 0. -1.
          1    1    1    2  502    0  0.28731179068E+02  0.56152099111E+01  0.26927969462E+02  0.39775957215E+02  0.00000000000E+00 0. -1.
<mgrwt>
<rscale>  0 0.40323589E+02</rscale>
<asrwt>0</asrwt>
<pdfrwt beam="1">  1        2 0.88506072E-02 0.29274754E+02</pdfrwt>
<pdfrwt beam="2">  1        1 0.13020079E+00 0.55542458E+02</pdfrwt>
<totfact> 0.19833946E+03</totfact>
</mgrwt>
</event>
<event>
 5    1  0.8274494E-003  0.8830824E+02  0.7546771E-02  0.1484366E+00
          1   -1    0    0  501    0 -0.00000000000E+00  0.00000000000E+00  0.16612769520E+03  0.16612769520E+03  0.00000000000E+00 0. -1.
          2   -1    0    0  502    0  0.00000000000E+00 -0.00000000000E+00 -0.20150852235E+04  0.20150852235E+04  0.00000000000E+00 0. -1.
         25    1    1    2    0    0  0.86447588143E+02  0.14290246384E+02 -0.46217614693E+03  0.48673317889E+03  0.12500000000E+03 0.  0.
          2    1    1    2  501    0 -0.81173309635E+02 -0.34991086109E+02  0.14107168820E+03  0.16647733635E+03  0.00000000000E+00 0. -1.
          1    1    1    2  502    0 -0.52742785076E+01  0.20700839725E+02 -0.15278530695E+04  0.15280024034E+04  0.00000000000E+00 0. -1.
<mgrwt>
<rscale>  0 0.43433358E+02</rscale>
<asrwt>0</asrwt>
<pdfrwt beam="2">  1        2 0.31001312E+00 0.21362181E+02</pdfrwt>
<pdfrwt beam="1">  1        1 0.25558106E-01 0.88308237E+02</pdfrwt>
<totfact> 0.24151001E+02</totfact>
</mgrwt>
</event>
<event>
 5    1  0.8274494E-003  0.7713377E+02  0.7546771E-02  0.1427258E+00
         -1   -1    0    0    0  501 -0.00000000000E+00  0.00000000000E+00  0.60093115754E+02  0.60093115754E+02  0.00000000000E+00 0.  1.
          1   -1    0    0  502    0  0.00000000000E+00 -0.00000000000E+00 -0.27022096686E+04  0.27022096686E+04  0.00000000000E+00 0. -1.
         25    1    1    2    0    0  0.12334639897E+02  0.47155730628E+02 -0.25366614811E+03  0.28696222917E+03  0.12500000000E+03 0.  0.
          2    1    1    2  502    0  0.29313621041E+02  0.22785254344E+02 -0.23934942920E+04  0.23937822336E+04  0.00000000000E+00 0. -1.
         -2    1    1    2    0  501 -0.41648260938E+02 -0.69940984972E+02  0.50438872557E+01  0.81558321566E+02  0.00000000000E+00 0.  1.
<mgrwt>
<rscale>  0 0.53514383E+02</rscale>
<asrwt>0</asrwt>
<pdfrwt beam="2">  1        1 0.41572459E+00 0.37127566E+02</pdfrwt>
<pdfrwt beam="1">  1       -1 0.92450942E-02 0.77133771E+02</pdfrwt>
<totfact> 0.10152998E+02</totfact>
</mgrwt>
</event>
<event>
 5    1  0.8274494E-003  0.1000398E+03  0.7546771E-02  0.1328096E+00
          2   -1    0    0  502    0  0.00000000000E+00  0.00000000000E+00  0.39110896122E+03  0.39110896122E+03  0.00000000000E+00 0. -1.
          1   -1    0    0  501    0 -0.00000000000E+00 -0.00000000000E+00 -0.22436733734E+03  0.22436733734E+03  0.00000000000E+00 0. -1.
         25    1    1    2    0    0 -0.50443513217E+02 -0.21077860199E+02 -0.13621175221E+02  0.13711076045E+03  0.12500000000E+03 0.  0.
          2    1    1    2  501    0 -0.14393964682E+02 -0.62889363858E+02 -0.13284328577E+03  0.14768072616E+03  0.00000000000E+00 0. -1.
          1    1    1    2  502    0  0.64837477899E+02  0.83967224058E+02  0.31320608487E+03  0.33068481195E+03  0.00000000000E+00 0. -1.
<mgrwt>
<rscale>  0 0.80337565E+02</rscale>
<asrwt>0</asrwt>
<pdfrwt beam="1">  1        2 0.60170609E-01 0.10003980E+03</pdfrwt>
<pdfrwt beam="2">  1        1 0.34518052E-01 0.64515566E+02</pdfrwt>
<totfact> 0.13918827E+03</totfact>
</mgrwt>
</event>
<event>
 5    1  0.8274494E-003  0.2568103E+03  0.7546771E-02  0.1246218E+00
          1   -1    0    0  501    0 -0.00000000000E+00  0.00000000000E+00  0.17790584226E+03  0.17790584226E+03  0.00000000000E+00 0. -1.
          2   -1    0    0  502    0  0.00000000000E+00 -0.00000000000E+00 -0.12351880717E+04  0.12351880717E+04  0.00000000000E+00 0. -1.
         25    1    1    2    0    0 -0.21785437378E+03 -0.18081763220E+03 -0.11881952231E+03  0.33150961249E+03  0.12500000000E+03 0.  0.
          2    1    1    2  501    0  0.16550171136E+03  0.16626946751E+03 -0.12407950574E+03  0.26539042189E+03  0.00000000000E+00 0. -1.
          1    1    1    2  502    0  0.52352662419E+02  0.14548164698E+02 -0.81438320137E+03  0.81619387956E+03  0.00000000000E+00 0. -1.
<mgrwt>
<rscale>  0 0.11812773E+03</rscale>
<asrwt>0</asrwt>
<pdfrwt beam="2">  1        2 0.19002893E+00 0.54336455E+02</pdfrwt>
<pdfrwt beam="1">  1        1 0.27370130E-01 0.25681031E+03</pdfrwt>
<totfact> 0.49068862E+02</totfact>
</mgrwt>
</event>
<event>
 5    1  0.8274494E-003  0.1712518E+03  0.7546771E-02  0.1351884E+00
          2   -1    0    0  502    0  0.00000000000E+00  0.00000000000E+00  0.30573881939E+03  0.30573881939E+03  0.00000000000E+00 0. -1.
          1   -1    0    0  501    0 -0.00000000000E+00 -0.00000000000E+00 -0.40128934045E+03  0.40128934045E+03  0.00000000000E+00 0. -1.
         25    1    1    2    0    0 -0.28806607350E+02  0.15889933620E+03 -0.24507380449E+03  0.31900625279E+03  0.12500000000E+03 0.  0.
          2    1    1    2  501    0  0.38619675783E+02 -0.18795626935E+03 -0.40021334019E+02  0.19601210606E+03  0.00000000000E+00 0. -1.
          1    1    1    2  502    0 -0.98130684331E+01  0.29056933151E+02  0.18954461744E+03  0.19200980099E+03  0.00000000000E+00 0. -1.
<mgrwt>
<rscale>  0 0.72471787E+02</rscale>
<asrwt>0</asrwt>
<pdfrwt beam="1">  1        2 0.47036741E-01 0.30669230E+02</pdfrwt>
<pdfrwt beam="2">  1        1 0.61736822E-01 0.17125177E+03</pdfrwt>
<totfact> 0.87053591E+02</totfact>
</mgrwt>
</event>
<event>
 5    1  0.8274494E-003  0.1464185E+03  0.7546771E-02  0.1414026E+00
         -2   -1    0    0    0  501 -0.00000000000E+00  0.00000000000E+00  0.48160835348E+02  0.48160835348E+02  0.00000000000E+00 0.  1.
          2   -1    0    0  502    0  0.00000000000E+00 -0.00000000000E+00 -0.16933093205E+04  0.16933093205E+04  0.00000000000E+00 0. -1.
         25    1    1    2    0    0  0.27496721678E+02 -0.13946844225E+03 -0.24487776646E+03  0.30951193287E+03  0.12500000000E+03 0.  0.
          1    1    1    2  502    0  0.20949179957E+02 -0.54720843201E+01 -0.10448580538E+04  0.10450823721E+04  0.00000000000E+00 0. -1.
         -1    1    1    2    0  501 -0.48445901635E+02  0.14494052657E+03 -0.35541266481E+03  0.38687585080E+03  0.00000000000E+00 0.  1.
<mgrwt>
<rscale>  0 0.56305079E+02</rscale>
<asrwt>0</asrwt>
<pdfrwt beam="2">  1        2 0.26050909E+00 0.21652063E+02</pdfrwt>
<pdfrwt beam="1">  1       -2 0.74093604E-02 0.14641846E+03</pdfrwt>
<totfact> 0.14047196E+03</totfact>
</mgrwt>
</event>
<event>
 5    1  0.8274494E-003  0.5529733E+02  0.7546771E-02  0.1438437E+00
          1   -1    0    0  501    0 -0.00000000000E+00  0.00000000000E+00  0.53454463496E+03  0.53454463496E+03  0.00000000000E+00 0. -1.
          2   -1    0    0  502    0  0.00000000000E+00 -0.00000000000E+00 -0.91672255422E+03  0.91672255422E+03  0.00000000000E+00 0. -1.
         25    1    1    2    0    0 -0.55702203217E+02 -0.60457000725E+02 -0.71499583468E+02  0.16581608733E+03  0.12500000000E+03 0.  0.
          2    1    1    2  501    0  0.53590707139E+02  0.12906384895E+02  0.48511443518E+03  0.48823616609E+03  0.00000000000E+00 0. -1.
          1    1    1    2  502    0  0.21114960784E+01  0.47550615829E+02 -0.79579277096E+03  0.79721493576E+03  0.00000000000E+00 0. -1.
<mgrwt>
<rscale>  0 0.51303152E+02</rscale>
<asrwt>0</asrwt>
<pdfrwt beam="2">  1        2 0.14103424E+00 0.47597473E+02</pdfrwt>
<pdfrwt beam="1">  1        1 0.82237638E-01 0.55297334E+02</pdfrwt>
<totfact> 0.18914040E+02</totfact>
</mgrwt>
</event>
<event>
 5    1  0.8274494E-003  0.1132350E+03  0.7546771E-02  0.1352149E+00
          2   -1    0    0  502    0  0.00000000000E+00  0.00000000000E+00  0.75165946472E+03  0.75165946472E+03  0.00000000000E+00 0. -1.
          1   -1    0    0  501    0 -0.00000000000E+00 -0.00000000000E+00 -0.12184496686E+03  0.12184496686E+03  0.00000000000E+00 0. -1.
         25    1    1    2    0    0  0.11907920389E+02 -0.12707834780E+03  0.43033106873E+03  0.46594048307E+03  0.12500000000E+03 0.  0.
          2    1    1    2  501    0 -0.40260534270E+02  0.22820517263E+02 -0.88560455585E+02  0.99923175096E+02  0.00000000000E+00 0. -1.
          1    1    1    2  502    0  0.28352613881E+02  0.10425783054E+03  0.28804388472E+03  0.30764077342E+03  0.00000000000E+00 0. -1.
<mgrwt>
<rscale>  0 0.72390117E+02</rscale>
<asrwt>0</asrwt>
<pdfrwt beam="1">  1        2 0.11563991E+00 0.11323498E+03</pdfrwt>
<pdfrwt beam="2">  1        1 0.18745380E-01 0.46278360E+02</pdfrwt>
<totfact> 0.13976325E+03</totfact>
</mgrwt>
</event>
<event>
 5    1  0.8274494E-003  0.9922069E+02  0.7546771E-02  0.1405361E+00
          2   -1    0    0  502    0  0.00000000000E+00  0.00000000000E+00  0.20918546773E+04  0.20918546773E+04  0.00000000000E+00 0. -1.
          1   -1    0    0  501    0 -0.00000000000E+00 -0.00000000000E+00 -0.10555739494E+03  0.10555739494E+03  0.00000000000E+00 0. -1.
         25    1    1    2    0    0  0.72917237921E+02  0.59956661613E+02  0.99322188330E+03  0.10054981026E+04  0.12500000000E+03 0.  0.
          2    1    1    2  501    0  0.23549261391E+02 -0.24783816452E+02 -0.93987653015E+02  0.10001242018E+03  0.00000000000E+00 0. -1.
          1    1    1    2  502    0 -0.96466499312E+02 -0.35172845161E+02  0.10870630521E+04  0.10919015495E+04  0.00000000000E+00 0. -1.
<mgrwt>
<rscale>  0 0.58242051E+02</rscale>
<asrwt>0</asrwt>
<pdfrwt beam="1">  1        2 0.32182377E+00 0.99220689E+02</pdfrwt>
<pdfrwt beam="2">  1        1 0.16239601E-01 0.34187794E+02</pdfrwt>
<totfact> 0.30837249E+02</totfact>
</mgrwt>
</event>
<event>
 5    1  0.8274494E-003  0.9973412E+02  0.7546771E-02  0.1305970E+00
          2   -1    0    0  502    0  0.00000000000E+00  0.00000000000E+00  0.30923478920E+03  0.30923478920E+03  0.00000000000E+00 0. -1.
          1   -1    0    0  501    0 -0.00000000000E+00 -0.00000000000E+00 -0.70166062554E+03  0.70166062554E+03  0.00000000000E+00 0. -1.
         25    1    1    2    0    0 -0.11600067988E+03 -0.29564878319E+02  0.14866854529E+03  0.22816129409E+03  0.12500000000E+03 0.  0.
          2    1    1    2  501    0  0.57033021866E+02  0.82032263750E+02 -0.64475156640E+03  0.65244665702E+03  0.00000000000E+00 0. -1.
          1    1    1    2  502    0  0.58967658011E+02 -0.52467385431E+02  0.10365718477E+03  0.13028746363E+03  0.00000000000E+00 0. -1.
<mgrwt>
<rscale>  0 0.88724606E+02</rscale>
<asrwt>0</asrwt>
<pdfrwt beam="1">  1        2 0.47574583E-01 0.78930420E+02</pdfrwt>
<pdfrwt beam="2">  1        1 0.10794779E+00 0.99734116E+02</pdfrwt>
<totfact> 0.42043323E+02</totfact>
</mgrwt>
</event>
<event>
 5    1  0.8274494E-003  0.6425329E+02  0.7546771E-02  0.1428374E+00
          1   -1    0    0  502    0  0.00000000000E+00  0.00000000000E+00  0.97266245306E+03  0.97266245306E+03  0.00000000000E+00 0. -1.
         -1   -1    0    0    0  501 -0.00000000000E+00 -0.00000000000E+00 -0.36332754492E+02  0.36332754492E+02  0.00000000000E+00 0.  1.
         25    1    1    2    0    0 -0.42205730922E+02 -0.80664646497E+02  0.47862817001E+03  0.50298909933E+03  0.12500000000E+03 0.  0.
          2    1    1    2  502    0 -0.81663636478E+01  0.43432621670E+02  0.43817024404E+03  0.44039328433E+03  0.00000000000E+00 0. -1.
         -2    1    1    2    0  501  0.50372094570E+02  0.37232024828E+02  0.19531284517E+02  0.65612823892E+02  0.00000000000E+00 0.  1.
<mgrwt>
<rscale>  0 0.53287802E+02</rscale>
<asrwt>0</asrwt>
<pdfrwt beam="1">  1        1 0.14964036E+00 0.44193689E+02</pdfrwt>
<pdfrwt beam="2">  1       -1 0.55896553E-02 0.64253290E+02</pdfrwt>
<totfact> 0.24716221E+03</totfact>
</mgrwt>
</event>
<event>
 5    1  0.8274494E-003  0.5161771E+02  0.7546771E-02  0.1556352E+00
          1   -1    0    0  501    0 -0.00000000000E+00  0.00000000000E+00  0.12415562171E+03  0.12415562171E+03  0.00000000000E+00 0. -1.
          2   -1    0    0  502    0  0.00000000000E+00 -0.00000000000E+00 -0.36386927654E+03  0.36386927654E+03  0.00000000000E+00 0. -1.
         25    1    1    2    0    0  0.30424168840E+02 -0.55719642929E+02 -0.18768856055E+03  0.23426972578E+03  0.12500000000E+03 0.  0.
          2    1    1    2  501    0 -0.21625526482E+02  0.65067965296E+01  0.95424779267E+02  0.98060646005E+02  0.00000000000E+00 0. -1.
          1    1    1    2  502    0 -0.87986423581E+01  0.49212846399E+02 -0.14744987356E+03  0.15569452646E+03  0.00000000000E+00 0. -1.
<mgrwt>
<rscale>  0 0.34142264E+02</rscale>
<asrwt>0</asrwt>
<pdfrwt beam="2">  1        2 0.55979888E-01 0.51617714E+02</pdfrwt>
<pdfrwt beam="1">  1        1 0.19100865E-01 0.22583219E+02</pdfrwt>
<totfact> 0.29364008E+03</totfact>
</mgrwt>
</event>
<event>
 5    1  0.8274494E-003  0.1145275E+03  0.7546771E-02  0.1411198E+00
         -1   -1    0    0    0  501 -0.00000000000E+00  0.00000000000E+00  0.30629422512E+03  0.30629422512E+03  0.00000000000E+00 0.  1.
          1   -1    0    0  502    0  0.00000000000E+00 -0.00000000000E+00 -0.87943713942E+03  0.87943713942E+03  0.00000000000E+00 0. -1.
         25    1    1    2    0    0 -0.61771003621E+02  0.74719711499E+02 -0.23921215820E+03  0.28678589367E+03  0.12500000000E+03 0.  0.
          2    1    1    2  502    0  0.89868005349E+02 -0.78074507982E+02 -0.60996057731E+03  0.62146906042E+03  0.00000000000E+00 0. -1.
         -2    1    1    2    0  501 -0.28097001727E+02  0.33547964829E+01  0.27602982120E+03  0.27747641046E+03  0.00000000000E+00 0.  1.
<mgrwt>
<rscale>  0 0.56927456E+02</rscale>
<asrwt>0</asrwt>
<pdfrwt beam="2">  1        1 0.13529802E+00 0.11452747E+03</pdfrwt>
<pdfrwt beam="1">  1       -1 0.47122189E-01 0.28296575E+02</pdfrwt>
<totfact> 0.96809370E+01</totfact>
</mgrwt>
</event>
<event>
 5    1  0.8274494E-003  0.5410367E+02  0.7546771E-02  0.1458469E+00
          2   -1    0    0  502    0  0.00000000000E+00  0.00000000000E+00  0.32392624653E+04  0.32392624653E+04  0.00000000000E+00 0. -1.
          1   -1    0    0  501    0 -0.00000000000E+00 -0.00000000000E+00 -0.88281160468E+02  0.88281160468E+02  0.00000000000E+00 0. -1.
         25    1    1    2    0    0  0.44452778218E+02  0.17528775307E+02  0.67969752635E+02  0.15009395300E+03  0.12500000000E+03 0.  0.
          2    1    1    2  501    0 -0.21833378791E+02 -0.52868751043E+02 -0.29703179565E+02  0.64452153902E+02  0.00000000000E+00 0. -1.
          1    1    1    2  502    0 -0.22619399426E+02  0.35339975736E+02  0.31127147317E+04  0.31129975188E+04  0.00000000000E+00 0. -1.
<mgrwt>
<rscale>  0 0.47645900E+02</rscale>
<asrwt>0</asrwt>
<pdfrwt beam="1">  1        2 0.49834798E+00 0.41958922E+02</pdfrwt>
<pdfrwt beam="2">  1        1 0.13581719E-01 0.54103673E+02</pdfrwt>
<totfact> 0.11032089E+02</totfact>
</mgrwt>
</event>
<event>
 5    1  0.8274494E-003  0.1798543E+03  0.7546771E-02  0.1281201E+00
          2   -1    0    0  502    0  0.00000000000E+00  0.00000000000E+00  0.21345876953E+03  0.21345876953E+03  0.00000000000E+00 0. -1.
          1   -1    0    0  501    0 -0.00000000000E+00 -0.00000000000E+00 -0.17167554662E+04  0.17167554662E+04  0.00000000000E+00 0. -1.
         25    1    1    2    0    0 -0.16744745409E+03 -0.92817934351E+02 -0.24987788734E+02  0.23000697469E+03  0.12500000000E+03 0.  0.
          2    1    1    2  501    0  0.17553130050E+03  0.38289790917E+02 -0.15769807177E+04  0.15871816309E+04  0.00000000000E+00 0. -1.
          1    1    1    2  502    0 -0.80838464101E+01  0.54528143434E+02  0.98671809821E+02  0.11302563007E+03  0.00000000000E+00 0. -1.
<mgrwt>
<rscale>  0 0.99570624E+02</rscale>
<asrwt>0</asrwt>
<pdfrwt beam="1">  1        2 0.32839810E-01 0.55124105E+02</pdfrwt>
<pdfrwt beam="2">  1        1 0.26411623E+00 0.17985433E+03</pdfrwt>
<totfact> 0.11308682E+02</totfact>
</mgrwt>
</event>
<event>
 5    1  0.8274494E-003  0.6311661E+02  0.7546771E-02  0.1425675E+00
          2   -1    0    0  502    0  0.00000000000E+00  0.00000000000E+00  0.15325829942E+03  0.15325829942E+03  0.00000000000E+00 0. -1.
          1   -1    0    0  501    0 -0.00000000000E+00 -0.00000000000E+00 -0.75148157291E+03  0.75148157291E+03  0.00000000000E+00 0. -1.
         25    1    1    2    0    0 -0.41245481842E+02 -0.11188900324E+02  0.61974293211E+02  0.14591845079E+03  0.12500000000E+03 0.  0.
          2    1    1    2  501    0  0.30438772479E+02  0.55822676825E+02 -0.69704742196E+03  0.69994128223E+03  0.00000000000E+00 0. -1.
          1    1    1    2  502    0  0.10806709363E+02 -0.44633776501E+02  0.36849855251E+02  0.58880139301E+02  0.00000000000E+00 0. -1.
<mgrwt>
<rscale>  0 0.53837994E+02</rscale>
<asrwt>0</asrwt>
<pdfrwt beam="1">  1        2 0.23578200E-01 0.45923403E+02</pdfrwt>
<pdfrwt beam="2">  1        1 0.11561255E+00 0.63116611E+02</pdfrwt>
<totfact> 0.80202898E+02</totfact>
</mgrwt>
</event>
<event>
 5    1  0.8274494E-003  0.1182532E+03  0.7546771E-02  0.1411117E+00
          2   -1    0    0  502    0  0.00000000000E+00  0.00000000000E+00  0.95997826741E+03  0.95997826741E+03  0.00000000000E+00 0. -1.
         -2   -1    0    0    0  501 -0.00000000000E+00 -0.00000000000E+00 -0.26097803862E+04  0.26097803862E+04  0.00000000000E+00 0.  1.
         25    1    1    2    0    0 -0.44107241055E+01  0.13397183133E+03 -0.64786859019E+00  0.18328482155E+03  0.12500000000E+03 0.  0.
          1    1    1    2  502    0 -0.20219234994E+02 -0.18524664589E+02  0.86705929747E+03  0.86749282763E+03  0.00000000000E+00 0. -1.
         -1    1    1    2    0  501  0.24629959100E+02 -0.11544716674E+03 -0.25162135477E+04  0.25189810045E+04  0.00000000000E+00 0.  1.
<mgrwt>
<rscale>  0 0.56945340E+02</rscale>
<asrwt>0</asrwt>
<pdfrwt beam="1">  1        2 0.14768896E+00 0.27422266E+02</pdfrwt>
<pdfrwt beam="2">  1       -2 0.40150468E+00 0.11825324E+03</pdfrwt>
<totfact> 0.31488552E-01</totfact>
</mgrwt>
</event>
<event>
 5    1  0.8274494E-003  0.6118891E+02  0.7546771E-02  0.1405461E+00
         -2   -1    0    0    0  501 -0.00000000000E+00  0.00000000000E+00  0.13708355107E+02  0.13708355107E+02  0.00000000000E+00 0.  1.
          2   -1    0    0  502    0  0.00000000000E+00 -0.00000000000E+00 -0.49507054295E+04  0.49507054295E+04  0.00000000000E+00 0. -1.
         25    1    1    2    0    0 -0.65190426282E+02  0.79322029049E+02 -0.16731897899E+04  0.16809910318E+04  0.12500000000E+03 0.  0.
          1    1    1    2  502    0  0.11338234281E+02 -0.54220489373E+02 -0.31811221467E+04  0.31816043955E+04  0.00000000000E+00 0. -1.
         -1    1    1    2    0  501  0.53852192001E+02 -0.25101539675E+02 -0.82685137742E+02  0.10181835729E+03  0.00000000000E+00 0.  1.
<mgrwt>
<rscale>  0 0.58219028E+02</rscale>
<asrwt>0</asrwt>
<pdfrwt beam="2">  1        2 0.76164683E+00 0.55393294E+02</pdfrwt>
<pdfrwt beam="1">  1       -2 0.21089782E-02 0.61188908E+02</pdfrwt>
<totfact> 0.53605914E+01</totfact>
</mgrwt>
</event>
<event>
 5    1  0.8274494E-003  0.7985488E+02  0.7546771E-02  0.1376222E+00
          1   -1    0    0  501    0 -0.00000000000E+00  0.00000000000E+00  0.83862454804E+03  0.83862454804E+03  0.00000000000E+00 0. -1.
          2   -1    0    0  502    0  0.00000000000E+00 -0.00000000000E+00 -0.66368599656E+03  0.66368599656E+03  0.00000000000E+00 0. -1.
         25    1    1    2    0    0  0.17492755542E+02  0.29937078606E+02  0.14313695630E+03  0.19317197889E+03  0.12500000000E+03 0.  0.
          2    1    1    2  501    0 -0.65323038987E+02 -0.54287534622E+02  0.66664314834E+03  0.67203223365E+03  0.00000000000E+00 0. -1.
          1    1    1    2  502    0  0.47830283445E+02  0.24350456016E+02 -0.63484155316E+03  0.63710633205E+03  0.00000000000E+00 0. -1.
<mgrwt>
<rscale>  0 0.65467314E+02</rscale>
<asrwt>0</asrwt>
<pdfrwt beam="2">  1        2 0.10210554E+00 0.53671973E+02</pdfrwt>
<pdfrwt beam="1">  1        1 0.12901916E+00 0.79854884E+02</pdfrwt>
<totfact> 0.14625806E+02</totfact>
</mgrwt>
</event>
<event>
 5    1  0.8274494E-003  0.1131469E+03  0.7546771E-02  0.1328703E+00
          2   -1    0    0  502    0  0.00000000000E+00  0.00000000000E+00  0.69596278762E+03  0.69596278762E+03  0.00000000000E+00 0. -1.
          1   -1    0    0  501    0 -0.00000000000E+00 -0.00000000000E+00 -0.58040087863E+03  0.58040087863E+03  0.00000000000E+00 0. -1.
         25    1    1    2    0    0  0.10361102038E+03  0.91108521304E+02 -0.97069916376E+02  0.20996088889E+03  0.12500000000E+03 0.  0.
          2    1    1    2  501    0 -0.47652658429E+02 -0.10048001540E+03 -0.41834834161E+03  0.43287682345E+03  0.00000000000E+00 0. -1.
          1    1    1    2  502    0 -0.55958361950E+02  0.93714940986E+01  0.63098016697E+03  0.63352595392E+03  0.00000000000E+00 0. -1.
<mgrwt>
<rscale>  0 0.80122966E+02</rscale>
<asrwt>0</asrwt>
<pdfrwt beam="1">  1        2 0.10707120E+00 0.56737670E+02</pdfrwt>
<pdfrwt beam="2">  1        1 0.89292443E-01 0.11314687E+03</pdfrwt>
<totfact> 0.22942472E+02</totfact>
</mgrwt>
</event>
<event>
 5    1  0.8274494E-003  0.1822593E+03  0.7546771E-02  0.1265126E+00
          1   -1    0    0  501    0 -0.00000000000E+00  0.00000000000E+00  0.84327596651E+02  0.84327596651E+02  0.00000000000E+00 0. -1.
          2   -1    0    0  502    0  0.00000000000E+00 -0.00000000000E+00 -0.10887674245E+04  0.10887674245E+04  0.00000000000E+00 0. -1.
         25    1    1    2    0    0  0.13659331453E+03 -0.32409762439E+02 -0.50945082063E+03  0.54302234293E+03  0.12500000000E+03 0.  0.
          2    1    1    2  501    0 -0.17638288150E+03  0.81891104833E+02 -0.80039943836E+02  0.21029376250E+03  0.00000000000E+00 0. -1.
          1    1    1    2  502    0  0.39789566969E+02 -0.49481342394E+02 -0.41494906334E+03  0.41977891569E+03  0.00000000000E+00 0. -1.
<mgrwt>
<rscale>  0 0.10757579E+03</rscale>
<asrwt>0</asrwt>
<pdfrwt beam="2">  1        2 0.16750267E+00 0.63494983E+02</pdfrwt>
<pdfrwt beam="1">  1        1 0.12973477E-01 0.18225928E+03</pdfrwt>
<totfact> 0.15147377E+03</totfact>
</mgrwt>
</event>
<event>
 5    1  0.8274494E-003  0.6624214E+02  0.7546771E-02  0.1420835E+00
          1   -1    0    0  502    0  0.00000000000E+00  0.00000000000E+00  0.60147855651E+03  0.60147855651E+03  0.00000000000E+00 0. -1.
         -1   -1    0    0    0  501 -0.00000000000E+00 -0.00000000000E+00 -0.93361276928E+03  0.93361276928E+03  0.00000000000E+00 0.  1.
         25    1    1    2    0    0  0.91531387823E+02 -0.24792371582E+02  0.41617694846E+03  0.44477062524E+03  0.12500000000E+03 0.  0.
          2    1    1    2  502    0 -0.57526065893E+02 -0.52999749778E+01  0.16554589910E+03  0.17533619906E+03  0.00000000000E+00 0. -1.
         -2    1    1    2    0  501 -0.34005321930E+02  0.30092346560E+02 -0.91385706034E+03  0.91498450149E+03  0.00000000000E+00 0.  1.
<mgrwt>
<rscale>  0 0.54844701E+02</rscale>
<asrwt>0</asrwt>
<pdfrwt beam="1">  1        1 0.92535163E-01 0.66242142E+02</pdfrwt>
<pdfrwt beam="2">  1       -1 0.14363273E+00 0.45408273E+02</pdfrwt>
<totfact> 0.17672646E+01</totfact>
</mgrwt>
</event>
<event>
 5    1  0.8274494E-003  0.2671324E+03  0.7546771E-02  0.1255195E+00
          2   -1    0    0  502    0  0.00000000000E+00  0.00000000000E+00  0.89238114492E+03  0.89238114492E+03  0.00000000000E+00 0. -1.
          1   -1    0    0  501    0 -0.00000000000E+00 -0.00000000000E+00 -0.20912005050E+03  0.20912005050E+03  0.00000000000E+00 0. -1.
         25    1    1    2    0    0 -0.42421639698E+02 -0.25497342281E+03  0.15596710682E+03  0.32674421229E+03  0.12500000000E+03 0.  0.
          2    1    1    2  501    0 -0.47757949757E+02 -0.59281384378E+00 -0.89279254418E+02  0.10125195535E+03  0.00000000000E+00 0. -1.
          1    1    1    2  502    0  0.90179589455E+02  0.25556623666E+03  0.61657324202E+03  0.67350502778E+03  0.00000000000E+00 0. -1.
<mgrwt>
<rscale>  0 0.11295432E+03</rscale>
<asrwt>0</asrwt>
<pdfrwt beam="1">  1        2 0.13728941E+00 0.26713242E+03</pdfrwt>
<pdfrwt beam="2">  1        1 0.32172316E-01 0.47761629E+02</pdfrwt>
<totfact> 0.56584357E+02</totfact>
</mgrwt>
</event>
<event>
 5    1  0.8274494E-003  0.4100398E+02  0.7546771E-02  0.1509510E+00
          1   -1    0    0  501    0 -0.00000000000E+00  0.00000000000E+00  0.79861806524E+03  0.79861806524E+03  0.00000000000E+00 0. -1.
          2   -1    0    0  502    0  0.00000000000E+00 -0.00000000000E+00 -0.11292175309E+03  0.11292175309E+03  0.00000000000E+00 0. -1.
         25    1    1    2    0    0  0.36331465063E+02  0.11466838575E+02  0.14232244607E+02  0.13144968820E+03  0.12500000000E+03 0.  0.
          2    1    1    2  501    0 -0.31245581971E+02  0.26875369799E+02  0.71822465600E+03  0.71940616370E+03  0.00000000000E+00 0. -1.
          1    1    1    2  502    0 -0.50858830918E+01 -0.38342208374E+02 -0.46760588448E+02  0.60683966431E+02  0.00000000000E+00 0. -1.
<mgrwt>
<rscale>  0 0.39824035E+02</rscale>
<asrwt>0</asrwt>
<pdfrwt beam="2">  1        2 0.17372578E-01 0.38678045E+02</pdfrwt>
<pdfrwt beam="1">  1        1 0.12286431E+00 0.41003980E+02</pdfrwt>
<totfact> 0.10378709E+03</totfact>
</mgrwt>
</event>
<event>
 5    1  0.8274494E-003  0.5237036E+02  0.7546771E-02  0.1444044E+00
          1   -1    0    0  501    0 -0.00000000000E+00  0.00000000000E+00  0.19169075380E+03  0.19169075380E+03  0.00000000000E+00 0. -1.
          2   -1    0    0  502    0  0.00000000000E+00 -0.00000000000E+00 -0.17011159481E+04  0.17011159481E+04  0.00000000000E+00 0. -1.
         25    1    1    2    0    0  0.56954885769E+02  0.77318037739E+02 -0.14660966299E+03  0.21527036780E+03  0.12500000000E+03 0.  0.
          2    1    1    2  501    0 -0.16054656777E+02 -0.45446657899E+02  0.15321592988E+03  0.16061840458E+03  0.00000000000E+00 0. -1.
          3    1    1    2  502    0 -0.40900228992E+02 -0.31871379840E+02 -0.15160314612E+04  0.15169179296E+04  0.00000000000E+00 0. -1.
<mgrwt>
<rscale>  0 0.50241448E+02</rscale>
<asrwt>0</asrwt>
<pdfrwt beam="2">  1        2 0.26171014E+00 0.52370365E+02</pdfrwt>
<pdfrwt beam="1">  1        1 0.29490886E-01 0.48199074E+02</pdfrwt>
<totfact> 0.25381637E+02</totfact>
</mgrwt>
</event>
<event>
 5    1  0.8274494E-003  0.6536288E+02  0.7546771E-02  0.1472445E+00
          2   -1    0    0  502    0  0.00000000000E+00  0.00000000000E+00  0.88233932665E+03  0.88233932665E+03  0.00000000000E+00 0. -1.
          1   -1    0    0  501    0 -0.00000000000E+00 -0.00000000000E+00 -0.56974853819E+03  0.56974853819E+03  0.00000000000E+00 0. -1.
         25    1    1    2    0    0  0.70097391874E+01  0.88786997270E+02 -0.82236938535E+02  0.17412691173E+03  0.12500000000E+03 0.  0.
          2    1    1    2  501    0  0.11319397990E+02 -0.63288632613E+02 -0.43892917104E+03  0.44361289091E+03  0.00000000000E+00 0. -1.
          1    1    1    2  502    0 -0.18329137177E+02 -0.25498364657E+02  0.83375689804E+03  0.83434806220E+03  0.00000000000E+00 0. -1.
<mgrwt>
<rscale>  0 0.45305241E+02</rscale>
<asrwt>0</asrwt>
<pdfrwt beam="1">  1        2 0.13574451E+00 0.31402609E+02</pdfrwt>
<pdfrwt beam="2">  1        1 0.87653621E-01 0.65362876E+02</pdfrwt>
<totfact> 0.18523843E+02</totfact>
</mgrwt>
</event>
<event>
 5    1  0.8274494E-003  0.1134511E+03  0.7546771E-02  0.1386586E+00
          1   -1    0    0  501    0 -0.00000000000E+00  0.00000000000E+00  0.57563140866E+03  0.57563140866E+03  0.00000000000E+00 0. -1.
          2   -1    0    0  502    0  0.00000000000E+00 -0.00000000000E+00 -0.12384806152E+04  0.12384806152E+04  0.00000000000E+00 0. -1.
         25    1    1    2    0    0  0.11266361329E+03 -0.86285439796E+02 -0.48309313586E+03  0.51878921037E+03  0.12500000000E+03 0.  0.
          2    1    1    2  501    0 -0.26582695575E+02  0.22338298835E+02  0.55333850478E+03  0.55442685737E+03  0.00000000000E+00 0. -1.
          1    1    1    2  502    0 -0.86080917716E+02  0.63947140961E+02 -0.73309457547E+03  0.74089595613E+03  0.00000000000E+00 0. -1.
<mgrwt>
<rscale>  0 0.62763727E+02</rscale>
<asrwt>0</asrwt>
<pdfrwt beam="2">  1        2 0.19053548E+00 0.11345111E+03</pdfrwt>
<pdfrwt beam="1">  1        1 0.88558678E-01 0.34722317E+02</pdfrwt>
<totfact> 0.10939038E+02</totfact>
</mgrwt>
</event>
<event>
 5    1  0.8274494E-003  0.8847121E+02  0.7546771E-02  0.1442618E+00
          1   -1    0    0  501    0 -0.00000000000E+00  0.00000000000E+00  0.13280024792E+04  0.13280024792E+04  0.00000000000E+00 0. -1.
          2   -1    0    0  502    0  0.00000000000E+00 -0.00000000000E+00 -0.18430111668E+03  0.18430111668E+03  0.00000000000E+00 0. -1.
         25    1    1    2    0    0 -0.15454587952E+02  0.74865305807E+02 -0.11851997051E+03  0.18845594104E+03  0.12500000000E+03 0.  0.
          2    1    1    2  501    0 -0.10194898030E+02 -0.88040586714E+02  0.12844094265E+04  0.12874636522E+04  0.00000000000E+00 0. -1.
          1    1    1    2  502    0  0.25649485982E+02  0.13175280906E+02 -0.22188093455E+02  0.36384002656E+02  0.00000000000E+00 0. -1.
<mgrwt>
<rscale>  0 0.50508501E+02</rscale>
<asrwt>0</asrwt>
<pdfrwt beam="2">  1        2 0.28354019E-01 0.28835467E+02</pdfrwt>
<pdfrwt beam="1">  1        1 0.20430807E+00 0.88471210E+02</pdfrwt>
<totfact> 0.24583294E+02</totfact>
</mgrwt>
</event>
<event>
 5    1  0.8274494E-003  0.6758277E+02  0.7546771E-02  0.1374054E+00
          2   -1    0    0  502    0  0.00000000000E+00  0.00000000000E+00  0.54710985279E+03  0.54710985279E+03  0.00000000000E+00 0. -1.
          1   -1    0    0  501    0 -0.00000000000E+00 -0.00000000000E+00 -0.76426407874E+02  0.76426407874E+02  0.00000000000E+00 0. -1.
         25    1    1    2    0    0 -0.33764484943E+02  0.68862483399E+02  0.28525719258E+03  0.32074717143E+03  0.12500000000E+03 0.  0.
          2    1    1    2  501    0 -0.30414319085E+02 -0.61880318554E+02 -0.31975816639E+02  0.76004325399E+02  0.00000000000E+00 0. -1.
          1    1    1    2  502    0  0.64178804028E+02 -0.69821648449E+01  0.21740206898E+03  0.22678476384E+03  0.00000000000E+00 0. -1.
<mgrwt>
<rscale>  0 0.66052814E+02</rscale>
<asrwt>0</asrwt>
<pdfrwt beam="1">  1        2 0.84170744E-01 0.64557490E+02</pdfrwt>
<pdfrwt beam="2">  1        1 0.11757909E-01 0.67582774E+02</pdfrwt>
<totfact> 0.37368365E+03</totfact>
</mgrwt>
</event>
<event>
 5    1  0.8274494E-003  0.7873932E+02  0.7546771E-02  0.1408612E+00
          2   -1    0    0  502    0  0.00000000000E+00  0.00000000000E+00  0.34257105658E+03  0.34257105658E+03  0.00000000000E+00 0. -1.
          1   -1    0    0  501    0 -0.00000000000E+00 -0.00000000000E+00 -0.94740948033E+03  0.94740948033E+03  0.00000000000E+00 0. -1.
         25    1    1    2    0    0 -0.64787112139E+02 -0.56323879245E+02 -0.36278335676E+03  0.39320034743E+03  0.12500000000E+03 0.  0.
          2    1    1    2  501    0  0.26881146273E+02  0.74403342980E+02 -0.56530496252E+03  0.57081358964E+03  0.00000000000E+00 0. -1.
          1    1    1    2  502    0  0.37905965866E+02 -0.18079463735E+02  0.32324989552E+03  0.32596659984E+03  0.00000000000E+00 0. -1.
<mgrwt>
<rscale>  0 0.57504763E+02</rscale>
<asrwt>0</asrwt>
<pdfrwt beam="1">  1        2 0.52703239E-01 0.41996777E+02</pdfrwt>
<pdfrwt beam="2">  1        1 0.14575531E+00 0.78739322E+02</pdfrwt>
<totfact> 0.24327133E+02</totfact>
</mgrwt>
</event>
<event>
 5    1  0.8274494E-003  0.2121334E+03  0.7546771E-02  0.1159778E+00
          1   -1    0    0  501    0 -0.00000000000E+00  0.00000000000E+00  0.28485045693E+04  0.28485045693E+04  0.00000000000E+00 0. -1.
          2   -1    0    0  502    0  0.00000000000E+00 -0.00000000000E+00 -0.15882989974E+04  0.15882989974E+04  0.00000000000E+00 0. -1.
         25    1    1    2    0    0 -0.34800655447E+02 -0.84052379151E+02 -0.40454872126E+02  0.15980452040E+03  0.12500000000E+03 0.  0.
          2    1    1    2  501    0 -0.16281661916E+03 -0.39684790131E+02  0.27771557681E+04  0.27822074499E+04  0.00000000000E+00 0. -1.
          1    1    1    2  502    0  0.19761727460E+03  0.12373716928E+03 -0.14764953242E+04  0.14947915964E+04  0.00000000000E+00 0. -1.
<mgrwt>
<rscale>  0 0.18854706E+03</rscale>
<asrwt>0</asrwt>
<pdfrwt beam="2">  1        2 0.24435369E+00 0.21213338E+03</pdfrwt>
<pdfrwt beam="1">  1        1 0.43823147E+00 0.16758322E+03</pdfrwt>
<totfact> 0.17085917E+00</totfact>
</mgrwt>
</event>
<event>
 5    1  0.8274494E-003  0.1949211E+03  0.7546771E-02  0.1207510E+00
          1   -1    0    0  502    0  0.00000000000E+00  0.00000000000E+00  0.18272507885E+04  0.18272507885E+04  0.00000000000E+00 0. -1.
         -1   -1    0    0    0  501 -0.00000000000E+00 -0.00000000000E+00 -0.43437727221E+03  0.43437727221E+03  0.00000000000E+00 0.  1.
         25    1    1    2    0    0  0.33526443633E+02  0.11158129244E+03  0.28524330033E+03  0.33251037221E+03  0.12500000000E+03 0.  0.
          2    1    1    2  502    0  0.98771562955E+02  0.41131427093E+02  0.14914935539E+04  0.14953262645E+04  0.00000000000E+00 0. -1.
         -2    1    1    2    0  501 -0.13229800659E+03 -0.15271271953E+03 -0.38386333799E+03  0.43379142397E+03  0.00000000000E+00 0.  1.
<mgrwt>
<rscale>  0 0.14441364E+03</rscale>
<asrwt>0</asrwt>
<pdfrwt beam="1">  1        1 0.28111550E+00 0.10699353E+03</pdfrwt>
<pdfrwt beam="2">  1       -1 0.66827274E-01 0.19492112E+03</pdfrwt>
<totfact> 0.11638954E+01</totfact>
</mgrwt>
</event>
<event>
 5    1  0.8274494E-003  0.1149008E+03  0.7546771E-02  0.1335365E+00
          1   -1    0    0  501    0 -0.00000000000E+00  0.00000000000E+00  0.12169333417E+03  0.12169333417E+03  0.00000000000E+00 0. -1.
          2   -1    0    0  502    0  0.00000000000E+00 -0.00000000000E+00 -0.13183909607E+04  0.13183909607E+04  0.00000000000E+00 0. -1.
         25    1    1    2    0    0 -0.26794368283E+02  0.86670845872E+02 -0.85324259139E+02  0.17645113458E+03  0.12500000000E+03 0.  0.
          2    1    1    2  501    0  0.77835038696E+02 -0.99795336223E+02  0.22492634237E+02  0.12854307051E+03  0.00000000000E+00 0. -1.
          1    1    1    2  502    0 -0.51040670413E+02  0.13124490351E+02 -0.11338660016E+04  0.11350900897E+04  0.00000000000E+00 0. -1.
<mgrwt>
<rscale>  0 0.77816426E+02</rscale>
<asrwt>0</asrwt>
<pdfrwt beam="2">  1        2 0.20282936E+00 0.52701065E+02</pdfrwt>
<pdfrwt beam="1">  1        1 0.18722053E-01 0.11490083E+03</pdfrwt>
<totfact> 0.70792951E+02</totfact>
</mgrwt>
</event>
<event>
 5    1  0.8274494E-003  0.3284055E+02  0.7546771E-02  0.1579631E+00
          2   -1    0    0  502    0  0.00000000000E+00  0.00000000000E+00  0.96094336286E+03  0.96094336286E+03  0.00000000000E+00 0. -1.
          1   -1    0    0  501    0 -0.00000000000E+00 -0.00000000000E+00 -0.35848828476E+03  0.35848828476E+03  0.00000000000E+00 0. -1.
         25    1    1    2    0    0 -0.48843793179E+02 -0.17930679528E+02  0.35782759528E+03  0.38258700102E+03  0.12500000000E+03 0.  0.
          2    1    1    2  501    0  0.31914887190E+02 -0.76478973310E+01 -0.34493101846E+03  0.34648875574E+03  0.00000000000E+00 0. -1.
          1    1    1    2  502    0  0.16928905989E+02  0.25578576859E+02  0.58955850128E+03  0.59035589087E+03  0.00000000000E+00 0. -1.
<mgrwt>
<rscale>  0 0.31738433E+02</rscale>
<asrwt>0</asrwt>
<pdfrwt beam="1">  1        2 0.14783744E+00 0.30673302E+02</pdfrwt>
<pdfrwt beam="2">  1        1 0.55152044E-01 0.32840550E+02</pdfrwt>
<totfact> 0.29896234E+02</totfact>
</mgrwt>
</event>
<event>
 5    1  0.8274494E-003  0.5135233E+02  0.7546771E-02  0.1496923E+00
          1   -1    0    0  502    0  0.00000000000E+00  0.00000000000E+00  0.62020993741E+02  0.62020993741E+02  0.00000000000E+00 0. -1.
         -1   -1    0    0    0  501 -0.00000000000E+00 -0.00000000000E+00 -0.23732944941E+03  0.23732944941E+03  0.00000000000E+00 0.  1.
         25    1    1    2    0    0  0.32636148223E-01  0.21784218826E+02 -0.15858516191E+03  0.20309802272E+03  0.12500000000E+03 0.  0.
          2    1    1    2  502    0  0.13034518991E+01 -0.55418674233E+02  0.58218872537E+01  0.55738880612E+02  0.00000000000E+00 0. -1.
         -2    1    1    2    0  501 -0.13360880473E+01  0.33634455408E+02 -0.22545181015E+02  0.40513539821E+02  0.00000000000E+00 0.  1.
<mgrwt>
<rscale>  0 0.41576072E+02</rscale>
<asrwt>0</asrwt>
<pdfrwt beam="1">  1        1 0.95416914E-02 0.51352328E+02</pdfrwt>
<pdfrwt beam="2">  1       -1 0.36512223E-01 0.33660982E+02</pdfrwt>
<totfact> 0.43612838E+03</totfact>
</mgrwt>
</event>
<event>
 5    1  0.8274494E-003  0.5630911E+02  0.7546771E-02  0.1471837E+00
          1   -1    0    0  501    0 -0.00000000000E+00  0.00000000000E+00  0.58385377460E+03  0.58385377460E+03  0.00000000000E+00 0. -1.
          2   -1    0    0  502    0  0.00000000000E+00 -0.00000000000E+00 -0.12409120681E+04  0.12409120681E+04  0.00000000000E+00 0. -1.
         25    1    1    2    0    0 -0.27152287633E+02 -0.44672955234E+02  0.51201842451E+03  0.52964213077E+03  0.12500000000E+03 0.  0.
          2    1    1    2  501    0  0.34879769538E+02 -0.11123165089E+02  0.57004999221E+02  0.67748749515E+02  0.00000000000E+00 0. -1.
          1    1    1    2  502    0 -0.77274819042E+01  0.55796120323E+02 -0.12260817172E+04  0.12273749624E+04  0.00000000000E+00 0. -1.
<mgrwt>
<rscale>  0 0.45403747E+02</rscale>
<asrwt>0</asrwt>
<pdfrwt beam="2">  1        2 0.19090955E+00 0.56309107E+02</pdfrwt>
<pdfrwt beam="1">  1        1 0.89823657E-01 0.36610424E+02</pdfrwt>
<totfact> 0.11208361E+02</totfact>
</mgrwt>
</event>
<event>
 5    1  0.8274494E-003  0.9409330E+02  0.7546771E-02  0.1419076E+00
          2   -1    0    0  502    0  0.00000000000E+00  0.00000000000E+00  0.15021927977E+04  0.15021927977E+04  0.00000000000E+00 0. -1.
          1   -1    0    0  501    0 -0.00000000000E+00 -0.00000000000E+00 -0.11018124078E+04  0.11018124078E+04  0.00000000000E+00 0. -1.
         25    1    1    2    0    0  0.12049622013E+03  0.78566373242E+00 -0.73049158611E+02  0.18836437006E+03  0.12500000000E+03 0.  0.
          2    1    1    2  501    0 -0.27986929484E+02 -0.16330492211E+02 -0.96931172109E+03  0.96985316716E+03  0.00000000000E+00 0. -1.
          1    1    1    2  502    0 -0.92509290648E+02  0.15544828479E+02  0.14427412696E+04  0.14457876683E+04  0.00000000000E+00 0. -1.
<mgrwt>
<rscale>  0 0.55216877E+02</rscale>
<asrwt>0</asrwt>
<pdfrwt beam="1">  1        2 0.23110658E+00 0.94093303E+02</pdfrwt>
<pdfrwt beam="2">  1        1 0.16950960E+00 0.32402981E+02</pdfrwt>
<totfact> 0.31951635E+01</totfact>
</mgrwt>
</event>
<event>
 5    1  0.8274494E-003  0.1279995E+03  0.7546771E-02  0.1269340E+00
          2   -1    0    0  502    0  0.00000000000E+00  0.00000000000E+00  0.72063389686E+03  0.72063389686E+03  0.00000000000E+00 0. -1.
         -2   -1    0    0    0  501 -0.00000000000E+00 -0.00000000000E+00 -0.69500285833E+03  0.69500285833E+03  0.00000000000E+00 0.  1.
         25    1    1    2    0    0 -0.52580004004E+02  0.29321412895E+02  0.83724007687E+02  0.16204663384E+03  0.12500000000E+03 0.  0.
          1    1    1    2  502    0  0.10237599493E+03 -0.10039944932E+03  0.58619785990E+03  0.60348059182E+03  0.00000000000E+00 0. -1.
         -3    1    1    2    0  501 -0.49795990926E+02  0.71078036424E+02 -0.64429082906E+03  0.65010952953E+03  0.00000000000E+00 0.  1.
<mgrwt>
<rscale>  0 0.10539687E+03</rscale>
<asrwt>0</asrwt>
<pdfrwt beam="1">  1        2 0.11086675E+00 0.12799945E+03</pdfrwt>
<pdfrwt beam="2">  1       -2 0.10692352E+00 0.86785529E+02</pdfrwt>
<totfact> 0.31929146E+01</totfact>
</mgrwt>
</event>
<event>
 5    1  0.8274494E-003  0.1549111E+03  0.7546771E-02  0.1258646E+00
          3   -1    0    0  501    0 -0.00000000000E+00  0.00000000000E+00  0.47782267122E+02  0.47782267122E+02  0.00000000000E+00 0. -1.
          2   -1    0    0  502    0  0.00000000000E+00 -0.00000000000E+00 -0.18447412161E+04  0.18447412161E+04  0.00000000000E+00 0. -1.
         25    1    1    2    0    0 -0.78711813618E+02 -0.32379276143E+02 -0.12483138357E+04  0.12574404159E+04  0.12500000000E+03 0.  0.
          2    1    1    2  501    0  0.14866356396E+03  0.70367724838E+02 -0.13197864158E+03  0.21088108920E+03  0.00000000000E+00 0. -1.
          1    1    1    2  502    0 -0.69951750342E+02 -0.37988448695E+02 -0.41666647169E+03  0.42420197812E+03  0.00000000000E+00 0. -1.
<mgrwt>
<rscale>  0 0.11104563E+03</rscale>
<asrwt>0</asrwt>
<pdfrwt beam="2">  1        2 0.28380634E+00 0.79601317E+02</pdfrwt>
<pdfrwt beam="1">  1        3 0.73511179E-02 0.15491114E+03</pdfrwt>
<totfact> 0.74448698E+02</totfact>
</mgrwt>
</event>
<event>
 5    1  0.8274494E-003  0.7920916E+02  0.7546771E-02  0.1468917E+00
         -1   -1    0    0    0  501 -0.00000000000E+00  0.00000000000E+00  0.94293097568E+02  0.94293097568E+02  0.00000000000E+00 0.  1.
          1   -1    0    0  502    0  0.00000000000E+00 -0.00000000000E+00 -0.48711927663E+03  0.48711927663E+03  0.00000000000E+00 0. -1.
         25    1    1    2    0    0 -0.16446580267E+01 -0.65697459109E+02 -0.16723519660E+03  0.21888689320E+03  0.12500000000E+03 0.  0.
          2    1    1    2  502    0 -0.20659991502E+02  0.80146314325E+02 -0.28535677027E+03  0.29711740658E+03  0.00000000000E+00 0. -1.
         -2    1    1    2    0  501  0.22304649529E+02 -0.14448855216E+02  0.59765787808E+02  0.65408074425E+02  0.00000000000E+00 0.  1.
<mgrwt>
<rscale>  0 0.45880687E+02</rscale>
<asrwt>0</asrwt>
<pdfrwt beam="2">  1        1 0.74941429E-01 0.79209165E+02</pdfrwt>
<pdfrwt beam="1">  1       -1 0.14506630E-01 0.26575681E+02</pdfrwt>
<totfact> 0.14370883E+03</totfact>
</mgrwt>
</event>
<event>
 5    1  0.8274494E-003  0.7637823E+02  0.7546771E-02  0.1450572E+00
          2   -1    0    0  502    0  0.00000000000E+00  0.00000000000E+00  0.12339977220E+04  0.12339977220E+04  0.00000000000E+00 0. -1.
          1   -1    0    0  501    0 -0.00000000000E+00 -0.00000000000E+00 -0.11635950937E+04  0.11635950937E+04  0.00000000000E+00 0. -1.
         25    1    1    2    0    0  0.36365810710E+01  0.61720052745E+02  0.50271081131E+03  0.52169507324E+03  0.12500000000E+03 0.  0.
          2    1    1    2  501    0  0.29136667765E+02  0.11947637058E+02 -0.11516353685E+04  0.11520658460E+04  0.00000000000E+00 0. -1.
          1    1    1    2  502    0 -0.32773248836E+02 -0.73667689803E+02  0.71932718555E+03  0.72383189639E+03  0.00000000000E+00 0. -1.
<mgrwt>
<rscale>  0 0.49043216E+02</rscale>
<asrwt>0</asrwt>
<pdfrwt beam="1">  1        2 0.18984580E+00 0.76378230E+02</pdfrwt>
<pdfrwt beam="2">  1        1 0.17901463E+00 0.31491133E+02</pdfrwt>
<totfact> 0.40882037E+01</totfact>
</mgrwt>
</event>
<event>
 5    1  0.1011952E-002  0.5840394E+02  0.7546771E-02  0.1415614E+00
          2   -1    0    0  502    0  0.00000000000E+00  0.00000000000E+00  0.26224713665E+04  0.26224713665E+04  0.00000000000E+00 0. -1.
          1   -1    0    0  501    0 -0.00000000000E+00 -0.00000000000E+00 -0.47707437049E+03  0.47707437049E+03  0.00000000000E+00 0. -1.
         25    1    1    2    0    0  0.36392164606E+02 -0.32892278785E+02 -0.90201040776E+02  0.16176377656E+03  0.12500000000E+03 0.  0.
          2    1    1    2  501    0 -0.47695149499E+02 -0.24496162001E+02 -0.34871200952E+03  0.35281008322E+03  0.00000000000E+00 0. -1.
          1    1    1    2  502    0  0.11302984892E+02  0.57388440786E+02  0.25843100463E+04  0.25849718773E+04  0.00000000000E+00 0. -1.
<mgrwt>
<rscale>  0 0.55959824E+02</rscale>
<asrwt>0</asrwt>
<pdfrwt beam="1">  1        2 0.40345713E+00 0.58403937E+02</pdfrwt>
<pdfrwt beam="2">  1        1 0.73396058E-01 0.53617994E+02</pdfrwt>
<totfact> 0.29001239E+01</totfact>
</mgrwt>
</event>
<event>
 5    1  0.8274494E-003  0.7418129E+02  0.7546771E-02  0.1517496E+00
         -2   -1    0    0    0  501 -0.00000000000E+00  0.00000000000E+00  0.16872957305E+03  0.16872957305E+03  0.00000000000E+00 0.  1.
          2   -1    0    0  502    0  0.00000000000E+00 -0.00000000000E+00 -0.17404283501E+03  0.17404283501E+03  0.00000000000E+00 0. -1.
         25    1    1    2    0    0 -0.31396864619E+02 -0.56339323466E+02  0.74172370665E+02  0.15901705269E+03  0.12500000000E+03 0.  0.
          1    1    1    2  502    0  0.51595987544E+02  0.54793431337E+02 -0.11816156931E+03  0.14009504813E+03  0.00000000000E+00 0. -1.
         -3    1    1    2    0  501 -0.20199122925E+02  0.15458921285E+01  0.38675936692E+02  0.43660307242E+02  0.00000000000E+00 0.  1.
<mgrwt>
<rscale>  0 0.38765693E+02</rscale>
<asrwt>0</asrwt>
<pdfrwt beam="2">  1        2 0.26775821E-01 0.74181295E+02</pdfrwt>
<pdfrwt beam="1">  1       -2 0.25958396E-01 0.20258192E+02</pdfrwt>
<totfact> 0.23468679E+03</totfact>
</mgrwt>
</event>
<event>
 5    1  0.8274494E-003  0.1260500E+03  0.7546771E-02  0.1255962E+00
          1   -1    0    0  501    0 -0.00000000000E+00  0.00000000000E+00  0.75996902928E+02  0.75996902928E+02  0.00000000000E+00 0. -1.
          2   -1    0    0  502    0  0.00000000000E+00 -0.00000000000E+00 -0.85454573472E+03  0.85454573472E+03  0.00000000000E+00 0. -1.
         25    1    1    2    0    0 -0.87231570560E+02  0.16444238508E+03 -0.33527558908E+03  0.40334273955E+03  0.12500000000E+03 0.  0.
          2    1    1    2  501    0 -0.14635538611E+00 -0.11488482798E+03 -0.57324436791E+02  0.12839250825E+03  0.00000000000E+00 0. -1.
          1    1    1    2  502    0  0.87377925946E+02 -0.49557557097E+02 -0.38594880592E+03  0.39880738985E+03  0.00000000000E+00 0. -1.
<mgrwt>
<rscale>  0 0.11252612E+03</rscale>
<asrwt>0</asrwt>
<pdfrwt beam="2">  1        2 0.13146857E+00 0.10045324E+03</pdfrwt>
<pdfrwt beam="1">  1        1 0.11691831E-01 0.12604997E+03</pdfrwt>
<totfact> 0.22970234E+03</totfact>
</mgrwt>
</event>
<event>
 5    1  0.8274494E-003  0.6881005E+02  0.7546771E-02  0.1439345E+00
         -2   -1    0    0    0  501 -0.00000000000E+00  0.00000000000E+00  0.28227395460E+03  0.28227395460E+03  0.00000000000E+00 0.  1.
          2   -1    0    0  502    0  0.00000000000E+00 -0.00000000000E+00 -0.15223694177E+04  0.15223694177E+04  0.00000000000E+00 0. -1.
         25    1    1    2    0    0  0.53185024781E+01 -0.10543553573E+03 -0.24762857529E+03  0.29679934293E+03  0.12500000000E+03 0.  0.
          1    1    1    2  502    0  0.36204963653E+01  0.37818329377E+02 -0.12453475092E+04  0.12459268649E+04  0.00000000000E+00 0. -1.
         -1    1    1    2    0  501 -0.89389988434E+01  0.67617206354E+02  0.25288062146E+03  0.26191716440E+03  0.00000000000E+00 0.  1.
<mgrwt>
<rscale>  0 0.51129042E+02</rscale>
<asrwt>0</asrwt>
<pdfrwt beam="2">  1        2 0.23421069E+00 0.37991236E+02</pdfrwt>
<pdfrwt beam="1">  1       -2 0.43426761E-01 0.68810052E+02</pdfrwt>
<totfact> 0.79919600E+01</totfact>
</mgrwt>
</event>
<event>
 5    1  0.8274494E-003  0.3585750E+02  0.7546771E-02  0.1604466E+00
          2   -1    0    0  502    0  0.00000000000E+00  0.00000000000E+00  0.15232806818E+03  0.15232806818E+03  0.00000000000E+00 0. -1.
          1   -1    0    0  501    0 -0.00000000000E+00 -0.00000000000E+00 -0.24425277831E+04  0.24425277831E+04  0.00000000000E+00 0. -1.
         25    1    1    2    0    0 -0.21176473562E+01  0.12044779777E+02  0.78146353420E+01  0.12583969833E+03  0.12500000000E+03 0.  0.
          2    1    1    2  501    0  0.14085134792E+02 -0.33028007241E+02 -0.23816710544E+04  0.23819416978E+04  0.00000000000E+00 0. -1.
          1    1    1    2  502    0 -0.11967487435E+02  0.20983227464E+02  0.83656704147E+02  0.87074455147E+02  0.00000000000E+00 0. -1.
<mgrwt>
<rscale>  0 0.29430884E+02</rscale>
<asrwt>0</asrwt>
<pdfrwt beam="1">  1        2 0.23435087E-01 0.24156088E+02</pdfrwt>
<pdfrwt beam="2">  1        1 0.37577352E+00 0.35857500E+02</pdfrwt>
<totfact> 0.67575322E+01</totfact>
</mgrwt>
</event>
<event>
 5    1  0.8274494E-003  0.6519070E+02  0.7546771E-02  0.1388230E+00
          2   -1    0    0  502    0  0.00000000000E+00  0.00000000000E+00  0.13162010330E+04  0.13162010330E+04  0.00000000000E+00 0. -1.
          1   -1    0    0  501    0 -0.00000000000E+00 -0.00000000000E+00 -0.47923381276E+03  0.47923381276E+03  0.00000000000E+00 0. -1.
         25    1    1    2    0    0  0.90213984269E+01 -0.58417069660E+00 -0.21061903443E+03  0.24508591259E+03  0.12500000000E+03 0.  0.
          2    1    1    2  501    0  0.32231459251E+02 -0.50169822792E+02 -0.24700779275E+03  0.25410377361E+03  0.00000000000E+00 0. -1.
          1    1    1    2  502    0 -0.41252857678E+02  0.50753993488E+02  0.12945940474E+04  0.12962451596E+04  0.00000000000E+00 0. -1.
<mgrwt>
<rscale>  0 0.62349005E+02</rscale>
<asrwt>0</asrwt>
<pdfrwt beam="1">  1        2 0.20249246E+00 0.65190698E+02</pdfrwt>
<pdfrwt beam="2">  1        1 0.73728280E-01 0.59631184E+02</pdfrwt>
<totfact> 0.12847654E+02</totfact>
</mgrwt>
</event>
<event>
 5    1  0.8274494E-003  0.9584857E+02  0.7546771E-02  0.1311481E+00
          1   -1    0    0  502    0  0.00000000000E+00  0.00000000000E+00  0.46198460126E+03  0.46198460126E+03  0.00000000000E+00 0. -1.
         -1   -1    0    0    0  501 -0.00000000000E+00 -0.00000000000E+00 -0.53401239703E+03  0.53401239703E+03  0.00000000000E+00 0.  1.
         25    1    1    2    0    0 -0.12846003661E+03  0.34287279157E+02  0.24929963631E+03  0.30895453902E+03  0.12500000000E+03 0.  0.
          2    1    1    2  502    0  0.82985339074E+02  0.29227735036E+02  0.16900061548E+03  0.19053092932E+03  0.00000000000E+00 0. -1.
         -2    1    1    2    0  501  0.45474697536E+02 -0.63515014193E+02 -0.49032804756E+03  0.49651152994E+03  0.00000000000E+00 0.  1.
<mgrwt>
<rscale>  0 0.86529208E+02</rscale>
<asrwt>0</asrwt>
<pdfrwt beam="1">  1        1 0.71074554E-01 0.95848565E+02</pdfrwt>
<pdfrwt beam="2">  1       -1 0.82155753E-01 0.78115972E+02</pdfrwt>
<totfact> 0.83278481E+01</totfact>
</mgrwt>
</event>
<event>
 5    1  0.8274494E-003  0.4868772E+02  0.7546771E-02  0.1556868E+00
          1   -1    0    0  502    0  0.00000000000E+00  0.00000000000E+00  0.17010480470E+04  0.17010480470E+04  0.00000000000E+00 0. -1.
         -1   -1    0    0    0  501 -0.00000000000E+00 -0.00000000000E+00 -0.44077095052E+02  0.44077095052E+02  0.00000000000E+00 0.  1.
         25    1    1    2    0    0 -0.51945271584E+02 -0.25860168944E+02  0.11393250092E+04  0.11476295291E+04  0.12500000000E+03 0.  0.
          2    1    1    2  502    0  0.20880312329E+02 -0.11553721728E+02  0.54240245780E+03  0.54292716100E+03  0.00000000000E+00 0. -1.
         -2    1    1    2    0  501  0.31064959256E+02  0.37413890672E+02 -0.24756515032E+02  0.54568451923E+02  0.00000000000E+00 0.  1.
<mgrwt>
<rscale>  0 0.34086197E+02</rscale>
<asrwt>0</asrwt>
<pdfrwt beam="1">  1        1 0.26169965E+00 0.23863695E+02</pdfrwt>
<pdfrwt beam="2">  1       -1 0.67810929E-02 0.48687717E+02</pdfrwt>
<totfact> 0.66918683E+02</totfact>
</mgrwt>
</event>
<event>
 5    1  0.8274494E-003  0.2444574E+03  0.7546771E-02  0.1194170E+00
          2   -1    0    0  502    0  0.00000000000E+00  0.00000000000E+00  0.23695198462E+04  0.23695198462E+04  0.00000000000E+00 0. -1.
          1   -1    0    0  501    0 -0.00000000000E+00 -0.00000000000E+00 -0.28522430162E+04  0.28522430162E+04  0.00000000000E+00 0. -1.
         25    1    1    2    0    0  0.57304936282E+01 -0.15984799354E+03 -0.22405344927E+03  0.30233949085E+03  0.12500000000E+03 0.  0.
          2    1    1    2  501    0 -0.22797312859E+01  0.25838010725E+03 -0.25815513279E+04  0.25944503725E+04  0.00000000000E+00 0. -1.
          1    1    1    2  502    0 -0.34507623423E+01 -0.98532113709E+02  0.23228816071E+04  0.23249729990E+04  0.00000000000E+00 0. -1.
<mgrwt>
<rscale>  0 0.15524714E+03</rscale>
<asrwt>0</asrwt>
<pdfrwt beam="1">  1        2 0.36454152E+00 0.98592521E+02</pdfrwt>
<pdfrwt beam="2">  1        1 0.43880662E+00 0.24445742E+03</pdfrwt>
<totfact> 0.68652239E-01</totfact>
</mgrwt>
</event>
<event>
 5    1  0.8274494E-003  0.4174357E+02  0.7546771E-02  0.1577434E+00
          2   -1    0    0  502    0  0.00000000000E+00  0.00000000000E+00  0.11242381007E+04  0.11242381007E+04  0.00000000000E+00 0. -1.
          1   -1    0    0  501    0 -0.00000000000E+00 -0.00000000000E+00 -0.50387459557E+03  0.50387459557E+03  0.00000000000E+00 0. -1.
         25    1    1    2    0    0 -0.19247464161E+02 -0.16585470981E+02  0.60451070505E+03  0.61782176657E+03  0.12500000000E+03 0.  0.
          2    1    1    2  501    0  0.12103843688E+02  0.39980705643E+02 -0.49604912809E+03  0.49780487878E+03  0.00000000000E+00 0. -1.
          1    1    1    2  502    0  0.71436204729E+01 -0.23395234663E+02  0.51190192821E+03  0.51248605096E+03  0.00000000000E+00 0. -1.
<mgrwt>
<rscale>  0 0.31954863E+02</rscale>
<asrwt>0</asrwt>
<pdfrwt beam="1">  1        2 0.17295971E+00 0.24461568E+02</pdfrwt>
<pdfrwt beam="2">  1        1 0.77519169E-01 0.41743573E+02</pdfrwt>
<totfact> 0.16357965E+02</totfact>
</mgrwt>
</event>
<event>
 5    1  0.8274494E-003  0.1067513E+03  0.7546771E-02  0.1285969E+00
          1   -1    0    0  501    0 -0.00000000000E+00  0.00000000000E+00  0.70232131046E+03  0.70232131046E+03  0.00000000000E+00 0. -1.
          2   -1    0    0  502    0  0.00000000000E+00 -0.00000000000E+00 -0.16037503712E+03  0.16037503712E+03  0.00000000000E+00 0. -1.
         25    1    1    2    0    0 -0.21729825211E+02 -0.87364160391E+02  0.10475114330E+03  0.18628602698E+03  0.12500000000E+03 0.  0.
          2    1    1    2  501    0  0.88506194381E+02 -0.69242001740E+01  0.52427005012E+03  0.53173336969E+03  0.00000000000E+00 0. -1.
          1    1    1    2  502    0 -0.66776369170E+02  0.94288360565E+02 -0.87074920079E+02  0.14467695091E+03  0.00000000000E+00 0. -1.
<mgrwt>
<rscale>  0 0.97350010E+02</rscale>
<asrwt>0</asrwt>
<pdfrwt beam="2">  1        2 0.24673083E-01 0.10675134E+03</pdfrwt>
<pdfrwt beam="1">  1        1 0.10804943E+00 0.88776635E+02</pdfrwt>
<totfact> 0.85166468E+02</totfact>
</mgrwt>
</event>
<event>
 5    1  0.8274494E-003  0.1277711E+03  0.7546771E-02  0.1246253E+00
         -1   -1    0    0    0  502 -0.00000000000E+00  0.00000000000E+00  0.19960934047E+04  0.19960934047E+04  0.00000000000E+00 0.  1.
         -2   -1    0    0    0  501  0.00000000000E+00 -0.00000000000E+00 -0.27166970079E+03  0.27166970079E+03  0.00000000000E+00 0.  1.
         25    1    1    2    0    0  0.72084934637E+02  0.63433616040E+02 -0.95808887021E+02  0.18445705266E+03  0.12500000000E+03 0.  0.
         -2    1    1    2    0  502 -0.12482399386E+03  0.32156207840E+02  0.19265856094E+04  0.19308928405E+04  0.00000000000E+00 0.  1.
         -1    1    1    2    0  501  0.52739059226E+02 -0.95589823880E+02 -0.10635301838E+03  0.15241321241E+03  0.00000000000E+00 0.  1.
<mgrwt>
<rscale>  0 0.11810673E+03</rscale>
<asrwt>0</asrwt>
<pdfrwt beam="2">  1       -2 0.41795340E-01 0.10917336E+03</pdfrwt>
<pdfrwt beam="1">  1       -1 0.30709128E+00 0.12777109E+03</pdfrwt>
<totfact> 0.15620687E+00</totfact>
</mgrwt>
</event>
<event>
 5    1  0.8274494E-003  0.1428821E+03  0.7546771E-02  0.1246179E+00
         -2   -1    0    0    0  501 -0.00000000000E+00  0.00000000000E+00  0.13556174547E+03  0.13556174547E+03  0.00000000000E+00 0.  1.
          2   -1    0    0  502    0  0.00000000000E+00 -0.00000000000E+00 -0.30503626647E+04  0.30503626647E+04  0.00000000000E+00 0. -1.
         25    1    1    2    0    0  0.12562424418E+03  0.14923894375E+03 -0.43686436240E+03  0.49449892234E+03  0.12500000000E+03 0.  0.
          1    1    1    2  502    0 -0.13099612844E+03 -0.51686318902E+02 -0.25599773627E+04  0.25638478034E+04  0.00000000000E+00 0. -1.
         -3    1    1    2    0  501  0.53718842633E+01 -0.97552624849E+02  0.82040805860E+02  0.12757768450E+03  0.00000000000E+00 0.  1.
<mgrwt>
<rscale>  0 0.11815091E+03</rscale>
<asrwt>0</asrwt>
<pdfrwt beam="2">  1        2 0.46928652E+00 0.14288208E+03</pdfrwt>
<pdfrwt beam="1">  1       -2 0.20855655E-01 0.97700418E+02</pdfrwt>
<totfact> 0.40911385E+01</totfact>
</mgrwt>
</event>
<event>
 5    1  0.8274494E-003  0.8129263E+02  0.7546771E-02  0.1377872E+00
          2   -1    0    0  502    0  0.00000000000E+00  0.00000000000E+00  0.89194978662E+03  0.89194978662E+03  0.00000000000E+00 0. -1.
          1   -1    0    0  501    0 -0.00000000000E+00 -0.00000000000E+00 -0.27579182783E+03  0.27579182783E+03  0.00000000000E+00 0. -1.
         25    1    1    2    0    0 -0.21182239846E+02 -0.12344502383E+03  0.38071118956E+03  0.41982540544E+03  0.12500000000E+03 0.  0.
          2    1    1    2  501    0 -0.15260763047E+01  0.51992861882E+02 -0.25069133197E+03  0.25603072183E+03  0.00000000000E+00 0. -1.
          3    1    1    2  502    0  0.22708316151E+02  0.71452161948E+02  0.48613810120E+03  0.49188548719E+03  0.00000000000E+00 0. -1.
<mgrwt>
<rscale>  0 0.65026586E+02</rscale>
<asrwt>0</asrwt>
<pdfrwt beam="1">  1        2 0.13722304E+00 0.81292633E+02</pdfrwt>
<pdfrwt beam="2">  1        1 0.42429512E-01 0.52015253E+02</pdfrwt>
<totfact> 0.42862903E+02</totfact>
</mgrwt>
</event>
<event>
 5    1  0.8274494E-003  0.4783065E+02  0.7546771E-02  0.1534444E+00
          2   -1    0    0  502    0  0.00000000000E+00  0.00000000000E+00  0.50289292127E+03  0.50289292127E+03  0.00000000000E+00 0. -1.
         -2   -1    0    0    0  501 -0.00000000000E+00 -0.00000000000E+00 -0.56811113316E+02  0.56811113316E+02  0.00000000000E+00 0.  1.
         25    1    1    2    0    0  0.27892282087E+02  0.34774360585E+02  0.27554090488E+03  0.30583496500E+03  0.12500000000E+03 0.  0.
          1    1    1    2  502    0 -0.47543722368E+02 -0.14719479980E+02  0.20411863000E+03  0.21009874759E+03  0.00000000000E+00 0. -1.
         -1    1    1    2    0  501  0.19651440281E+02 -0.20054880605E+02 -0.33577726930E+02  0.43770321989E+02  0.00000000000E+00 0.  1.
<mgrwt>
<rscale>  0 0.36646853E+02</rscale>
<asrwt>0</asrwt>
<pdfrwt beam="1">  1        2 0.77368138E-01 0.47830652E+02</pdfrwt>
<pdfrwt beam="2">  1       -2 0.87401716E-02 0.28078058E+02</pdfrwt>
<totfact> 0.43600673E+03</totfact>
</mgrwt>
</event>
<event>
 5    1  0.8274494E-003  0.7386161E+02  0.7546771E-02  0.1480727E+00
         -1   -1    0    0    0  501 -0.00000000000E+00  0.00000000000E+00  0.15640763573E+03  0.15640763573E+03  0.00000000000E+00 0.  1.
          1   -1    0    0  502    0  0.00000000000E+00 -0.00000000000E+00 -0.10294929947E+03  0.10294929947E+03  0.00000000000E+00 0. -1.
         25    1    1    2    0    0  0.44567603245E+02  0.33229905303E+02  0.65155022506E+02  0.15152780215E+03  0.12500000000E+03 0.  0.
          2    1    1    2  502    0 -0.55250247294E+02 -0.57156492638E+02 -0.16500379094E+02  0.81189389620E+02  0.00000000000E+00 0. -1.
         -2    1    1    2    0  501  0.10682644049E+02  0.23926587334E+02  0.48036928410E+01  0.26639743435E+02  0.00000000000E+00 0.  1.
<mgrwt>
<rscale>  0 0.43993184E+02</rscale>
<asrwt>0</asrwt>
<pdfrwt beam="2">  1        1 0.15838354E-01 0.73861605E+02</pdfrwt>
<pdfrwt beam="1">  1       -1 0.24062713E-01 0.26203062E+02</pdfrwt>
<totfact> 0.45156892E+03</totfact>
</mgrwt>
</event>
<event>
 5    1  0.8274494E-003  0.1045723E+03  0.7546771E-02  0.1392231E+00
          1   -1    0    0  501    0 -0.00000000000E+00  0.00000000000E+00  0.10043528352E+04  0.10043528352E+04  0.00000000000E+00 0. -1.
          2   -1    0    0  502    0  0.00000000000E+00 -0.00000000000E+00 -0.78844205014E+03  0.78844205014E+03  0.00000000000E+00 0. -1.
         25    1    1    2    0    0 -0.49652036404E+01 -0.84195249142E+02 -0.39605485307E+02  0.15590730481E+03  0.12500000000E+03 0.  0.
          2    1    1    2  501    0 -0.32643172670E+02 -0.15176711268E+02  0.94176978569E+03  0.94245755264E+03  0.00000000000E+00 0. -1.
          1    1    1    2  502    0  0.37608376311E+02  0.99371960410E+02 -0.68625351528E+03  0.69443002795E+03  0.00000000000E+00 0. -1.
<mgrwt>
<rscale>  0 0.61355277E+02</rscale>
<asrwt>0</asrwt>
<pdfrwt beam="2">  1        2 0.12129878E+00 0.10457227E+03</pdfrwt>
<pdfrwt beam="1">  1        1 0.15451582E+00 0.35998740E+02</pdfrwt>
<totfact> 0.93013034E+01</totfact>
</mgrwt>
</event>
<event>
 5    1  0.8274494E-003  0.5771568E+02  0.7546771E-02  0.1429671E+00
          2   -1    0    0  502    0  0.00000000000E+00  0.00000000000E+00  0.17023508337E+04  0.17023508337E+04  0.00000000000E+00 0. -1.
         -2   -1    0    0    0  501 -0.00000000000E+00 -0.00000000000E+00 -0.16785498481E+03  0.16785498481E+03  0.00000000000E+00 0.  1.
         25    1    1    2    0    0 -0.99368100106E+02  0.33061554195E+02  0.50720571549E+01  0.16314965966E+03  0.12500000000E+03 0.  0.
          1    1    1    2  502    0  0.51152818442E+02 -0.26083243412E+02  0.16110091347E+04  0.16120320650E+04  0.00000000000E+00 0. -1.
         -1    1    1    2    0  501  0.48215281664E+02 -0.69783107827E+01 -0.81585343023E+02  0.95024093805E+02  0.00000000000E+00 0.  1.
<mgrwt>
<rscale>  0 0.53026151E+02</rscale>
<asrwt>0</asrwt>
<pdfrwt beam="1">  1        2 0.26190012E+00 0.57715679E+02</pdfrwt>
<pdfrwt beam="2">  1       -2 0.25823845E-01 0.48717658E+02</pdfrwt>
<totfact> 0.15852026E+02</totfact>
</mgrwt>
</event>
<event>
 5    1  0.8274494E-003  0.6893103E+02  0.7546771E-02  0.1419140E+00
          2   -1    0    0  502    0  0.00000000000E+00  0.00000000000E+00  0.90556392896E+03  0.90556392896E+03  0.00000000000E+00 0. -1.
          1   -1    0    0  501    0 -0.00000000000E+00 -0.00000000000E+00 -0.19664222814E+03  0.19664222814E+03  0.00000000000E+00 0. -1.
         25    1    1    2    0    0  0.62319791443E+02  0.86000593018E+02 -0.97288324019E+01  0.16431527192E+03  0.12500000000E+03 0.  0.
          2    1    1    2  501    0 -0.89030516705E+01 -0.43303612398E+02 -0.10368512187E+03  0.11271677636E+03  0.00000000000E+00 0. -1.
          1    1    1    2  502    0 -0.53416739772E+02 -0.42696980620E+02  0.82233565509E+03  0.82517410882E+03  0.00000000000E+00 0. -1.
<mgrwt>
<rscale>  0 0.55203228E+02</rscale>
<asrwt>0</asrwt>
<pdfrwt beam="1">  1        2 0.13931753E+00 0.68931029E+02</pdfrwt>
<pdfrwt beam="2">  1        1 0.30252651E-01 0.44209356E+02</pdfrwt>
<totfact> 0.63258660E+02</totfact>
</mgrwt>
</event>
<event>
 5    1  0.8274494E-003  0.4758114E+02  0.7546771E-02  0.1563589E+00
          1   -1    0    0  501    0 -0.00000000000E+00  0.00000000000E+00  0.45632040078E+03  0.45632040078E+03  0.00000000000E+00 0. -1.
          2   -1    0    0  502    0  0.00000000000E+00 -0.00000000000E+00 -0.23388289670E+03  0.23388289670E+03  0.00000000000E+00 0. -1.
         25    1    1    2    0    0 -0.52160649638E+01 -0.70195810395E+02 -0.10182229149E+03  0.17591883974E+03  0.12500000000E+03 0.  0.
          2    1    1    2  501    0  0.95042541377E-01  0.47362335983E+02  0.41646839974E+03  0.41915286935E+03  0.00000000000E+00 0. -1.
          1    1    1    2  502    0  0.51210224224E+01  0.22833474413E+02 -0.92208604182E+02  0.95131588390E+02  0.00000000000E+00 0. -1.
<mgrwt>
<rscale>  0 0.33368121E+02</rscale>
<asrwt>0</asrwt>
<pdfrwt beam="2">  1        2 0.35981984E-01 0.23400693E+02</pdfrwt>
<pdfrwt beam="1">  1        1 0.70203138E-01 0.47581135E+02</pdfrwt>
<totfact> 0.98115299E+02</totfact>
</mgrwt>
</event>
<event>
 5    1  0.8274494E-003  0.3624484E+02  0.7546771E-02  0.1557537E+00
         -2   -1    0    0    0  501 -0.00000000000E+00  0.00000000000E+00  0.15158074280E+03  0.15158074280E+03  0.00000000000E+00 0.  1.
          2   -1    0    0  502    0  0.00000000000E+00 -0.00000000000E+00 -0.20007126715E+04  0.20007126715E+04  0.00000000000E+00 0. -1.
         25    1    1    2    0    0 -0.49902784289E+02  0.15592516113E+01 -0.55189872397E+03  0.56807562936E+03  0.12500000000E+03 0.  0.
          1    1    1    2  502    0  0.27129022385E+02 -0.23925316566E+02 -0.14387202019E+04  0.14391748414E+04  0.00000000000E+00 0. -1.
         -1    1    1    2    0  501  0.22773761903E+02  0.22366064955E+02  0.14148699722E+03  0.14504294355E+03  0.00000000000E+00 0.  1.
<mgrwt>
<rscale>  0 0.34013739E+02</rscale>
<asrwt>0</asrwt>
<pdfrwt beam="2">  1        2 0.30780194E+00 0.36244836E+02</pdfrwt>
<pdfrwt beam="1">  1       -2 0.23320115E-01 0.31919980E+02</pdfrwt>
<totfact> 0.13947025E+02</totfact>
</mgrwt>
</event>
<event>
 5    1  0.8274494E-003  0.1274281E+03  0.7546771E-02  0.1398569E+00
          1   -1    0    0  501    0 -0.00000000000E+00  0.00000000000E+00  0.23652587710E+03  0.23652587710E+03  0.00000000000E+00 0. -1.
          2   -1    0    0  502    0  0.00000000000E+00 -0.00000000000E+00 -0.21018875350E+03  0.21018875350E+03  0.00000000000E+00 0. -1.
         25    1    1    2    0    0 -0.59836205654E+02 -0.93860165598E+02  0.55666707415E+02  0.17639128240E+03  0.12500000000E+03 0.  0.
          2    1    1    2  501    0 -0.27692558207E+02 -0.46873261805E+01  0.88918282553E+02  0.93248644917E+02  0.00000000000E+00 0. -1.
          3    1    1    2  502    0  0.87528763861E+02  0.98547491779E+02 -0.11824786637E+03  0.17707470327E+03  0.00000000000E+00 0. -1.
<mgrwt>
<rscale>  0 0.59824783E+02</rscale>
<asrwt>0</asrwt>
<pdfrwt beam="2">  1        2 0.32336731E-01 0.12742815E+03</pdfrwt>
<pdfrwt beam="1">  1        1 0.36388597E-01 0.28086452E+02</pdfrwt>
<totfact> 0.24858022E+03</totfact>
</mgrwt>
</event>
<event>
 5    1  0.8274494E-003  0.8301644E+02  0.7546771E-02  0.1333977E+00
          2   -1    0    0  502    0  0.00000000000E+00  0.00000000000E+00  0.32217089480E+04  0.32217089480E+04  0.00000000000E+00 0. -1.
          1   -1    0    0  501    0 -0.00000000000E+00 -0.00000000000E+00 -0.46980839315E+03  0.46980839315E+03  0.00000000000E+00 0. -1.
         25    1    1    2    0    0  0.11203329052E+02  0.82643286857E+01  0.79701029348E+02  0.14889952246E+03  0.12500000000E+03 0.  0.
          2    1    1    2  501    0 -0.34961946700E+02 -0.78169093641E+02 -0.43055353940E+03  0.43898644080E+03  0.00000000000E+00 0. -1.
          1    1    1    2  502    0  0.23758617648E+02  0.69904764955E+02  0.31027530649E+04  0.31036313779E+04  0.00000000000E+00 0. -1.
<mgrwt>
<rscale>  0 0.78289595E+02</rscale>
<asrwt>0</asrwt>
<pdfrwt beam="1">  1        2 0.49564752E+00 0.73831891E+02</pdfrwt>
<pdfrwt beam="2">  1        1 0.72278216E-01 0.83016440E+02</pdfrwt>
<totfact> 0.13113531E+01</totfact>
</mgrwt>
</event>
<event>
 5    1  0.8274494E-003  0.6095718E+02  0.7546771E-02  0.1394922E+00
          2   -1    0    0  502    0  0.00000000000E+00  0.00000000000E+00  0.34469178379E+03  0.34469178379E+03  0.00000000000E+00 0. -1.
          1   -1    0    0  501    0 -0.00000000000E+00 -0.00000000000E+00 -0.89747903706E+02  0.89747903706E+02  0.00000000000E+00 0. -1.
         25    1    1    2    0    0 -0.75581995496E+02  0.31796220298E+01  0.12411314085E+02  0.14663488247E+03  0.12500000000E+03 0.  0.
          2    1    1    2  501    0  0.41076864225E+02  0.46444815718E+02  0.34050345075E+02  0.70737936649E+02  0.00000000000E+00 0. -1.
          1    1    1    2  502    0  0.34505131270E+02 -0.49624437748E+02  0.20848222092E+03  0.21706686837E+03  0.00000000000E+00 0. -1.
<mgrwt>
<rscale>  0 0.60698851E+02</rscale>
<asrwt>0</asrwt>
<pdfrwt beam="1">  1        2 0.53029504E-01 0.60441616E+02</pdfrwt>
<pdfrwt beam="2">  1        1 0.13807370E-01 0.60957181E+02</pdfrwt>
<totfact> 0.49120800E+03</totfact>
</mgrwt>
</event>
<event>
 5    1  0.8274494E-003  0.6393782E+02  0.7546771E-02  0.1539367E+00
         -2   -1    0    0    0  501 -0.00000000000E+00  0.00000000000E+00  0.30977602881E+03  0.30977602881E+03  0.00000000000E+00 0.  1.
          2   -1    0    0  502    0  0.00000000000E+00 -0.00000000000E+00 -0.48906313281E+03  0.48906313281E+03  0.00000000000E+00 0. -1.
         25    1    1    2    0    0 -0.46363210961E+02  0.35801080816E+02 -0.97371148500E+01  0.13838741317E+03  0.12500000000E+03 0.  0.
          1    1    1    2  502    0  0.35938744996E+02 -0.53266216207E+02 -0.41208535507E+03  0.41706501058E+03  0.00000000000E+00 0. -1.
         -1    1    1    2    0  501  0.10424465965E+02  0.17465135391E+02  0.24253536592E+03  0.24338673787E+03  0.00000000000E+00 0.  1.
<mgrwt>
<rscale>  0 0.36062050E+02</rscale>
<asrwt>0</asrwt>
<pdfrwt beam="2">  1        2 0.75240482E-01 0.63937821E+02</pdfrwt>
<pdfrwt beam="1">  1       -2 0.47657851E-01 0.20339627E+02</pdfrwt>
<totfact> 0.27240206E+02</totfact>
</mgrwt>
</event>
<event>
 5    1  0.8274494E-003  0.9677867E+02  0.7546771E-02  0.1290305E+00
          1   -1    0    0  501    0 -0.00000000000E+00  0.00000000000E+00  0.10738688042E+04  0.10738688042E+04  0.00000000000E+00 0. -1.
          2   -1    0    0  502    0  0.00000000000E+00 -0.00000000000E+00 -0.52343369601E+03  0.52343369601E+03  0.00000000000E+00 0. -1.
         25    1    1    2    0    0  0.50039477939E+01  0.23491896002E+02 -0.79592867483E+02  0.15012306027E+03  0.12500000000E+03 0.  0.
          2    1    1    2  501    0 -0.40709107773E+02  0.84746878606E+02  0.10284689544E+04  0.10327573069E+04  0.00000000000E+00 0. -1.
          1    1    1    2  502    0  0.35705159979E+02 -0.10823877461E+03 -0.39844097873E+03  0.41442213299E+03  0.00000000000E+00 0. -1.
<mgrwt>
<rscale>  0 0.95388028E+02</rscale>
<asrwt>0</asrwt>
<pdfrwt beam="2">  1        2 0.80528261E-01 0.96778675E+02</pdfrwt>
<pdfrwt beam="1">  1        1 0.16521058E+00 0.94017365E+02</pdfrwt>
<totfact> 0.12479054E+02</totfact>
</mgrwt>
</event>
<event>
 5    1  0.8274494E-003  0.1138170E+03  0.7546771E-02  0.1426287E+00
          1   -1    0    0  501    0 -0.00000000000E+00  0.00000000000E+00  0.34613248520E+03  0.34613248520E+03  0.00000000000E+00 0. -1.
          2   -1    0    0  502    0  0.00000000000E+00 -0.00000000000E+00 -0.75902936543E+03  0.75902936543E+03  0.00000000000E+00 0. -1.
         25    1    1    2    0    0 -0.21220103596E+02 -0.92088905254E+02 -0.14335235242E+03  0.21238068700E+03  0.12500000000E+03 0.  0.
          2    1    1    2  501    0  0.41518704201E+02  0.10727102734E+03  0.30071252471E+03  0.32196102035E+03  0.00000000000E+00 0. -1.
          1    1    1    2  502    0 -0.20298600605E+02 -0.15182122089E+02 -0.57025705252E+03  0.57082014328E+03  0.00000000000E+00 0. -1.
<mgrwt>
<rscale>  0 0.53712704E+02</rscale>
<asrwt>0</asrwt>
<pdfrwt beam="2">  1        2 0.11677375E+00 0.25348176E+02</pdfrwt>
<pdfrwt beam="1">  1        1 0.53251152E-01 0.11381705E+03</pdfrwt>
<totfact> 0.41301340E+02</totfact>
</mgrwt>
</event>
<event>
 5    1  0.8274494E-003  0.6370286E+02  0.7546771E-02  0.1497475E+00
          2   -1    0    0  502    0  0.00000000000E+00  0.00000000000E+00  0.38715822241E+03  0.38715822241E+03  0.00000000000E+00 0. -1.
          1   -1    0    0  501    0 -0.00000000000E+00 -0.00000000000E+00 -0.15571918694E+04  0.15571918694E+04  0.00000000000E+00 0. -1.
         25    1    1    2    0    0  0.51384530416E+02 -0.25299712400E+02  0.25886601802E+03  0.29311612153E+03  0.12500000000E+03 0.  0.
          2    1    1    2  501    0 -0.39841045155E+02  0.49742827398E+02 -0.15377536762E+04  0.15390737560E+04  0.00000000000E+00 0. -1.
          1    1    1    2  502    0 -0.11543485262E+02 -0.24443114998E+02  0.10885401117E+03  0.11216021430E+03  0.00000000000E+00 0. -1.
<mgrwt>
<rscale>  0 0.41497020E+02</rscale>
<asrwt>0</asrwt>
<pdfrwt beam="1">  1        2 0.59562805E-01 0.27031795E+02</pdfrwt>
<pdfrwt beam="2">  1        1 0.23956797E+00 0.63702863E+02</pdfrwt>
<totfact> 0.85893232E+01</totfact>
</mgrwt>
</event>
<event>
 5    1  0.8274494E-003  0.1628454E+03  0.7546771E-02  0.1245483E+00
          1   -1    0    0  501    0 -0.00000000000E+00  0.00000000000E+00  0.44824563632E+03  0.44824563632E+03  0.00000000000E+00 0. -1.
          2   -1    0    0  502    0  0.00000000000E+00 -0.00000000000E+00 -0.29607502750E+03  0.29607502750E+03  0.00000000000E+00 0. -1.
         25    1    1    2    0    0 -0.35931900770E+02  0.98780676871E+00  0.13936200803E+03  0.19062750729E+03  0.12500000000E+03 0.  0.
          2    1    1    2  501    0  0.35347047253E+02  0.16185658979E+03  0.22924084746E+03  0.28283977010E+03  0.00000000000E+00 0. -1.
          1    1    1    2  502    0  0.58485351660E+00 -0.16284439656E+03 -0.21643224667E+03  0.27085338643E+03  0.00000000000E+00 0. -1.
<mgrwt>
<rscale>  0 0.11856546E+03</rscale>
<asrwt>0</asrwt>
<pdfrwt beam="2">  1        2 0.45550004E-01 0.16284545E+03</pdfrwt>
<pdfrwt beam="1">  1        1 0.68960867E-01 0.86325832E+02</pdfrwt>
<totfact> 0.80309276E+02</totfact>
</mgrwt>
</event>
<event>
 5    1  0.8274494E-003  0.7018314E+02  0.7546771E-02  0.1425139E+00
          2   -1    0    0  502    0  0.00000000000E+00  0.00000000000E+00  0.25152781588E+04  0.25152781588E+04  0.00000000000E+00 0. -1.
          3   -1    0    0  501    0 -0.00000000000E+00 -0.00000000000E+00 -0.42192522350E+02  0.42192522350E+02  0.00000000000E+00 0. -1.
         25    1    1    2    0    0  0.54567488924E+01 -0.82094704297E+02  0.52890785025E+03  0.54967065652E+03  0.12500000000E+03 0.  0.
          2    1    1    2  501    0  0.33796606478E+02  0.24030274673E+02 -0.17399372742E+02  0.44971133876E+02  0.00000000000E+00 0. -1.
          1    1    1    2  502    0 -0.39253355370E+02  0.58064429624E+02  0.19615771590E+04  0.19628288908E+04  0.00000000000E+00 0. -1.
<mgrwt>
<rscale>  0 0.53948247E+02</rscale>
<asrwt>0</asrwt>
<pdfrwt beam="1">  1        2 0.38696575E+00 0.70183139E+02</pdfrwt>
<pdfrwt beam="2">  1        3 0.64911592E-02 0.41468840E+02</pdfrwt>
<totfact> 0.34919781E+02</totfact>
</mgrwt>
</event>
<event>
 5    1  0.8274494E-003  0.1299068E+03  0.7546771E-02  0.1303658E+00
          2   -1    0    0  502    0  0.00000000000E+00  0.00000000000E+00  0.12381339093E+04  0.12381339093E+04  0.00000000000E+00 0. -1.
         -2   -1    0    0    0  501 -0.00000000000E+00 -0.00000000000E+00 -0.49221898089E+03  0.49221898089E+03  0.00000000000E+00 0.  1.
         25    1    1    2    0    0  0.12823419867E+03 -0.13757539945E+03 -0.96333792369E+02  0.24551211741E+03  0.12500000000E+03 0.  0.
          1    1    1    2  502    0 -0.97804273887E+02  0.83679522502E+02  0.11569615223E+04  0.11640996103E+04  0.00000000000E+00 0. -1.
         -1    1    1    2    0  501 -0.30429924783E+02  0.53895876947E+02 -0.31471280155E+03  0.32074116252E+03  0.00000000000E+00 0.  1.
<mgrwt>
<rscale>  0 0.89667864E+02</rscale>
<asrwt>0</asrwt>
<pdfrwt beam="1">  1        2 0.19048214E+00 0.12990683E+03</pdfrwt>
<pdfrwt beam="2">  1       -2 0.75725998E-01 0.61893020E+02</pdfrwt>
<totfact> 0.33344442E+01</totfact>
</mgrwt>
</event>
<event>
 5    1  0.8274494E-003  0.1322935E+03  0.7546771E-02  0.1373381E+00
         -1   -1    0    0    0  501 -0.00000000000E+00  0.00000000000E+00  0.18565737194E+03  0.18565737194E+03  0.00000000000E+00 0.  1.
          1   -1    0    0  502    0  0.00000000000E+00 -0.00000000000E+00 -0.14752746020E+04  0.14752746020E+04  0.00000000000E+00 0. -1.
         25    1    1    2    0    0 -0.90292354908E+02 -0.12492434183E+03 -0.19343330695E+03  0.27712857083E+03  0.12500000000E+03 0.  0.
          2    1    1    2  502    0 -0.14543352568E+01  0.33130835588E+02 -0.12104393711E+04  0.12108935702E+04  0.00000000000E+00 0. -1.
         -2    1    1    2    0  501  0.91746690165E+02  0.91793506238E+02  0.11425544792E+03  0.17290983293E+03  0.00000000000E+00 0.  1.
<mgrwt>
<rscale>  0 0.66236048E+02</rscale>
<asrwt>0</asrwt>
<pdfrwt beam="2">  1        1 0.22696532E+00 0.33162741E+02</pdfrwt>
<pdfrwt beam="1">  1       -1 0.28562673E-01 0.13229347E+03</pdfrwt>
<totfact> 0.10099112E+02</totfact>
</mgrwt>
</event>
<event>
 5    1  0.8274494E-003  0.1373656E+03  0.7546771E-02  0.1229926E+00
          2   -1    0    0  502    0  0.00000000000E+00  0.00000000000E+00  0.48405031552E+03  0.48405031552E+03  0.00000000000E+00 0. -1.
          3   -1    0    0  501    0 -0.00000000000E+00 -0.00000000000E+00 -0.10859955961E+04  0.10859955961E+04  0.00000000000E+00 0. -1.
         25    1    1    2    0    0  0.17278645996E+03 -0.62795152465E+02 -0.18540671727E+03  0.28948064309E+03  0.12500000000E+03 0.  0.
          2    1    1    2  501    0 -0.44506068713E+02  0.11136089429E+03 -0.83326209779E+03  0.84184782624E+03  0.00000000000E+00 0. -1.
          1    1    1    2  502    0 -0.12828039124E+03 -0.48565741823E+02  0.41672353443E+03  0.43871744233E+03  0.00000000000E+00 0. -1.
<mgrwt>
<rscale>  0 0.12834948E+03</rscale>
<asrwt>0</asrwt>
<pdfrwt beam="1">  1        2 0.74469280E-01 0.13736561E+03</pdfrwt>
<pdfrwt beam="2">  1        3 0.16707624E+00 0.11992514E+03</pdfrwt>
<totfact> 0.10607291E+01</totfact>
</mgrwt>
</event>
<event>
 5    1  0.8274494E-003  0.5450688E+02  0.7546771E-02  0.1543239E+00
          2   -1    0    0  502    0  0.00000000000E+00  0.00000000000E+00  0.12941796265E+04  0.12941796265E+04  0.00000000000E+00 0. -1.
         -2   -1    0    0    0  501 -0.00000000000E+00 -0.00000000000E+00 -0.17447664644E+02  0.17447664644E+02  0.00000000000E+00 0.  1.
         25    1    1    2    0    0  0.39506284843E+02 -0.57247372275E+02  0.35519645765E+03  0.38291974577E+03  0.12500000000E+03 0.  0.
          1    1    1    2  502    0 -0.18327542251E+02  0.14332103253E+02  0.75690075078E+03  0.75725824823E+03  0.00000000000E+00 0. -1.
         -1    1    1    2    0  501 -0.21178742593E+02  0.42915269022E+02  0.16463475340E+03  0.17144929711E+03  0.00000000000E+00 0.  1.
<mgrwt>
<rscale>  0 0.35611213E+02</rscale>
<asrwt>0</asrwt>
<pdfrwt beam="1">  1        2 0.19910448E+00 0.23266026E+02</pdfrwt>
<pdfrwt beam="2">  1       -2 0.26842571E-02 0.54506878E+02</pdfrwt>
<totfact> 0.87326604E+03</totfact>
</mgrwt>
</event>
<event>
 5    1  0.8274494E-003  0.8562686E+02  0.7546771E-02  0.1401915E+00
          1   -1    0    0  502    0  0.00000000000E+00  0.00000000000E+00  0.34834122174E+02  0.34834122174E+02  0.00000000000E+00 0. -1.
         -1   -1    0    0    0  501 -0.00000000000E+00 -0.00000000000E+00 -0.93279824002E+03  0.93279824002E+03  0.00000000000E+00 0.  1.
         25    1    1    2    0    0  0.89962916788E+02  0.60131543665E+02 -0.38542476473E+03  0.41938809974E+03  0.12500000000E+03 0.  0.
          2    1    1    2  502    0 -0.40360310269E+02  0.52868974773E+01 -0.14083265670E+02  0.43072546963E+02  0.00000000000E+00 0. -1.
         -2    1    1    2    0  501 -0.49602606518E+02 -0.65418441142E+02 -0.49845608745E+03  0.50517171549E+03  0.00000000000E+00 0.  1.
<mgrwt>
<rscale>  0 0.59037707E+02</rscale>
<asrwt>0</asrwt>
<pdfrwt beam="1">  1        1 0.53590954E-02 0.40705109E+02</pdfrwt>
<pdfrwt beam="2">  1       -1 0.14350743E+00 0.85626865E+02</pdfrwt>
<totfact> 0.58328151E+02</totfact>
</mgrwt>
</event>
<event>
 5    1  0.8274494E-003  0.1067145E+03  0.7546771E-02  0.1312660E+00
          1   -1    0    0  501    0 -0.00000000000E+00  0.00000000000E+00  0.35676487141E+03  0.35676487141E+03  0.00000000000E+00 0. -1.
          2   -1    0    0  502    0  0.00000000000E+00 -0.00000000000E+00 -0.17473254700E+04  0.17473254700E+04  0.00000000000E+00 0. -1.
         25    1    1    2    0    0 -0.45664290390E+02 -0.27974375437E+01 -0.13697455112E+03  0.19099759352E+03  0.12500000000E+03 0.  0.
          2    1    1    2  501    0  0.10063344460E+03  0.45191833066E+02  0.31974040982E+03  0.33823560076E+03  0.00000000000E+00 0. -1.
          1    1    1    2  502    0 -0.54969154209E+02 -0.42394395522E+02 -0.15733264573E+04  0.15748571472E+04  0.00000000000E+00 0. -1.
<mgrwt>
<rscale>  0 0.86069350E+02</rscale>
<asrwt>0</asrwt>
<pdfrwt beam="2">  1        2 0.26881930E+00 0.69418245E+02</pdfrwt>
<pdfrwt beam="1">  1        1 0.54886904E-01 0.10671450E+03</pdfrwt>
<totfact> 0.11101751E+02</totfact>
</mgrwt>
</event>
<event>
 5    1  0.8274494E-003  0.9567829E+02  0.7546771E-02  0.1339770E+00
          1   -1    0    0  501    0 -0.00000000000E+00  0.00000000000E+00  0.14853518376E+04  0.14853518376E+04  0.00000000000E+00 0. -1.
          2   -1    0    0  502    0  0.00000000000E+00 -0.00000000000E+00 -0.30932428726E+03  0.30932428726E+03  0.00000000000E+00 0. -1.
         25    1    1    2    0    0  0.11591166350E+03 -0.51500573623E+02  0.27040559471E+03  0.32377771460E+03  0.12500000000E+03 0.  0.
          2    1    1    2  501    0 -0.56457787358E+02 -0.22861337003E+02  0.11794342102E+04  0.11810060029E+04  0.00000000000E+00 0. -1.
          1    1    1    2  502    0 -0.59453876140E+02  0.74361910626E+02 -0.27381225458E+03  0.28989240745E+03  0.00000000000E+00 0. -1.
<mgrwt>
<rscale>  0 0.76340283E+02</rscale>
<asrwt>0</asrwt>
<pdfrwt beam="2">  1        2 0.47588353E-01 0.95678291E+02</pdfrwt>
<pdfrwt beam="1">  1        1 0.22851566E+00 0.60910775E+02</pdfrwt>
<totfact> 0.12121619E+02</totfact>
</mgrwt>
</event>
<event>
 5    1  0.8274494E-003  0.7657908E+02  0.7546771E-02  0.1376503E+00
         -1   -1    0    0    0  501 -0.00000000000E+00  0.00000000000E+00  0.11631935551E+04  0.11631935551E+04  0.00000000000E+00 0.  1.
          1   -1    0    0  502    0  0.00000000000E+00 -0.00000000000E+00 -0.14866106784E+03  0.14866106784E+03  0.00000000000E+00 0. -1.
         25    1    1    2    0    0  0.82625305694E+02  0.90424697092E+02  0.49336355727E+03  0.52348463839E+03  0.12500000000E+03 0.  0.
          2    1    1    2  502    0 -0.31026413318E+02 -0.69080265684E+02 -0.12156077994E+03  0.14321921886E+03  0.00000000000E+00 0. -1.
         -2    1    1    2    0  501 -0.51598892376E+02 -0.21344431408E+02  0.64272970991E+03  0.64515076567E+03  0.00000000000E+00 0.  1.
<mgrwt>
<rscale>  0 0.65392080E+02</rscale>
<asrwt>0</asrwt>
<pdfrwt beam="2">  1        1 0.22870934E-01 0.76579078E+02</pdfrwt>
<pdfrwt beam="1">  1       -1 0.17895285E+00 0.55839327E+02</pdfrwt>
<totfact> 0.54980348E+01</totfact>
</mgrwt>
</event>
<event>
 5    1  0.8274494E-003  0.8377911E+02  0.7546771E-02  0.1357051E+00
         -2   -1    0    0    0  501 -0.00000000000E+00  0.00000000000E+00  0.46711122943E+02  0.46711122943E+02  0.00000000000E+00 0.  1.
          2   -1    0    0  502    0  0.00000000000E+00 -0.00000000000E+00 -0.12017467541E+04  0.12017467541E+04  0.00000000000E+00 0. -1.
         25    1    1    2    0    0 -0.33814237494E+02  0.68969705500E+02 -0.40345706307E+03  0.42930504851E+03  0.12500000000E+03 0.  0.
          1    1    1    2  502    0  0.82070803539E+02 -0.33306294578E+02 -0.75391752299E+03  0.75910246840E+03  0.00000000000E+00 0. -1.
         -1    1    1    2    0  501 -0.48256566045E+02 -0.35663410922E+02  0.23389548853E+01  0.60050360157E+02  0.00000000000E+00 0.  1.
<mgrwt>
<rscale>  0 0.70902383E+02</rscale>
<asrwt>0</asrwt>
<pdfrwt beam="2">  1        2 0.18488415E+00 0.83779107E+02</pdfrwt>
<pdfrwt beam="1">  1       -2 0.71863254E-02 0.60004792E+02</pdfrwt>
<totfact> 0.21380380E+03</totfact>
</mgrwt>
</event>
<event>
 5    1  0.8274494E-003  0.2311538E+02  0.7546771E-02  0.1707121E+00
          2   -1    0    0  502    0  0.00000000000E+00  0.00000000000E+00  0.15545433300E+04  0.15545433300E+04  0.00000000000E+00 0. -1.
         -2   -1    0    0    0  501 -0.00000000000E+00 -0.00000000000E+00 -0.20361230416E+03  0.20361230416E+03  0.00000000000E+00 0.  1.
         25    1    1    2    0    0 -0.22146199766E+01  0.13307478875E+01  0.18748862031E+03  0.22535229792E+03  0.12500000000E+03 0.  0.
          1    1    1    2  502    0  0.23225388365E+02  0.15708421596E+00  0.13474218786E+04  0.13476220399E+04  0.00000000000E+00 0. -1.
         -1    1    1    2    0  501 -0.21010768389E+02 -0.14878321034E+01 -0.18397947306E+03  0.18518129641E+03  0.00000000000E+00 0.  1.
<mgrwt>
<rscale>  0 0.22065542E+02</rscale>
<asrwt>0</asrwt>
<pdfrwt beam="1">  1        2 0.23916050E+00 0.23115384E+02</pdfrwt>
<pdfrwt beam="2">  1       -2 0.31324971E-01 0.21063381E+02</pdfrwt>
<totfact> 0.14158215E+02</totfact>
</mgrwt>
</event>
<event>
 5    1  0.8274494E-003  0.8226061E+02  0.7546771E-02  0.1404144E+00
          2   -1    0    0  502    0  0.00000000000E+00  0.00000000000E+00  0.17728018805E+04  0.17728018805E+04  0.00000000000E+00 0. -1.
          1   -1    0    0  501    0 -0.00000000000E+00 -0.00000000000E+00 -0.18044263878E+04  0.18044263878E+04  0.00000000000E+00 0. -1.
         25    1    1    2    0    0 -0.71773280716E+01 -0.96460255537E+02  0.60371780270E+03  0.62406432380E+03  0.12500000000E+03 0.  0.
          2    1    1    2  501    0  0.40546371856E+02  0.71564520512E+02 -0.17929360602E+04  0.17948217752E+04  0.00000000000E+00 0. -1.
          1    1    1    2  502    0 -0.33369043784E+02  0.24895735024E+02  0.11575937502E+04  0.11583421693E+04  0.00000000000E+00 0. -1.
<mgrwt>
<rscale>  0 0.58521279E+02</rscale>
<asrwt>0</asrwt>
<pdfrwt beam="1">  1        2 0.27273875E+00 0.41632808E+02</pdfrwt>
<pdfrwt beam="2">  1        1 0.27760406E+00 0.82260608E+02</pdfrwt>
<totfact> 0.83146287E+00</totfact>
</mgrwt>
</event>
<event>
 5    1  0.8274494E-003  0.6275832E+02  0.7546771E-02  0.1509936E+00
          2   -1    0    0  502    0  0.00000000000E+00  0.00000000000E+00  0.15728941495E+03  0.15728941495E+03  0.00000000000E+00 0. -1.
          1   -1    0    0  501    0 -0.00000000000E+00 -0.00000000000E+00 -0.74972446920E+03  0.74972446920E+03  0.00000000000E+00 0. -1.
         25    1    1    2    0    0 -0.29239408381E+02  0.72334106267E+02  0.79388321585E+02  0.16737583916E+03  0.12500000000E+03 0.  0.
          2    1    1    2  501    0  0.17155737445E+02 -0.18455868568E+02 -0.68286371544E+03  0.68332846588E+03  0.00000000000E+00 0. -1.
          1    1    1    2  502    0  0.12083670936E+02 -0.53878237699E+02  0.11040339608E+02  0.56309579109E+02  0.00000000000E+00 0. -1.
<mgrwt>
<rscale>  0 0.39766610E+02</rscale>
<asrwt>0</asrwt>
<pdfrwt beam="1">  1        2 0.24198371E-01 0.62758323E+02</pdfrwt>
<pdfrwt beam="2">  1        1 0.11534223E+00 0.25197984E+02</pdfrwt>
<totfact> 0.82714600E+02</totfact>
</mgrwt>
</event>
<event>
 5    1  0.8274494E-003  0.6006508E+02  0.7546771E-02  0.1414708E+00
          2   -1    0    0  502    0  0.00000000000E+00  0.00000000000E+00  0.21072946534E+03  0.21072946534E+03  0.00000000000E+00 0. -1.
          1   -1    0    0  501    0 -0.00000000000E+00 -0.00000000000E+00 -0.99419845314E+03  0.99419845314E+03  0.00000000000E+00 0. -1.
         25    1    1    2    0    0  0.71533334731E+02 -0.43906527173E+02 -0.19469680004E+03  0.24612323143E+03  0.12500000000E+03 0.  0.
          2    1    1    2  501    0 -0.20477920926E+02  0.56146368344E+02 -0.76888071326E+03  0.77119991646E+03  0.00000000000E+00 0. -1.
          1    1    1    2  502    0 -0.51055413804E+02 -0.12239841171E+02  0.18010852549E+03  0.18760477059E+03  0.00000000000E+00 0. -1.
<mgrwt>
<rscale>  0 0.56156406E+02</rscale>
<asrwt>0</asrwt>
<pdfrwt beam="1">  1        2 0.32419918E-01 0.52502086E+02</pdfrwt>
<pdfrwt beam="2">  1        1 0.15295360E+00 0.60065079E+02</pdfrwt>
<totfact> 0.37800499E+02</totfact>
</mgrwt>
</event>
<event>
 5    1  0.8274494E-003  0.5571346E+02  0.7546771E-02  0.1428029E+00
          2   -1    0    0  502    0  0.00000000000E+00  0.00000000000E+00  0.38598255236E+03  0.38598255236E+03  0.00000000000E+00 0. -1.
         -2   -1    0    0    0  501 -0.00000000000E+00 -0.00000000000E+00 -0.32489686270E+03  0.32489686270E+03  0.00000000000E+00 0.  1.
         25    1    1    2    0    0  0.12743315540E+01  0.84426536849E+01  0.70015798890E+01  0.12548675007E+03  0.12500000000E+03 0.  0.
          1    1    1    2  502    0 -0.25219538417E+02  0.44444946060E+02  0.31447928290E+03  0.31860413952E+03  0.00000000000E+00 0. -1.
         -1    1    1    2    0  501  0.23945206863E+02 -0.52887599745E+02 -0.26039517313E+03  0.26678852548E+03  0.00000000000E+00 0.  1.
<mgrwt>
<rscale>  0 0.53357750E+02</rscale>
<asrwt>0</asrwt>
<pdfrwt beam="1">  1        2 0.59381931E-01 0.51101647E+02</pdfrwt>
<pdfrwt beam="2">  1       -2 0.49984133E-01 0.55713459E+02</pdfrwt>
<totfact> 0.32334201E+02</totfact>
</mgrwt>
</event>
<event>
 5    1  0.8274494E-003  0.4987037E+02  0.7546771E-02  0.1555467E+00
          2   -1    0    0  502    0  0.00000000000E+00  0.00000000000E+00  0.39494122450E+03  0.39494122450E+03  0.00000000000E+00 0. -1.
          1   -1    0    0  501    0 -0.00000000000E+00 -0.00000000000E+00 -0.68271566261E+03  0.68271566261E+03  0.00000000000E+00 0. -1.
         25    1    1    2    0    0 -0.12348702027E+02  0.54827154134E+02  0.14505298873E+03  0.19955920628E+03  0.12500000000E+03 0.  0.
          2    1    1    2  501    0  0.30274602141E+02 -0.39621090235E+02 -0.65389018375E+03  0.65578865096E+03  0.00000000000E+00 0. -1.
          1    1    1    2  502    0 -0.17925900113E+02 -0.15206063900E+02  0.22106275690E+03  0.22230902987E+03  0.00000000000E+00 0. -1.
<mgrwt>
<rscale>  0 0.34238648E+02</rscale>
<asrwt>0</asrwt>
<pdfrwt beam="1">  1        2 0.60760189E-01 0.23506643E+02</pdfrwt>
<pdfrwt beam="2">  1        1 0.10503318E+00 0.49870372E+02</pdfrwt>
<totfact> 0.34792265E+02</totfact>
</mgrwt>
</event>
<event>
 5    1  0.8274494E-003  0.3705175E+02  0.7546771E-02  0.1576229E+00
          1   -1    0    0  501    0 -0.00000000000E+00  0.00000000000E+00  0.18681186690E+03  0.18681186690E+03  0.00000000000E+00 0. -1.
          2   -1    0    0  502    0  0.00000000000E+00 -0.00000000000E+00 -0.77607163862E+03  0.77607163862E+03  0.00000000000E+00 0. -1.
         25    1    1    2    0    0 -0.11938783231E+02 -0.44254240824E+02  0.42716197179E+02  0.13982362418E+03  0.12500000000E+03 0.  0.
          2    1    1    2  501    0 -0.13981775655E+02  0.34301164687E+02  0.91675482559E+02  0.98875952849E+02  0.00000000000E+00 0. -1.
          1    1    1    2  502    0  0.25920558886E+02  0.99530761370E+01 -0.72365145146E+03  0.72418392850E+03  0.00000000000E+00 0. -1.
<mgrwt>
<rscale>  0 0.32074464E+02</rscale>
<asrwt>0</asrwt>
<pdfrwt beam="2">  1        2 0.11939564E+00 0.27765790E+02</pdfrwt>
<pdfrwt beam="1">  1        1 0.28740287E-01 0.37051755E+02</pdfrwt>
<totfact> 0.83576517E+02</totfact>
</mgrwt>
</event>
<event>
 5    1  0.8274494E-003  0.5002972E+02  0.7546771E-02  0.1449768E+00
         -2   -1    0    0    0  501 -0.00000000000E+00  0.00000000000E+00  0.95104316530E+03  0.95104316530E+03  0.00000000000E+00 0.  1.
          2   -1    0    0  502    0  0.00000000000E+00 -0.00000000000E+00 -0.11309484039E+03  0.11309484039E+03  0.00000000000E+00 0. -1.
         25    1    1    2    0    0  0.19875364039E+01 -0.96284886436E+02  0.41723814152E+03  0.44608003362E+03  0.12500000000E+03 0.  0.
          3    1    1    2  502    0 -0.93471621465E+01  0.48486465945E+02 -0.91284536846E+02  0.10378426416E+03  0.00000000000E+00 0. -1.
         -1    1    1    2    0  501  0.73596257426E+01  0.47798420491E+02  0.51199472023E+03  0.51427370790E+03  0.00000000000E+00 0.  1.
<mgrwt>
<rscale>  0 0.49188635E+02</rscale>
<asrwt>0</asrwt>
<pdfrwt beam="2">  1        2 0.17399207E-01 0.50029719E+02</pdfrwt>
<pdfrwt beam="1">  1       -2 0.14631433E+00 0.48361690E+02</pdfrwt>
<totfact> 0.11217503E+02</totfact>
</mgrwt>
</event>
<event>
 5    1  0.1192714E-002  0.9294361E+02  0.7546771E-02  0.1358915E+00
         -2   -1    0    0    0  501 -0.00000000000E+00  0.00000000000E+00  0.32856264772E+02  0.32856264772E+02  0.00000000000E+00 0.  1.
          2   -1    0    0  502    0  0.00000000000E+00 -0.00000000000E+00 -0.82806451907E+03  0.82806451907E+03  0.00000000000E+00 0. -1.
         25    1    1    2    0    0 -0.10760985402E+03 -0.29460252868E+02 -0.56489702421E+03  0.58922104098E+03  0.12500000000E+03 0.  0.
          1    1    1    2  502    0  0.81750186421E+02 -0.17083214075E+02 -0.18006334314E+03  0.19848863122E+03  0.00000000000E+00 0. -1.
         -1    1    1    2    0  501  0.25859667603E+02  0.46543466943E+02 -0.50247886959E+02  0.73211111639E+02  0.00000000000E+00 0.  1.
<mgrwt>
<rscale>  0 0.70347501E+02</rscale>
<asrwt>0</asrwt>
<pdfrwt beam="2">  1        2 0.12739454E+00 0.92943609E+02</pdfrwt>
<pdfrwt beam="1">  1       -2 0.50548101E-02 0.53244875E+02</pdfrwt>
<totfact> 0.58552028E+03</totfact>
</mgrwt>
</event>
<event>
 5    1  0.8274494E-003  0.1088750E+03  0.7546771E-02  0.1382577E+00
          2   -1    0    0  502    0  0.00000000000E+00  0.00000000000E+00  0.14644554806E+04  0.14644554806E+04  0.00000000000E+00 0. -1.
          1   -1    0    0  501    0 -0.00000000000E+00 -0.00000000000E+00 -0.32186809320E+03  0.32186809320E+03  0.00000000000E+00 0. -1.
         25    1    1    2    0    0  0.34427742965E+02 -0.77852059134E+02 -0.11155269008E+03  0.18792342925E+03  0.12500000000E+03 0.  0.
          2    1    1    2  501    0 -0.47276882510E+02  0.11295016888E+03 -0.15007440019E+03  0.19368833176E+03  0.00000000000E+00 0. -1.
          1    1    1    2  502    0  0.12849139545E+02 -0.35098109744E+02  0.14042144777E+04  0.14047118128E+04  0.00000000000E+00 0. -1.
<mgrwt>
<rscale>  0 0.63791295E+02</rscale>
<asrwt>0</asrwt>
<pdfrwt beam="1">  1        2 0.22530084E+00 0.37376165E+02</pdfrwt>
<pdfrwt beam="2">  1        1 0.49518169E-01 0.10887498E+03</pdfrwt>
<totfact> 0.18390454E+02</totfact>
</mgrwt>
</event>
<event>
 5    1  0.8274494E-003  0.1236704E+03  0.7546771E-02  0.1283014E+00
          1   -1    0    0  501    0 -0.00000000000E+00  0.00000000000E+00  0.25677060110E+03  0.25677060110E+03  0.00000000000E+00 0. -1.
          2   -1    0    0  502    0  0.00000000000E+00 -0.00000000000E+00 -0.69072165606E+03  0.69072165606E+03  0.00000000000E+00 0. -1.
         25    1    1    2    0    0 -0.14140822066E+03  0.10458202897E+03 -0.13763205502E+03  0.25593215551E+03  0.12500000000E+03 0.  0.
          2    1    1    2  501    0  0.26827956500E+02 -0.74093194659E+02  0.18223187982E+03  0.19853966548E+03  0.00000000000E+00 0. -1.
          1    1    1    2  502    0  0.11458026416E+03 -0.30488834314E+02 -0.47855087976E+03  0.49302043617E+03  0.00000000000E+00 0. -1.
<mgrwt>
<rscale>  0 0.98718302E+02</rscale>
<asrwt>0</asrwt>
<pdfrwt beam="2">  1        2 0.10626487E+00 0.12367036E+03</pdfrwt>
<pdfrwt beam="1">  1        1 0.39503170E-01 0.78800639E+02</pdfrwt>
<totfact> 0.63060595E+02</totfact>
</mgrwt>
</event>
<event>
 5    1  0.8274494E-003  0.4889902E+02  0.7546771E-02  0.1474677E+00
          1   -1    0    0  501    0 -0.00000000000E+00  0.00000000000E+00  0.21550725909E+04  0.21550725909E+04  0.00000000000E+00 0. -1.
          2   -1    0    0  502    0  0.00000000000E+00 -0.00000000000E+00 -0.71501077495E+02  0.71501077495E+02  0.00000000000E+00 0. -1.
         25    1    1    2    0    0  0.48075971582E+02  0.56595217684E+02  0.71458622243E+03  0.72922752759E+03  0.12500000000E+03 0.  0.
          2    1    1    2  501    0 -0.40431657514E+02 -0.84892749542E+01  0.14235807073E+04  0.14241800507E+04  0.00000000000E+00 0. -1.
          1    1    1    2  502    0 -0.76443140676E+01 -0.48105942730E+02 -0.54595416281E+02  0.73166090113E+02  0.00000000000E+00 0. -1.
<mgrwt>
<rscale>  0 0.44946399E+02</rscale>
<asrwt>0</asrwt>
<pdfrwt beam="2">  1        2 0.11000167E-01 0.48899022E+02</pdfrwt>
<pdfrwt beam="1">  1        1 0.33154958E+00 0.41313275E+02</pdfrwt>
<totfact> 0.23959949E+02</totfact>
</mgrwt>
</event>
<event>
 5    1  0.8274494E-003  0.7154135E+02  0.7546771E-02  0.1476732E+00
          2   -1    0    0  502    0  0.00000000000E+00  0.00000000000E+00  0.35863450590E+03  0.35863450590E+03  0.00000000000E+00 0. -1.
         -2   -1    0    0    0  501 -0.00000000000E+00 -0.00000000000E+00 -0.47333836103E+02  0.47333836103E+02  0.00000000000E+00 0.  1.
         25    1    1    2    0    0 -0.45297616670E+02 -0.28295088983E+02  0.98427784734E+02  0.16782584707E+03  0.12500000000E+03 0.  0.
          1    1    1    2  502    0  0.52048355830E+02  0.55292373713E+02  0.17804508783E+03  0.19356221541E+03  0.00000000000E+00 0. -1.
         -1    1    1    2    0  501 -0.67507391598E+01 -0.26997284729E+02  0.34827797228E+02  0.44580279516E+02  0.00000000000E+00 0.  1.
<mgrwt>
<rscale>  0 0.44619380E+02</rscale>
<asrwt>0</asrwt>
<pdfrwt beam="1">  1        2 0.55174537E-01 0.71541353E+02</pdfrwt>
<pdfrwt beam="2">  1       -2 0.72821289E-02 0.27828508E+02</pdfrwt>
<totfact> 0.80875118E+03</totfact>
</mgrwt>
</event>
<event>
 5    1  0.8274494E-003  0.6298979E+02  0.7546771E-02  0.1488130E+00
          1   -1    0    0  502    0  0.00000000000E+00  0.00000000000E+00  0.24229689316E+04  0.24229689316E+04  0.00000000000E+00 0. -1.
         -1   -1    0    0    0  501 -0.00000000000E+00 -0.00000000000E+00 -0.63658425483E+03  0.63658425483E+03  0.00000000000E+00 0.  1.
         25    1    1    2    0    0 -0.69163123737E+02  0.15664004101E+01  0.30980583223E+03  0.34116073188E+03  0.12500000000E+03 0.  0.
          2    1    1    2  502    0  0.11458166046E+02 -0.26824895095E+02  0.20957862918E+04  0.20959892761E+04  0.00000000000E+00 0. -1.
         -2    1    1    2    0  501  0.57704957690E+02  0.25258494685E+02 -0.61920744731E+03  0.62240317842E+03  0.00000000000E+00 0.  1.
<mgrwt>
<rscale>  0 0.42864741E+02</rscale>
<asrwt>0</asrwt>
<pdfrwt beam="1">  1        1 0.37276445E+00 0.29169583E+02</pdfrwt>
<pdfrwt beam="2">  1       -1 0.97936041E-01 0.62989794E+02</pdfrwt>
<totfact> 0.28328084E+00</totfact>
</mgrwt>
</event>
<event>
 5    1  0.8274494E-003  0.9443192E+02  0.7546771E-02  0.1317248E+00
         -2   -1    0    0    0  501  0.00000000000E+00  0.00000000000E+00  0.69464564491E+03  0.69464564491E+03  0.00000000000E+00 0.  1.
         -1   -1    0    0    0  502 -0.00000000000E+00 -0.00000000000E+00 -0.27912459431E+03  0.27912459431E+03  0.00000000000E+00 0.  1.
         25    1    1    2    0    0 -0.10389860756E+02  0.39463246979E+02  0.47155622451E+02  0.13969233980E+03  0.12500000000E+03 0.  0.
         -2    1    1    2    0  502 -0.73747697389E+02  0.15073940585E+02 -0.22243681041E+03  0.23482776918E+03  0.00000000000E+00 0.  1.
         -1    1    1    2    0  501  0.84137558145E+02 -0.54537187565E+02  0.59080223855E+03  0.59925013024E+03  0.00000000000E+00 0.  1.
<mgrwt>
<rscale>  0 0.84309696E+02</rscale>
<asrwt>0</asrwt>
<pdfrwt beam="1">  1       -2 0.10686856E+00 0.94431919E+02</pdfrwt>
<pdfrwt beam="2">  1       -1 0.42942246E-01 0.75272482E+02</pdfrwt>
<totfact> 0.30865188E+01</totfact>
</mgrwt>
</event>
<event>
 5    1  0.8274494E-003  0.4225257E+02  0.7546771E-02  0.1596022E+00
          1   -1    0    0  501    0 -0.00000000000E+00  0.00000000000E+00  0.20523416296E+04  0.20523416296E+04  0.00000000000E+00 0. -1.
          2   -1    0    0  502    0  0.00000000000E+00 -0.00000000000E+00 -0.14300945387E+04  0.14300945387E+04  0.00000000000E+00 0. -1.
         25    1    1    2    0    0 -0.26975222262E+02  0.10794362771E-01 -0.12429429901E+04  0.12495038773E+04  0.12500000000E+03 0.  0.
          2    1    1    2  501    0  0.37953858084E+02 -0.18575548488E+02  0.20482100370E+04  0.20486458703E+04  0.00000000000E+00 0. -1.
          1    1    1    2  502    0 -0.10978635822E+02  0.18564754125E+02 -0.18301995606E+03  0.18428642071E+03  0.00000000000E+00 0. -1.
<mgrwt>
<rscale>  0 0.30187835E+02</rscale>
<asrwt>0</asrwt>
<pdfrwt beam="2">  1        2 0.22001455E+00 0.21568044E+02</pdfrwt>
<pdfrwt beam="1">  1        1 0.31574486E+00 0.42252575E+02</pdfrwt>
<totfact> 0.98994073E+00</totfact>
</mgrwt>
</event>
<event>
 5    1  0.8274494E-003  0.2689094E+03  0.7546771E-02  0.1274829E+00
          2   -1    0    0  502    0  0.00000000000E+00  0.00000000000E+00  0.12677718567E+04  0.12677718567E+04  0.00000000000E+00 0. -1.
          1   -1    0    0  501    0 -0.00000000000E+00 -0.00000000000E+00 -0.25812913718E+04  0.25812913718E+04  0.00000000000E+00 0. -1.
         25    1    1    2    0    0 -0.13610700765E+03 -0.20900088765E+03 -0.28219114584E+03  0.39681649582E+03  0.12500000000E+03 0.  0.
          2    1    1    2  501    0  0.11929813994E+03  0.24439291918E+03 -0.22332192685E+04  0.22497173703E+04  0.00000000000E+00 0. -1.
          3    1    1    2  502    0  0.16808867708E+02 -0.35392031528E+02  0.12018908992E+04  0.12025293624E+04  0.00000000000E+00 0. -1.
<mgrwt>
<rscale>  0 0.10264541E+03</rscale>
<asrwt>0</asrwt>
<pdfrwt beam="1">  1        2 0.19504183E+00 0.39180785E+02</pdfrwt>
<pdfrwt beam="2">  1        1 0.39712174E+00 0.26890939E+03</pdfrwt>
<totfact> 0.40303186E+00</totfact>
</mgrwt>
</event>
<event>
 5    1  0.8274494E-003  0.8229350E+02  0.7546771E-02  0.1345725E+00
         -2   -1    0    0    0  501 -0.00000000000E+00  0.00000000000E+00  0.34012894908E+03  0.34012894908E+03  0.00000000000E+00 0.  1.
          2   -1    0    0  502    0  0.00000000000E+00 -0.00000000000E+00 -0.41477740738E+03  0.41477740738E+03  0.00000000000E+00 0. -1.
         25    1    1    2    0    0  0.39954355274E+02  0.13502725469E+02 -0.65483484221E+01  0.13208540785E+03  0.12500000000E+03 0.  0.
          1    1    1    2  502    0  0.36492658610E+02 -0.56513387699E+02 -0.33509796164E+03  0.34178373427E+03  0.00000000000E+00 0. -1.
         -1    1    1    2    0  501 -0.76447013884E+02  0.43010662229E+02  0.26699785176E+03  0.28103721434E+03  0.00000000000E+00 0.  1.
<mgrwt>
<rscale>  0 0.74404441E+02</rscale>
<asrwt>0</asrwt>
<pdfrwt beam="2">  1        2 0.63811909E-01 0.67271667E+02</pdfrwt>
<pdfrwt beam="1">  1       -2 0.52327531E-01 0.82293500E+02</pdfrwt>
<totfact> 0.27462114E+02</totfact>
</mgrwt>
</event>
<event>
 5    1  0.8274494E-003  0.4950472E+02  0.7546771E-02  0.1580911E+00
         -2   -1    0    0    0  501 -0.00000000000E+00  0.00000000000E+00  0.22521141777E+03  0.22521141777E+03  0.00000000000E+00 0.  1.
          2   -1    0    0  502    0  0.00000000000E+00 -0.00000000000E+00 -0.29738429346E+04  0.29738429346E+04  0.00000000000E+00 0. -1.
         25    1    1    2    0    0  0.36812119124E+02 -0.55927809254E+02 -0.59971257532E+02  0.15396299455E+03  0.12500000000E+03 0.  0.
          1    1    1    2  502    0 -0.33928897837E+02  0.35946784026E+02 -0.28660902995E+04  0.28665165178E+04  0.00000000000E+00 0. -1.
         -1    1    1    2    0  501 -0.28832212873E+01  0.19981025228E+02  0.17743004023E+03  0.17857484008E+03  0.00000000000E+00 0.  1.
<mgrwt>
<rscale>  0 0.31613290E+02</rscale>
<asrwt>0</asrwt>
<pdfrwt beam="2">  1        2 0.45751426E+00 0.49504722E+02</pdfrwt>
<pdfrwt beam="1">  1       -2 0.34647913E-01 0.20187975E+02</pdfrwt>
<totfact> 0.21201419E+01</totfact>
</mgrwt>
</event>
<event>
 5    1  0.8274494E-003  0.5640083E+02  0.7546771E-02  0.1440009E+00
          2   -1    0    0  502    0  0.00000000000E+00  0.00000000000E+00  0.11493997761E+03  0.11493997761E+03  0.00000000000E+00 0. -1.
          1   -1    0    0  501    0 -0.00000000000E+00 -0.00000000000E+00 -0.12790420938E+04  0.12790420938E+04  0.00000000000E+00 0. -1.
         25    1    1    2    0    0  0.21757022916E+02  0.68508534699E+02 -0.67122061159E+02  0.15905080467E+03  0.12500000000E+03 0.  0.
          2    1    1    2  501    0 -0.47587789036E+02 -0.30300178836E+02 -0.11574814528E+04  0.11588554751E+04  0.00000000000E+00 0. -1.
          1    1    1    2  502    0  0.25830766120E+02 -0.38208355863E+02  0.60501397805E+02  0.76075791632E+02  0.00000000000E+00 0. -1.
<mgrwt>
<rscale>  0 0.51002337E+02</rscale>
<asrwt>0</asrwt>
<pdfrwt beam="1">  1        2 0.17683073E-01 0.46120570E+02</pdfrwt>
<pdfrwt beam="2">  1        1 0.19677571E+00 0.56400830E+02</pdfrwt>
<totfact> 0.46523635E+02</totfact>
</mgrwt>
</event>
<event>
 5    1  0.8274494E-003  0.7695550E+02  0.7546771E-02  0.1377060E+00
         -1   -1    0    0    0  501 -0.00000000000E+00  0.00000000000E+00  0.34558693049E+02  0.34558693049E+02  0.00000000000E+00 0.  1.
          1   -1    0    0  502    0  0.00000000000E+00 -0.00000000000E+00 -0.11538291984E+04  0.11538291984E+04  0.00000000000E+00 0. -1.
         25    1    1    2    0    0 -0.54696262113E+02  0.50476374501E+01 -0.51582974487E+03  0.53359393308E+03  0.12500000000E+03 0.  0.
          2    1    1    2  502    0 -0.17195598646E+00  0.55312579030E+02 -0.55933271464E+03  0.56206102572E+03  0.00000000000E+00 0. -1.
         -2    1    1    2    0  501  0.54868218100E+02 -0.60360216480E+02 -0.44108045863E+02  0.92732932666E+02  0.00000000000E+00 0.  1.
<mgrwt>
<rscale>  0 0.65242836E+02</rscale>
<asrwt>0</asrwt>
<pdfrwt beam="2">  1        1 0.17751214E+00 0.55312846E+02</pdfrwt>
<pdfrwt beam="1">  1       -1 0.53167233E-02 0.76955499E+02</pdfrwt>
<totfact> 0.20018483E+03</totfact>
</mgrwt>
</event>
<event>
 5    1  0.8274494E-003  0.1175997E+03  0.7546771E-02  0.1325076E+00
          1   -1    0    0  501    0 -0.00000000000E+00  0.00000000000E+00  0.29750122907E+04  0.29750122907E+04  0.00000000000E+00 0. -1.
          2   -1    0    0  502    0  0.00000000000E+00 -0.00000000000E+00 -0.80522551941E+03  0.80522551941E+03  0.00000000000E+00 0. -1.
         25    1    1    2    0    0 -0.70735729168E+02 -0.13584178779E+03  0.11294770470E+03  0.22768117772E+03  0.12500000000E+03 0.  0.
          2    1    1    2  501    0 -0.13400786818E+02  0.54751707634E+02  0.27998478907E+04  0.28004152445E+04  0.00000000000E+00 0. -1.
          1    1    1    2  502    0  0.84136515986E+02  0.81090080159E+02 -0.74300882419E+03  0.75214138780E+03  0.00000000000E+00 0. -1.
<mgrwt>
<rscale>  0 0.81417686E+02</rscale>
<asrwt>0</asrwt>
<pdfrwt beam="2">  1        2 0.12388085E+00 0.11759973E+03</pdfrwt>
<pdfrwt beam="1">  1        1 0.45769419E+00 0.56367815E+02</pdfrwt>
<totfact> 0.48905393E+00</totfact>
</mgrwt>
</event>
<event>
 5    1  0.8274494E-003  0.1156952E+03  0.7546771E-02  0.1300711E+00
          2   -1    0    0  502    0  0.00000000000E+00  0.00000000000E+00  0.21728820514E+04  0.21728820514E+04  0.00000000000E+00 0. -1.
          1   -1    0    0  501    0 -0.00000000000E+00 -0.00000000000E+00 -0.14040084753E+04  0.14040084753E+04  0.00000000000E+00 0. -1.
         25    1    1    2    0    0 -0.13038514247E+03  0.77957779765E+02  0.16239206131E+03  0.25509582980E+03  0.12500000000E+03 0.  0.
          2    1    1    2  501    0  0.15741980390E+02 -0.69645941989E+02 -0.13550341319E+04  0.13569140966E+04  0.00000000000E+00 0. -1.
          3    1    1    2  502    0  0.11464316208E+03 -0.83118377763E+01  0.19615156467E+04  0.19648806003E+04  0.00000000000E+00 0. -1.
<mgrwt>
<rscale>  0 0.90889855E+02</rscale>
<asrwt>0</asrwt>
<pdfrwt beam="1">  1        2 0.33428955E+00 0.11569518E+03</pdfrwt>
<pdfrwt beam="2">  1        1 0.21600130E+00 0.71402851E+02</pdfrwt>
<totfact> 0.85145275E+00</totfact>
</mgrwt>
</event>
<event>
 5    1  0.8274494E-003  0.5182919E+02  0.7546771E-02  0.1484751E+00
          2   -1    0    0  502    0  0.00000000000E+00  0.00000000000E+00  0.47863564580E+03  0.47863564580E+03  0.00000000000E+00 0. -1.
         -2   -1    0    0    0  501 -0.00000000000E+00 -0.00000000000E+00 -0.91140899756E+03  0.91140899756E+03  0.00000000000E+00 0.  1.
         25    1    1    2    0    0 -0.62618753213E+02 -0.56340021938E+02  0.11306835756E+03  0.18842706761E+03  0.12500000000E+03 0.  0.
          1    1    1    2  502    0  0.33687178392E+02  0.13520546794E+02  0.32611594502E+03  0.32812991447E+03  0.00000000000E+00 0. -1.
         -1    1    1    2    0  501  0.28931574821E+02  0.42819475144E+02 -0.87195765433E+03  0.87348766129E+03  0.00000000000E+00 0.  1.
<mgrwt>
<rscale>  0 0.43374621E+02</rscale>
<asrwt>0</asrwt>
<pdfrwt beam="1">  1        2 0.73636254E-01 0.36299190E+02</pdfrwt>
<pdfrwt beam="2">  1       -2 0.14021677E+00 0.51829193E+02</pdfrwt>
<totfact> 0.27482760E+01</totfact>
</mgrwt>
</event>
<event>
 5    1  0.8274494E-003  0.6974607E+02  0.7546771E-02  0.1455972E+00
          2   -1    0    0  502    0  0.00000000000E+00  0.00000000000E+00  0.66376675448E+02  0.66376675448E+02  0.00000000000E+00 0. -1.
          1   -1    0    0  501    0 -0.00000000000E+00 -0.00000000000E+00 -0.11423981753E+04  0.11423981753E+04  0.00000000000E+00 0. -1.
         25    1    1    2    0    0 -0.54332143610E+02 -0.26268433035E+02 -0.76425450129E+03  0.77675733350E+03  0.12500000000E+03 0.  0.
          2    1    1    2  501    0  0.13028346902E+02 -0.30478853503E+02 -0.35035670149E+03  0.35192117954E+03  0.00000000000E+00 0. -1.
          1    1    1    2  502    0  0.41303796708E+02  0.56747286539E+02  0.38589702883E+02  0.80096337747E+02  0.00000000000E+00 0. -1.
<mgrwt>
<rscale>  0 0.48081662E+02</rscale>
<asrwt>0</asrwt>
<pdfrwt beam="1">  1        2 0.10211797E-01 0.69746065E+02</pdfrwt>
<pdfrwt beam="2">  1        1 0.17575356E+00 0.33146619E+02</pdfrwt>
<totfact> 0.11527581E+03</totfact>
</mgrwt>
</event>
<event>
 5    1  0.8274494E-003  0.5002851E+02  0.7546771E-02  0.1555939E+00
         -2   -1    0    0    0  501 -0.00000000000E+00  0.00000000000E+00  0.19807136084E+03  0.19807136084E+03  0.00000000000E+00 0.  1.
          2   -1    0    0  502    0  0.00000000000E+00 -0.00000000000E+00 -0.84100401116E+03  0.84100401116E+03  0.00000000000E+00 0. -1.
         25    1    1    2    0    0  0.29366938144E+02  0.14119516277E+02  0.70403099489E+02  0.14711687263E+03  0.12500000000E+03 0.  0.
          1    1    1    2  502    0 -0.33828256033E+02 -0.37051619103E+02 -0.80032027913E+03  0.80189134087E+03  0.00000000000E+00 0. -1.
         -1    1    1    2    0  501  0.44613178886E+01  0.22932102825E+02  0.86984529325E+02  0.90067158494E+02  0.00000000000E+00 0.  1.
<mgrwt>
<rscale>  0 0.34187245E+02</rscale>
<asrwt>0</asrwt>
<pdfrwt beam="2">  1        2 0.12938523E+00 0.50028505E+02</pdfrwt>
<pdfrwt beam="1">  1       -2 0.30472517E-01 0.23362035E+02</pdfrwt>
<totfact> 0.33485478E+02</totfact>
</mgrwt>
</event>
<event>
 5    1  0.8274494E-003  0.1706052E+03  0.7546771E-02  0.1299289E+00
          2   -1    0    0  502    0  0.00000000000E+00  0.00000000000E+00  0.21255405429E+04  0.21255405429E+04  0.00000000000E+00 0. -1.
          1   -1    0    0  501    0 -0.00000000000E+00 -0.00000000000E+00 -0.24969649916E+03  0.24969649916E+03  0.00000000000E+00 0. -1.
         25    1    1    2    0    0 -0.12457041610E+03  0.10745474787E+03  0.52033012601E+03  0.55985065101E+03  0.12500000000E+03 0.  0.
          2    1    1    2  501    0 -0.33385520889E+02 -0.35949085885E+02 -0.22251562347E+03  0.22785989658E+03  0.00000000000E+00 0. -1.
          1    1    1    2  502    0  0.15795593699E+03 -0.71505661981E+02  0.15780295412E+04  0.15875264944E+04  0.00000000000E+00 0. -1.
<mgrwt>
<rscale>  0 0.91487555E+02</rscale>
<asrwt>0</asrwt>
<pdfrwt beam="1">  1        2 0.32700623E+00 0.17060523E+03</pdfrwt>
<pdfrwt beam="2">  1        1 0.38414847E-01 0.49060471E+02</pdfrwt>
<totfact> 0.10007211E+02</totfact>
</mgrwt>
</event>
<event>
 5    1  0.8274494E-003  0.3591906E+02  0.7546771E-02  0.1567418E+00
          2   -1    0    0  502    0  0.00000000000E+00  0.00000000000E+00  0.16834222749E+04  0.16834222749E+04  0.00000000000E+00 0. -1.
         -2   -1    0    0    0  501 -0.00000000000E+00 -0.00000000000E+00 -0.83872391347E+01  0.83872391347E+01  0.00000000000E+00 0.  1.
         25    1    1    2    0    0 -0.17434838536E+02 -0.43215589125E+02  0.74661756432E+03  0.75844205322E+03  0.12500000000E+03 0.  0.
          3    1    1    2  502    0 -0.14143087881E+02  0.26751778819E+02  0.78540476897E+03  0.78598749082E+03  0.00000000000E+00 0. -1.
         -3    1    1    2    0  501  0.31577926417E+02  0.16463810306E+02  0.14301270243E+03  0.14737996995E+03  0.00000000000E+00 0.  1.
<mgrwt>
<rscale>  0 0.32968484E+02</rscale>
<asrwt>0</asrwt>
<pdfrwt beam="1">  1        2 0.25898777E+00 0.30260281E+02</pdfrwt>
<pdfrwt beam="2">  1       -2 0.12903458E-02 0.35919064E+02</pdfrwt>
<totfact> 0.14480362E+04</totfact>
</mgrwt>
</event>
<event>
 5    1  0.8274494E-003  0.4812814E+02  0.7546771E-02  0.1546296E+00
          2   -1    0    0  502    0  0.00000000000E+00  0.00000000000E+00  0.25227775383E+03  0.25227775383E+03  0.00000000000E+00 0. -1.
          1   -1    0    0  501    0 -0.00000000000E+00 -0.00000000000E+00 -0.97695205566E+03  0.97695205566E+03  0.00000000000E+00 0. -1.
         25    1    1    2    0    0 -0.56704364234E+02 -0.31940639270E+02  0.13199647335E+03  0.19308976756E+03  0.12500000000E+03 0.  0.
          2    1    1    2  501    0  0.12251312660E+02  0.22743906452E+02 -0.94047570157E+03  0.94083044444E+03  0.00000000000E+00 0. -1.
          1    1    1    2  502    0  0.44453051574E+02  0.91967328185E+01  0.83804926387E+02  0.95309597500E+02  0.00000000000E+00 0. -1.
<mgrwt>
<rscale>  0 0.35260853E+02</rscale>
<asrwt>0</asrwt>
<pdfrwt beam="1">  1        2 0.38811962E-01 0.48128136E+02</pdfrwt>
<pdfrwt beam="2">  1        1 0.15030032E+00 0.25833698E+02</pdfrwt>
<totfact> 0.34111522E+02</totfact>
</mgrwt>
</event>
<event>
 5    1  0.8274494E-003  0.1011616E+03  0.7546771E-02  0.1310322E+00
          2   -1    0    0  502    0  0.00000000000E+00  0.00000000000E+00  0.63226359208E+03  0.63226359208E+03  0.00000000000E+00 0. -1.
         -2   -1    0    0    0  501 -0.00000000000E+00 -0.00000000000E+00 -0.35226262793E+03  0.35226262793E+03  0.00000000000E+00 0.  1.
         25    1    1    2    0    0  0.38968062598E+02  0.12404668694E+03 -0.70850898903E+02  0.19378065001E+03  0.12500000000E+03 0.  0.
          1    1    1    2  502    0 -0.80028685812E+02 -0.61530388254E+02  0.55979216598E+03  0.56882145557E+03  0.00000000000E+00 0. -1.
         -1    1    1    2    0  501  0.41060623215E+02 -0.62516298685E+02 -0.20894030292E+03  0.22192411443E+03  0.00000000000E+00 0.  1.
<mgrwt>
<rscale>  0 0.86984826E+02</rscale>
<asrwt>0</asrwt>
<pdfrwt beam="1">  1        2 0.97271322E-01 0.10116158E+03</pdfrwt>
<pdfrwt beam="2">  1       -2 0.54194250E-01 0.74794802E+02</pdfrwt>
<totfact> 0.16126661E+02</totfact>
</mgrwt>
</event>
<event>
 5    1  0.8274494E-003  0.1035178E+03  0.7546771E-02  0.1427764E+00
          1   -1    0    0  502    0  0.00000000000E+00  0.00000000000E+00  0.88175022300E+03  0.88175022300E+03  0.00000000000E+00 0. -1.
         -1   -1    0    0    0  501 -0.00000000000E+00 -0.00000000000E+00 -0.63389960330E+02  0.63389960330E+02  0.00000000000E+00 0.  1.
         25    1    1    2    0    0 -0.10898692510E+03  0.26038623828E+02  0.10102013954E+03  0.19592403723E+03  0.12500000000E+03 0.  0.
          2    1    1    2  502    0  0.91554423995E+02 -0.47382793195E+02  0.71406012211E+03  0.72146323513E+03  0.00000000000E+00 0. -1.
         -2    1    1    2    0  501  0.17432501107E+02  0.21344169367E+02  0.32800010220E+01  0.27752910974E+02  0.00000000000E+00 0.  1.
<mgrwt>
<rscale>  0 0.53411472E+02</rscale>
<asrwt>0</asrwt>
<pdfrwt beam="1">  1        1 0.13565387E+00 0.10351780E+03</pdfrwt>
<pdfrwt beam="2">  1       -1 0.97523022E-02 0.27558405E+02</pdfrwt>
<totfact> 0.11212801E+03</totfact>
</mgrwt>
</event>
<event>
 5    1  0.8274494E-003  0.3934521E+02  0.7546771E-02  0.1596460E+00
         -1   -1    0    0    0  501 -0.00000000000E+00  0.00000000000E+00  0.48065744961E+03  0.48065744961E+03  0.00000000000E+00 0.  1.
          1   -1    0    0  502    0  0.00000000000E+00 -0.00000000000E+00 -0.82147792209E+02  0.82147792209E+02  0.00000000000E+00 0. -1.
         25    1    1    2    0    0 -0.35268686221E+02  0.34065637267E+01  0.20137547071E+03  0.23965092345E+03  0.12500000000E+03 0.  0.
          2    1    1    2  502    0  0.46927864040E+01  0.22618837589E+02 -0.59276596167E+02  0.63618777977E+02  0.00000000000E+00 0. -1.
         -2    1    1    2    0  501  0.30575899817E+02 -0.26025401316E+02  0.25641078286E+03  0.25953554040E+03  0.00000000000E+00 0.  1.
<mgrwt>
<rscale>  0 0.30147884E+02</rscale>
<asrwt>0</asrwt>
<pdfrwt beam="2">  1        1 0.12638122E-01 0.23100521E+02</pdfrwt>
<pdfrwt beam="1">  1       -1 0.73947299E-01 0.39345214E+02</pdfrwt>
<totfact> 0.81804112E+02</totfact>
</mgrwt>
</event>
<event>
 5    1  0.8274494E-003  0.1391890E+03  0.7546771E-02  0.1245414E+00
         -2   -1    0    0    0  501 -0.00000000000E+00  0.00000000000E+00  0.18416275031E+03  0.18416275031E+03  0.00000000000E+00 0.  1.
          2   -1    0    0  502    0  0.00000000000E+00 -0.00000000000E+00 -0.12957084848E+04  0.12957084848E+04  0.00000000000E+00 0. -1.
         25    1    1    2    0    0 -0.40469511005E+02 -0.16268249207E+03 -0.40259889407E+02  0.21295359410E+03  0.12500000000E+03 0.  0.
          1    1    1    2  502    0  0.10828045213E+03  0.87740716429E+02 -0.11375557396E+04  0.11460611460E+04  0.00000000000E+00 0. -1.
         -1    1    1    2    0  501 -0.67810941123E+02  0.74941775639E+02  0.66269894507E+02  0.12085649503E+03  0.00000000000E+00 0.  1.
<mgrwt>
<rscale>  0 0.11860629E+03</rscale>
<asrwt>0</asrwt>
<pdfrwt beam="2">  1        2 0.19933977E+00 0.13918899E+03</pdfrwt>
<pdfrwt beam="1">  1       -2 0.28332731E-01 0.10106727E+03</pdfrwt>
<totfact> 0.20732720E+02</totfact>
</mgrwt>
</event>
<event>
 5    1  0.8274494E-003  0.1391875E+03  0.7546771E-02  0.1356696E+00
          1   -1    0    0  501    0 -0.00000000000E+00  0.00000000000E+00  0.15805490625E+04  0.15805490625E+04  0.00000000000E+00 0. -1.
          2   -1    0    0  502    0  0.00000000000E+00 -0.00000000000E+00 -0.83728937046E+03  0.83728937046E+03  0.00000000000E+00 0. -1.
         25    1    1    2    0    0 -0.16749455173E+03  0.36452594993E+02 -0.59382180690E+03  0.63058112475E+03  0.12500000000E+03 0.  0.
          2    1    1    2  501    0  0.13820277521E+03 -0.15137439402E+02  0.15575952355E+04  0.15637877308E+04  0.00000000000E+00 0. -1.
          1    1    1    2  502    0  0.29291776522E+02 -0.21315155592E+02 -0.22051373658E+03  0.22346957746E+03  0.00000000000E+00 0. -1.
<mgrwt>
<rscale>  0 0.71008789E+02</rscale>
<asrwt>0</asrwt>
<pdfrwt beam="2">  1        2 0.12881375E+00 0.36226289E+02</pdfrwt>
<pdfrwt beam="1">  1        1 0.24316139E+00 0.13918754E+03</pdfrwt>
<totfact> 0.33627578E+01</totfact>
</mgrwt>
</event>
<event>
 5    1  0.8274494E-003  0.5563044E+02  0.7546771E-02  0.1512263E+00
          1   -1    0    0  501    0 -0.00000000000E+00  0.00000000000E+00  0.13311306792E+02  0.13311306792E+02  0.00000000000E+00 0. -1.
          2   -1    0    0  502    0  0.00000000000E+00 -0.00000000000E+00 -0.12968690388E+04  0.12968690388E+04  0.00000000000E+00 0. -1.
         25    1    1    2    0    0 -0.19060233339E+02  0.29549120534E+02 -0.86711658838E+03  0.87678539042E+03  0.12500000000E+03 0.  0.
          2    1    1    2  501    0  0.46405190303E+02 -0.35488183318E+02 -0.10071951561E+03  0.11643570615E+03  0.00000000000E+00 0. -1.
          1    1    1    2  502    0 -0.27344956964E+02  0.59390627837E+01 -0.31572162806E+03  0.31695924906E+03  0.00000000000E+00 0. -1.
<mgrwt>
<rscale>  0 0.39454753E+02</rscale>
<asrwt>0</asrwt>
<pdfrwt beam="2">  1        2 0.19951832E+00 0.27982479E+02</pdfrwt>
<pdfrwt beam="1">  1        1 0.20478933E-02 0.55630437E+02</pdfrwt>
<totfact> 0.13469445E+04</totfact>
</mgrwt>
</event>
<event>
 5    1  0.8274494E-003  0.1062778E+03  0.7546771E-02  0.1327066E+00
          1   -1    0    0  501    0 -0.00000000000E+00  0.00000000000E+00  0.40061952057E+03  0.40061952057E+03  0.00000000000E+00 0. -1.
          2   -1    0    0  502    0  0.00000000000E+00 -0.00000000000E+00 -0.32403511658E+04  0.32403511658E+04  0.00000000000E+00 0. -1.
         25    1    1    2    0    0  0.12480005821E+03 -0.57119334139E+02  0.26583816683E+02  0.18753498919E+03  0.12500000000E+03 0.  0.
          2    1    1    2  501    0 -0.18679319626E+02  0.58367666470E+02  0.28945994588E+03  0.29587626086E+03  0.00000000000E+00 0. -1.
          1    1    1    2  502    0 -0.10612073859E+03 -0.12483323307E+01 -0.31557754078E+04  0.31575594363E+04  0.00000000000E+00 0. -1.
<mgrwt>
<rscale>  0 0.80703830E+02</rscale>
<asrwt>0</asrwt>
<pdfrwt beam="2">  1        2 0.49851555E+00 0.10627785E+03</pdfrwt>
<pdfrwt beam="1">  1        1 0.61633774E-01 0.61283778E+02</pdfrwt>
<totfact> 0.14682330E+01</totfact>
</mgrwt>
</event>
<event>
 5    1  0.8274494E-003  0.9519185E+02  0.7546771E-02  0.1375359E+00
          2   -1    0    0  502    0  0.00000000000E+00  0.00000000000E+00  0.28873311052E+04  0.28873311052E+04  0.00000000000E+00 0. -1.
          1   -1    0    0  501    0 -0.00000000000E+00 -0.00000000000E+00 -0.26337153108E+03  0.26337153108E+03  0.00000000000E+00 0. -1.
         25    1    1    2    0    0 -0.12807186091E+03 -0.35782142193E+02  0.48659424922E+02  0.18887959893E+03  0.12500000000E+03 0.  0.
          2    1    1    2  501    0  0.82890873106E+02  0.39629098471E+02 -0.18214488399E+03  0.20400519860E+03  0.00000000000E+00 0. -1.
          1    1    1    2  502    0  0.45180987804E+02 -0.38469562781E+01  0.27574450332E+04  0.27578178387E+04  0.00000000000E+00 0. -1.
<mgrwt>
<rscale>  0 0.65699496E+02</rscale>
<asrwt>0</asrwt>
<pdfrwt beam="1">  1        2 0.44420476E+00 0.45344467E+02</pdfrwt>
<pdfrwt beam="2">  1        1 0.40518699E-01 0.95191851E+02</pdfrwt>
<totfact> 0.45064771E+01</totfact>
</mgrwt>
</event>
<event>
 5    1  0.8274494E-003  0.1162975E+03  0.7546771E-02  0.1394633E+00
          1   -1    0    0  501    0 -0.00000000000E+00  0.00000000000E+00  0.13455247437E+04  0.13455247437E+04  0.00000000000E+00 0. -1.
          2   -1    0    0  502    0  0.00000000000E+00 -0.00000000000E+00 -0.10254916789E+04  0.10254916789E+04  0.00000000000E+00 0. -1.
         25    1    1    2    0    0  0.13886025670E+03  0.49196049680E+02  0.47376209660E+03  0.51164240087E+03  0.12500000000E+03 0.  0.
          2    1    1    2  501    0 -0.31244784690E+02 -0.56616018039E+01  0.84917761294E+03  0.84977109190E+03  0.00000000000E+00 0. -1.
          1    1    1    2  502    0 -0.10761547201E+03 -0.43534447876E+02 -0.10029066447E+04  0.10096029298E+04  0.00000000000E+00 0. -1.
<mgrwt>
<rscale>  0 0.60768921E+02</rscale>
<asrwt>0</asrwt>
<pdfrwt beam="2">  1        2 0.15776795E+00 0.11629747E+03</pdfrwt>
<pdfrwt beam="1">  1        1 0.20700381E+00 0.31753587E+02</pdfrwt>
<totfact> 0.39955724E+01</totfact>
</mgrwt>
</event>
<event>
 5    1  0.8274494E-003  0.9883161E+02  0.7546771E-02  0.1394828E+00
          2   -1    0    0  502    0  0.00000000000E+00  0.00000000000E+00  0.13973598113E+04  0.13973598113E+04  0.00000000000E+00 0. -1.
          1   -1    0    0  501    0 -0.00000000000E+00 -0.00000000000E+00 -0.74322559686E+03  0.74322559686E+03  0.00000000000E+00 0. -1.
         25    1    1    2    0    0 -0.37880542342E+01 -0.11862399069E+03 -0.16621776443E+03  0.23945635455E+03  0.12500000000E+03 0.  0.
          2    1    1    2  501    0 -0.27637263879E+02  0.25060136770E+02 -0.53795185711E+03  0.53924394237E+03  0.00000000000E+00 0. -1.
          1    1    1    2  502    0  0.31425318113E+02  0.93563853919E+02  0.13583038360E+04  0.13618851113E+04  0.00000000000E+00 0. -1.
<mgrwt>
<rscale>  0 0.60721767E+02</rscale>
<asrwt>0</asrwt>
<pdfrwt beam="1">  1        2 0.21497843E+00 0.98831613E+02</pdfrwt>
<pdfrwt beam="2">  1        1 0.11434240E+00 0.37307222E+02</pdfrwt>
<totfact> 0.64737705E+01</totfact>
</mgrwt>
</event>
<event>
 5    1  0.8274494E-003  0.3705810E+02  0.7546771E-02  0.1594487E+00
          1   -1    0    0  501    0 -0.00000000000E+00  0.00000000000E+00  0.73063849721E+03  0.73063849721E+03  0.00000000000E+00 0. -1.
          2   -1    0    0  502    0  0.00000000000E+00 -0.00000000000E+00 -0.36677939319E+03  0.36677939319E+03  0.00000000000E+00 0. -1.
         25    1    1    2    0    0  0.46151803802E+02  0.31127125738E+02  0.53350324809E+03  0.55077182451E+03  0.12500000000E+03 0.  0.
          2    1    1    2  501    0 -0.21844070198E+02 -0.26106910046E+02  0.18652875823E+03  0.18960936634E+03  0.00000000000E+00 0. -1.
          1    1    1    2  502    0 -0.24307733604E+02 -0.50202156926E+01 -0.35617290231E+03  0.35703669954E+03  0.00000000000E+00 0. -1.
<mgrwt>
<rscale>  0 0.30328353E+02</rscale>
<asrwt>0</asrwt>
<pdfrwt beam="2">  1        2 0.56427599E-01 0.24820727E+02</pdfrwt>
<pdfrwt beam="1">  1        1 0.11240592E+00 0.37058101E+02</pdfrwt>
<totfact> 0.34580097E+02</totfact>
</mgrwt>
</event>
<event>
 5    1  0.8274494E-003  0.6507228E+02  0.7546771E-02  0.1431851E+00
          1   -1    0    0  501    0 -0.00000000000E+00  0.00000000000E+00  0.81584459398E+03  0.81584459398E+03  0.00000000000E+00 0. -1.
          2   -1    0    0  502    0  0.00000000000E+00 -0.00000000000E+00 -0.10317446493E+04  0.10317446493E+04  0.00000000000E+00 0. -1.
         25    1    1    2    0    0  0.34372017821E+02 -0.81255920607E+02  0.39884420672E+03  0.42718340496E+03  0.12500000000E+03 0.  0.
          2    1    1    2  501    0  0.15541549722E+02  0.39558984820E+02  0.40066640176E+03  0.40291440598E+03  0.00000000000E+00 0. -1.
          1    1    1    2  502    0 -0.49913567543E+02  0.41696935787E+02 -0.10154106638E+04  0.10174914323E+04  0.00000000000E+00 0. -1.
<mgrwt>
<rscale>  0 0.52590181E+02</rscale>
<asrwt>0</asrwt>
<pdfrwt beam="2">  1        2 0.15872995E+00 0.65072275E+02</pdfrwt>
<pdfrwt beam="1">  1        1 0.12551455E+00 0.42502389E+02</pdfrwt>
<totfact> 0.91267891E+01</totfact>
</mgrwt>
</event>
<event>
 5    1  0.8274494E-003  0.6301064E+02  0.7546771E-02  0.1483934E+00
          1   -1    0    0  501    0 -0.00000000000E+00  0.00000000000E+00  0.48963618820E+03  0.48963618820E+03  0.00000000000E+00 0. -1.
          2   -1    0    0  502    0  0.00000000000E+00 -0.00000000000E+00 -0.85193045481E+03  0.85193045481E+03  0.00000000000E+00 0. -1.
         25    1    1    2    0    0 -0.61434062998E+01 -0.32929770224E+02 -0.13644069167E+03  0.18805098658E+03  0.12500000000E+03 0.  0.
          2    1    1    2  501    0  0.79564317242E+01  0.62904655971E+02  0.46133469590E+03  0.46567156043E+03  0.00000000000E+00 0. -1.
          1    1    1    2  502    0 -0.18130254245E+01 -0.29974885747E+02 -0.68718827083E+03  0.68784409600E+03  0.00000000000E+00 0. -1.
<mgrwt>
<rscale>  0 0.43499291E+02</rscale>
<asrwt>0</asrwt>
<pdfrwt beam="2">  1        2 0.13106622E+00 0.30029666E+02</pdfrwt>
<pdfrwt beam="1">  1        1 0.75328645E-01 0.63010636E+02</pdfrwt>
<totfact> 0.23519345E+02</totfact>
</mgrwt>
</event>
<event>
 5    1  0.8274494E-003  0.1550086E+03  0.7546771E-02  0.1371174E+00
          1   -1    0    0  501    0 -0.00000000000E+00  0.00000000000E+00  0.41553551816E+04  0.41553551816E+04  0.00000000000E+00 0. -1.
          2   -1    0    0  502    0  0.00000000000E+00 -0.00000000000E+00 -0.26962437984E+04  0.26962437984E+04  0.00000000000E+00 0. -1.
         25    1    1    2    0    0  0.34730070054E+02  0.17691616106E+03 -0.18695677497E+04  0.18823958342E+04  0.12500000000E+03 0.  0.
          2    1    1    2  501    0 -0.17206689392E+02 -0.15403148186E+03  0.41472399346E+04  0.41501350391E+04  0.00000000000E+00 0. -1.
          1    1    1    2  502    0 -0.17523380662E+02 -0.22884679203E+02 -0.81856080162E+03  0.81906810667E+03  0.00000000000E+00 0. -1.
<mgrwt>
<rscale>  0 0.66841945E+02</rscale>
<asrwt>0</asrwt>
<pdfrwt beam="2">  1        2 0.41480674E+00 0.28823210E+02</pdfrwt>
<pdfrwt beam="1">  1        1 0.63928541E+00 0.15500861E+03</pdfrwt>
<totfact> 0.62372859E-02</totfact>
</mgrwt>
</event>
<event>
 5    1  0.8274494E-003  0.1305392E+03  0.7546771E-02  0.1419848E+00
         -2   -1    0    0    0  501 -0.00000000000E+00  0.00000000000E+00  0.30774199148E+03  0.30774199148E+03  0.00000000000E+00 0.  1.
          2   -1    0    0  502    0  0.00000000000E+00 -0.00000000000E+00 -0.16550193988E+04  0.16550193988E+04  0.00000000000E+00 0. -1.
         25    1    1    2    0    0  0.11237723765E+03  0.56179334035E+02 -0.23264266971E+03  0.29245918157E+03  0.12500000000E+03 0.  0.
          1    1    1    2  502    0 -0.10531183131E+03 -0.78296103631E+02 -0.13888850698E+04  0.13950708222E+04  0.00000000000E+00 0. -1.
         -1    1    1    2    0  501 -0.70654063376E+01  0.22116769596E+02  0.27425033218E+03  0.27523138659E+03  0.00000000000E+00 0.  1.
<mgrwt>
<rscale>  0 0.55053136E+02</rscale>
<asrwt>0</asrwt>
<pdfrwt beam="2">  1        2 0.25461837E+00 0.13053920E+03</pdfrwt>
<pdfrwt beam="1">  1       -2 0.47344922E-01 0.23217913E+02</pdfrwt>
<totfact> 0.51334295E+01</totfact>
</mgrwt>
</event>
<event>
 5    1  0.8274494E-003  0.8158122E+02  0.7546771E-02  0.1406178E+00
          1   -1    0    0  501    0 -0.00000000000E+00  0.00000000000E+00  0.96952693645E+03  0.96952693645E+03  0.00000000000E+00 0. -1.
          2   -1    0    0  502    0  0.00000000000E+00 -0.00000000000E+00 -0.16415202442E+04  0.16415202442E+04  0.00000000000E+00 0. -1.
         25    1    1    2    0    0 -0.66777431181E+02 -0.86505144575E+02 -0.18813736857E+03  0.25092436072E+03  0.12500000000E+03 0.  0.
          2    1    1    2  501    0 -0.15685138296E+00  0.41313469168E+02  0.93653095112E+03  0.93744175805E+03  0.00000000000E+00 0. -1.
          1    1    1    2  502    0  0.66934282564E+02  0.45191675407E+02 -0.14203868903E+04  0.14226810619E+04  0.00000000000E+00 0. -1.
<mgrwt>
<rscale>  0 0.58055383E+02</rscale>
<asrwt>0</asrwt>
<pdfrwt beam="2">  1        2 0.25254157E+00 0.81581218E+02</pdfrwt>
<pdfrwt beam="1">  1        1 0.14915799E+00 0.41313767E+02</pdfrwt>
<totfact> 0.33234367E+01</totfact>
</mgrwt>
</event>
<event>
 5    1  0.8274494E-003  0.1815675E+03  0.7546771E-02  0.1241274E+00
          2   -1    0    0  502    0  0.00000000000E+00  0.00000000000E+00  0.30309276490E+03  0.30309276490E+03  0.00000000000E+00 0. -1.
          1   -1    0    0  501    0 -0.00000000000E+00 -0.00000000000E+00 -0.92215254709E+03  0.92215254709E+03  0.00000000000E+00 0. -1.
         25    1    1    2    0    0 -0.22141559524E+03  0.93541554817E+02 -0.28219562268E+03  0.39119593269E+03  0.12500000000E+03 0.  0.
          2    1    1    2  501    0  0.79877109909E+02  0.12085337505E+02 -0.55076709169E+03  0.55666039680E+03  0.00000000000E+00 0. -1.
          1    1    1    2  502    0  0.14153848533E+03 -0.10562689232E+03  0.21390293219E+03  0.27738898249E+03  0.00000000000E+00 0. -1.
<mgrwt>
<rscale>  0 0.12111212E+03</rscale>
<asrwt>0</asrwt>
<pdfrwt beam="1">  1        2 0.46629656E-01 0.18156751E+03</pdfrwt>
<pdfrwt beam="2">  1        1 0.14186962E+00 0.80786187E+02</pdfrwt>
<totfact> 0.29008636E+02</totfact>
</mgrwt>
</event>
<event>
 5    1  0.8274494E-003  0.1756714E+03  0.7546771E-02  0.1280130E+00
          2   -1    0    0  502    0  0.00000000000E+00  0.00000000000E+00  0.20991518167E+03  0.20991518167E+03  0.00000000000E+00 0. -1.
          1   -1    0    0  501    0 -0.00000000000E+00 -0.00000000000E+00 -0.54431165699E+03  0.54431165699E+03  0.00000000000E+00 0. -1.
         25    1    1    2    0    0 -0.66283620559E+02  0.16820666164E+03 -0.14920409814E+03  0.26565741525E+03  0.12500000000E+03 0.  0.
          2    1    1    2  501    0  0.56486221678E+02  0.77431261367E+01 -0.28186404946E+03  0.28757258496E+03  0.00000000000E+00 0. -1.
          1    1    1    2  502    0  0.97973988816E+01 -0.17594978778E+03  0.96671672281E+02  0.20099683845E+03  0.00000000000E+00 0. -1.
<mgrwt>
<rscale>  0 0.10007903E+03</rscale>
<asrwt>0</asrwt>
<pdfrwt beam="1">  1        2 0.32294644E-01 0.17567144E+03</pdfrwt>
<pdfrwt beam="2">  1        1 0.83740254E-01 0.57014465E+02</pdfrwt>
<totfact> 0.91706652E+02</totfact>
</mgrwt>
</event>
<event>
 5    1  0.8274494E-003  0.5293605E+02  0.7546771E-02  0.1517937E+00
          2   -1    0    0  502    0  0.00000000000E+00  0.00000000000E+00  0.28837200879E+04  0.28837200879E+04  0.00000000000E+00 0. -1.
          1   -1    0    0  501    0 -0.00000000000E+00 -0.00000000000E+00 -0.11917196366E+03  0.11917196366E+03  0.00000000000E+00 0. -1.
         25    1    1    2    0    0 -0.44545202526E+02  0.50335055109E+02  0.20808428070E+04  0.20856772713E+04  0.12500000000E+03 0.  0.
          2    1    1    2  501    0  0.48008678714E+02 -0.22242935852E+02 -0.11049506949E+03  0.12251017022E+03  0.00000000000E+00 0. -1.
          1    1    1    2  502    0 -0.34634761886E+01 -0.28092119257E+02  0.79420038674E+03  0.79470460999E+03  0.00000000000E+00 0. -1.
<mgrwt>
<rscale>  0 0.38708466E+02</rscale>
<asrwt>0</asrwt>
<pdfrwt beam="1">  1        2 0.44364919E+00 0.28304820E+02</pdfrwt>
<pdfrwt beam="2">  1        1 0.18334150E-01 0.52936049E+02</pdfrwt>
<totfact> 0.12828844E+02</totfact>
</mgrwt>
</event>
<event>
 5    1  0.8274494E-003  0.4060562E+02  0.7546771E-02  0.1559411E+00
          2   -1    0    0  502    0  0.00000000000E+00  0.00000000000E+00  0.43248855686E+03  0.43248855686E+03  0.00000000000E+00 0. -1.
          1   -1    0    0  501    0 -0.00000000000E+00 -0.00000000000E+00 -0.13901456610E+04  0.13901456610E+04  0.00000000000E+00 0. -1.
         25    1    1    2    0    0  0.19390872681E+02  0.36415754163E+02  0.13213765536E+03  0.18651400231E+03  0.12500000000E+03 0.  0.
          2    1    1    2  501    0 -0.37730762299E+02 -0.15053525844E+02 -0.13619283501E+04  0.13625340546E+04  0.00000000000E+00 0. -1.
          1    1    1    2  502    0  0.18339889618E+02 -0.21362228320E+02  0.27213359059E+03  0.27358616098E+03  0.00000000000E+00 0. -1.
<mgrwt>
<rscale>  0 0.33811917E+02</rscale>
<asrwt>0</asrwt>
<pdfrwt beam="1">  1        2 0.66536701E-01 0.28154864E+02</pdfrwt>
<pdfrwt beam="2">  1        1 0.21386856E+00 0.40605621E+02</pdfrwt>
<totfact> 0.10236812E+02</totfact>
</mgrwt>
</event>
<event>
 5    1  0.8274494E-003  0.1044924E+03  0.7546771E-02  0.1316289E+00
         -1   -1    0    0    0  501 -0.00000000000E+00  0.00000000000E+00  0.10165276313E+03  0.10165276313E+03  0.00000000000E+00 0.  1.
          1   -1    0    0  502    0  0.00000000000E+00 -0.00000000000E+00 -0.10575381357E+04  0.10575381357E+04  0.00000000000E+00 0. -1.
         25    1    1    2    0    0  0.14316083225E+03  0.10155080243E+02 -0.76761847336E+02  0.20522068792E+03  0.12500000000E+03 0.  0.
          2    1    1    2  502    0 -0.95565218421E+02  0.39266501293E+02 -0.87930723119E+03  0.88535629885E+03  0.00000000000E+00 0. -1.
         -2    1    1    2    0  501 -0.47595613824E+02 -0.49421581536E+02  0.18370598288E+00  0.68613912034E+02  0.00000000000E+00 0.  1.
<mgrwt>
<rscale>  0 0.84673511E+02</rscale>
<asrwt>0</asrwt>
<pdfrwt beam="2">  1        1 0.16269818E+00 0.10449235E+03</pdfrwt>
<pdfrwt beam="1">  1       -1 0.15638886E-01 0.68613666E+02</pdfrwt>
<totfact> 0.43945474E+02</totfact>
</mgrwt>
</event>
<event>
 5    1  0.8274494E-003  0.9993112E+02  0.7546771E-02  0.1391882E+00
          2   -1    0    0  502    0  0.00000000000E+00  0.00000000000E+00  0.17793118161E+04  0.17793118161E+04  0.00000000000E+00 0. -1.
          1   -1    0    0  501    0 -0.00000000000E+00 -0.00000000000E+00 -0.25343763396E+03  0.25343763396E+03  0.00000000000E+00 0. -1.
         25    1    1    2    0    0 -0.90771109733E+02  0.66640725861E+02  0.79866550567E+02  0.18623653402E+03  0.12500000000E+03 0.  0.
          2    1    1    2  501    0  0.34387043122E+02  0.15638723458E+02 -0.19694502767E+03  0.20053523962E+03  0.00000000000E+00 0. -1.
          1    1    1    2  502    0  0.56384066612E+02 -0.82279449319E+02  0.16429526593E+04  0.16459776764E+04  0.00000000000E+00 0. -1.
<mgrwt>
<rscale>  0 0.61441143E+02</rscale>
<asrwt>0</asrwt>
<pdfrwt beam="1">  1        2 0.27374027E+00 0.99931116E+02</pdfrwt>
<pdfrwt beam="2">  1        1 0.38990406E-01 0.37776162E+02</pdfrwt>
<totfact> 0.15549933E+02</totfact>
</mgrwt>
</event>
<event>
 5    1  0.8274494E-003  0.1287286E+03  0.7546771E-02  0.1237621E+00
          1   -1    0    0  501    0 -0.00000000000E+00  0.00000000000E+00  0.12862134054E+03  0.12862134054E+03  0.00000000000E+00 0. -1.
          2   -1    0    0  502    0  0.00000000000E+00 -0.00000000000E+00 -0.10636698426E+04  0.10636698426E+04  0.00000000000E+00 0. -1.
         25    1    1    2    0    0 -0.31435272532E+02  0.37851996857E+02 -0.17257819303E+03  0.21869884026E+03  0.12500000000E+03 0.  0.
          2    1    1    2  501    0  0.14961793640E+03 -0.42032313545E+02  0.41592857330E+02  0.16087948301E+03  0.00000000000E+00 0. -1.
          1    1    1    2  502    0 -0.11818266386E+03  0.41803166880E+01 -0.80406316640E+03  0.81271285990E+03  0.00000000000E+00 0. -1.
<mgrwt>
<rscale>  0 0.12338153E+03</rscale>
<asrwt>0</asrwt>
<pdfrwt beam="2">  1        2 0.16364151E+00 0.11825657E+03</pdfrwt>
<pdfrwt beam="1">  1        1 0.19787899E-01 0.12872858E+03</pdfrwt>
<totfact> 0.86418715E+02</totfact>
</mgrwt>
</event>
<event>
 5    1  0.8274494E-003  0.7832305E+02  0.7546771E-02  0.1427172E+00
          1   -1    0    0  501    0 -0.00000000000E+00  0.00000000000E+00  0.11963746422E+04  0.11963746422E+04  0.00000000000E+00 0. -1.
          2   -1    0    0  502    0  0.00000000000E+00 -0.00000000000E+00 -0.35293277466E+03  0.35293277466E+03  0.00000000000E+00 0. -1.
         25    1    1    2    0    0  0.86780557043E+02  0.52823140966E+00  0.23297424911E+03  0.27826811686E+03  0.12500000000E+03 0.  0.
          2    1    1    2  501    0 -0.71160800067E+02  0.32557745292E+02  0.93810603204E+03  0.94136432564E+03  0.00000000000E+00 0. -1.
          1    1    1    2  502    0 -0.15619756976E+02 -0.33085976702E+02 -0.32763841360E+03  0.32967497437E+03  0.00000000000E+00 0. -1.
<mgrwt>
<rscale>  0 0.53531851E+02</rscale>
<asrwt>0</asrwt>
<pdfrwt beam="2">  1        2 0.54297350E-01 0.36587685E+02</pdfrwt>
<pdfrwt beam="1">  1        1 0.18405764E+00 0.78323049E+02</pdfrwt>
<totfact> 0.15816092E+02</totfact>
</mgrwt>
</event>
<event>
 5    1  0.8274494E-003  0.6754043E+02  0.7546771E-02  0.1428201E+00
          2   -1    0    0  502    0  0.00000000000E+00  0.00000000000E+00  0.99862330012E+03  0.99862330012E+03  0.00000000000E+00 0. -1.
          1   -1    0    0  501    0 -0.00000000000E+00 -0.00000000000E+00 -0.28650143858E+03  0.28650143858E+03  0.00000000000E+00 0. -1.
         25    1    1    2    0    0  0.55709298170E+02  0.20889636957E+02  0.79533951672E+02  0.15965760960E+03  0.12500000000E+03 0.  0.
          2    1    1    2  501    0  0.94597426769E+01 -0.41021655125E+02 -0.24330615191E+03  0.24692133661E+03  0.00000000000E+00 0. -1.
          1    1    1    2  502    0 -0.65169040847E+02  0.20132018168E+02  0.87589406178E+03  0.87854579249E+03  0.00000000000E+00 0. -1.
<mgrwt>
<rscale>  0 0.53322924E+02</rscale>
<asrwt>0</asrwt>
<pdfrwt beam="1">  1        2 0.15363435E+00 0.67540432E+02</pdfrwt>
<pdfrwt beam="2">  1        1 0.44077145E-01 0.42098253E+02</pdfrwt>
<totfact> 0.35626797E+02</totfact>
</mgrwt>
</event>
<event>
 5    1  0.8274494E-003  0.1070512E+03  0.7546771E-02  0.1372624E+00
         -2   -1    0    0    0  501 -0.00000000000E+00  0.00000000000E+00  0.20090393781E+02  0.20090393781E+02  0.00000000000E+00 0.  1.
          2   -1    0    0  502    0  0.00000000000E+00 -0.00000000000E+00 -0.21107807656E+04  0.21107807656E+04  0.00000000000E+00 0. -1.
         25    1    1    2    0    0 -0.10485059898E+03  0.54777348943E+01 -0.58317571994E+03  0.60559274601E+03  0.12500000000E+03 0.  0.
          1    1    1    2  502    0  0.10259173522E+03  0.35699268188E+02 -0.14523332555E+04  0.14563898472E+04  0.00000000000E+00 0. -1.
         -1    1    1    2    0  501  0.22588637578E+01 -0.41177003082E+02 -0.55181396362E+02  0.68888566198E+02  0.00000000000E+00 0.  1.
<mgrwt>
<rscale>  0 0.66443017E+02</rscale>
<asrwt>0</asrwt>
<pdfrwt beam="2">  1        2 0.32473539E+00 0.10705118E+03</pdfrwt>
<pdfrwt beam="1">  1       -2 0.30908309E-02 0.41238914E+02</pdfrwt>
<totfact> 0.23453870E+03</totfact>
</mgrwt>
</event>
<event>
 5    1  0.8274494E-003  0.1066637E+03  0.7546771E-02  0.1433994E+00
          1   -1    0    0  501    0 -0.00000000000E+00  0.00000000000E+00  0.87127512691E+03  0.87127512691E+03  0.00000000000E+00 0. -1.
          2   -1    0    0  502    0  0.00000000000E+00 -0.00000000000E+00 -0.18557615141E+04  0.18557615141E+04  0.00000000000E+00 0. -1.
         25    1    1    2    0    0  0.81227507595E+02 -0.92346775311E+02  0.30256624305E+03  0.34971011758E+03  0.12500000000E+03 0.  0.
          2    1    1    2  501    0 -0.56321864034E+02  0.86810941067E+02  0.54013625947E+03  0.54995951728E+03  0.00000000000E+00 0. -1.
          1    1    1    2  502    0 -0.24905643561E+02  0.55358342436E+01 -0.18271888897E+04  0.18273670062E+04  0.00000000000E+00 0. -1.
<mgrwt>
<rscale>  0 0.52166661E+02</rscale>
<asrwt>0</asrwt>
<pdfrwt beam="2">  1        2 0.28550177E+00 0.25513458E+02</pdfrwt>
<pdfrwt beam="1">  1        1 0.13404233E+00 0.10666373E+03</pdfrwt>
<totfact> 0.32974669E+01</totfact>
</mgrwt>
</event>
<event>
 5    1  0.8274494E-003  0.1325858E+03  0.7546771E-02  0.1339823E+00
          2   -1    0    0  502    0  0.00000000000E+00  0.00000000000E+00  0.69073660294E+03  0.69073660294E+03  0.00000000000E+00 0. -1.
          1   -1    0    0  501    0 -0.00000000000E+00 -0.00000000000E+00 -0.36402451886E+03  0.36402451886E+03  0.00000000000E+00 0. -1.
         25    1    1    2    0    0  0.72299813189E+02 -0.69720083037E+02  0.30922252710E+03  0.34832703632E+03  0.12500000000E+03 0.  0.
          2    1    1    2  501    0 -0.70977982805E+02  0.11363544060E+03 -0.33000871283E+03  0.35616939502E+03  0.00000000000E+00 0. -1.
          1    1    1    2  502    0 -0.13218303839E+01 -0.43915357558E+02  0.34749826980E+03  0.35026469046E+03  0.00000000000E+00 0. -1.
<mgrwt>
<rscale>  0 0.76322941E+02</rscale>
<asrwt>0</asrwt>
<pdfrwt beam="1">  1        2 0.10626717E+00 0.43935246E+02</pdfrwt>
<pdfrwt beam="2">  1        1 0.56003772E-01 0.13258584E+03</pdfrwt>
<totfact> 0.42317462E+02</totfact>
</mgrwt>
</event>
<event>
 5    1  0.8274494E-003  0.1464360E+03  0.7546771E-02  0.1251308E+00
          1   -1    0    0  501    0 -0.00000000000E+00  0.00000000000E+00  0.13814982454E+04  0.13814982454E+04  0.00000000000E+00 0. -1.
          2   -1    0    0  502    0  0.00000000000E+00 -0.00000000000E+00 -0.34463295321E+03  0.34463295321E+03  0.00000000000E+00 0. -1.
         25    1    1    2    0    0  0.49612184689E+02 -0.18952379739E+03 -0.18685545438E+03  0.29819557253E+03  0.12500000000E+03 0.  0.
          2    1    1    2  501    0 -0.94725139154E+02  0.11100190109E+03  0.13008339088E+04  0.13089931751E+04  0.00000000000E+00 0. -1.
          1    1    1    2  502    0  0.45112954465E+02  0.78521896304E+02 -0.77113162259E+02  0.11894245101E+03  0.00000000000E+00 0. -1.
<mgrwt>
<rscale>  0 0.11515662E+03</rscale>
<asrwt>0</asrwt>
<pdfrwt beam="2">  1        2 0.53020455E-01 0.90558638E+02</pdfrwt>
<pdfrwt beam="1">  1        1 0.21253819E+00 0.14643604E+03</pdfrwt>
<totfact> 0.11645192E+02</totfact>
</mgrwt>
</event>
<event>
 5    1  0.8274494E-003  0.1069329E+03  0.7546771E-02  0.1339781E+00
          2   -1    0    0  502    0  0.00000000000E+00  0.00000000000E+00  0.76136954853E+03  0.76136954853E+03  0.00000000000E+00 0. -1.
          1   -1    0    0  501    0 -0.00000000000E+00 -0.00000000000E+00 -0.64141761853E+03  0.64141761853E+03  0.00000000000E+00 0. -1.
         25    1    1    2    0    0 -0.15759307019E+01  0.67120196575E+02 -0.36887078591E+02  0.14660580109E+03  0.12500000000E+03 0.  0.
          2    1    1    2  501    0 -0.37679551497E+02 -0.10491839655E+03 -0.54294864353E+03  0.55427506533E+03  0.00000000000E+00 0. -1.
          1    1    1    2  502    0  0.39255482199E+02  0.37798199974E+02  0.69978765212E+03  0.70190630063E+03  0.00000000000E+00 0. -1.
<mgrwt>
<rscale>  0 0.76336763E+02</rscale>
<asrwt>0</asrwt>
<pdfrwt beam="1">  1        2 0.11713378E+00 0.54494925E+02</pdfrwt>
<pdfrwt beam="2">  1        1 0.98679634E-01 0.10693292E+03</pdfrwt>
<totfact> 0.18117983E+02</totfact>
</mgrwt>
</event>
<event>
 5    1  0.8274494E-003  0.5038637E+02  0.7546771E-02  0.1552831E+00
          2   -1    0    0  502    0  0.00000000000E+00  0.00000000000E+00  0.37427713422E+03  0.37427713422E+03  0.00000000000E+00 0. -1.
          1   -1    0    0  501    0 -0.00000000000E+00 -0.00000000000E+00 -0.54263667584E+03  0.54263667584E+03  0.00000000000E+00 0. -1.
         25    1    1    2    0    0 -0.25610530420E+02  0.27711071261E+02 -0.54181285567E+02  0.14136624224E+03  0.12500000000E+03 0.  0.
          2    1    1    2  501    0  0.11115764883E+02  0.20887371378E+02 -0.44260067424E+03  0.44323266954E+03  0.00000000000E+00 0. -1.
          1    1    1    2  502    0  0.14494765537E+02 -0.48598442638E+02  0.32842241819E+03  0.33231489829E+03  0.00000000000E+00 0. -1.
<mgrwt>
<rscale>  0 0.34528125E+02</rscale>
<asrwt>0</asrwt>
<pdfrwt beam="1">  1        2 0.57581098E-01 0.50386368E+02</pdfrwt>
<pdfrwt beam="2">  1        1 0.83482565E-01 0.23660991E+02</pdfrwt>
<totfact> 0.50745174E+02</totfact>
</mgrwt>
</event>
<event>
 5    1  0.8274494E-003  0.9846371E+02  0.7546771E-02  0.1447427E+00
         -1   -1    0    0    0  501 -0.00000000000E+00  0.00000000000E+00  0.48331978336E+02  0.48331978336E+02  0.00000000000E+00 0.  1.
          1   -1    0    0  502    0  0.00000000000E+00 -0.00000000000E+00 -0.26031809454E+04  0.26031809454E+04  0.00000000000E+00 0. -1.
         25    1    1    2    0    0 -0.27556969278E+01  0.78860565904E+02 -0.97149782438E+03  0.98267980823E+03  0.12500000000E+03 0.  0.
          2    1    1    2  502    0  0.14890236065E+02  0.20083055637E+02 -0.15677327292E+04  0.15679320644E+04  0.00000000000E+00 0. -1.
         -2    1    1    2    0  501 -0.12134539137E+02 -0.98943621541E+02 -0.15618413490E+02  0.10090105115E+03  0.00000000000E+00 0.  1.
<mgrwt>
<rscale>  0 0.49615398E+02</rscale>
<asrwt>0</asrwt>
<pdfrwt beam="2">  1        1 0.40048936E+00 0.25000965E+02</pdfrwt>
<pdfrwt beam="1">  1       -1 0.74356892E-02 0.98463709E+02</pdfrwt>
<totfact> 0.17775617E+02</totfact>
</mgrwt>
</event>
<event>
 5    1  0.8274494E-003  0.9214338E+02  0.7546771E-02  0.1331030E+00
         -2   -1    0    0    0  501 -0.00000000000E+00  0.00000000000E+00  0.40499269539E+03  0.40499269539E+03  0.00000000000E+00 0.  1.
          2   -1    0    0  502    0  0.00000000000E+00 -0.00000000000E+00 -0.25754519827E+04  0.25754519827E+04  0.00000000000E+00 0. -1.
         25    1    1    2    0    0 -0.13015244020E+03 -0.82409068645E+02  0.74468415412E+02  0.21189963940E+03  0.12500000000E+03 0.  0.
          1    1    1    2  502    0  0.57194914956E+02  0.37255712446E+02 -0.24992282692E+04  0.25001602325E+04  0.00000000000E+00 0. -1.
         -1    1    1    2    0  501  0.72957525247E+02  0.45153356199E+02  0.25430056651E+03  0.26838480619E+03  0.00000000000E+00 0.  1.
<mgrwt>
<rscale>  0 0.79306901E+02</rscale>
<asrwt>0</asrwt>
<pdfrwt beam="2">  1        2 0.39622339E+00 0.68258673E+02</pdfrwt>
<pdfrwt beam="1">  1       -2 0.62306568E-01 0.92143375E+02</pdfrwt>
<totfact> 0.11022628E+01</totfact>
</mgrwt>
</event>
<event>
 5    1  0.8274494E-003  0.2933149E+02  0.7546771E-02  0.1657151E+00
          1   -1    0    0  501    0 -0.00000000000E+00  0.00000000000E+00  0.17406023232E+04  0.17406023232E+04  0.00000000000E+00 0. -1.
          2   -1    0    0  502    0  0.00000000000E+00 -0.00000000000E+00 -0.14247707575E+04  0.14247707575E+04  0.00000000000E+00 0. -1.
         25    1    1    2    0    0 -0.82831291484E+01  0.14565815043E+02  0.25800495161E+03  0.28717995795E+03  0.12500000000E+03 0.  0.
          2    1    1    2  501    0  0.28681205655E+02 -0.69562533826E+01  0.14677774915E+04  0.14680741689E+04  0.00000000000E+00 0. -1.
          1    1    1    2  502    0 -0.20398076506E+02 -0.76095616607E+01 -0.14099508775E+04  0.14101189538E+04  0.00000000000E+00 0. -1.
<mgrwt>
<rscale>  0 0.25270197E+02</rscale>
<asrwt>0</asrwt>
<pdfrwt beam="2">  1        2 0.21919550E+00 0.21771241E+02</pdfrwt>
<pdfrwt beam="1">  1        1 0.26778497E+00 0.29331487E+02</pdfrwt>
<totfact> 0.16102975E+01</totfact>
</mgrwt>
</event>
<event>
 5    1  0.8274494E-003  0.5446424E+02  0.7546771E-02  0.1505056E+00
          1   -1    0    0  501    0 -0.00000000000E+00  0.00000000000E+00  0.12927896315E+04  0.12927896315E+04  0.00000000000E+00 0. -1.
          2   -1    0    0  502    0  0.00000000000E+00 -0.00000000000E+00 -0.15041562682E+02  0.15041562682E+02  0.00000000000E+00 0. -1.
         25    1    1    2    0    0 -0.69446598885E+02 -0.18389324327E+02  0.64980259349E+03  0.66560454314E+03  0.12500000000E+03 0.  0.
          2    1    1    2  501    0  0.52177301488E+02 -0.61602742014E+01  0.59630219328E+03  0.59861233321E+03  0.00000000000E+00 0. -1.
          1    1    1    2  502    0  0.17269297398E+02  0.24549598528E+02  0.31643282054E+02  0.43614317828E+02  0.00000000000E+00 0. -1.
<mgrwt>
<rscale>  0 0.40432096E+02</rscale>
<asrwt>0</asrwt>
<pdfrwt beam="2">  1        2 0.23140876E-02 0.30015186E+02</pdfrwt>
<pdfrwt beam="1">  1        1 0.19889062E+00 0.54464242E+02</pdfrwt>
<totfact> 0.51780039E+03</totfact>
</mgrwt>
</event>
<event>
 5    1  0.8274494E-003  0.6167043E+02  0.7546771E-02  0.1438581E+00
          1   -1    0    0  501    0 -0.00000000000E+00  0.00000000000E+00  0.25404880190E+04  0.25404880190E+04  0.00000000000E+00 0. -1.
          2   -1    0    0  502    0  0.00000000000E+00 -0.00000000000E+00 -0.52936189085E+02  0.52936189085E+02  0.00000000000E+00 0. -1.
         25    1    1    2    0    0 -0.12638746969E+02  0.51689506112E+02  0.53532377105E+03  0.55229347527E+03  0.12500000000E+03 0.  0.
          2    1    1    2  501    0 -0.39224437630E+02 -0.16703092506E+02  0.19743227958E+04  0.19747830392E+04  0.00000000000E+00 0. -1.
          1    1    1    2  502    0  0.51863184599E+02 -0.34986413606E+02 -0.22094736924E+02  0.66347693656E+02  0.00000000000E+00 0. -1.
<mgrwt>
<rscale>  0 0.51275518E+02</rscale>
<asrwt>0</asrwt>
<pdfrwt beam="2">  1        2 0.81440311E-02 0.61670426E+02</pdfrwt>
<pdfrwt beam="1">  1        1 0.39084422E+00 0.42632732E+02</pdfrwt>
<totfact> 0.20081687E+02</totfact>
</mgrwt>
</event>
<event>
 5    1  0.8274494E-003  0.6130195E+02  0.7546771E-02  0.1403230E+00
          2   -1    0    0  502    0  0.00000000000E+00  0.00000000000E+00  0.28716993557E+04  0.28716993557E+04  0.00000000000E+00 0. -1.
          1   -1    0    0  501    0 -0.00000000000E+00 -0.00000000000E+00 -0.25020540799E+03  0.25020540799E+03  0.00000000000E+00 0. -1.
         25    1    1    2    0    0  0.14064017812E+02  0.31822436833E+02  0.15806611515E+04  0.15859776606E+04  0.12500000000E+03 0.  0.
          2    1    1    2  501    0 -0.61398249394E+02 -0.13948232798E+01 -0.24311234940E+03  0.25074948652E+03  0.00000000000E+00 0. -1.
          1    1    1    2  502    0  0.47334231581E+02 -0.30427613553E+02  0.12839451456E+04  0.12851776165E+04  0.00000000000E+00 0. -1.
<mgrwt>
<rscale>  0 0.58732369E+02</rscale>
<asrwt>0</asrwt>
<pdfrwt beam="1">  1        2 0.44179988E+00 0.56270500E+02</pdfrwt>
<pdfrwt beam="2">  1        1 0.38493142E-01 0.61301946E+02</pdfrwt>
<totfact> 0.46963824E+01</totfact>
</mgrwt>
</event>
<event>
 5    1  0.8274494E-003  0.7500727E+02  0.7546771E-02  0.1497768E+00
          2   -1    0    0  502    0  0.00000000000E+00  0.00000000000E+00  0.32910963151E+03  0.32910963151E+03  0.00000000000E+00 0. -1.
          1   -1    0    0  501    0 -0.00000000000E+00 -0.00000000000E+00 -0.53549764940E+03  0.53549764940E+03  0.00000000000E+00 0. -1.
         25    1    1    2    0    0 -0.22024460385E+02 -0.65634291836E+02 -0.15470570346E+02  0.14372639169E+03  0.12500000000E+03 0.  0.
          2    1    1    2  501    0 -0.22464196975E+02  0.45057348876E+01 -0.45020915366E+03  0.45079177436E+03  0.00000000000E+00 0. -1.
          1    1    1    2  502    0  0.44488657360E+02  0.61128556948E+02  0.25929170612E+03  0.27008911487E+03  0.00000000000E+00 0. -1.
<mgrwt>
<rscale>  0 0.41455244E+02</rscale>
<asrwt>0</asrwt>
<pdfrwt beam="1">  1        2 0.50632252E-01 0.75007271E+02</pdfrwt>
<pdfrwt beam="2">  1        1 0.82384252E-01 0.22911608E+02</pdfrwt>
<totfact> 0.59014504E+02</totfact>
</mgrwt>
</event>
<event>
 5    1  0.8274494E-003  0.1182195E+03  0.7546771E-02  0.1287472E+00
          2   -1    0    0  502    0  0.00000000000E+00  0.00000000000E+00  0.12350750769E+04  0.12350750769E+04  0.00000000000E+00 0. -1.
          1   -1    0    0  501    0 -0.00000000000E+00 -0.00000000000E+00 -0.44269018875E+03  0.44269018875E+03  0.00000000000E+00 0. -1.
         25    1    1    2    0    0  0.15624881139E+03  0.96197062270E+02  0.68689646193E+02  0.23240230925E+03  0.12500000000E+03 0.  0.
          2    1    1    2  501    0 -0.78374380327E+02 -0.10224912754E+02 -0.35335368262E+03  0.36208551111E+03  0.00000000000E+00 0. -1.
          1    1    1    2  502    0 -0.77874431067E+02 -0.85972149516E+02  0.10770489246E+04  0.10832774452E+04  0.00000000000E+00 0. -1.
<mgrwt>
<rscale>  0 0.96663848E+02</rscale>
<asrwt>0</asrwt>
<pdfrwt beam="1">  1        2 0.19001155E+00 0.11821952E+03</pdfrwt>
<pdfrwt beam="2">  1        1 0.68106183E-01 0.79038550E+02</pdfrwt>
<totfact> 0.14963750E+02</totfact>
</mgrwt>
</event>
<event>
 5    1  0.8274494E-003  0.4319145E+02  0.7546771E-02  0.1515270E+00
          1   -1    0    0  501    0 -0.00000000000E+00  0.00000000000E+00  0.44042009414E+03  0.44042009414E+03  0.00000000000E+00 0. -1.
          2   -1    0    0  502    0  0.00000000000E+00 -0.00000000000E+00 -0.44045824120E+03  0.44045824120E+03  0.00000000000E+00 0. -1.
         25    1    1    2    0    0  0.39988620139E+02 -0.17052918225E+02 -0.12891764745E+03  0.18475565373E+03  0.12500000000E+03 0.  0.
          2    1    1    2  501    0 -0.13999482545E+02  0.40967447274E+02  0.41025818736E+03  0.41253617725E+03  0.00000000000E+00 0. -1.
          1    1    1    2  502    0 -0.25989137595E+02 -0.23914529050E+02 -0.28137868697E+03  0.28358650436E+03  0.00000000000E+00 0. -1.
<mgrwt>
<rscale>  0 0.39056659E+02</rscale>
<asrwt>0</asrwt>
<pdfrwt beam="2">  1        2 0.67762806E-01 0.35317701E+02</pdfrwt>
<pdfrwt beam="1">  1        1 0.67756937E-01 0.43191447E+02</pdfrwt>
<totfact> 0.54837158E+02</totfact>
</mgrwt>
</event>
<event>
 5    1  0.8274494E-003  0.5845892E+02  0.7546771E-02  0.1509263E+00
          2   -1    0    0  502    0  0.00000000000E+00  0.00000000000E+00  0.37583443819E+03  0.37583443819E+03  0.00000000000E+00 0. -1.
          1   -1    0    0  501    0 -0.00000000000E+00 -0.00000000000E+00 -0.62503658813E+03  0.62503658813E+03  0.00000000000E+00 0. -1.
         25    1    1    2    0    0 -0.23749006259E+02 -0.21952634888E+02 -0.37797112915E+02  0.13453458745E+03  0.12500000000E+03 0.  0.
          2    1    1    2  501    0  0.46271622482E+02  0.37158170623E+02 -0.53666853010E+03  0.53993972246E+03  0.00000000000E+00 0. -1.
          1    1    1    2  502    0 -0.22522616223E+02 -0.15205535735E+02  0.32526349308E+03  0.32639671641E+03  0.00000000000E+00 0. -1.
<mgrwt>
<rscale>  0 0.39857454E+02</rscale>
<asrwt>0</asrwt>
<pdfrwt beam="1">  1        2 0.57820683E-01 0.27174925E+02</pdfrwt>
<pdfrwt beam="2">  1        1 0.96159475E-01 0.58458915E+02</pdfrwt>
<totfact> 0.40935069E+02</totfact>
</mgrwt>
</event>
<event>
 5    1  0.8274494E-003  0.9122576E+02  0.7546771E-02  0.1349065E+00
          1   -1    0    0  501    0 -0.00000000000E+00  0.00000000000E+00  0.44781942194E+02  0.44781942194E+02  0.00000000000E+00 0. -1.
          2   -1    0    0  502    0  0.00000000000E+00 -0.00000000000E+00 -0.63951396778E+03  0.63951396778E+03  0.00000000000E+00 0. -1.
         25    1    1    2    0    0  0.81184754901E+02 -0.90731231425E+01 -0.37585923012E+03  0.40443596138E+03  0.12500000000E+03 0.  0.
          2    1    1    2  501    0  0.44913125722E+01 -0.58802129097E+02 -0.43769147483E+02  0.73441136609E+02  0.00000000000E+00 0. -1.
          1    1    1    2  502    0 -0.85676067473E+02  0.67875252240E+02 -0.17510364799E+03  0.20641881199E+03  0.00000000000E+00 0. -1.
<mgrwt>
<rscale>  0 0.73347758E+02</rscale>
<asrwt>0</asrwt>
<pdfrwt beam="2">  1        2 0.98386754E-01 0.91225761E+02</pdfrwt>
<pdfrwt beam="1">  1        1 0.68895303E-02 0.58973403E+02</pdfrwt>
<totfact> 0.61913226E+03</totfact>
</mgrwt>
</event>
<event>
 5    1  0.8274494E-003  0.1407151E+03  0.7546771E-02  0.1347234E+00
          1   -1    0    0  501    0 -0.00000000000E+00  0.00000000000E+00  0.13932445325E+04  0.13932445325E+04  0.00000000000E+00 0. -1.
          2   -1    0    0  502    0  0.00000000000E+00 -0.00000000000E+00 -0.66872647516E+03  0.66872647516E+03  0.00000000000E+00 0. -1.
         25    1    1    2    0    0  0.29193174231E+02 -0.10554628195E+03  0.87432476856E+02  0.18778098163E+03  0.12500000000E+03 0.  0.
          2    1    1    2  501    0  0.30516472524E+02 -0.24020774310E+02  0.12471054952E+04  0.12477100500E+04  0.00000000000E+00 0. -1.
          1    1    1    2  502    0 -0.59709646755E+02  0.12956705626E+03 -0.61001991474E+03  0.62647997602E+03  0.00000000000E+00 0. -1.
<mgrwt>
<rscale>  0 0.73924580E+02</rscale>
<asrwt>0</asrwt>
<pdfrwt beam="2">  1        2 0.10288100E+00 0.14071509E+03</pdfrwt>
<pdfrwt beam="1">  1        1 0.21434531E+00 0.38836229E+02</pdfrwt>
<totfact> 0.62340390E+01</totfact>
</mgrwt>
</event>
<event>
 5    1  0.8274494E-003  0.6644531E+02  0.7546771E-02  0.1510466E+00
          2   -1    0    0  502    0  0.00000000000E+00  0.00000000000E+00  0.61322877504E+03  0.61322877504E+03  0.00000000000E+00 0. -1.
         -2   -1    0    0    0  501 -0.00000000000E+00 -0.00000000000E+00 -0.41756969566E+02  0.41756969566E+02  0.00000000000E+00 0.  1.
         25    1    1    2    0    0 -0.64124225586E+01  0.80124725586E+02  0.13172658215E+03  0.19858998781E+03  0.12500000000E+03 0.  0.
          3    1    1    2  502    0 -0.40391355334E+01 -0.23367980371E+02  0.34246557165E+03  0.34328566076E+03  0.00000000000E+00 0. -1.
         -3    1    1    2    0  501  0.10451558092E+02 -0.56756745216E+02  0.97279651677E+02  0.11311009603E+03  0.00000000000E+00 0.  1.
<mgrwt>
<rscale>  0 0.39695298E+02</rscale>
<asrwt>0</asrwt>
<pdfrwt beam="1">  1        2 0.94342882E-01 0.23714492E+02</pdfrwt>
<pdfrwt beam="2">  1       -2 0.64241496E-02 0.66445308E+02</pdfrwt>
<totfact> 0.61689219E+03</totfact>
</mgrwt>
</event>
<event>
 5    1  0.8274494E-003  0.7226332E+02  0.7546771E-02  0.1412004E+00
         -2   -1    0    0    0  501 -0.00000000000E+00  0.00000000000E+00  0.28940619010E+04  0.28940619010E+04  0.00000000000E+00 0.  1.
          2   -1    0    0  502    0  0.00000000000E+00 -0.00000000000E+00 -0.17057564393E+04  0.17057564393E+04  0.00000000000E+00 0. -1.
         25    1    1    2    0    0  0.35601266913E+02  0.12831573192E+01 -0.94128300285E+03  0.95021460111E+03  0.12500000000E+03 0.  0.
          1    1    1    2  502    0  0.28885596830E+02 -0.33936956538E+02 -0.75890179432E+03  0.76020920025E+03  0.00000000000E+00 0. -1.
         -3    1    1    2    0  501 -0.64486863742E+02  0.32653799218E+02  0.28884902588E+04  0.28893945389E+04  0.00000000000E+00 0.  1.
<mgrwt>
<rscale>  0 0.56749095E+02</rscale>
<asrwt>0</asrwt>
<pdfrwt beam="2">  1        2 0.26242407E+00 0.44565623E+02</pdfrwt>
<pdfrwt beam="1">  1       -2 0.44524029E+00 0.72263320E+02</pdfrwt>
<totfact> 0.72590220E-02</totfact>
</mgrwt>
</event>
<event>
 5    1  0.8274494E-003  0.8961287E+02  0.7546771E-02  0.1408972E+00
          1   -1    0    0  502    0  0.00000000000E+00  0.00000000000E+00  0.98659470985E+03  0.98659470985E+03  0.00000000000E+00 0. -1.
         -3   -1    0    0    0  501 -0.00000000000E+00 -0.00000000000E+00 -0.69418518935E+02  0.69418518935E+02  0.00000000000E+00 0.  1.
         25    1    1    2    0    0 -0.11779241403E+03 -0.32208525614E+02  0.26096532819E+03  0.31407060423E+03  0.12500000000E+03 0.  0.
          2    1    1    2  502    0  0.81081227201E+02  0.29693951072E+02  0.68795034357E+03  0.69334808816E+03  0.00000000000E+00 0. -1.
         -2    1    1    2    0  501  0.36711186833E+02  0.25145745416E+01 -0.31739480840E+02  0.48594536399E+02  0.00000000000E+00 0.  1.
<mgrwt>
<rscale>  0 0.57423891E+02</rscale>
<asrwt>0</asrwt>
<pdfrwt beam="1">  1        1 0.15178379E+00 0.89612873E+02</pdfrwt>
<pdfrwt beam="2">  1       -3 0.10679773E-01 0.36797205E+02</pdfrwt>
<totfact> 0.50994147E+02</totfact>
</mgrwt>
</event>
<event>
 5    1  0.8274494E-003  0.6540467E+02  0.7546771E-02  0.1426777E+00
         -2   -1    0    0    0  501 -0.00000000000E+00  0.00000000000E+00  0.37257396210E+03  0.37257396210E+03  0.00000000000E+00 0.  1.
          2   -1    0    0  502    0  0.00000000000E+00 -0.00000000000E+00 -0.81418332029E+02  0.81418332029E+02  0.00000000000E+00 0. -1.
         25    1    1    2    0    0 -0.48932787890E+02 -0.30700759814E+02  0.80986781364E+02  0.15975234940E+03  0.12500000000E+03 0.  0.
          1    1    1    2  502    0  0.23024321505E+02  0.66197532082E+02 -0.90413388737E+01  0.70668086455E+02  0.00000000000E+00 0. -1.
         -1    1    1    2    0  501  0.25908466385E+02 -0.35496772268E+02  0.21921018758E+03  0.22357185828E+03  0.00000000000E+00 0.  1.
<mgrwt>
<rscale>  0 0.53612382E+02</rscale>
<asrwt>0</asrwt>
<pdfrwt beam="2">  1        2 0.12525898E-01 0.65404673E+02</pdfrwt>
<pdfrwt beam="1">  1       -2 0.57319070E-01 0.43946211E+02</pdfrwt>
<totfact> 0.13225067E+03</totfact>
</mgrwt>
</event>
<event>
 5    1  0.8274494E-003  0.1285555E+03  0.7546771E-02  0.1363795E+00
          2   -1    0    0  502    0  0.00000000000E+00  0.00000000000E+00  0.11255336568E+04  0.11255336568E+04  0.00000000000E+00 0. -1.
         -2   -1    0    0    0  501 -0.00000000000E+00 -0.00000000000E+00 -0.17035670834E+04  0.17035670834E+04  0.00000000000E+00 0.  1.
         25    1    1    2    0    0  0.92566435108E+02 -0.32192381550E+02 -0.39409716086E+03  0.42490289071E+03  0.12500000000E+03 0.  0.
          1    1    1    2  502    0 -0.11207176293E+03  0.63576821508E+02  0.11061265781E+04  0.11136058993E+04  0.00000000000E+00 0. -1.
         -1    1    1    2    0  501  0.19505327819E+02 -0.31384439957E+02 -0.12900628438E+04  0.12905919502E+04  0.00000000000E+00 0.  1.
<mgrwt>
<rscale>  0 0.68922911E+02</rscale>
<asrwt>0</asrwt>
<pdfrwt beam="1">  1        2 0.17315902E+00 0.12855553E+03</pdfrwt>
<pdfrwt beam="2">  1       -2 0.26208724E+00 0.36951873E+02</pdfrwt>
<totfact> 0.17259376E+00</totfact>
</mgrwt>
</event>
<event>
 5    1  0.8274494E-003  0.1867232E+03  0.7546771E-02  0.1194731E+00
         -1   -1    0    0    0  502 -0.00000000000E+00  0.00000000000E+00  0.48368813230E+03  0.48368813230E+03  0.00000000000E+00 0.  1.
         -2   -1    0    0    0  501  0.00000000000E+00 -0.00000000000E+00 -0.10175122410E+04  0.10175122410E+04  0.00000000000E+00 0.  1.
         25    1    1    2    0    0  0.22828571982E+03  0.11437476786E+03 -0.14128530485E+03  0.31746258797E+03  0.12500000000E+03 0.  0.
         -2    1    1    2    0  502 -0.46746858357E+02 -0.11946419025E+03  0.37430708834E+03  0.39568012068E+03  0.00000000000E+00 0.  1.
         -1    1    1    2    0  501 -0.18153886146E+03  0.50894223892E+01 -0.76684589218E+03  0.78805766464E+03  0.00000000000E+00 0.  1.
<mgrwt>
<rscale>  0 0.15476992E+03</rscale>
<asrwt>0</asrwt>
<pdfrwt beam="2">  1       -2 0.15654034E+00 0.18672320E+03</pdfrwt>
<pdfrwt beam="1">  1       -1 0.74413560E-01 0.12828469E+03</pdfrwt>
<totfact> 0.42003157E+00</totfact>
</mgrwt>
</event>
<event>
 5    1  0.8274494E-003  0.8578294E+02  0.7546771E-02  0.1362911E+00
         -1   -1    0    0    0  501 -0.00000000000E+00  0.00000000000E+00  0.24473963725E+03  0.24473963725E+03  0.00000000000E+00 0.  1.
          1   -1    0    0  502    0  0.00000000000E+00 -0.00000000000E+00 -0.47370068200E+03  0.47370068200E+03  0.00000000000E+00 0. -1.
         25    1    1    2    0    0 -0.58660441798E+02  0.12690642309E+03  0.85201088765E+02  0.20598668204E+03  0.12500000000E+03 0.  0.
          2    1    1    2  502    0  0.38095603777E+02 -0.75048148038E+02 -0.40072692915E+03  0.40946986617E+03  0.00000000000E+00 0. -1.
         -2    1    1    2    0  501  0.20564838021E+02 -0.51858275050E+02  0.86564795637E+02  0.10298377104E+03  0.00000000000E+00 0.  1.
<mgrwt>
<rscale>  0 0.69177856E+02</rscale>
<asrwt>0</asrwt>
<pdfrwt beam="2">  1        1 0.72877028E-01 0.85782938E+02</pdfrwt>
<pdfrwt beam="1">  1       -1 0.37652252E-01 0.55787035E+02</pdfrwt>
<totfact> 0.34121947E+02</totfact>
</mgrwt>
</event>
<event>
 5    1  0.8274494E-003  0.2544088E+03  0.7546771E-02  0.1323693E+00
          1   -1    0    0  501    0 -0.00000000000E+00  0.00000000000E+00  0.13586655763E+04  0.13586655763E+04  0.00000000000E+00 0. -1.
          2   -1    0    0  502    0  0.00000000000E+00 -0.00000000000E+00 -0.45680681113E+03  0.45680681113E+03  0.00000000000E+00 0. -1.
         25    1    1    2    0    0  0.18722209884E+03 -0.19919728420E+03  0.62616858154E+03  0.69458171934E+03  0.12500000000E+03 0.  0.
          2    1    1    2  501    0 -0.26121434958E+02  0.36660644520E+01  0.66003250808E+03  0.66055936986E+03  0.00000000000E+00 0. -1.
          1    1    1    2  502    0 -0.16110066388E+03  0.19553121975E+03 -0.38434232443E+03  0.46033129825E+03  0.00000000000E+00 0. -1.
<mgrwt>
<rscale>  0 0.81918573E+02</rscale>
<asrwt>0</asrwt>
<pdfrwt beam="2">  1        2 0.70277972E-01 0.25440878E+03</pdfrwt>
<pdfrwt beam="1">  1        1 0.20902547E+00 0.26377441E+02</pdfrwt>
<totfact> 0.10370907E+02</totfact>
</mgrwt>
</event>
<event>
 5    1  0.8274494E-003  0.2520820E+02  0.7546771E-02  0.1694626E+00
          2   -1    0    0  502    0  0.00000000000E+00  0.00000000000E+00  0.15921409790E+04  0.15921409790E+04  0.00000000000E+00 0. -1.
         -2   -1    0    0    0  501 -0.00000000000E+00 -0.00000000000E+00 -0.12128965139E+02  0.12128965139E+02  0.00000000000E+00 0.  1.
         25    1    1    2    0    0  0.28015360342E+02 -0.17858656893E+02  0.67161562900E+03  0.68395639127E+03  0.12500000000E+03 0.  0.
          1    1    1    2  502    0 -0.25046353168E+02 -0.25647299306E+01  0.89576094780E+03  0.89611470987E+03  0.00000000000E+00 0. -1.
         -1    1    1    2    0  501 -0.29690071733E+01  0.20423386823E+02  0.12635437072E+02  0.24198843008E+02  0.00000000000E+00 0.  1.
<mgrwt>
<rscale>  0 0.22808958E+02</rscale>
<asrwt>0</asrwt>
<pdfrwt beam="1">  1        2 0.24494460E+00 0.25208205E+02</pdfrwt>
<pdfrwt beam="2">  1       -2 0.18659959E-02 0.20638065E+02</pdfrwt>
<totfact> 0.88000128E+03</totfact>
</mgrwt>
</event>
<event>
 5    1  0.8274494E-003  0.7090076E+02  0.7546771E-02  0.1385206E+00
          2   -1    0    0  502    0  0.00000000000E+00  0.00000000000E+00  0.77307201150E+02  0.77307201150E+02  0.00000000000E+00 0. -1.
          1   -1    0    0  501    0 -0.00000000000E+00 -0.00000000000E+00 -0.21966966543E+04  0.21966966543E+04  0.00000000000E+00 0. -1.
         25    1    1    2    0    0  0.17218088044E+02 -0.13274236585E+02 -0.51534582647E+03  0.53073438627E+03  0.12500000000E+03 0.  0.
          2    1    1    2  501    0 -0.71624576887E+02  0.27295695383E+02 -0.16612906432E+04  0.16630579473E+04  0.00000000000E+00 0. -1.
          1    1    1    2  502    0  0.54406488843E+02 -0.14021458798E+02  0.57247016524E+02  0.80211521840E+02  0.00000000000E+00 0. -1.
<mgrwt>
<rscale>  0 0.63115010E+02</rscale>
<asrwt>0</asrwt>
<pdfrwt beam="1">  1        2 0.11893414E-01 0.56184227E+02</pdfrwt>
<pdfrwt beam="2">  1        1 0.33795337E+00 0.70900761E+02</pdfrwt>
<totfact> 0.19252373E+02</totfact>
</mgrwt>
</event>
<event>
 5    1  0.8274494E-003  0.6279886E+02  0.7546771E-02  0.1524284E+00
          2   -1    0    0  502    0  0.00000000000E+00  0.00000000000E+00  0.49598607658E+03  0.49598607658E+03  0.00000000000E+00 0. -1.
         -2   -1    0    0    0  501 -0.00000000000E+00 -0.00000000000E+00 -0.76830698358E+02  0.76830698358E+02  0.00000000000E+00 0.  1.
         25    1    1    2    0    0  0.26037527358E+02  0.46739092568E+02  0.31312560978E+03  0.34137244046E+03  0.12500000000E+03 0.  0.
          1    1    1    2  502    0  0.22186135885E+02 -0.55487593470E+01  0.15162173318E+03  0.15333676444E+03  0.00000000000E+00 0. -1.
         -1    1    1    2    0  501 -0.48223663243E+02 -0.41190333221E+02 -0.45591964744E+02  0.78107570034E+02  0.00000000000E+00 0.  1.
<mgrwt>
<rscale>  0 0.37896935E+02</rscale>
<asrwt>0</asrwt>
<pdfrwt beam="1">  1        2 0.76305548E-01 0.22869485E+02</pdfrwt>
<pdfrwt beam="2">  1       -2 0.11820108E-01 0.62798864E+02</pdfrwt>
<totfact> 0.30152799E+03</totfact>
</mgrwt>
</event>
<event>
 5    1  0.8274494E-003  0.5095101E+03  0.7546771E-02  0.1218251E+00
          2   -1    0    0  502    0  0.00000000000E+00  0.00000000000E+00  0.18786269972E+04  0.18786269972E+04  0.00000000000E+00 0. -1.
          1   -1    0    0  501    0 -0.00000000000E+00 -0.00000000000E+00 -0.10517948092E+04  0.10517948092E+04  0.00000000000E+00 0. -1.
         25    1    1    2    0    0 -0.60125520214E+02  0.50487713006E+03  0.51615758481E+02  0.52612278146E+03  0.12500000000E+03 0.  0.
          2    1    1    2  501    0  0.96424990258E+02 -0.50089071692E+03 -0.73444123013E+03  0.89419975931E+03  0.00000000000E+00 0. -1.
          1    1    1    2  502    0 -0.36299470044E+02 -0.39864131448E+01  0.15096576596E+04  0.15100992657E+04  0.00000000000E+00 0. -1.
<mgrwt>
<rscale>  0 0.13640433E+03</rscale>
<asrwt>0</asrwt>
<pdfrwt beam="1">  1        2 0.28901954E+00 0.36517708E+02</pdfrwt>
<pdfrwt beam="2">  1        1 0.16181459E+00 0.50951008E+03</pdfrwt>
<totfact> 0.20560184E+01</totfact>
</mgrwt>
</event>
<event>
 5    1  0.8274494E-003  0.7746498E+02  0.7546771E-02  0.1445503E+00
          2   -1    0    0  502    0  0.00000000000E+00  0.00000000000E+00  0.32720130198E+02  0.32720130198E+02  0.00000000000E+00 0. -1.
          1   -1    0    0  501    0 -0.00000000000E+00 -0.00000000000E+00 -0.11475091963E+04  0.11475091963E+04  0.00000000000E+00 0. -1.
         25    1    1    2    0    0 -0.49661127247E+02  0.89814127182E-02 -0.13779233336E+03  0.19255636778E+03  0.12500000000E+03 0.  0.
          2    1    1    2  501    0  0.77653286906E+02  0.15974535097E+02 -0.90869767254E+03  0.91214948271E+03  0.00000000000E+00 0. -1.
          1    1    1    2  502    0 -0.27992159658E+02 -0.15983516510E+02 -0.68299060160E+02  0.75523475960E+02  0.00000000000E+00 0. -1.
<mgrwt>
<rscale>  0 0.49970090E+02</rscale>
<asrwt>0</asrwt>
<pdfrwt beam="1">  1        2 0.50338668E-02 0.32234047E+02</pdfrwt>
<pdfrwt beam="2">  1        1 0.17653985E+00 0.77464981E+02</pdfrwt>
<totfact> 0.23660540E+03</totfact>
</mgrwt>
</event>
<event>
 5    1  0.8274494E-003  0.9898650E+02  0.7546771E-02  0.1322817E+00
         -2   -1    0    0    0  501 -0.00000000000E+00  0.00000000000E+00  0.77087413920E+03  0.77087413920E+03  0.00000000000E+00 0.  1.
          2   -1    0    0  502    0  0.00000000000E+00 -0.00000000000E+00 -0.15785646434E+04  0.15785646434E+04  0.00000000000E+00 0. -1.
         25    1    1    2    0    0 -0.18443998955E+02 -0.13626840803E+03 -0.96025944535E+00  0.18583643944E+03  0.12500000000E+03 0.  0.
          3    1    1    2  502    0  0.57405244416E+02  0.80142428795E+02 -0.14818041862E+04  0.14850797343E+04  0.00000000000E+00 0. -1.
         -1    1    1    2    0  501 -0.38961245461E+02  0.56125979240E+02  0.67507394150E+03  0.67852260882E+03  0.00000000000E+00 0.  1.
<mgrwt>
<rscale>  0 0.82238109E+02</rscale>
<asrwt>0</asrwt>
<pdfrwt beam="2">  1        2 0.24285610E+00 0.98986498E+02</pdfrwt>
<pdfrwt beam="1">  1       -2 0.11859602E+00 0.68323526E+02</pdfrwt>
<totfact> 0.82296685E+00</totfact>
</mgrwt>
</event>
<event>
 5    1  0.8274494E-003  0.5096513E+02  0.7546771E-02  0.1471679E+00
          1   -1    0    0  501    0 -0.00000000000E+00  0.00000000000E+00  0.13117393018E+03  0.13117393018E+03  0.00000000000E+00 0. -1.
          2   -1    0    0  502    0  0.00000000000E+00 -0.00000000000E+00 -0.13339085200E+03  0.13339085200E+03  0.00000000000E+00 0. -1.
         25    1    1    2    0    0 -0.68588613444E+02 -0.30901616908E+02 -0.90049860344E+01  0.14616907195E+03  0.12500000000E+03 0.  0.
          2    1    1    2  501    0  0.48450796578E+02 -0.42309194840E+01  0.42359831160E+02  0.64496012781E+02  0.00000000000E+00 0. -1.
          1    1    1    2  502    0  0.20137816866E+02  0.35132536392E+02 -0.35571766946E+02  0.53899697449E+02  0.00000000000E+00 0. -1.
<mgrwt>
<rscale>  0 0.45429300E+02</rscale>
<asrwt>0</asrwt>
<pdfrwt beam="2">  1        2 0.20521670E-01 0.40494775E+02</pdfrwt>
<pdfrwt beam="1">  1        1 0.20180605E-01 0.50965125E+02</pdfrwt>
<totfact> 0.80786190E+03</totfact>
</mgrwt>
</event>
<event>
 5    1  0.8274494E-003  0.5669494E+02  0.7546771E-02  0.1544742E+00
          1   -1    0    0  501    0 -0.00000000000E+00  0.00000000000E+00  0.52667777555E+02  0.52667777555E+02  0.00000000000E+00 0. -1.
          2   -1    0    0  502    0  0.00000000000E+00 -0.00000000000E+00 -0.42775256157E+03  0.42775256157E+03  0.00000000000E+00 0. -1.
         25    1    1    2    0    0  0.34287165110E+02 -0.16377481815E+02 -0.16166482634E+03  0.20785655553E+03  0.12500000000E+03 0.  0.
          2    1    1    2  501    0 -0.51825253474E+02  0.29909009617E+02 -0.18787824668E+01  0.59865980134E+02  0.00000000000E+00 0. -1.
          1    1    1    2  502    0  0.17538088364E+02 -0.13531527802E+02 -0.21154117521E+03  0.21269780346E+03  0.00000000000E+00 0. -1.
<mgrwt>
<rscale>  0 0.35438330E+02</rscale>
<asrwt>0</asrwt>
<pdfrwt beam="2">  1        2 0.65808085E-01 0.22151451E+02</pdfrwt>
<pdfrwt beam="1">  1        1 0.81027352E-02 0.56694942E+02</pdfrwt>
<totfact> 0.77762961E+03</totfact>
</mgrwt>
</event>
<event>
 5    1  0.1125497E-002  0.9769947E+02  0.7546771E-02  0.1343399E+00
          1   -1    0    0  501    0 -0.00000000000E+00  0.00000000000E+00  0.13453250679E+04  0.13453250679E+04  0.00000000000E+00 0. -1.
          2   -1    0    0  502    0  0.00000000000E+00 -0.00000000000E+00 -0.11771427504E+04  0.11771427504E+04  0.00000000000E+00 0. -1.
         25    1    1    2    0    0  0.40583010740E+02 -0.15466708013E+02  0.20893265760E+03  0.24731367780E+03  0.12500000000E+03 0.  0.
          2    1    1    2  501    0  0.57310585523E+02  0.75773935970E+01  0.11143688962E+04  0.11158673564E+04  0.00000000000E+00 0. -1.
          1    1    1    2  502    0 -0.97893596263E+02  0.78893144164E+01 -0.11551192364E+04  0.11592867840E+04  0.00000000000E+00 0. -1.
<mgrwt>
<rscale>  0 0.75152793E+02</rscale>
<asrwt>0</asrwt>
<pdfrwt beam="2">  1        2 0.18109888E+00 0.97699472E+02</pdfrwt>
<pdfrwt beam="1">  1        1 0.20697309E+00 0.57809343E+02</pdfrwt>
<totfact> 0.31288973E+01</totfact>
</mgrwt>
</event>
<event>
 5    1  0.8274494E-003  0.8937726E+02  0.7546771E-02  0.1439136E+00
         -2   -1    0    0    0  501 -0.00000000000E+00  0.00000000000E+00  0.41307705901E+03  0.41307705901E+03  0.00000000000E+00 0.  1.
          2   -1    0    0  502    0  0.00000000000E+00 -0.00000000000E+00 -0.18577783336E+04  0.18577783336E+04  0.00000000000E+00 0. -1.
         25    1    1    2    0    0 -0.72103424247E+02 -0.59352340319E+02 -0.98455354914E+03  0.99684115846E+03  0.12500000000E+03 0.  0.
          1    1    1    2  502    0  0.83128107161E+02  0.32211293700E+02 -0.86425781256E+03  0.86884372370E+03  0.00000000000E+00 0. -1.
         -1    1    1    2    0  501 -0.11024682913E+02  0.27141046619E+02  0.40411008710E+03  0.40517051046E+03  0.00000000000E+00 0.  1.
<mgrwt>
<rscale>  0 0.51169139E+02</rscale>
<asrwt>0</asrwt>
<pdfrwt beam="2">  1        2 0.28581205E+00 0.89377256E+02</pdfrwt>
<pdfrwt beam="1">  1       -2 0.63550317E-01 0.29294710E+02</pdfrwt>
<totfact> 0.23767123E+01</totfact>
</mgrwt>
</event>
<event>
 5    1  0.8274494E-003  0.4709554E+02  0.7546771E-02  0.1546996E+00
          1   -1    0    0  502    0  0.00000000000E+00  0.00000000000E+00  0.82262552868E+03  0.82262552868E+03  0.00000000000E+00 0. -1.
         -1   -1    0    0    0  501 -0.00000000000E+00 -0.00000000000E+00 -0.52548051350E+02  0.52548051350E+02  0.00000000000E+00 0.  1.
         25    1    1    2    0    0 -0.50938882303E+02 -0.24584816180E+02  0.10304246316E+03  0.17158651500E+03  0.12500000000E+03 0.  0.
          2    1    1    2  502    0  0.46996934861E+02 -0.13991214753E+01  0.67460171309E+03  0.67623822780E+03  0.00000000000E+00 0. -1.
         -2    1    1    2    0  501  0.39419474417E+01  0.25983937655E+02 -0.75666989149E+01  0.27348837236E+02  0.00000000000E+00 0.  1.
<mgrwt>
<rscale>  0 0.35181379E+02</rscale>
<asrwt>0</asrwt>
<pdfrwt beam="1">  1        1 0.12655776E+00 0.47095536E+02</pdfrwt>
<pdfrwt beam="2">  1       -1 0.80843162E-02 0.26281247E+02</pdfrwt>
<totfact> 0.16948226E+03</totfact>
</mgrwt>
</event>
<event>
 5    1  0.8274494E-003  0.5924058E+02  0.7546771E-02  0.1532892E+00
         -2   -1    0    0    0  501 -0.00000000000E+00  0.00000000000E+00  0.81475150490E+02  0.81475150490E+02  0.00000000000E+00 0.  1.
          2   -1    0    0  502    0  0.00000000000E+00 -0.00000000000E+00 -0.12287633473E+04  0.12287633473E+04  0.00000000000E+00 0. -1.
         25    1    1    2    0    0  0.65915822775E+01  0.76295074727E+02 -0.28566362795E+03  0.32108113573E+03  0.12500000000E+03 0.  0.
          1    1    1    2  502    0  0.71553701009E+01 -0.57977415104E+02 -0.92238032213E+03  0.92422834767E+03  0.00000000000E+00 0. -1.
         -1    1    1    2    0  501 -0.13746952378E+02 -0.18317659623E+02  0.60755753275E+02  0.64929014391E+02  0.00000000000E+00 0.  1.
<mgrwt>
<rscale>  0 0.36834026E+02</rscale>
<asrwt>0</asrwt>
<pdfrwt beam="2">  1        2 0.18904052E+00 0.59240575E+02</pdfrwt>
<pdfrwt beam="1">  1       -2 0.12534638E-01 0.22902300E+02</pdfrwt>
<totfact> 0.83603049E+02</totfact>
</mgrwt>
</event>
<event>
 5    1  0.8274494E-003  0.1416340E+03  0.7546771E-02  0.1250148E+00
          1   -1    0    0  502    0  0.00000000000E+00  0.00000000000E+00  0.86370017983E+03  0.86370017983E+03  0.00000000000E+00 0. -1.
         -1   -1    0    0    0  501 -0.00000000000E+00 -0.00000000000E+00 -0.10910982838E+03  0.10910982838E+03  0.00000000000E+00 0.  1.
         25    1    1    2    0    0 -0.47891629454E+02 -0.49597645877E+02  0.12154078454E+03  0.18748519130E+03  0.12500000000E+03 0.  0.
          2    1    1    2  502    0  0.12004618411E+03  0.11095981649E+03  0.66543691142E+03  0.68522219045E+03  0.00000000000E+00 0. -1.
         -2    1    1    2    0  501 -0.72154554656E+02 -0.61362170616E+02 -0.32387344523E+02  0.10010262647E+03  0.00000000000E+00 0.  1.
<mgrwt>
<rscale>  0 0.11582470E+03</rscale>
<asrwt>0</asrwt>
<pdfrwt beam="1">  1        1 0.13287695E+00 0.14163400E+03</pdfrwt>
<pdfrwt beam="2">  1       -1 0.16786128E-01 0.94718508E+02</pdfrwt>
<totfact> 0.54710994E+02</totfact>
</mgrwt>
</event>
<event>
 5    1  0.8274494E-003  0.2551742E+03  0.7546771E-02  0.1290233E+00
          2   -1    0    0  502    0  0.00000000000E+00  0.00000000000E+00  0.14412871937E+04  0.14412871937E+04  0.00000000000E+00 0. -1.
          1   -1    0    0  501    0 -0.00000000000E+00 -0.00000000000E+00 -0.34611079272E+03  0.34611079272E+03  0.00000000000E+00 0. -1.
         25    1    1    2    0    0  0.25980819672E+03  0.76662595583E+02  0.61704913854E+03  0.68538463071E+03  0.12500000000E+03 0.  0.
          2    1    1    2  501    0 -0.31433842472E+02  0.16884519313E+02 -0.29155652617E+03  0.29373181884E+03  0.00000000000E+00 0. -1.
          1    1    1    2  502    0 -0.22837435425E+03 -0.93547114896E+02  0.76968378858E+03  0.80828153683E+03  0.00000000000E+00 0. -1.
<mgrwt>
<rscale>  0 0.95420184E+02</rscale>
<asrwt>0</asrwt>
<pdfrwt beam="1">  1        2 0.22173649E+00 0.25517417E+03</pdfrwt>
<pdfrwt beam="2">  1        1 0.53247815E-01 0.35681556E+02</pdfrwt>
<totfact> 0.14917791E+02</totfact>
</mgrwt>
</event>
<event>
 5    1  0.8274494E-003  0.1283314E+03  0.7546771E-02  0.1266295E+00
          1   -1    0    0  502    0  0.00000000000E+00  0.00000000000E+00  0.26631240759E+04  0.26631240759E+04  0.00000000000E+00 0. -1.
         -1   -1    0    0    0  501 -0.00000000000E+00 -0.00000000000E+00 -0.87187406432E+03  0.87187406432E+03  0.00000000000E+00 0.  1.
         25    1    1    2    0    0  0.53468361392E+02  0.19875105034E+03  0.46565857528E+03  0.52423635357E+03  0.12500000000E+03 0.  0.
          2    1    1    2  502    0 -0.51708870882E+01 -0.12380984269E+03  0.21640406747E+04  0.21675856746E+04  0.00000000000E+00 0. -1.
         -2    1    1    2    0  501 -0.48297474304E+02 -0.74941207645E+02 -0.83844923834E+03  0.84317611203E+03  0.00000000000E+00 0.  1.
<mgrwt>
<rscale>  0 0.10696513E+03</rscale>
<asrwt>0</asrwt>
<pdfrwt beam="1">  1        1 0.40971139E+00 0.12833137E+03</pdfrwt>
<pdfrwt beam="2">  1       -1 0.13413447E+00 0.89156215E+02</pdfrwt>
<totfact> 0.75280615E-01</totfact>
</mgrwt>
</event>
<event>
 5    1  0.8274494E-003  0.4770843E+02  0.7546771E-02  0.1503650E+00
          2   -1    0    0  502    0  0.00000000000E+00  0.00000000000E+00  0.99189283100E+02  0.99189283100E+02  0.00000000000E+00 0. -1.
          1   -1    0    0  501    0 -0.00000000000E+00 -0.00000000000E+00 -0.14096550561E+04  0.14096550561E+04  0.00000000000E+00 0. -1.
         25    1    1    2    0    0  0.14483124099E+02 -0.22952960154E+02 -0.18902104262E+03  0.22823355103E+03  0.12500000000E+03 0.  0.
          2    1    1    2  501    0  0.32764698428E+02  0.11107158878E+02 -0.11933000323E+04  0.11938014330E+04  0.00000000000E+00 0. -1.
          1    1    1    2  502    0 -0.47247822527E+02  0.11845801276E+02  0.71855301864E+02  0.86809355184E+02  0.00000000000E+00 0. -1.
<mgrwt>
<rscale>  0 0.40626697E+02</rscale>
<asrwt>0</asrwt>
<pdfrwt beam="1">  1        2 0.15259889E-01 0.47708427E+02</pdfrwt>
<pdfrwt beam="2">  1        1 0.21687001E+00 0.34596162E+02</pdfrwt>
<totfact> 0.47599181E+02</totfact>
</mgrwt>
</event>
<event>
 5    1  0.8274494E-003  0.5248140E+02  0.7546771E-02  0.1461741E+00
          1   -1    0    0  501    0 -0.00000000000E+00  0.00000000000E+00  0.23518036619E+04  0.23518036619E+04  0.00000000000E+00 0. -1.
          2   -1    0    0  502    0  0.00000000000E+00 -0.00000000000E+00 -0.29147629238E+03  0.29147629238E+03  0.00000000000E+00 0. -1.
         25    1    1    2    0    0 -0.22640069607E+02 -0.75427995133E+02 -0.23019492502E+02  0.14952207943E+03  0.12500000000E+03 0.  0.
          2    1    1    2  501    0 -0.14565527192E+02  0.39649282729E+02  0.22851081128E+04  0.22854984812E+04  0.00000000000E+00 0. -1.
          1    1    1    2  502    0  0.37205596799E+02  0.35778712404E+02 -0.20176125084E+03  0.20825939363E+03  0.00000000000E+00 0. -1.
<mgrwt>
<rscale>  0 0.47083076E+02</rscale>
<asrwt>0</asrwt>
<pdfrwt beam="2">  1        2 0.44842508E-01 0.52481401E+02</pdfrwt>
<pdfrwt beam="1">  1        1 0.36181594E+00 0.42240031E+02</pdfrwt>
<totfact> 0.39369554E+01</totfact>
</mgrwt>
</event>
<event>
 5    1  0.8274494E-003  0.4030976E+02  0.7546771E-02  0.1614467E+00
          1   -1    0    0  501    0 -0.00000000000E+00  0.00000000000E+00  0.13716725282E+04  0.13716725282E+04  0.00000000000E+00 0. -1.
          2   -1    0    0  502    0  0.00000000000E+00 -0.00000000000E+00 -0.20998238221E+03  0.20998238221E+03  0.00000000000E+00 0. -1.
         25    1    1    2    0    0  0.59781160046E+02 -0.65638932683E+01  0.10663643495E+03  0.17496628547E+03  0.12500000000E+03 0.  0.
          2    1    1    2  501    0 -0.20239296577E+02  0.59309647323E+00  0.12285127011E+04  0.12286795504E+04  0.00000000000E+00 0. -1.
          1    1    1    2  502    0 -0.39541863469E+02  0.59707967951E+01 -0.17345899006E+03  0.17800907452E+03  0.00000000000E+00 0. -1.
<mgrwt>
<rscale>  0 0.28569063E+02</rscale>
<asrwt>0</asrwt>
<pdfrwt beam="2">  1        2 0.32304983E-01 0.40309758E+02</pdfrwt>
<pdfrwt beam="1">  1        1 0.21102654E+00 0.20247985E+02</pdfrwt>
<totfact> 0.23506410E+02</totfact>
</mgrwt>
</event>
<event>
 5    1  0.8274494E-003  0.1133175E+03  0.7546771E-02  0.1294521E+00
          2   -1    0    0  502    0  0.00000000000E+00  0.00000000000E+00  0.11131688331E+04  0.11131688331E+04  0.00000000000E+00 0. -1.
         -2   -1    0    0    0  501 -0.00000000000E+00 -0.00000000000E+00 -0.33419551225E+03  0.33419551225E+03  0.00000000000E+00 0.  1.
         25    1    1    2    0    0  0.60018212929E+02  0.10848186443E+02  0.15281061798E+03  0.20662999298E+03  0.12500000000E+03 0.  0.
          1    1    1    2  502    0 -0.11416667644E+03  0.44174769140E+02  0.92450075506E+03  0.93257015090E+03  0.00000000000E+00 0. -1.
         -1    1    1    2    0  501  0.54148463513E+02 -0.55022955583E+02 -0.29833805214E+03  0.30816420152E+03  0.00000000000E+00 0.  1.
<mgrwt>
<rscale>  0 0.93530306E+02</rscale>
<asrwt>0</asrwt>
<pdfrwt beam="1">  1        2 0.17125674E+00 0.11331746E+03</pdfrwt>
<pdfrwt beam="2">  1       -2 0.51414695E-01 0.77198327E+02</pdfrwt>
<totfact> 0.86993437E+01</totfact>
</mgrwt>
</event>
<event>
 5    1  0.8274494E-003  0.5183827E+02  0.7546771E-02  0.1460703E+00
         -2   -1    0    0    0  501 -0.00000000000E+00  0.00000000000E+00  0.53973994296E+02  0.53973994296E+02  0.00000000000E+00 0.  1.
          2   -1    0    0  502    0  0.00000000000E+00 -0.00000000000E+00 -0.43248288324E+03  0.43248288324E+03  0.00000000000E+00 0. -1.
         25    1    1    2    0    0 -0.66869505596E+02  0.40616679735E+02 -0.21349034137E+03  0.25946940342E+03  0.12500000000E+03 0.  0.
          1    1    1    2  502    0  0.23849882619E+02 -0.43031736469E+02 -0.17581417602E+03  0.18256826596E+03  0.00000000000E+00 0. -1.
         -1    1    1    2    0  501  0.43019622977E+02  0.24150567344E+01  0.10795628448E+02  0.44419208162E+02  0.00000000000E+00 0.  1.
<mgrwt>
<rscale>  0 0.47260703E+02</rscale>
<asrwt>0</asrwt>
<pdfrwt beam="2">  1        2 0.66535828E-01 0.51838268E+02</pdfrwt>
<pdfrwt beam="1">  1       -2 0.83036915E-02 0.43087358E+02</pdfrwt>
<totfact> 0.57461258E+03</totfact>
</mgrwt>
</event>
<event>
 5    1  0.8274494E-003  0.1073073E+03  0.7546771E-02  0.1294399E+00
          2   -1    0    0  502    0  0.00000000000E+00  0.00000000000E+00  0.39738214875E+03  0.39738214875E+03  0.00000000000E+00 0. -1.
          1   -1    0    0  501    0 -0.00000000000E+00 -0.00000000000E+00 -0.23580587917E+03  0.23580587917E+03  0.00000000000E+00 0. -1.
         25    1    1    2    0    0  0.95876434387E+02  0.38947690306E+01 -0.32654400421E+02  0.16093094719E+03  0.12500000000E+03 0.  0.
          2    1    1    2  501    0 -0.15102918046E+02 -0.80204901559E+02 -0.11650680459E+03  0.14224893632E+03  0.00000000000E+00 0. -1.
          1    1    1    2  502    0 -0.80773516341E+02  0.76310132528E+02  0.31073747459E+03  0.33000814442E+03  0.00000000000E+00 0. -1.
<mgrwt>
<rscale>  0 0.93583296E+02</rscale>
<asrwt>0</asrwt>
<pdfrwt beam="1">  1        2 0.61135715E-01 0.10730734E+03</pdfrwt>
<pdfrwt beam="2">  1        1 0.36277827E-01 0.81614486E+02</pdfrwt>
<totfact> 0.12923185E+03</totfact>
</mgrwt>
</event>
<event>
 5    1  0.8274494E-003  0.6870599E+02  0.7546771E-02  0.1418690E+00
          2   -1    0    0  502    0  0.00000000000E+00  0.00000000000E+00  0.52049340008E+03  0.52049340008E+03  0.00000000000E+00 0. -1.
          1   -1    0    0  501    0 -0.00000000000E+00 -0.00000000000E+00 -0.68582798290E+03  0.68582798290E+03  0.00000000000E+00 0. -1.
         25    1    1    2    0    0  0.21516578959E+02 -0.20274068337E+02 -0.34486033678E+03  0.36800496315E+03  0.12500000000E+03 0.  0.
          2    1    1    2  501    0  0.44507497235E+02  0.28448956242E+00 -0.32553639472E+03  0.32856497459E+03  0.00000000000E+00 0. -1.
          1    1    1    2  502    0 -0.66024076193E+02  0.19989578775E+02  0.50506214868E+03  0.50975144524E+03  0.00000000000E+00 0. -1.
<mgrwt>
<rscale>  0 0.55299133E+02</rscale>
<asrwt>0</asrwt>
<pdfrwt beam="1">  1        2 0.80075907E-01 0.68705991E+02</pdfrwt>
<pdfrwt beam="2">  1        1 0.10551200E+00 0.44508406E+02</pdfrwt>
<totfact> 0.25996761E+02</totfact>
</mgrwt>
</event>
<event>
 5    1  0.8274494E-003  0.9718222E+02  0.7546771E-02  0.1365612E+00
          2   -1    0    0  502    0  0.00000000000E+00  0.00000000000E+00  0.61138816665E+03  0.61138816665E+03  0.00000000000E+00 0. -1.
          1   -1    0    0  501    0 -0.00000000000E+00 -0.00000000000E+00 -0.26065355779E+03  0.26065355779E+03  0.00000000000E+00 0. -1.
         25    1    1    2    0    0 -0.54260387124E+02 -0.28381034041E+02  0.16496719141E+02  0.14016709473E+03  0.12500000000E+03 0.  0.
          2    1    1    2  501    0  0.74929526449E+02  0.71863847462E+02 -0.18407261254E+03  0.21133284930E+03  0.00000000000E+00 0. -1.
          1    1    1    2  502    0 -0.20669139325E+02 -0.43482813421E+02  0.51831050226E+03  0.52054178040E+03  0.00000000000E+00 0. -1.
<mgrwt>
<rscale>  0 0.68402233E+02</rscale>
<asrwt>0</asrwt>
<pdfrwt beam="1">  1        2 0.94059718E-01 0.48145284E+02</pdfrwt>
<pdfrwt beam="2">  1        1 0.40100548E-01 0.97182217E+02</pdfrwt>
<totfact> 0.72978820E+02</totfact>
</mgrwt>
</event>
<event>
 5    1  0.8274494E-003  0.7307815E+02  0.7546771E-02  0.1373813E+00
          2   -1    0    0  502    0  0.00000000000E+00  0.00000000000E+00  0.82624313511E+03  0.82624313511E+03  0.00000000000E+00 0. -1.
         -2   -1    0    0    0  501 -0.00000000000E+00 -0.00000000000E+00 -0.26947878876E+03  0.26947878876E+03  0.00000000000E+00 0.  1.
         25    1    1    2    0    0 -0.58082979343E+02 -0.33602314651E+02 -0.12138259092E+03  0.18671229584E+03  0.12500000000E+03 0.  0.
          1    1    1    2  502    0 -0.21660647041E+02  0.55762597538E+02  0.77744410853E+03  0.77974226050E+03  0.00000000000E+00 0. -1.
         -1    1    1    2    0  501  0.79743626384E+02 -0.22160282887E+02 -0.99297171267E+02  0.12926736753E+03  0.00000000000E+00 0.  1.
<mgrwt>
<rscale>  0 0.66118595E+02</rscale>
<asrwt>0</asrwt>
<pdfrwt beam="1">  1        2 0.12711433E+00 0.59821826E+02</pdfrwt>
<pdfrwt beam="2">  1       -2 0.41458275E-01 0.73078153E+02</pdfrwt>
<totfact> 0.20111826E+02</totfact>
</mgrwt>
</event>
<event>
 5    1  0.8274494E-003  0.2524278E+03  0.7546771E-02  0.1281180E+00
          1   -1    0    0  501    0 -0.00000000000E+00  0.00000000000E+00  0.32664542119E+04  0.32664542119E+04  0.00000000000E+00 0. -1.
          2   -1    0    0  502    0  0.00000000000E+00 -0.00000000000E+00 -0.12063263447E+04  0.12063263447E+04  0.00000000000E+00 0. -1.
         25    1    1    2    0    0 -0.21886223963E+03  0.37821254441E+02  0.10942967096E+04  0.11235841828E+04  0.12500000000E+03 0.  0.
          2    1    1    2  501    0 -0.33368076910E+02 -0.20731085776E+02  0.21439238289E+04  0.21442837011E+04  0.00000000000E+00 0. -1.
          1    1    1    2  502    0  0.25223031654E+03 -0.17090168665E+02 -0.11780926714E+04  0.12049126727E+04  0.00000000000E+00 0. -1.
<mgrwt>
<rscale>  0 0.99580559E+02</rscale>
<asrwt>0</asrwt>
<pdfrwt beam="2">  1        2 0.18558867E+00 0.25242776E+03</pdfrwt>
<pdfrwt beam="1">  1        1 0.50253141E+00 0.39283667E+02</pdfrwt>
<totfact> 0.18352224E+00</totfact>
</mgrwt>
</event>
<event>
 5    1  0.9441352E-003  0.8977092E+02  0.7546771E-02  0.1347959E+00
          2   -1    0    0  502    0  0.00000000000E+00  0.00000000000E+00  0.90128251030E+03  0.90128251030E+03  0.00000000000E+00 0. -1.
          1   -1    0    0  501    0 -0.00000000000E+00 -0.00000000000E+00 -0.84178958579E+03  0.84178958579E+03  0.00000000000E+00 0. -1.
         25    1    1    2    0    0 -0.66042965040E+02  0.72322861770E+02 -0.24999013146E+03  0.29616268400E+03  0.12500000000E+03 0.  0.
          2    1    1    2  501    0 -0.22370261133E+02 -0.56210760294E+02 -0.56479429566E+03  0.56802524114E+03  0.00000000000E+00 0. -1.
          1    1    1    2  502    0  0.88413226173E+02 -0.16112101477E+02  0.87427735164E+03  0.87888417096E+03  0.00000000000E+00 0. -1.
<mgrwt>
<rscale>  0 0.73695409E+02</rscale>
<asrwt>0</asrwt>
<pdfrwt beam="1">  1        2 0.13865885E+00 0.89770922E+02</pdfrwt>
<pdfrwt beam="2">  1        1 0.12950609E+00 0.60498580E+02</pdfrwt>
<totfact> 0.10055851E+02</totfact>
</mgrwt>
</event>
<event>
 5    1  0.8274494E-003  0.2433453E+03  0.7546771E-02  0.1242615E+00
          2   -1    0    0  502    0  0.00000000000E+00  0.00000000000E+00  0.13652665629E+04  0.13652665629E+04  0.00000000000E+00 0. -1.
          1   -1    0    0  501    0 -0.00000000000E+00 -0.00000000000E+00 -0.77728563070E+03  0.77728563070E+03  0.00000000000E+00 0. -1.
         25    1    1    2    0    0  0.17075833380E+03  0.11392818939E+03 -0.18103761284E+03  0.30089476260E+03  0.12500000000E+03 0.  0.
          2    1    1    2  501    0 -0.21395128862E+03 -0.15479851129E+03 -0.50307519567E+03  0.56817460829E+03  0.00000000000E+00 0. -1.
          1    1    1    2  502    0  0.43192954821E+02  0.40870321904E+02  0.12720937407E+04  0.12734828227E+04  0.00000000000E+00 0. -1.
<mgrwt>
<rscale>  0 0.12029289E+03</rscale>
<asrwt>0</asrwt>
<pdfrwt beam="1">  1        2 0.21004101E+00 0.59464397E+02</pdfrwt>
<pdfrwt beam="2">  1        1 0.11958240E+00 0.24334525E+03</pdfrwt>
<totfact> 0.60060252E+01</totfact>
</mgrwt>
</event>
<event>
 5    1  0.8274494E-003  0.7285564E+02  0.7546771E-02  0.1400622E+00
          1   -1    0    0  501    0 -0.00000000000E+00  0.00000000000E+00  0.66577512227E+03  0.66577512227E+03  0.00000000000E+00 0. -1.
          2   -1    0    0  502    0  0.00000000000E+00 -0.00000000000E+00 -0.18182197895E+04  0.18182197895E+04  0.00000000000E+00 0. -1.
         25    1    1    2    0    0  0.27801994947E+02  0.13001257463E+02 -0.53279759223E+02  0.13930440180E+03  0.12500000000E+03 0.  0.
          2    1    1    2  501    0  0.45851711198E+02 -0.15283941685E+02  0.62103506148E+03  0.62291293603E+03  0.00000000000E+00 0. -1.
          1    1    1    2  502    0 -0.73653706145E+02  0.22826842217E+01 -0.17201999695E+04  0.17217775739E+04  0.00000000000E+00 0. -1.
<mgrwt>
<rscale>  0 0.59340169E+02</rscale>
<asrwt>0</asrwt>
<pdfrwt beam="2">  1        2 0.27972612E+00 0.72855637E+02</pdfrwt>
<pdfrwt beam="1">  1        1 0.10242694E+00 0.48331959E+02</pdfrwt>
<totfact> 0.46819717E+01</totfact>
</mgrwt>
</event>
<event>
 5    1  0.8274494E-003  0.5019577E+02  0.7546771E-02  0.1455097E+00
          1   -1    0    0  501    0 -0.00000000000E+00  0.00000000000E+00  0.17512373736E+03  0.17512373736E+03  0.00000000000E+00 0. -1.
          2   -1    0    0  502    0  0.00000000000E+00 -0.00000000000E+00 -0.12467450254E+04  0.12467450254E+04  0.00000000000E+00 0. -1.
         25    1    1    2    0    0 -0.42716306292E+02  0.55320847881E+02 -0.45284756499E+03  0.47495367790E+03  0.12500000000E+03 0.  0.
          2    1    1    2  501    0 -0.63248447795E+01 -0.45918683908E+02  0.15998122668E+03  0.16656086600E+03  0.00000000000E+00 0. -1.
          1    1    1    2  502    0  0.49041151071E+02 -0.94021639728E+01 -0.77875494969E+03  0.78035421884E+03  0.00000000000E+00 0. -1.
<mgrwt>
<rscale>  0 0.48235734E+02</rscale>
<asrwt>0</asrwt>
<pdfrwt beam="2">  1        2 0.19180692E+00 0.50195774E+02</pdfrwt>
<pdfrwt beam="1">  1        1 0.26942114E-01 0.46352230E+02</pdfrwt>
<totfact> 0.47846090E+02</totfact>
</mgrwt>
</event>
<event>
 5    1  0.8274494E-003  0.3181171E+02  0.7546771E-02  0.1596297E+00
          1   -1    0    0  501    0 -0.00000000000E+00  0.00000000000E+00  0.17505368848E+04  0.17505368848E+04  0.00000000000E+00 0. -1.
          2   -1    0    0  502    0  0.00000000000E+00 -0.00000000000E+00 -0.15441446726E+03  0.15441446726E+03  0.00000000000E+00 0. -1.
         25    1    1    2    0    0  0.11282799079E+01  0.29947320271E+02 -0.28431676777E+01  0.12857370886E+03  0.12500000000E+03 0.  0.
          2    1    1    2  501    0 -0.26760490205E+02 -0.17262391151E+02  0.16852121334E+04  0.16855129927E+04  0.00000000000E+00 0. -1.
          1    1    1    2  502    0  0.25632210297E+02 -0.12684929120E+02 -0.86246548201E+02  0.90864650487E+02  0.00000000000E+00 0. -1.
<mgrwt>
<rscale>  0 0.30162749E+02</rscale>
<asrwt>0</asrwt>
<pdfrwt beam="2">  1        2 0.23756073E-01 0.28599259E+02</pdfrwt>
<pdfrwt beam="1">  1        1 0.26931335E+00 0.31811713E+02</pdfrwt>
<totfact> 0.17952891E+02</totfact>
</mgrwt>
</event>
<event>
 5    1  0.8274494E-003  0.2364317E+03  0.7546771E-02  0.1153690E+00
          1   -1    0    0  501    0 -0.00000000000E+00  0.00000000000E+00  0.16222181444E+04  0.16222181444E+04  0.00000000000E+00 0. -1.
          2   -1    0    0  502    0  0.00000000000E+00 -0.00000000000E+00 -0.65401336776E+03  0.65401336776E+03  0.00000000000E+00 0. -1.
         25    1    1    2    0    0  0.19055405855E+03  0.26344602636E+03  0.72544023391E+03  0.80473796419E+03  0.12500000000E+03 0.  0.
          2    1    1    2  501    0  0.20411571023E+02 -0.16017250059E+03  0.82657743632E+03  0.84220076016E+03  0.00000000000E+00 0. -1.
          1    1    1    2  502    0 -0.21096562957E+03 -0.10327352577E+03 -0.58381289362E+03  0.62929278777E+03  0.00000000000E+00 0. -1.
<mgrwt>
<rscale>  0 0.19538711E+03</rscale>
<asrwt>0</asrwt>
<pdfrwt beam="2">  1        2 0.10061744E+00 0.23643174E+03</pdfrwt>
<pdfrwt beam="1">  1        1 0.24957202E+00 0.16146784E+03</pdfrwt>
<totfact> 0.39251210E+01</totfact>
</mgrwt>
</event>
<event>
 5    1  0.8274494E-003  0.4348181E+02  0.7546771E-02  0.1595233E+00
          2   -1    0    0  502    0  0.00000000000E+00  0.00000000000E+00  0.12044267301E+04  0.12044267301E+04  0.00000000000E+00 0. -1.
         -2   -1    0    0    0  501 -0.00000000000E+00 -0.00000000000E+00 -0.31077669023E+02  0.31077669023E+02  0.00000000000E+00 0.  1.
         25    1    1    2    0    0  0.50431736854E+02 -0.19861178491E+02  0.59377001421E+03  0.60920083410E+03  0.12500000000E+03 0.  0.
          1    1    1    2  502    0 -0.71890327707E+01  0.19793455752E+02  0.58257656042E+03  0.58295704115E+03  0.00000000000E+00 0. -1.
         -1    1    1    2    0  501 -0.43242704083E+02  0.67722738494E-01 -0.29975135643E+01  0.43346523856E+02  0.00000000000E+00 0.  1.
<mgrwt>
<rscale>  0 0.30259946E+02</rscale>
<asrwt>0</asrwt>
<pdfrwt beam="1">  1        2 0.18529638E+00 0.21058563E+02</pdfrwt>
<pdfrwt beam="2">  1       -2 0.47811808E-02 0.43481805E+02</pdfrwt>
<totfact> 0.41268391E+03</totfact>
</mgrwt>
</event>
<event>
 5    1  0.8274494E-003  0.8810726E+02  0.7546771E-02  0.1452719E+00
          1   -1    0    0  501    0 -0.00000000000E+00  0.00000000000E+00  0.12175740279E+04  0.12175740279E+04  0.00000000000E+00 0. -1.
          2   -1    0    0  502    0  0.00000000000E+00 -0.00000000000E+00 -0.99615418135E+02  0.99615418135E+02  0.00000000000E+00 0. -1.
         25    1    1    2    0    0  0.56444084739E+02 -0.26044255970E+02  0.39257442850E+02  0.14501856705E+03  0.12500000000E+03 0.  0.
          2    1    1    2  501    0 -0.79859750601E+02  0.39226768202E+02  0.11196570459E+04  0.11231866361E+04  0.00000000000E+00 0. -1.
          1    1    1    2  502    0  0.23415665862E+02 -0.13182512232E+02 -0.40955878926E+02  0.48984242927E+02  0.00000000000E+00 0. -1.
<mgrwt>
<rscale>  0 0.48657633E+02</rscale>
<asrwt>0</asrwt>
<pdfrwt beam="2">  1        2 0.15325450E-01 0.26871398E+02</pdfrwt>
<pdfrwt beam="1">  1        1 0.18731907E+00 0.88107258E+02</pdfrwt>
<totfact> 0.55761094E+02</totfact>
</mgrwt>
</event>
<event>
 5    1  0.8274494E-003  0.7071818E+02  0.7546771E-02  0.1462583E+00
          2   -1    0    0  502    0  0.00000000000E+00  0.00000000000E+00  0.59510500199E+02  0.59510500199E+02  0.00000000000E+00 0. -1.
          1   -1    0    0  501    0 -0.00000000000E+00 -0.00000000000E+00 -0.46519421841E+03  0.46519421841E+03  0.00000000000E+00 0. -1.
         25    1    1    2    0    0  0.34843775534E+02  0.69155127502E+02 -0.11592216078E+03  0.18724173603E+03  0.12500000000E+03 0.  0.
          2    1    1    2  501    0 -0.54461079176E+02 -0.44949680215E+02 -0.29716403880E+03  0.30543894456E+03  0.00000000000E+00 0. -1.
          1    1    1    2  502    0  0.19617303642E+02 -0.24205447286E+02  0.74024813689E+01  0.32024038017E+02  0.00000000000E+00 0. -1.
<mgrwt>
<rscale>  0 0.46939830E+02</rscale>
<asrwt>0</asrwt>
<pdfrwt beam="1">  1        2 0.91554617E-02 0.31156737E+02</pdfrwt>
<pdfrwt beam="2">  1        1 0.71568340E-01 0.70718175E+02</pdfrwt>
<totfact> 0.42564675E+03</totfact>
</mgrwt>
</event>
<event>
 5    1  0.8274494E-003  0.6787551E+02  0.7546771E-02  0.1455870E+00
          2   -1    0    0  502    0  0.00000000000E+00  0.00000000000E+00  0.13984696424E+02  0.13984696424E+02  0.00000000000E+00 0. -1.
          1   -1    0    0  501    0 -0.00000000000E+00 -0.00000000000E+00 -0.14902623513E+04  0.14902623513E+04  0.00000000000E+00 0. -1.
         25    1    1    2    0    0 -0.33557725525E+02 -0.44524591106E+02 -0.54640842394E+03  0.56329009036E+03  0.12500000000E+03 0.  0.
          2    1    1    2  501    0  0.11032984538E+02  0.70107009573E+02 -0.86288910612E+03  0.86580270790E+03  0.00000000000E+00 0. -1.
          1    1    1    2  502    0  0.22524740987E+02 -0.25582418467E+02 -0.66980124799E+02  0.75154249442E+02  0.00000000000E+00 0. -1.
<mgrwt>
<rscale>  0 0.48099619E+02</rscale>
<asrwt>0</asrwt>
<pdfrwt beam="1">  1        2 0.21514927E-02 0.34085541E+02</pdfrwt>
<pdfrwt beam="2">  1        1 0.22927103E+00 0.67875508E+02</pdfrwt>
<totfact> 0.42600198E+03</totfact>
</mgrwt>
</event>
<event>
 5    1  0.8274494E-003  0.1023030E+03  0.7546771E-02  0.1323943E+00
          1   -1    0    0  502    0  0.00000000000E+00  0.00000000000E+00  0.51996792693E+02  0.51996792693E+02  0.00000000000E+00 0. -1.
         -1   -1    0    0    0  501 -0.00000000000E+00 -0.00000000000E+00 -0.77022392153E+03  0.77022392153E+03  0.00000000000E+00 0.  1.
         25    1    1    2    0    0 -0.29093861718E+02 -0.45601503402E+02 -0.38010157081E+03  0.40376745044E+03  0.12500000000E+03 0.  0.
          2    1    1    2  502    0  0.25622055607E+02  0.11095990354E+03 -0.52453281391E+02  0.12537917154E+03  0.00000000000E+00 0. -1.
         -2    1    1    2    0  501  0.34718061111E+01 -0.65358400140E+02 -0.28567227663E+03  0.29307409224E+03  0.00000000000E+00 0.  1.
<mgrwt>
<rscale>  0 0.81827794E+02</rscale>
<asrwt>0</asrwt>
<pdfrwt beam="1">  1        1 0.79995067E-02 0.10230301E+03</pdfrwt>
<pdfrwt beam="2">  1       -1 0.11849599E+00 0.65450546E+02</pdfrwt>
<totfact> 0.59987676E+02</totfact>
</mgrwt>
</event>
<event>
 5    1  0.8274494E-003  0.1286474E+03  0.7546771E-02  0.1263213E+00
          2   -1    0    0  502    0  0.00000000000E+00  0.00000000000E+00  0.36275803612E+04  0.36275803612E+04  0.00000000000E+00 0. -1.
          1   -1    0    0  501    0 -0.00000000000E+00 -0.00000000000E+00 -0.12560587621E+03  0.12560587621E+03  0.00000000000E+00 0. -1.
         25    1    1    2    0    0  0.84359079659E+02  0.19180220258E+03  0.49344901668E+03  0.55047386068E+03  0.12500000000E+03 0.  0.
          2    1    1    2  501    0 -0.27886618391E+02 -0.11961613847E+03 -0.57289517299E+02  0.13552775679E+03  0.00000000000E+00 0. -1.
          1    1    1    2  502    0 -0.56472461268E+02 -0.72186064104E+02  0.30658149856E+04  0.30671846200E+04  0.00000000000E+00 0. -1.
<mgrwt>
<rscale>  0 0.10858500E+03</rscale>
<asrwt>0</asrwt>
<pdfrwt beam="1">  1        2 0.55808921E+00 0.91651332E+02</pdfrwt>
<pdfrwt beam="2">  1        1 0.19323984E-01 0.12864736E+03</pdfrwt>
<totfact> 0.36166255E+01</totfact>
</mgrwt>
</event>
<event>
 5    1  0.8274494E-003  0.1515324E+03  0.7546771E-02  0.1296264E+00
          1   -1    0    0  501    0 -0.00000000000E+00  0.00000000000E+00  0.14763162043E+03  0.14763162043E+03  0.00000000000E+00 0. -1.
          2   -1    0    0  502    0  0.00000000000E+00 -0.00000000000E+00 -0.72599566356E+03  0.72599566356E+03  0.00000000000E+00 0. -1.
         25    1    1    2    0    0  0.89421763722E+00  0.16116156577E+03 -0.11949262697E+03  0.23638387806E+03  0.12500000000E+03 0.  0.
          2    1    1    2  501    0  0.53236754367E+02 -0.19809457403E+02  0.68264551498E+02  0.88806619175E+02  0.00000000000E+00 0. -1.
          1    1    1    2  502    0 -0.54130972004E+02 -0.14135210837E+03 -0.52713596765E+03  0.54843678675E+03  0.00000000000E+00 0. -1.
<mgrwt>
<rscale>  0 0.92776486E+02</rscale>
<asrwt>0</asrwt>
<pdfrwt beam="2">  1        2 0.11169164E+00 0.15153241E+03</pdfrwt>
<pdfrwt beam="1">  1        1 0.22712557E-01 0.56802875E+02</pdfrwt>
<totfact> 0.11500795E+03</totfact>
</mgrwt>
</event>
<event>
 5    1  0.8274494E-003  0.5967619E+02  0.7546771E-02  0.1464025E+00
          1   -1    0    0  502    0  0.00000000000E+00  0.00000000000E+00  0.44935771282E+03  0.44935771282E+03  0.00000000000E+00 0. -1.
         -1   -1    0    0    0  501 -0.00000000000E+00 -0.00000000000E+00 -0.39434077325E+02  0.39434077325E+02  0.00000000000E+00 0.  1.
         25    1    1    2    0    0  0.48533232003E+02  0.59453359475E+02  0.25196315705E+03  0.29154863929E+03  0.12500000000E+03 0.  0.
          2    1    1    2  502    0 -0.35399580774E+02 -0.90523586686E+01  0.65452257061E+01  0.37120284159E+02  0.00000000000E+00 0.  1.
         -2    1    1    2    0  501 -0.13133651228E+02 -0.50401000806E+02  0.15141525273E+03  0.16012286669E+03  0.00000000000E+00 0. -1.
<mgrwt>
<rscale>  0 0.46695712E+02</rscale>
<asrwt>0</asrwt>
<pdfrwt beam="1">  1        1 0.69131952E-01 0.36538685E+02</pdfrwt>
<pdfrwt beam="2">  1       -1 0.60667814E-02 0.59676190E+02</pdfrwt>
<totfact> 0.62291962E+03</totfact>
</mgrwt>
</event>
<event>
 5    1  0.8274494E-003  0.8160209E+02  0.7546771E-02  0.1472534E+00
         -1   -1    0    0    0  502 -0.00000000000E+00  0.00000000000E+00  0.16754392933E+03  0.16754392933E+03  0.00000000000E+00 0.  1.
         -2   -1    0    0    0  501  0.00000000000E+00 -0.00000000000E+00 -0.39042092261E+03  0.39042092261E+03  0.00000000000E+00 0.  1.
         25    1    1    2    0    0  0.54412467132E+02 -0.26632066267E+02 -0.29088059733E+02  0.14191933889E+03  0.12500000000E+03 0.  0.
         -2    1    1    2    0  502 -0.77622834020E+02  0.36284232128E+02  0.93981939230E+02  0.12717882986E+03  0.00000000000E+00 0.  1.
         -1    1    1    2    0  501  0.23210366888E+02 -0.96521658614E+01 -0.28777087278E+03  0.28886668319E+03  0.00000000000E+00 0.  1.
<mgrwt>
<rscale>  0 0.45290825E+02</rscale>
<asrwt>0</asrwt>
<pdfrwt beam="2">  1       -2 0.60064756E-01 0.25137332E+02</pdfrwt>
<pdfrwt beam="1">  1       -1 0.25775990E-01 0.81602090E+02</pdfrwt>
<totfact> 0.25523782E+02</totfact>
</mgrwt>
</event>
<event>
 5    1  0.8274494E-003  0.9191026E+02  0.7546771E-02  0.1475449E+00
          1   -1    0    0  501    0 -0.00000000000E+00  0.00000000000E+00  0.83362945542E+02  0.83362945542E+02  0.00000000000E+00 0. -1.
          2   -1    0    0  502    0  0.00000000000E+00 -0.00000000000E+00 -0.53232999607E+03  0.53232999607E+03  0.00000000000E+00 0. -1.
         25    1    1    2    0    0  0.68185206773E+02  0.29733650767E+02 -0.31071053890E+03  0.34307339068E+03  0.12500000000E+03 0.  0.
          2    1    1    2  501    0 -0.80723821566E+02 -0.47639473663E+02  0.33453428971E+02  0.99523799813E+02  0.00000000000E+00 0. -1.
          1    1    1    2  502    0  0.12538614793E+02  0.17905822896E+02 -0.17170994059E+03  0.17309575111E+03  0.00000000000E+00 0. -1.
<mgrwt>
<rscale>  0 0.44823066E+02</rscale>
<asrwt>0</asrwt>
<pdfrwt beam="2">  1        2 0.81896925E-01 0.21859445E+02</pdfrwt>
<pdfrwt beam="1">  1        1 0.12825068E-01 0.91910255E+02</pdfrwt>
<totfact> 0.35542330E+03</totfact>
</mgrwt>
</event>
<event>
 5    1  0.8274494E-003  0.5891104E+02  0.7546771E-02  0.1523446E+00
          1   -1    0    0  502    0  0.00000000000E+00  0.00000000000E+00  0.37106148780E+04  0.37106148780E+04  0.00000000000E+00 0. -1.
         -1   -1    0    0    0  501 -0.00000000000E+00 -0.00000000000E+00 -0.23694229849E+03  0.23694229849E+03  0.00000000000E+00 0.  1.
         25    1    1    2    0    0 -0.32416428545E+02  0.22533331810E+02  0.62421904074E+01  0.13123467843E+03  0.12500000000E+03 0.  0.
          2    1    1    2  502    0  0.56379745443E+02 -0.17361867468E+02  0.36407750345E+04  0.36412529384E+04  0.00000000000E+00 0. -1.
         -2    1    1    2    0  501 -0.23963316898E+02 -0.51714643416E+01 -0.17334464540E+03  0.17506955957E+03  0.00000000000E+00 0.  1.
<mgrwt>
<rscale>  0 0.38002677E+02</rscale>
<asrwt>0</asrwt>
<pdfrwt beam="1">  1        1 0.57086379E+00 0.58911042E+02</pdfrwt>
<pdfrwt beam="2">  1       -1 0.36452664E-01 0.24514987E+02</pdfrwt>
<totfact> 0.21006060E+00</totfact>
</mgrwt>
</event>
<event>
 5    1  0.8274494E-003  0.9078275E+02  0.7546771E-02  0.1372706E+00
         -1   -1    0    0    0  501 -0.00000000000E+00  0.00000000000E+00  0.49014235694E+03  0.49014235694E+03  0.00000000000E+00 0.  1.
          1   -1    0    0  502    0  0.00000000000E+00 -0.00000000000E+00 -0.13113862828E+03  0.13113862828E+03  0.00000000000E+00 0. -1.
         25    1    1    2    0    0  0.54163293068E+02 -0.57973941444E+02  0.15670906348E+03  0.21558610989E+03  0.12500000000E+03 0.  0.
          2    1    1    2  502    0 -0.32859051806E+02 -0.35803366264E+02 -0.87648847347E+02  0.10021935323E+03  0.00000000000E+00 0. -1.
         -2    1    1    2    0  501 -0.21304241263E+02  0.93777307708E+02  0.28994351253E+03  0.30547552209E+03  0.00000000000E+00 0.  1.
<mgrwt>
<rscale>  0 0.66420657E+02</rscale>
<asrwt>0</asrwt>
<pdfrwt beam="2">  1        1 0.20175174E-01 0.48596279E+02</pdfrwt>
<pdfrwt beam="1">  1       -1 0.75406515E-01 0.90782746E+02</pdfrwt>
<totfact> 0.45498556E+02</totfact>
</mgrwt>
</event>
<event>
 5    1  0.8274494E-003  0.8496732E+02  0.7546771E-02  0.1388994E+00
          1   -1    0    0  501    0 -0.00000000000E+00  0.00000000000E+00  0.11735400734E+04  0.11735400734E+04  0.00000000000E+00 0. -1.
          2   -1    0    0  502    0  0.00000000000E+00 -0.00000000000E+00 -0.15778200516E+04  0.15778200516E+04  0.00000000000E+00 0. -1.
         25    1    1    2    0    0  0.81549937509E+02  0.74739949033E+02 -0.14450989054E+03  0.22078170385E+03  0.12500000000E+03 0.  0.
          2    1    1    2  501    0 -0.79589971602E+02 -0.29311111590E+02  0.11334487804E+04  0.11366177205E+04  0.00000000000E+00 0. -1.
          1    1    1    2  502    0 -0.19599659066E+01 -0.45428837443E+02 -0.13932188680E+04  0.13939607006E+04  0.00000000000E+00 0. -1.
<mgrwt>
<rscale>  0 0.62157520E+02</rscale>
<asrwt>0</asrwt>
<pdfrwt beam="2">  1        2 0.24274154E+00 0.45471098E+02</pdfrwt>
<pdfrwt beam="1">  1        1 0.18054463E+00 0.84967319E+02</pdfrwt>
<totfact> 0.25917095E+01</totfact>
</mgrwt>
</event>
<event>
 5    1  0.8274494E-003  0.3562897E+02  0.7546771E-02  0.1573848E+00
          2   -1    0    0  502    0  0.00000000000E+00  0.00000000000E+00  0.15170967114E+02  0.15170967114E+02  0.00000000000E+00 0. -1.
          1   -1    0    0  501    0 -0.00000000000E+00 -0.00000000000E+00 -0.13252524653E+04  0.13252524653E+04  0.00000000000E+00 0. -1.
         25    1    1    2    0    0 -0.50244770234E+01 -0.24482108452E+01 -0.32087061642E+03  0.34440411088E+03  0.12500000000E+03 0.  0.
          2    1    1    2  501    0 -0.40660270172E+01 -0.35396194475E+02 -0.86761652744E+03  0.86834777701E+03  0.00000000000E+00 0. -1.
          3    1    1    2  502    0  0.90905040407E+01  0.37844405320E+02 -0.12159435435E+03  0.12767154455E+03  0.00000000000E+00 0. -1.
<mgrwt>
<rscale>  0 0.32312614E+02</rscale>
<asrwt>0</asrwt>
<pdfrwt beam="1">  1        2 0.23339955E-02 0.29304950E+02</pdfrwt>
<pdfrwt beam="2">  1        1 0.20388494E+00 0.35628965E+02</pdfrwt>
<totfact> 0.50582015E+03</totfact>
</mgrwt>
</event>
<event>
 5    1  0.8274494E-003  0.1312387E+03  0.7546771E-02  0.1314618E+00
          2   -1    0    0  502    0  0.00000000000E+00  0.00000000000E+00  0.12404223374E+04  0.12404223374E+04  0.00000000000E+00 0. -1.
          1   -1    0    0  501    0 -0.00000000000E+00 -0.00000000000E+00 -0.18625804383E+04  0.18625804383E+04  0.00000000000E+00 0. -1.
         25    1    1    2    0    0  0.78966932414E+02  0.17698314745E+02 -0.38150155532E+02  0.15371870780E+03  0.12500000000E+03 0.  0.
          2    1    1    2  501    0 -0.13331783837E+03 -0.66752422560E+01 -0.17634720715E+04  0.17685168792E+04  0.00000000000E+00 0. -1.
          1    1    1    2  502    0  0.54350905960E+02 -0.11023072489E+02  0.11794641261E+04  0.11807671887E+04  0.00000000000E+00 0. -1.
<mgrwt>
<rscale>  0 0.85312160E+02</rscale>
<asrwt>0</asrwt>
<pdfrwt beam="1">  1        2 0.19083421E+00 0.55457453E+02</pdfrwt>
<pdfrwt beam="2">  1        1 0.28655083E+00 0.13123871E+03</pdfrwt>
<totfact> 0.12986794E+01</totfact>
</mgrwt>
</event>
<event>
 5    1  0.8274494E-003  0.5763998E+02  0.7546771E-02  0.1510639E+00
          2   -1    0    0  502    0  0.00000000000E+00  0.00000000000E+00  0.36534053043E+02  0.36534053043E+02  0.00000000000E+00 0. -1.
         -2   -1    0    0    0  501 -0.00000000000E+00 -0.00000000000E+00 -0.91055707233E+03  0.91055707233E+03  0.00000000000E+00 0.  1.
         25    1    1    2    0    0  0.56413485963E+02 -0.91809269494E+01 -0.40285515802E+03  0.42565719677E+03  0.12500000000E+03 0.  0.
          1    1    1    2  502    0 -0.55282800391E+02 -0.18100875073E+02 -0.94785393775E+01  0.58937869034E+02  0.00000000000E+00 0. -1.
         -1    1    1    2    0  501 -0.11306855714E+01  0.27281802023E+02 -0.46168932189E+03  0.46249605957E+03  0.00000000000E+00 0.  1.
<mgrwt>
<rscale>  0 0.39672062E+02</rscale>
<asrwt>0</asrwt>
<pdfrwt beam="1">  1        2 0.56206235E-02 0.57639980E+02</pdfrwt>
<pdfrwt beam="2">  1       -2 0.14008570E+00 0.27305222E+02</pdfrwt>
<totfact> 0.49459010E+02</totfact>
</mgrwt>
</event>
<event>
 5    1  0.1072408E-002  0.7501482E+02  0.7546771E-02  0.1384935E+00
         -2   -1    0    0    0  501 -0.00000000000E+00  0.00000000000E+00  0.26733179363E+03  0.26733179363E+03  0.00000000000E+00 0. -1.
          2   -1    0    0  502    0  0.00000000000E+00 -0.00000000000E+00 -0.86012676729E+02  0.86012676729E+02  0.00000000000E+00 0.  1.
         25    1    1    2    0    0 -0.90711657617E+02 -0.66360619017E-01  0.16025323635E+03  0.22256394360E+03  0.12500000000E+03 0.  0.
          1    1    1    2  502    0  0.60287632212E+02 -0.43599212343E+02  0.21891689734E+02  0.77554729024E+02  0.00000000000E+00 0. -1.
         -1    1    1    2    0  501  0.30424025405E+02  0.43665572962E+02 -0.82580917776E+00  0.53225797737E+02  0.00000000000E+00 0.  1.
<mgrwt>
<rscale>  0 0.63184199E+02</rscale>
<asrwt>0</asrwt>
<pdfrwt beam="2">  1        2 0.13232720E-01 0.75014819E+02</pdfrwt>
<pdfrwt beam="1">  1       -2 0.41127968E-01 0.53219391E+02</pdfrwt>
<totfact> 0.23724457E+03</totfact>
</mgrwt>
</event>
<event>
 5    1  0.8274494E-003  0.8777574E+02  0.7546771E-02  0.1368851E+00
          1   -1    0    0  501    0 -0.00000000000E+00  0.00000000000E+00  0.37624742827E+03  0.37624742827E+03  0.00000000000E+00 0. -1.
          2   -1    0    0  502    0  0.00000000000E+00 -0.00000000000E+00 -0.10226325843E+03  0.10226325843E+03  0.00000000000E+00 0. -1.
         25    1    1    2    0    0 -0.29185626567E+02  0.46523422218E+02  0.10878915710E+03  0.17457465542E+03  0.12500000000E+03 0.  0.
          2    1    1    2  501    0  0.20795043849E+02 -0.97729305912E+02  0.21180325571E+03  0.23418810860E+03  0.00000000000E+00 0. -1.
          1    1    1    2  502    0  0.83905827181E+01  0.51205883694E+02 -0.46608242979E+02  0.69747922670E+02  0.00000000000E+00 0. -1.
<mgrwt>
<rscale>  0 0.67487594E+02</rscale>
<asrwt>0</asrwt>
<pdfrwt beam="2">  1        2 0.15732809E-01 0.51888770E+02</pdfrwt>
<pdfrwt beam="1">  1        1 0.57884219E-01 0.87775745E+02</pdfrwt>
<totfact> 0.30706859E+03</totfact>
</mgrwt>
</event>
<event>
 5    1  0.8274494E-003  0.3473448E+02  0.7546771E-02  0.1604151E+00
          2   -1    0    0  502    0  0.00000000000E+00  0.00000000000E+00  0.20372446032E+03  0.20372446032E+03  0.00000000000E+00 0. -1.
          1   -1    0    0  501    0 -0.00000000000E+00 -0.00000000000E+00 -0.77344846185E+03  0.77344846185E+03  0.00000000000E+00 0. -1.
         25    1    1    2    0    0 -0.12176473496E+01 -0.10114626289E+02 -0.72357575051E+02  0.14479090785E+03  0.12500000000E+03 0.  0.
          2    1    1    2  501    0 -0.11591779694E+01 -0.24957178405E+02 -0.66279205015E+03  0.66326277310E+03  0.00000000000E+00 0. -1.
          1    1    1    2  502    0  0.23768253190E+01  0.35071804694E+02  0.16542562366E+03  0.16911924121E+03  0.00000000000E+00 0. -1.
<mgrwt>
<rscale>  0 0.29458603E+02</rscale>
<asrwt>0</asrwt>
<pdfrwt beam="1">  1        2 0.31342224E-01 0.34734484E+02</pdfrwt>
<pdfrwt beam="2">  1        1 0.11899207E+00 0.24984084E+02</pdfrwt>
<totfact> 0.59205672E+02</totfact>
</mgrwt>
</event>
<event>
 5    1  0.8274494E-003  0.5166440E+02  0.7546771E-02  0.1512460E+00
          1   -1    0    0  501    0 -0.00000000000E+00  0.00000000000E+00  0.96003365959E+03  0.96003365959E+03  0.00000000000E+00 0. -1.
          2   -1    0    0  502    0  0.00000000000E+00 -0.00000000000E+00 -0.78822989218E+03  0.78822989218E+03  0.00000000000E+00 0. -1.
         25    1    1    2    0    0  0.55302450339E+02 -0.16077576987E+02 -0.29945555670E+03  0.32956862705E+03  0.12500000000E+03 0.  0.
          2    1    1    2  501    0 -0.34849653039E+02  0.38148222523E+02  0.94379191109E+03  0.94520524578E+03  0.00000000000E+00 0. -1.
          1    1    1    2  502    0 -0.20452797300E+02 -0.22070645535E+02 -0.47253258699E+03  0.47348967895E+03  0.00000000000E+00 0. -1.
<mgrwt>
<rscale>  0 0.39428428E+02</rscale>
<asrwt>0</asrwt>
<pdfrwt beam="2">  1        2 0.12126614E+00 0.30090369E+02</pdfrwt>
<pdfrwt beam="1">  1        1 0.14769749E+00 0.51664403E+02</pdfrwt>
<totfact> 0.10212564E+02</totfact>
</mgrwt>
</event>
<event>
 5    1  0.8274494E-003  0.2046698E+03  0.7546771E-02  0.1291937E+00
          2   -1    0    0  502    0  0.00000000000E+00  0.00000000000E+00  0.16368050211E+04  0.16368050211E+04  0.00000000000E+00 0. -1.
          1   -1    0    0  501    0 -0.00000000000E+00 -0.00000000000E+00 -0.18995119187E+04  0.18995119187E+04  0.00000000000E+00 0. -1.
         25    1    1    2    0    0 -0.18326547162E+03 -0.12181799656E+03  0.39832035677E+02  0.25619806486E+03  0.12500000000E+03 0.  0.
          2    1    1    2  501    0  0.18858690244E+03  0.78359432084E+02 -0.17851842602E+04  0.17968272213E+04  0.00000000000E+00 0. -1.
          1    1    1    2  502    0 -0.53214308218E+01  0.43458564477E+02  0.14826453269E+04  0.14832916537E+04  0.00000000000E+00 0. -1.
<mgrwt>
<rscale>  0 0.94663040E+02</rscale>
<asrwt>0</asrwt>
<pdfrwt beam="1">  1        2 0.25181616E+00 0.43783153E+02</pdfrwt>
<pdfrwt beam="2">  1        1 0.29223260E+00 0.20466985E+03</pdfrwt>
<totfact> 0.75646302E+00</totfact>
</mgrwt>
</event>
<event>
 5    1  0.8274494E-003  0.2149581E+03  0.7546771E-02  0.1284149E+00
          1   -1    0    0  502    0  0.00000000000E+00  0.00000000000E+00  0.44415883016E+04  0.44415883016E+04  0.00000000000E+00 0. -1.
         -1   -1    0    0    0  501 -0.00000000000E+00 -0.00000000000E+00 -0.63649263908E+03  0.63649263908E+03  0.00000000000E+00 0.  1.
         25    1    1    2    0    0 -0.25170315367E+03 -0.48411727802E+02  0.14742782654E+04  0.15016056662E+04  0.12500000000E+03 0.  0.
          2    1    1    2  502    0  0.44386087081E+02 -0.64461217974E+01  0.29350098898E+04  0.29353525735E+04  0.00000000000E+00 0. -1.
         -2    1    1    2    0  501  0.20731706659E+03  0.54857849599E+02 -0.60419249259E+03  0.64112270110E+03  0.00000000000E+00 0.  1.
<mgrwt>
<rscale>  0 0.98189818E+02</rscale>
<asrwt>0</asrwt>
<pdfrwt beam="1">  1        1 0.68332126E+00 0.44851725E+02</pdfrwt>
<pdfrwt beam="2">  1       -1 0.97921947E-01 0.21495807E+03</pdfrwt>
<totfact> 0.84924703E-02</totfact>
</mgrwt>
</event>
<event>
 5    1  0.8274494E-003  0.1432523E+03  0.7546771E-02  0.1336441E+00
         -2   -1    0    0    0  501  0.00000000000E+00  0.00000000000E+00  0.31448483512E+03  0.31448483512E+03  0.00000000000E+00 0.  1.
         -1   -1    0    0    0  502 -0.00000000000E+00 -0.00000000000E+00 -0.11093630080E+04  0.11093630080E+04  0.00000000000E+00 0.  1.
         25    1    1    2    0    0 -0.30122954783E+02  0.10849095616E+03 -0.20834113431E+03  0.26778481701E+03  0.12500000000E+03 0.  0.
         -2    1    1    2    0  502  0.19685577243E+02  0.36960820418E+02 -0.85208288664E+03  0.85311128811E+03  0.00000000000E+00 0.  1.
         -1    1    1    2    0  501  0.10437377540E+02 -0.14545177658E+03  0.26554584805E+03  0.30295173803E+03  0.00000000000E+00 0.  1.
<mgrwt>
<rscale>  0 0.77452401E+02</rscale>
<asrwt>0</asrwt>
<pdfrwt beam="1">  1       -2 0.48382282E-01 0.14325227E+03</pdfrwt>
<pdfrwt beam="2">  1       -1 0.17067123E+00 0.41876296E+02</pdfrwt>
<totfact> 0.94264759E+00</totfact>
</mgrwt>
</event>
<event>
 5    1  0.8274494E-003  0.3773847E+02  0.7546771E-02  0.1540531E+00
          1   -1    0    0  501    0 -0.00000000000E+00  0.00000000000E+00  0.12453277952E+04  0.12453277952E+04  0.00000000000E+00 0. -1.
          2   -1    0    0  502    0  0.00000000000E+00 -0.00000000000E+00 -0.14016594423E+03  0.14016594423E+03  0.00000000000E+00 0. -1.
         25    1    1    2    0    0 -0.96072745962E+01 -0.48759660857E+02  0.79233499885E+03  0.80367254193E+03  0.12500000000E+03 0.  0.
          2    1    1    2  501    0  0.30719857658E+02  0.21854433313E+02  0.44433870870E+03  0.44593521273E+03  0.00000000000E+00 0. -1.
          1    1    1    2  502    0 -0.21112583062E+02  0.26905227544E+02 -0.13151185658E+03  0.13588598476E+03  0.00000000000E+00 0. -1.
<mgrwt>
<rscale>  0 0.35925637E+02</rscale>
<asrwt>0</asrwt>
<pdfrwt beam="2">  1        2 0.21563992E-01 0.34199889E+02</pdfrwt>
<pdfrwt beam="1">  1        1 0.19158888E+00 0.37738467E+02</pdfrwt>
<totfact> 0.40222633E+02</totfact>
</mgrwt>
</event>
<event>
 5    1  0.8274494E-003  0.1791203E+03  0.7546771E-02  0.1262282E+00
          1   -1    0    0  501    0 -0.00000000000E+00  0.00000000000E+00  0.71631196182E+03  0.71631196182E+03  0.00000000000E+00 0. -1.
          2   -1    0    0  502    0  0.00000000000E+00 -0.00000000000E+00 -0.27594144812E+04  0.27594144812E+04  0.00000000000E+00 0. -1.
         25    1    1    2    0    0 -0.11985418562E+03 -0.15871008941E+03 -0.98084622546E+03  0.10085822903E+04  0.12500000000E+03 0.  0.
          2    1    1    2  501    0 -0.25982572703E+02  0.61135907300E+02  0.69649791898E+03  0.69965851984E+03  0.00000000000E+00 0. -1.
          1    1    1    2  502    0  0.14583675832E+03  0.97574182109E+02 -0.17587542129E+04  0.17674856329E+04  0.00000000000E+00 0. -1.
<mgrwt>
<rscale>  0 0.10908081E+03</rscale>
<asrwt>0</asrwt>
<pdfrwt beam="2">  1        2 0.42452531E+00 0.17912030E+03</pdfrwt>
<pdfrwt beam="1">  1        1 0.11020184E+00 0.66428106E+02</pdfrwt>
<totfact> 0.12111163E+01</totfact>
</mgrwt>
</event>
<event>
 5    1  0.8274494E-003  0.7923576E+02  0.7546771E-02  0.1378535E+00
          2   -1    0    0  502    0  0.00000000000E+00  0.00000000000E+00  0.18073448986E+03  0.18073448986E+03  0.00000000000E+00 0. -1.
          1   -1    0    0  501    0 -0.00000000000E+00 -0.00000000000E+00 -0.21289171840E+03  0.21289171840E+03  0.00000000000E+00 0. -1.
         25    1    1    2    0    0  0.79866909419E+02  0.53907623913E+01 -0.69372501152E+02  0.16384543770E+03  0.12500000000E+03 0.  0.
          2    1    1    2  501    0 -0.62855250845E+02 -0.55667388266E+02 -0.70541155974E+02  0.10966173153E+03  0.00000000000E+00 0. -1.
          1    1    1    2  502    0 -0.17011658574E+02  0.50276625875E+02  0.10775642858E+03  0.12011903903E+03  0.00000000000E+00 0. -1.
<mgrwt>
<rscale>  0 0.64850386E+02</rscale>
<asrwt>0</asrwt>
<pdfrwt beam="1">  1        2 0.27805306E-01 0.53076696E+02</pdfrwt>
<pdfrwt beam="2">  1        1 0.32752572E-01 0.79235764E+02</pdfrwt>
<totfact> 0.33065162E+03</totfact>
</mgrwt>
</event>
<event>
 5    1  0.8274494E-003  0.8068386E+02  0.7546771E-02  0.1419141E+00
          2   -1    0    0  502    0  0.00000000000E+00  0.00000000000E+00  0.19101714023E+04  0.19101714023E+04  0.00000000000E+00 0. -1.
          1   -1    0    0  501    0 -0.00000000000E+00 -0.00000000000E+00 -0.81817782190E+03  0.81817782190E+03  0.00000000000E+00 0. -1.
         25    1    1    2    0    0 -0.65563580908E+02  0.63738566208E+01 -0.21885024210E+03  0.26049882467E+03  0.12500000000E+03 0.  0.
          2    1    1    2  501    0  0.71400214485E+02 -0.43689483748E+02 -0.57528526723E+03  0.58134318635E+03  0.00000000000E+00 0. -1.
          1    1    1    2  502    0 -0.58366335771E+01  0.37315627127E+02  0.18861290898E+04  0.18865072132E+04  0.00000000000E+00 0. -1.
<mgrwt>
<rscale>  0 0.55203038E+02</rscale>
<asrwt>0</asrwt>
<pdfrwt beam="1">  1        2 0.29387252E+00 0.37769330E+02</pdfrwt>
<pdfrwt beam="2">  1        1 0.12587351E+00 0.80683862E+02</pdfrwt>
<totfact> 0.33132950E+01</totfact>
</mgrwt>
</event>
<event>
 5    1  0.8274494E-003  0.4716108E+02  0.7546771E-02  0.1466731E+00
          1   -1    0    0  502    0  0.00000000000E+00  0.00000000000E+00  0.93257709001E+03  0.93257709001E+03  0.00000000000E+00 0. -1.
         -3   -1    0    0    0  501 -0.00000000000E+00 -0.00000000000E+00 -0.46406348655E+02  0.46406348655E+02  0.00000000000E+00 0.  1.
         25    1    1    2    0    0  0.18825859152E+01 -0.19359216607E+02  0.20693966413E+03  0.24254349711E+03  0.12500000000E+03 0.  0.
          2    1    1    2  502    0 -0.46910185417E+02  0.53348447867E+01  0.68701970853E+03  0.68864004093E+03  0.00000000000E+00 0. -1.
         -2    1    1    2    0  501  0.45027599501E+02  0.14024371820E+02 -0.77886313128E+01  0.47799900623E+02  0.00000000000E+00 0.  1.
<mgrwt>
<rscale>  0 0.46242418E+02</rscale>
<asrwt>0</asrwt>
<pdfrwt beam="1">  1        1 0.14347338E+00 0.45341649E+02</pdfrwt>
<pdfrwt beam="2">  1       -3 0.71394389E-02 0.47161083E+02</pdfrwt>
<totfact> 0.11510043E+03</totfact>
</mgrwt>
</event>
<event>
 5    1  0.8274494E-003  0.6845486E+02  0.7546771E-02  0.1391426E+00
         -2   -1    0    0    0  501 -0.00000000000E+00  0.00000000000E+00  0.53658831048E+02  0.53658831048E+02  0.00000000000E+00 0.  1.
          2   -1    0    0  502    0  0.00000000000E+00 -0.00000000000E+00 -0.21879208038E+04  0.21879208038E+04  0.00000000000E+00 0. -1.
         25    1    1    2    0    0  0.12377898787E+02  0.16523804253E+02 -0.59882636796E+03  0.61208191237E+03  0.12500000000E+03 0.  0.
          1    1    1    2  502    0 -0.58999072744E+02 -0.46353712176E+02 -0.15649669232E+04  0.15667645094E+04  0.00000000000E+00 0. -1.
         -1    1    1    2    0  501  0.46621173957E+02  0.29829907922E+02  0.29531318344E+02  0.62733213140E+02  0.00000000000E+00 0.  1.
<mgrwt>
<rscale>  0 0.61553332E+02</rscale>
<asrwt>0</asrwt>
<pdfrwt beam="2">  1        2 0.33660317E+00 0.68454863E+02</pdfrwt>
<pdfrwt beam="1">  1       -2 0.82552055E-02 0.55347604E+02</pdfrwt>
<totfact> 0.55708851E+02</totfact>
</mgrwt>
</event>
<event>
 5    1  0.8274494E-003  0.3389911E+02  0.7546771E-02  0.1620366E+00
         -1   -1    0    0    0  502 -0.00000000000E+00  0.00000000000E+00  0.31137098489E+03  0.31137098489E+03  0.00000000000E+00 0.  1.
         -2   -1    0    0    0  501  0.00000000000E+00 -0.00000000000E+00 -0.46188348788E+03  0.46188348788E+03  0.00000000000E+00 0.  1.
         25    1    1    2    0    0  0.26461026664E+02  0.36084269287E+02 -0.20876145868E+03  0.24740373290E+03  0.12500000000E+03 0.  0.
         -2    1    1    2    0  502 -0.31156118696E+02 -0.13307448762E+02  0.29048461471E+03  0.29245359172E+03  0.00000000000E+00 0.  1.
         -1    1    1    2    0  501  0.46950920314E+01 -0.22776820525E+02 -0.23223565903E+03  0.23339714816E+03  0.00000000000E+00 0.  1.
<mgrwt>
<rscale>  0 0.28077527E+02</rscale>
<asrwt>0</asrwt>
<pdfrwt beam="2">  1       -2 0.71058999E-01 0.23255697E+02</pdfrwt>
<pdfrwt beam="1">  1       -1 0.47903228E-01 0.33899113E+02</pdfrwt>
<totfact> 0.63391113E+01</totfact>
</mgrwt>
</event>
<event>
 5    1  0.8274494E-003  0.1258547E+03  0.7546771E-02  0.1422408E+00
          1   -1    0    0  501    0 -0.00000000000E+00  0.00000000000E+00  0.11701609373E+04  0.11701609373E+04  0.00000000000E+00 0. -1.
          2   -1    0    0  502    0  0.00000000000E+00 -0.00000000000E+00 -0.13929899745E+04  0.13929899745E+04  0.00000000000E+00 0. -1.
         25    1    1    2    0    0 -0.23781738972E+02  0.11032547841E+03  0.98000283765E+03  0.99436806269E+03  0.12500000000E+03 0.  0.
          2    1    1    2  501    0 -0.22643283645E+02  0.66989567271E+01  0.17934060104E+03  0.18088848912E+03  0.00000000000E+00 0. -1.
          1    1    1    2  502    0  0.46425022617E+02 -0.11702443514E+03 -0.13821724759E+04  0.13878943599E+04  0.00000000000E+00 0. -1.
<mgrwt>
<rscale>  0 0.54514780E+02</rscale>
<asrwt>0</asrwt>
<pdfrwt beam="2">  1        2 0.21430615E+00 0.12585468E+03</pdfrwt>
<pdfrwt beam="1">  1        1 0.18002476E+00 0.23613435E+02</pdfrwt>
<totfact> 0.33013826E+01</totfact>
</mgrwt>
</event>
<event>
 5    1  0.8274494E-003  0.8033395E+02  0.7546771E-02  0.1387563E+00
         -2   -1    0    0    0  501 -0.00000000000E+00  0.00000000000E+00  0.26648293609E+02  0.26648293609E+02  0.00000000000E+00 0.  1.
          2   -1    0    0  502    0  0.00000000000E+00 -0.00000000000E+00 -0.18296659158E+04  0.18296659158E+04  0.00000000000E+00 0. -1.
         25    1    1    2    0    0  0.62518052710E+01  0.12174304600E+03 -0.77881565467E+03  0.79814740385E+03  0.12500000000E+03 0.  0.
          1    1    1    2  502    0 -0.14735918121E+02 -0.46366284413E+02 -0.95265027652E+03  0.95389178053E+03  0.00000000000E+00 0. -1.
         -1    1    1    2    0  501  0.84841128498E+01 -0.75376761589E+02 -0.71551691005E+02  0.10427502503E+03  0.00000000000E+00 0.  1.
<mgrwt>
<rscale>  0 0.62517011E+02</rscale>
<asrwt>0</asrwt>
<pdfrwt beam="2">  1        2 0.28148706E+00 0.48651615E+02</pdfrwt>
<pdfrwt beam="1">  1       -2 0.40997376E-02 0.80333955E+02</pdfrwt>
<totfact> 0.25535993E+03</totfact>
</mgrwt>
</event>
<event>
 5    1  0.8274494E-003  0.1456743E+03  0.7546771E-02  0.1297767E+00
          2   -1    0    0  502    0  0.00000000000E+00  0.00000000000E+00  0.27726332303E+04  0.27726332303E+04  0.00000000000E+00 0. -1.
         -2   -1    0    0    0  501 -0.00000000000E+00 -0.00000000000E+00 -0.21332396417E+03  0.21332396417E+03  0.00000000000E+00 0.  1.
         25    1    1    2    0    0 -0.10901254463E+02 -0.18113773651E+03  0.28721442396E+03  0.36200392577E+03  0.12500000000E+03 0.  0.
          1    1    1    2  502    0  0.41057005612E+02  0.41349212368E+02  0.24185547775E+04  0.24192566310E+04  0.00000000000E+00 0. -1.
         -1    1    1    2    0  501 -0.30155751148E+02  0.13978852414E+03 -0.14645993533E+03  0.20469663766E+03  0.00000000000E+00 0.  1.
<mgrwt>
<rscale>  0 0.92133021E+02</rscale>
<asrwt>0</asrwt>
<pdfrwt beam="1">  1        2 0.42655893E+00 0.58270362E+02</pdfrwt>
<pdfrwt beam="2">  1       -2 0.32819073E-01 0.14567429E+03</pdfrwt>
<totfact> 0.30754477E+01</totfact>
</mgrwt>
</event>
<event>
 5    1  0.8274494E-003  0.1730189E+03  0.7546771E-02  0.1190792E+00
          2   -1    0    0  502    0  0.00000000000E+00  0.00000000000E+00  0.59602540992E+03  0.59602540992E+03  0.00000000000E+00 0. -1.
          1   -1    0    0  501    0 -0.00000000000E+00 -0.00000000000E+00 -0.58374580380E+03  0.58374580380E+03  0.00000000000E+00 0. -1.
         25    1    1    2    0    0 -0.22720510065E+03  0.10664361714E+03 -0.61589669162E+02  0.28707717810E+03  0.12500000000E+03 0.  0.
          2    1    1    2  501    0  0.16454886424E+03  0.23647325440E+02 -0.38084706681E+03  0.41554784685E+03  0.00000000000E+00 0. -1.
          1    1    1    2  502    0  0.62656236417E+02 -0.13029094258E+03  0.45471634210E+03  0.47714618877E+03  0.00000000000E+00 0. -1.
<mgrwt>
<rscale>  0 0.15815804E+03</rscale>
<asrwt>0</asrwt>
<pdfrwt beam="1">  1        2 0.91696216E-01 0.14457363E+03</pdfrwt>
<pdfrwt beam="2">  1        1 0.89807047E-01 0.17301887E+03</pdfrwt>
<totfact> 0.26163526E+02</totfact>
</mgrwt>
</event>
<event>
 5    1  0.8274494E-003  0.6594057E+02  0.7546771E-02  0.1473025E+00
          2   -1    0    0  502    0  0.00000000000E+00  0.00000000000E+00  0.77149911602E+03  0.77149911602E+03  0.00000000000E+00 0. -1.
         -2   -1    0    0    0  501 -0.00000000000E+00 -0.00000000000E+00 -0.82384279815E+02  0.82384279815E+02  0.00000000000E+00 0.  1.
         25    1    1    2    0    0  0.68534892234E+02  0.48837747054E+02  0.38677127009E+03  0.41508935467E+03  0.12500000000E+03 0.  0.
          1    1    1    2  502    0 -0.60152413418E+02 -0.18993622033E+02  0.36419062129E+03  0.36961314798E+03  0.00000000000E+00 0. -1.
         -1    1    1    2    0  501 -0.83824788154E+01 -0.29844125021E+02 -0.61847055176E+02  0.69180893195E+02  0.00000000000E+00 0.  1.
<mgrwt>
<rscale>  0 0.45211631E+02</rscale>
<asrwt>0</asrwt>
<pdfrwt beam="1">  1        2 0.11869217E+00 0.65940574E+02</pdfrwt>
<pdfrwt beam="2">  1       -2 0.12674505E-01 0.30998996E+02</pdfrwt>
<totfact> 0.15501505E+03</totfact>
</mgrwt>
</event>
<event>
 5    1  0.8274494E-003  0.4002097E+02  0.7546771E-02  0.1576872E+00
          2   -1    0    0  502    0  0.00000000000E+00  0.00000000000E+00  0.36617674807E+04  0.36617674807E+04  0.00000000000E+00 0. -1.
          1   -1    0    0  501    0 -0.00000000000E+00 -0.00000000000E+00 -0.15896796609E+04  0.15896796609E+04  0.00000000000E+00 0. -1.
         25    1    1    2    0    0 -0.33576222224E+01 -0.63963346753E+02  0.23252580715E+04  0.23294962294E+04  0.12500000000E+03 0.  0.
          2    1    1    2  501    0  0.90085388912E+01  0.38991337350E+02 -0.15871855324E+04  0.15876899547E+04  0.00000000000E+00 0. -1.
          1    1    1    2  502    0 -0.56509166689E+01  0.24972009403E+02  0.13340152806E+04  0.13342609576E+04  0.00000000000E+00 0. -1.
<mgrwt>
<rscale>  0 0.32010513E+02</rscale>
<asrwt>0</asrwt>
<pdfrwt beam="1">  1        2 0.56334884E+00 0.25603400E+02</pdfrwt>
<pdfrwt beam="2">  1        1 0.24456610E+00 0.40020971E+02</pdfrwt>
<totfact> 0.13365977E+00</totfact>
</mgrwt>
</event>
<event>
 5    1  0.8274494E-003  0.1086529E+03  0.7546771E-02  0.1321633E+00
          2   -1    0    0  502    0  0.00000000000E+00  0.00000000000E+00  0.10764622227E+04  0.10764622227E+04  0.00000000000E+00 0. -1.
          1   -1    0    0  501    0 -0.00000000000E+00 -0.00000000000E+00 -0.69356035029E+02  0.69356035029E+02  0.00000000000E+00 0. -1.
         25    1    1    2    0    0 -0.93422520873E+02 -0.80341790679E+02  0.76102767146E+03  0.78100620194E+03  0.12500000000E+03 0.  0.
          2    1    1    2  501    0  0.10709393576E+03  0.18940353856E+02 -0.21093783134E+01  0.10877636489E+03  0.00000000000E+00 0. -1.
          1    1    1    2  502    0 -0.13671414890E+02  0.61401436824E+02  0.24818789457E+03  0.25603569095E+03  0.00000000000E+00 0. -1.
<mgrwt>
<rscale>  0 0.82672922E+02</rscale>
<asrwt>0</asrwt>
<pdfrwt beam="1">  1        2 0.16560956E+00 0.62905040E+02</pdfrwt>
<pdfrwt beam="2">  1        1 0.10670160E-01 0.10865285E+03</pdfrwt>
<totfact> 0.19401126E+03</totfact>
</mgrwt>
</event>
<event>
 5    1  0.8274494E-003  0.2429629E+02  0.7546771E-02  0.1697790E+00
          1   -1    0    0  502    0  0.00000000000E+00  0.00000000000E+00  0.55830740863E+03  0.55830740863E+03  0.00000000000E+00 0. -1.
         -1   -1    0    0    0  501 -0.00000000000E+00 -0.00000000000E+00 -0.33357500959E+03  0.33357500959E+03  0.00000000000E+00 0.  1.
         25    1    1    2    0    0  0.22206953663E+02  0.74985935587E+01  0.27960982821E+03  0.30717427256E+03  0.12500000000E+03 0.  0.
          2    1    1    2  502    0 -0.82608734025E+01 -0.23271627715E+02  0.26399196237E+03  0.26514442646E+03  0.00000000000E+00 0. -1.
         -2    1    1    2    0  501 -0.13946080261E+02  0.15773034156E+02 -0.31886939155E+03  0.31956371919E+03  0.00000000000E+00 0.  1.
<mgrwt>
<rscale>  0 0.22617257E+02</rscale>
<asrwt>0</asrwt>
<pdfrwt beam="1">  1        1 0.85893447E-01 0.24296288E+02</pdfrwt>
<pdfrwt beam="2">  1       -1 0.51319232E-01 0.21054258E+02</pdfrwt>
<totfact> 0.16666143E+02</totfact>
</mgrwt>
</event>
<event>
 5    1  0.8274494E-003  0.6989309E+02  0.7546771E-02  0.1399422E+00
          2   -1    0    0  502    0  0.00000000000E+00  0.00000000000E+00  0.14506742256E+04  0.14506742256E+04  0.00000000000E+00 0. -1.
          1   -1    0    0  501    0 -0.00000000000E+00 -0.00000000000E+00 -0.13734189218E+04  0.13734189218E+04  0.00000000000E+00 0. -1.
         25    1    1    2    0    0  0.55056906385E+02  0.94671203594E+02  0.54058784824E+03  0.56555647057E+03  0.12500000000E+03 0.  0.
          2    1    1    2  501    0 -0.11184938133E+02 -0.68939133382E+02 -0.13593168937E+04  0.13611098870E+04  0.00000000000E+00 0. -1.
          1    1    1    2  502    0 -0.43871968253E+02 -0.25732070212E+02  0.89598434921E+03  0.89742678980E+03  0.00000000000E+00 0. -1.
<mgrwt>
<rscale>  0 0.59622689E+02</rscale>
<asrwt>0</asrwt>
<pdfrwt beam="1">  1        2 0.22318065E+00 0.50861469E+02</pdfrwt>
<pdfrwt beam="2">  1        1 0.21129522E+00 0.69893087E+02</pdfrwt>
<totfact> 0.22270176E+01</totfact>
</mgrwt>
</event>
<event>
 5    1  0.8274494E-003  0.4483289E+02  0.7546771E-02  0.1597953E+00
          2   -1    0    0  502    0  0.00000000000E+00  0.00000000000E+00  0.18494250928E+04  0.18494250928E+04  0.00000000000E+00 0. -1.
          1   -1    0    0  501    0 -0.00000000000E+00 -0.00000000000E+00 -0.15668803890E+02  0.15668803890E+02  0.00000000000E+00 0. -1.
         25    1    1    2    0    0 -0.50472863997E+02 -0.70632728989E+01  0.62777252037E+03  0.64212205783E+03  0.12500000000E+03 0.  0.
          2    1    1    2  501    0  0.38224998379E+02  0.22989272889E+02  0.50762182310E+02  0.67575560093E+02  0.00000000000E+00 0. -1.
          1    1    1    2  502    0  0.12247865617E+02 -0.15925999990E+02  0.11552215862E+04  0.11553962787E+04  0.00000000000E+00 0. -1.
<mgrwt>
<rscale>  0 0.30012280E+02</rscale>
<asrwt>0</asrwt>
<pdfrwt beam="1">  1        2 0.28452676E+00 0.20090985E+02</pdfrwt>
<pdfrwt beam="2">  1        1 0.24105867E-02 0.44832890E+02</pdfrwt>
<totfact> 0.59384512E+03</totfact>
</mgrwt>
</event>
<event>
 5    1  0.8274494E-003  0.1128440E+03  0.7546771E-02  0.1275074E+00
          2   -1    0    0  502    0  0.00000000000E+00  0.00000000000E+00  0.20066474229E+04  0.20066474229E+04  0.00000000000E+00 0. -1.
          1   -1    0    0  501    0 -0.00000000000E+00 -0.00000000000E+00 -0.28874749550E+03  0.28874749550E+03  0.00000000000E+00 0. -1.
         25    1    1    2    0    0  0.87271692669E+02  0.89726005913E+02  0.85397917048E+03  0.87210809427E+03  0.12500000000E+03 0.  0.
          2    1    1    2  501    0 -0.88742714129E+02  0.28311234801E+02 -0.26877379762E+03  0.28445764116E+03  0.00000000000E+00 0. -1.
          1    1    1    2  502    0  0.14710214597E+01 -0.11803724071E+03  0.11326945546E+04  0.11388291830E+04  0.00000000000E+00 0. -1.
<mgrwt>
<rscale>  0 0.10252485E+03</rscale>
<asrwt>0</asrwt>
<pdfrwt beam="1">  1        2 0.30871498E+00 0.11284405E+03</pdfrwt>
<pdfrwt beam="2">  1        1 0.44422693E-01 0.93149317E+02</pdfrwt>
<totfact> 0.10156297E+02</totfact>
</mgrwt>
</event>
<event>
 5    1  0.8274494E-003  0.7735300E+02  0.7546771E-02  0.1499361E+00
          1   -1    0    0  502    0  0.00000000000E+00  0.00000000000E+00  0.23070821992E+04  0.23070821992E+04  0.00000000000E+00 0. -1.
         -1   -1    0    0    0  501 -0.00000000000E+00 -0.00000000000E+00 -0.22222385245E+02  0.22222385245E+02  0.00000000000E+00 0.  1.
         25    1    1    2    0    0 -0.55742278352E+02 -0.16776483346E+02  0.71053280587E+03  0.72378900255E+03  0.12500000000E+03 0.  0.
          2    1    1    2  502    0 -0.21543249168E+02 -0.43319213145E+01  0.14864012539E+04  0.14865636767E+04  0.00000000000E+00 0. -1.
         -2    1    1    2    0  501  0.77285527520E+02  0.21108404660E+02  0.87925754132E+02  0.11895190520E+03  0.00000000000E+00 0.  1.
<mgrwt>
<rscale>  0 0.41228520E+02</rscale>
<asrwt>0</asrwt>
<pdfrwt beam="1">  1        1 0.35493553E+00 0.21974465E+02</pdfrwt>
<pdfrwt beam="2">  1       -1 0.34188303E-02 0.77353001E+02</pdfrwt>
<totfact> 0.83895387E+02</totfact>
</mgrwt>
</event>
<event>
 5    1  0.8274494E-003  0.1046891E+03  0.7546771E-02  0.1438170E+00
          2   -1    0    0  502    0  0.00000000000E+00  0.00000000000E+00  0.63500436200E+03  0.63500436200E+03  0.00000000000E+00 0. -1.
          1   -1    0    0  501    0 -0.00000000000E+00 -0.00000000000E+00 -0.94483057672E+02  0.94483057672E+02  0.00000000000E+00 0. -1.
         25    1    1    2    0    0  0.12215077368E+03 -0.35127561241E+02  0.28530279456E+03  0.33641855129E+03  0.12500000000E+03 0.  0.
          2    1    1    2  501    0 -0.97619284051E+02  0.29398940550E+02 -0.30365330404E+02  0.10637610453E+03  0.00000000000E+00 0. -1.
          1    1    1    2  502    0 -0.24531489627E+02  0.57286206904E+01  0.28558384017E+03  0.28669276385E+03  0.00000000000E+00 0. -1.
<mgrwt>
<rscale>  0 0.51354406E+02</rscale>
<asrwt>0</asrwt>
<pdfrwt beam="1">  1        2 0.97692976E-01 0.25191488E+02</pdfrwt>
<pdfrwt beam="2">  1        1 0.14535855E-01 0.10468913E+03</pdfrwt>
<totfact> 0.25287397E+03</totfact>
</mgrwt>
</event>
<event>
 5    1  0.8274494E-003  0.7886210E+02  0.7546771E-02  0.1347695E+00
          1   -1    0    0  501    0 -0.00000000000E+00  0.00000000000E+00  0.62317994315E+03  0.62317994315E+03  0.00000000000E+00 0. -1.
          2   -1    0    0  502    0  0.00000000000E+00 -0.00000000000E+00 -0.44772939420E+03  0.44772939420E+03  0.00000000000E+00 0. -1.
         25    1    1    2    0    0  0.65583935879E+02 -0.12218614098E+03  0.23012473648E+03  0.29633275221E+03  0.12500000000E+03 0.  0.
          2    1    1    2  501    0 -0.45974609756E+02  0.56007213026E+02  0.35337666609E+03  0.36072917929E+03  0.00000000000E+00 0. -1.
          1    1    1    2  502    0 -0.19609326123E+02  0.66178927951E+02 -0.40805085362E+03  0.41384740584E+03  0.00000000000E+00 0. -1.
<mgrwt>
<rscale>  0 0.73778721E+02</rscale>
<asrwt>0</asrwt>
<pdfrwt beam="2">  1        2 0.68881446E-01 0.69023012E+02</pdfrwt>
<pdfrwt beam="1">  1        1 0.95873837E-01 0.78862100E+02</pdfrwt>
<totfact> 0.33971559E+02</totfact>
</mgrwt>
</event>
<event>
 5    1  0.8274494E-003  0.1827570E+03  0.7546771E-02  0.1245038E+00
          2   -1    0    0  502    0  0.00000000000E+00  0.00000000000E+00  0.13701584242E+04  0.13701584242E+04  0.00000000000E+00 0. -1.
          1   -1    0    0  501    0 -0.00000000000E+00 -0.00000000000E+00 -0.26761624599E+04  0.26761624599E+04  0.00000000000E+00 0. -1.
         25    1    1    2    0    0 -0.13841226074E+03  0.19781060033E+03  0.13750390900E+03  0.30466262081E+03  0.12500000000E+03 0.  0.
          2    1    1    2  501    0  0.69746000497E+02 -0.33248275732E+02 -0.25850847135E+04  0.25862391476E+04  0.00000000000E+00 0. -1.
          1    1    1    2  502    0  0.68666260248E+02 -0.16456232460E+03  0.11415767688E+04  0.11554191158E+04  0.00000000000E+00 0. -1.
<mgrwt>
<rscale>  0 0.11883100E+03</rscale>
<asrwt>0</asrwt>
<pdfrwt beam="1">  1        2 0.21079360E+00 0.18275701E+03</pdfrwt>
<pdfrwt beam="2">  1        1 0.41171730E+00 0.77265467E+02</pdfrwt>
<totfact> 0.33192773E+00</totfact>
</mgrwt>
</event>
<event>
 5    1  0.8274494E-003  0.2431585E+03  0.7546771E-02  0.1209976E+00
          2   -1    0    0  502    0  0.00000000000E+00  0.00000000000E+00  0.13769460393E+04  0.13769460393E+04  0.00000000000E+00 0. -1.
          1   -1    0    0  501    0 -0.00000000000E+00 -0.00000000000E+00 -0.74518274555E+03  0.74518274555E+03  0.00000000000E+00 0. -1.
         25    1    1    2    0    0 -0.18721231858E+03 -0.11016534089E+03  0.20069280216E+03  0.32107235228E+03  0.12500000000E+03 0.  0.
          2    1    1    2  501    0 -0.59089043213E+02  0.59048365155E+02 -0.66818487997E+03  0.67338641082E+03  0.00000000000E+00 0. -1.
          1    1    1    2  502    0  0.24630136179E+03  0.51116975733E+02  0.10992553715E+04  0.11276700217E+04  0.00000000000E+00 0. -1.
<mgrwt>
<rscale>  0 0.14252170E+03</rscale>
<asrwt>0</asrwt>
<pdfrwt beam="1">  1        2 0.21183785E+00 0.24315853E+03</pdfrwt>
<pdfrwt beam="2">  1        1 0.11464350E+00 0.83535768E+02</pdfrwt>
<totfact> 0.59739859E+01</totfact>
</mgrwt>
</event>
<event>
 5    1  0.8274494E-003  0.1373001E+03  0.7546771E-02  0.1227697E+00
          1   -1    0    0  501    0 -0.00000000000E+00  0.00000000000E+00  0.19103846791E+04  0.19103846791E+04  0.00000000000E+00 0. -1.
          2   -1    0    0  502    0  0.00000000000E+00 -0.00000000000E+00 -0.30492913997E+03  0.30492913997E+03  0.00000000000E+00 0. -1.
         25    1    1    2    0    0 -0.11250390958E+03  0.22425218693E+03  0.24406903679E+03  0.37167306565E+03  0.12500000000E+03 0.  0.
          2    1    1    2  501    0  0.79610101749E+02 -0.10596007454E+03  0.15839348216E+04  0.15894699824E+04  0.00000000000E+00 0. -1.
          1    1    1    2  502    0  0.32893807830E+02 -0.11829211239E+03 -0.22254831928E+03  0.25417077106E+03  0.00000000000E+00 0. -1.
<mgrwt>
<rscale>  0 0.12983742E+03</rscale>
<asrwt>0</asrwt>
<pdfrwt beam="2">  1        2 0.46912176E-01 0.12278040E+03</pdfrwt>
<pdfrwt beam="1">  1        1 0.29390533E+00 0.13730005E+03</pdfrwt>
<totfact> 0.60940637E+01</totfact>
</mgrwt>
</event>
<event>
 5    1  0.8274494E-003  0.8274011E+02  0.7546771E-02  0.1343104E+00
          2   -1    0    0  502    0  0.00000000000E+00  0.00000000000E+00  0.15152336092E+04  0.15152336092E+04  0.00000000000E+00 0. -1.
          1   -1    0    0  501    0 -0.00000000000E+00 -0.00000000000E+00 -0.33555583983E+03  0.33555583983E+03  0.00000000000E+00 0. -1.
         25    1    1    2    0    0 -0.26865133281E+02  0.55155484660E+02  0.90924842582E+03  0.91984866295E+03  0.12500000000E+03 0.  0.
          2    1    1    2  501    0  0.42567621426E+02  0.53584530718E+02 -0.32160128981E+03  0.32880190682E+03  0.00000000000E+00 0. -1.
          1    1    1    2  502    0 -0.15702488145E+02 -0.10874001538E+03  0.59203063338E+03  0.60213887928E+03  0.00000000000E+00 0. -1.
<mgrwt>
<rscale>  0 0.75248204E+02</rscale>
<asrwt>0</asrwt>
<pdfrwt beam="1">  1        2 0.23311286E+00 0.82740109E+02</pdfrwt>
<pdfrwt beam="2">  1        1 0.51623976E-01 0.68434672E+02</pdfrwt>
<totfact> 0.15428134E+02</totfact>
</mgrwt>
</event>
<event>
 5    1  0.8274494E-003  0.9740441E+02  0.7546771E-02  0.1408658E+00
          1   -1    0    0  501    0 -0.00000000000E+00  0.00000000000E+00  0.88348635994E+03  0.88348635994E+03  0.00000000000E+00 0. -1.
          2   -1    0    0  502    0  0.00000000000E+00 -0.00000000000E+00 -0.43345762846E+03  0.43345762846E+03  0.00000000000E+00 0. -1.
         25    1    1    2    0    0  0.12809691647E+03 -0.96151345114E+01 -0.13023311627E+03  0.22155571623E+03  0.12500000000E+03 0.  0.
          2    1    1    2  501    0 -0.95225600615E+02  0.18051958814E+02  0.83388804503E+03  0.83950167354E+03  0.00000000000E+00 0. -1.
          1    1    1    2  502    0 -0.32871315858E+02 -0.84368243024E+01 -0.25362619728E+03  0.25588659863E+03  0.00000000000E+00 0. -1.
<mgrwt>
<rscale>  0 0.57494257E+02</rscale>
<asrwt>0</asrwt>
<pdfrwt beam="2">  1        2 0.66685789E-01 0.33936756E+02</pdfrwt>
<pdfrwt beam="1">  1        1 0.13592098E+00 0.97404406E+02</pdfrwt>
<totfact> 0.21125144E+02</totfact>
</mgrwt>
</event>
<event>
 5    1  0.8274494E-003  0.3082543E+02  0.7546771E-02  0.1639109E+00
         -2   -1    0    0    0  501 -0.00000000000E+00  0.00000000000E+00  0.14032044826E+02  0.14032044826E+02  0.00000000000E+00 0.  1.
          2   -1    0    0  502    0  0.00000000000E+00 -0.00000000000E+00 -0.88958745812E+03  0.88958745812E+03  0.00000000000E+00 0. -1.
         25    1    1    2    0    0 -0.16652817625E+02  0.26523550018E+01 -0.33645278807E+03  0.35931856328E+03  0.12500000000E+03 0.  0.
          1    1    1    2  502    0  0.25802393276E+02  0.18387639040E+02 -0.47773776435E+03  0.47878725991E+03  0.00000000000E+00 0. -1.
         -1    1    1    2    0  501 -0.91495756510E+01 -0.21039994042E+02 -0.61364860876E+02  0.65513679749E+02  0.00000000000E+00 0.  1.
<mgrwt>
<rscale>  0 0.26593942E+02</rscale>
<asrwt>0</asrwt>
<pdfrwt beam="2">  1        2 0.13685967E+00 0.30825427E+02</pdfrwt>
<pdfrwt beam="1">  1       -2 0.21587752E-02 0.22943323E+02</pdfrwt>
<totfact> 0.16562555E+04</totfact>
</mgrwt>
</event>
<event>
 5    1  0.8274494E-003  0.1613442E+03  0.7546771E-02  0.1225929E+00
          1   -1    0    0  501    0 -0.00000000000E+00  0.00000000000E+00  0.12413490370E+03  0.12413490370E+03  0.00000000000E+00 0. -1.
          2   -1    0    0  502    0  0.00000000000E+00 -0.00000000000E+00 -0.26518428328E+04  0.26518428328E+04  0.00000000000E+00 0. -1.
         25    1    1    2    0    0 -0.15985566799E+03  0.82680453599E+02 -0.34473587837E+03  0.40848221238E+03  0.12500000000E+03 0.  0.
          2    1    1    2  501    0  0.86333353246E+02  0.62221484308E+02  0.57621898560E+02  0.12101753669E+03  0.00000000000E+00 0. -1.
          1    1    1    2  502    0  0.73522314745E+02 -0.14490193791E+03 -0.22405939493E+04  0.22464779874E+04  0.00000000000E+00 0. -1.
<mgrwt>
<rscale>  0 0.13103457E+03</rscale>
<asrwt>0</asrwt>
<pdfrwt beam="2">  1        2 0.40797579E+00 0.16134423E+03</pdfrwt>
<pdfrwt beam="1">  1        1 0.19097679E-01 0.10641880E+03</pdfrwt>
<totfact> 0.12692278E+02</totfact>
</mgrwt>
</event>
<event>
 5    1  0.8274494E-003  0.6078279E+02  0.7546771E-02  0.1408269E+00
          2   -1    0    0  502    0  0.00000000000E+00  0.00000000000E+00  0.17755552390E+04  0.17755552390E+04  0.00000000000E+00 0. -1.
          1   -1    0    0  501    0 -0.00000000000E+00 -0.00000000000E+00 -0.32700149528E+03  0.32700149528E+03  0.00000000000E+00 0. -1.
         25    1    1    2    0    0 -0.80152771827E+02  0.73425825650E+02  0.27936810157E+03  0.32478816924E+03  0.12500000000E+03 0.  0.
          2    1    1    2  501    0  0.54905868654E+02 -0.25070539843E+02 -0.30078740882E+03  0.30678372135E+03  0.00000000000E+00 0. -1.
          1    1    1    2  502    0  0.25246903173E+02 -0.48355285807E+02  0.14699730510E+04  0.14709848437E+04  0.00000000000E+00 0. -1.
<mgrwt>
<rscale>  0 0.57581822E+02</rscale>
<asrwt>0</asrwt>
<pdfrwt beam="1">  1        2 0.27316234E+00 0.54549425E+02</pdfrwt>
<pdfrwt beam="2">  1        1 0.50307923E-01 0.60782790E+02</pdfrwt>
<totfact> 0.12287099E+02</totfact>
</mgrwt>
</event>
<event>
 5    1  0.8274494E-003  0.3688045E+02  0.7546771E-02  0.1562294E+00
          2   -1    0    0  502    0  0.00000000000E+00  0.00000000000E+00  0.41087318862E+03  0.41087318862E+03  0.00000000000E+00 0. -1.
          1   -1    0    0  501    0 -0.00000000000E+00 -0.00000000000E+00 -0.71335072524E+02  0.71335072524E+02  0.00000000000E+00 0. -1.
         25    1    1    2    0    0  0.25809971367E+02  0.12149948573E+02  0.41036793027E+01  0.12827944518E+03  0.12500000000E+03 0.  0.
          2    1    1    2  501    0 -0.48862938172E+02  0.77256173737E+01  0.64483555072E+02  0.81273616662E+02  0.00000000000E+00 0. -1.
          1    1    1    2  502    0  0.23052966804E+02 -0.19875565946E+02  0.27095088172E+03  0.27265519930E+03  0.00000000000E+00 0. -1.
<mgrwt>
<rscale>  0 0.33504784E+02</rscale>
<asrwt>0</asrwt>
<pdfrwt beam="1">  1        2 0.63211258E-01 0.30438091E+02</pdfrwt>
<pdfrwt beam="2">  1        1 0.10974627E-01 0.36880451E+02</pdfrwt>
<totfact> 0.53012388E+03</totfact>
</mgrwt>
</event>
<event>
 5    1  0.8274494E-003  0.8239781E+02  0.7546771E-02  0.1388722E+00
         -2   -1    0    0    0  501 -0.00000000000E+00  0.00000000000E+00  0.76273290462E+02  0.76273290462E+02  0.00000000000E+00 0.  1.
          2   -1    0    0  502    0  0.00000000000E+00 -0.00000000000E+00 -0.47197233585E+03  0.47197233585E+03  0.00000000000E+00 0. -1.
         25    1    1    2    0    0  0.25582557322E+02 -0.76198696450E+02 -0.51643441079E+02  0.15733007845E+03  0.12500000000E+03 0.  0.
          1    1    1    2  502    0 -0.65791023868E+02  0.51877749331E+02 -0.33199058667E+03  0.34239963396E+03  0.00000000000E+00 0. -1.
         -1    1    1    2    0  501  0.40208466546E+02  0.24320947119E+02 -0.12065017637E+02  0.48515913898E+02  0.00000000000E+00 0.  1.
<mgrwt>
<rscale>  0 0.62225568E+02</rscale>
<asrwt>0</asrwt>
<pdfrwt beam="2">  1        2 0.72611128E-01 0.82397809E+02</pdfrwt>
<pdfrwt beam="1">  1       -2 0.11734352E-01 0.46991800E+02</pdfrwt>
<totfact> 0.31071677E+03</totfact>
</mgrwt>
</event>
<event>
 5    1  0.8274494E-003  0.4207691E+02  0.7546771E-02  0.1496745E+00
          1   -1    0    0  501    0 -0.00000000000E+00  0.00000000000E+00  0.67976224132E+03  0.67976224132E+03  0.00000000000E+00 0. -1.
          2   -1    0    0  502    0  0.00000000000E+00 -0.00000000000E+00 -0.10183051491E+04  0.10183051491E+04  0.00000000000E+00 0. -1.
         25    1    1    2    0    0  0.89991182508E+01 -0.35096594436E+02  0.80616631665E+02  0.15309081086E+03  0.12500000000E+03 0.  0.
          2    1    1    2  501    0  0.32115924502E+02  0.25698190302E+02  0.56170337511E+03  0.56320734299E+03  0.00000000000E+00 0. -1.
          1    1    1    2  502    0 -0.41115042753E+02  0.93984041333E+01 -0.98086291451E+03  0.98176923653E+03  0.00000000000E+00 0. -1.
<mgrwt>
<rscale>  0 0.41601698E+02</rscale>
<asrwt>0</asrwt>
<pdfrwt beam="2">  1        2 0.15666233E+00 0.42076907E+02</pdfrwt>
<pdfrwt beam="1">  1        1 0.10457881E+00 0.41131856E+02</pdfrwt>
<totfact> 0.12277152E+02</totfact>
</mgrwt>
</event>
<event>
 5    1  0.8274494E-003  0.1184823E+03  0.7546771E-02  0.1263597E+00
          2   -1    0    0  502    0  0.00000000000E+00  0.00000000000E+00  0.14683819918E+04  0.14683819918E+04  0.00000000000E+00 0. -1.
          1   -1    0    0  501    0 -0.00000000000E+00 -0.00000000000E+00 -0.26064147603E+03  0.26064147603E+03  0.00000000000E+00 0. -1.
         25    1    1    2    0    0  0.11544426353E+02  0.16330751403E+03  0.84598391059E+03  0.87069879688E+03  0.12500000000E+03 0.  0.
          2    1    1    2  501    0  0.64189741238E+02 -0.99328111765E+02 -0.22983819632E+03  0.25848016008E+03  0.00000000000E+00 0. -1.
          1    1    1    2  502    0 -0.75734167591E+02 -0.63979402260E+02  0.59159480153E+03  0.59984451090E+03  0.00000000000E+00 0. -1.
<mgrwt>
<rscale>  0 0.10838133E+03</rscale>
<asrwt>0</asrwt>
<pdfrwt beam="1">  1        2 0.22590492E+00 0.99141455E+02</pdfrwt>
<pdfrwt beam="2">  1        1 0.40098690E-01 0.11848234E+03</pdfrwt>
<totfact> 0.21882379E+02</totfact>
</mgrwt>
</event>
<event>
 5    1  0.8274494E-003  0.1129263E+03  0.7546771E-02  0.1307344E+00
         -2   -1    0    0    0  501  0.00000000000E+00  0.00000000000E+00  0.19813621622E+03  0.19813621622E+03  0.00000000000E+00 0.  1.
         -1   -1    0    0    0  502 -0.00000000000E+00 -0.00000000000E+00 -0.17998425451E+03  0.17998425451E+03  0.00000000000E+00 0.  1.
         25    1    1    2    0    0  0.68447458034E+01  0.67449561438E+02  0.47259408447E+02  0.14984907597E+03  0.12500000000E+03 0.  0.
         -2    1    1    2    0  502  0.21107567815E+02 -0.13036052099E+03 -0.68697332344E+02  0.14885804756E+03  0.00000000000E+00 0.  1.
         -1    1    1    2    0  501 -0.27952313618E+02  0.62910959556E+02  0.39589885607E+02  0.79413347185E+02  0.00000000000E+00 0.  1.
<mgrwt>
<rscale>  0 0.88170230E+02</rscale>
<asrwt>0</asrwt>
<pdfrwt beam="1">  1       -2 0.30482495E-01 0.68841272E+02</pdfrwt>
<pdfrwt beam="2">  1       -1 0.27689885E-01 0.11292629E+03</pdfrwt>
<totfact> 0.82776786E+02</totfact>
</mgrwt>
</event>
<event>
 5    1  0.8274494E-003  0.1741465E+03  0.7546771E-02  0.1302091E+00
          1   -1    0    0  501    0 -0.00000000000E+00  0.00000000000E+00  0.61343959438E+03  0.61343959438E+03  0.00000000000E+00 0. -1.
          2   -1    0    0  502    0  0.00000000000E+00 -0.00000000000E+00 -0.31768148865E+04  0.31768148865E+04  0.00000000000E+00 0. -1.
         25    1    1    2    0    0 -0.65077630600E+02  0.17682058771E+03  0.86317493053E+02  0.24202546943E+03  0.12500000000E+03 0.  0.
          2    1    1    2  501    0  0.96752325390E+02 -0.14231598627E+03  0.43260415609E+03  0.46557621103E+03  0.00000000000E+00 0. -1.
          1    1    1    2  502    0 -0.31674694790E+02 -0.34504601443E+02 -0.30822969412E+04  0.30826528004E+04  0.00000000000E+00 0. -1.
<mgrwt>
<rscale>  0 0.90314885E+02</rscale>
<asrwt>0</asrwt>
<pdfrwt beam="2">  1        2 0.48874074E+00 0.46838593E+02</pdfrwt>
<pdfrwt beam="1">  1        1 0.94375325E-01 0.17414653E+03</pdfrwt>
<totfact> 0.10446163E+01</totfact>
</mgrwt>
</event>
<event>
 5    1  0.8274494E-003  0.3064778E+02  0.7546771E-02  0.1616723E+00
          2   -1    0    0  502    0  0.00000000000E+00  0.00000000000E+00  0.95749389664E+02  0.95749389664E+02  0.00000000000E+00 0. -1.
          1   -1    0    0  501    0 -0.00000000000E+00 -0.00000000000E+00 -0.11898793645E+04  0.11898793645E+04  0.00000000000E+00 0. -1.
         25    1    1    2    0    0  0.98457745207E+01  0.50409874440E+02 -0.41283931495E+02  0.14130625505E+03  0.12500000000E+03 0.  0.
          2    1    1    2  501    0 -0.17302784722E+02 -0.25210776273E+02 -0.10945783140E+04  0.10950053219E+04  0.00000000000E+00 0. -1.
          1    1    1    2  502    0  0.74570102011E+01 -0.25199098167E+02  0.41732270661E+02  0.49317177171E+02  0.00000000000E+00 0. -1.
<mgrwt>
<rscale>  0 0.28379607E+02</rscale>
<asrwt>0</asrwt>
<pdfrwt beam="1">  1        2 0.14730675E-01 0.26279299E+02</pdfrwt>
<pdfrwt beam="2">  1        1 0.18305836E+00 0.30647778E+02</pdfrwt>
<totfact> 0.66199585E+02</totfact>
</mgrwt>
</event>
<event>
 5    1  0.8274494E-003  0.7197536E+02  0.7546771E-02  0.1443473E+00
          2   -1    0    0  502    0  0.00000000000E+00  0.00000000000E+00  0.10452546954E+03  0.10452546954E+03  0.00000000000E+00 0. -1.
          1   -1    0    0  501    0 -0.00000000000E+00 -0.00000000000E+00 -0.59779431122E+03  0.59779431122E+03  0.00000000000E+00 0. -1.
         25    1    1    2    0    0 -0.86135129161E+02  0.45980927439E+02 -0.15062529766E+02  0.15932791961E+03  0.12500000000E+03 0.  0.
          2    1    1    2  501    0  0.28693152278E+02 -0.20423414707E+02 -0.47882426612E+03  0.48011778834E+03  0.00000000000E+00 0. -1.
          1    1    1    2  502    0  0.57441976883E+02 -0.25557512732E+02  0.61795420130E+00  0.62874072818E+02  0.00000000000E+00 0. -1.
<mgrwt>
<rscale>  0 0.50348146E+02</rscale>
<asrwt>0</asrwt>
<pdfrwt beam="1">  1        2 0.16080842E-01 0.71975359E+02</pdfrwt>
<pdfrwt beam="2">  1        1 0.91968354E-01 0.35219495E+02</pdfrwt>
<totfact> 0.17387664E+03</totfact>
</mgrwt>
</event>
<event>
 5    1  0.8274494E-003  0.7651248E+02  0.7546771E-02  0.1421612E+00
          2   -1    0    0  502    0  0.00000000000E+00  0.00000000000E+00  0.22756424023E+03  0.22756424023E+03  0.00000000000E+00 0. -1.
          1   -1    0    0  501    0 -0.00000000000E+00 -0.00000000000E+00 -0.40394031737E+03  0.40394031737E+03  0.00000000000E+00 0. -1.
         25    1    1    2    0    0  0.79209373617E+02  0.64098310752E+02  0.39920424889E+01  0.16131848844E+03  0.12500000000E+03 0.  0.
          2    1    1    2  501    0 -0.40130751388E+02 -0.63870353429E+02 -0.31814969534E+03  0.32696961311E+03  0.00000000000E+00 0. -1.
          1    1    1    2  502    0 -0.39078622229E+02 -0.22795732389E+00  0.13778157570E+03  0.14321645605E+03  0.00000000000E+00 0. -1.
<mgrwt>
<rscale>  0 0.54681380E+02</rscale>
<asrwt>0</asrwt>
<pdfrwt beam="1">  1        2 0.35009884E-01 0.39079287E+02</pdfrwt>
<pdfrwt beam="2">  1        1 0.62144663E-01 0.76512484E+02</pdfrwt>
<totfact> 0.11817919E+03</totfact>
</mgrwt>
</event>
<event>
 5    1  0.8274494E-003  0.5850664E+02  0.7546771E-02  0.1467608E+00
         -1   -1    0    0    0  501 -0.00000000000E+00  0.00000000000E+00  0.32938914397E+03  0.32938914397E+03  0.00000000000E+00 0.  1.
          1   -1    0    0  502    0  0.00000000000E+00 -0.00000000000E+00 -0.99142406162E+03  0.99142406162E+03  0.00000000000E+00 0. -1.
         25    1    1    2    0    0  0.33701813056E+01  0.53241720025E+02  0.60125573224E+02  0.14861400818E+03  0.12500000000E+03 0.  0.
          2    1    1    2  502    0  0.32664956431E+02 -0.48707763217E+02 -0.94479914656E+03  0.94661759593E+03  0.00000000000E+00 0. -1.
         -2    1    1    2    0  501 -0.36035137736E+02 -0.45339568082E+01  0.22263865569E+03  0.22558160147E+03  0.00000000000E+00 0.  1.
<mgrwt>
<rscale>  0 0.46096825E+02</rscale>
<asrwt>0</asrwt>
<pdfrwt beam="2">  1        1 0.15252678E+00 0.58506641E+02</pdfrwt>
<pdfrwt beam="1">  1       -1 0.50675253E-01 0.36319250E+02</pdfrwt>
<totfact> 0.73504045E+01</totfact>
</mgrwt>
</event>
<event>
 5    1  0.8274494E-003  0.4927517E+02  0.7546771E-02  0.1501599E+00
         -1   -1    0    0    0  501 -0.00000000000E+00  0.00000000000E+00  0.22976759194E+03  0.22976759194E+03  0.00000000000E+00 0.  1.
          1   -1    0    0  502    0  0.00000000000E+00 -0.00000000000E+00 -0.45421868194E+03  0.45421868194E+03  0.00000000000E+00 0. -1.
         25    1    1    2    0    0 -0.25948625191E+02  0.75137879111E+02 -0.19322986321E+03  0.24347856592E+03  0.12500000000E+03 0.  0.
          2    1    1    2  502    0  0.21301133093E+02 -0.26461392260E+02 -0.23168721383E+03  0.23416427695E+03  0.00000000000E+00 0. -1.
         -2    1    1    2    0  501  0.46474920988E+01 -0.48676486850E+02  0.20046598705E+03  0.20634343100E+03  0.00000000000E+00 0.  1.
<mgrwt>
<rscale>  0 0.40912894E+02</rscale>
<asrwt>0</asrwt>
<pdfrwt beam="2">  1        1 0.69879797E-01 0.33969745E+02</pdfrwt>
<pdfrwt beam="1">  1       -1 0.35348860E-01 0.49275170E+02</pdfrwt>
<totfact> 0.40564253E+02</totfact>
</mgrwt>
</event>
<event>
 5    1  0.8274494E-003  0.7233102E+02  0.7546771E-02  0.1362506E+00
          1   -1    0    0  501    0 -0.00000000000E+00  0.00000000000E+00  0.75154442580E+03  0.75154442580E+03  0.00000000000E+00 0. -1.
          2   -1    0    0  502    0  0.00000000000E+00 -0.00000000000E+00 -0.27856142720E+04  0.27856142720E+04  0.00000000000E+00 0. -1.
         25    1    1    2    0    0 -0.11558258287E+03  0.72211707554E+02 -0.50223986557E+03  0.53520439716E+03  0.12500000000E+03 0.  0.
          2    1    1    2  501    0  0.58671416896E+02 -0.31063280074E+02  0.73301782235E+03  0.73601792805E+03  0.00000000000E+00 0. -1.
          1    1    1    2  502    0  0.56911165975E+02 -0.41148427480E+02 -0.22648478030E+04  0.22659363726E+04  0.00000000000E+00 0. -1.
<mgrwt>
<rscale>  0 0.69295418E+02</rscale>
<asrwt>0</asrwt>
<pdfrwt beam="2">  1        2 0.42855604E+00 0.72331018E+02</pdfrwt>
<pdfrwt beam="1">  1        1 0.11562222E+00 0.66387217E+02</pdfrwt>
<totfact> 0.12508456E+01</totfact>
</mgrwt>
</event>
<event>
 5    1  0.8274494E-003  0.4063702E+02  0.7546771E-02  0.1510842E+00
         -2   -1    0    0    0  501 -0.00000000000E+00  0.00000000000E+00  0.50659078795E+02  0.50659078795E+02  0.00000000000E+00 0.  1.
          2   -1    0    0  502    0  0.00000000000E+00 -0.00000000000E+00 -0.50962321026E+03  0.50962321026E+03  0.00000000000E+00 0. -1.
         25    1    1    2    0    0 -0.23801561585E+02 -0.42382454061E+02 -0.15942721094E+03  0.20833824021E+03  0.12500000000E+03 0.  0.
          1    1    1    2  502    0  0.38499654470E+02  0.36972920182E+01 -0.30739727939E+03  0.30982088493E+03  0.00000000000E+00 0. -1.
         -1    1    1    2    0  501 -0.14698092885E+02  0.38685162043E+02  0.78603588641E+01  0.42123163915E+02  0.00000000000E+00 0.  1.
<mgrwt>
<rscale>  0 0.39644788E+02</rscale>
<asrwt>0</asrwt>
<pdfrwt beam="2">  1        2 0.78403571E-01 0.38676781E+02</pdfrwt>
<pdfrwt beam="1">  1       -2 0.77937044E-02 0.40637023E+02</pdfrwt>
<totfact> 0.53089584E+03</totfact>
</mgrwt>
</event>
<event>
 5    1  0.8274494E-003  0.1268402E+03  0.7546771E-02  0.1276376E+00
          1   -1    0    0  502    0  0.00000000000E+00  0.00000000000E+00  0.22091798562E+04  0.22091798562E+04  0.00000000000E+00 0. -1.
         -1   -1    0    0    0  501 -0.00000000000E+00 -0.00000000000E+00 -0.29843060184E+03  0.29843060184E+03  0.00000000000E+00 0.  1.
         25    1    1    2    0    0  0.28811728167E+02 -0.17096225490E+03  0.17390109118E+03  0.27554454775E+03  0.12500000000E+03 0.  0.
          2    1    1    2  502    0  0.35633095341E+02  0.12051193154E+03  0.19756425821E+04  0.19796354349E+04  0.00000000000E+00 0. -1.
         -2    1    1    2    0  501 -0.64444823509E+02  0.50450323362E+02 -0.23879441889E+03  0.25243047537E+03  0.00000000000E+00 0.  1.
<mgrwt>
<rscale>  0 0.10188745E+03</rscale>
<asrwt>0</asrwt>
<pdfrwt beam="1">  1        1 0.33987381E+00 0.12684018E+03</pdfrwt>
<pdfrwt beam="2">  1       -1 0.45912402E-01 0.81843573E+02</pdfrwt>
<totfact> 0.13289379E+01</totfact>
</mgrwt>
</event>
<event>
 5    1  0.8274494E-003  0.2732160E+02  0.7546771E-02  0.1632554E+00
          2   -1    0    0  502    0  0.00000000000E+00  0.00000000000E+00  0.20437346623E+02  0.20437346623E+02  0.00000000000E+00 0. -1.
          1   -1    0    0  501    0 -0.00000000000E+00 -0.00000000000E+00 -0.46750515987E+03  0.46750515987E+03  0.00000000000E+00 0. -1.
         25    1    1    2    0    0 -0.35746890060E+01 -0.11090959721E+02 -0.32047525765E+03  0.34418770831E+03  0.12500000000E+03 0.  0.
          2    1    1    2  501    0 -0.21329125867E+02  0.22327954164E+02 -0.10341487329E+03  0.10792638772E+03  0.00000000000E+00 0. -1.
          1    1    1    2  502    0  0.24903814873E+02 -0.11236994443E+02 -0.23177682312E+02  0.35828410469E+02  0.00000000000E+00 0. -1.
<mgrwt>
<rscale>  0 0.27099743E+02</rscale>
<asrwt>0</asrwt>
<pdfrwt beam="1">  1        2 0.31442073E-02 0.27321604E+02</pdfrwt>
<pdfrwt beam="2">  1        1 0.71923869E-01 0.26879684E+02</pdfrwt>
<totfact> 0.15723934E+04</totfact>
</mgrwt>
</event>
<event>
 5    1  0.8274494E-003  0.4211687E+02  0.7546771E-02  0.1526098E+00
          1   -1    0    0  501    0 -0.00000000000E+00  0.00000000000E+00  0.31647130092E+03  0.31647130092E+03  0.00000000000E+00 0. -1.
          2   -1    0    0  502    0  0.00000000000E+00 -0.00000000000E+00 -0.11086102169E+03  0.11086102169E+03  0.00000000000E+00 0. -1.
         25    1    1    2    0    0 -0.31146012075E+02 -0.12080810887E+02 -0.29753329330E+01  0.12942129912E+03  0.12500000000E+03 0.  0.
          2    1    1    2  501    0  0.13210628540E+02  0.40601736793E+02  0.24477220836E+03  0.24846821874E+03  0.00000000000E+00 0. -1.
          1    1    1    2  502    0  0.17935383535E+02 -0.28520925906E+02 -0.36186596199E+02  0.49442804750E+02  0.00000000000E+00 0. -1.
<mgrwt>
<rscale>  0 0.37669390E+02</rscale>
<asrwt>0</asrwt>
<pdfrwt beam="2">  1        2 0.17055542E-01 0.33691560E+02</pdfrwt>
<pdfrwt beam="1">  1        1 0.48687892E-01 0.42116867E+02</pdfrwt>
<totfact> 0.33841134E+03</totfact>
</mgrwt>
</event>
<event>
 5    1  0.1072499E-002  0.1182899E+03  0.7546771E-02  0.1384902E+00
          2   -1    0    0  502    0  0.00000000000E+00  0.00000000000E+00  0.35103148665E+03  0.35103148665E+03  0.00000000000E+00 0. -1.
         -2   -1    0    0    0  501 -0.00000000000E+00 -0.00000000000E+00 -0.77343327721E+02  0.77343327721E+02  0.00000000000E+00 0.  1.
         25    1    1    2    0    0  0.12084099296E+03 -0.20203088802E+02  0.12477521689E+03  0.21495247179E+03  0.12500000000E+03 0.  0.
          1    1    1    2  502    0 -0.48950037553E+01  0.33401824925E+02  0.18781606537E+02  0.38631486046E+02  0.00000000000E+00 0. -1.
         -1    1    1    2    0  501 -0.11594598921E+03 -0.13198736122E+02  0.13013133551E+03  0.17479085654E+03  0.00000000000E+00 0.  1.
<mgrwt>
<rscale>  0 0.63192582E+02</rscale>
<asrwt>0</asrwt>
<pdfrwt beam="1">  1        2 0.54004843E-01 0.33758598E+02</pdfrwt>
<pdfrwt beam="2">  1       -2 0.11898974E-01 0.11828993E+03</pdfrwt>
<totfact> 0.43920682E+03</totfact>
</mgrwt>
</event>
<event>
 5    1  0.8274494E-003  0.9062243E+02  0.7546771E-02  0.1425843E+00
          1   -1    0    0  501    0 -0.00000000000E+00  0.00000000000E+00  0.16328795728E+03  0.16328795728E+03  0.00000000000E+00 0. -1.
          2   -1    0    0  502    0  0.00000000000E+00 -0.00000000000E+00 -0.13623208070E+04  0.13623208070E+04  0.00000000000E+00 0. -1.
         25    1    1    2    0    0 -0.69095738199E+02  0.70941501178E+02 -0.21512179265E+03  0.26778592812E+03  0.12500000000E+03 0.  0.
          2    1    1    2  501    0  0.30132058104E+02  0.10605348855E+02  0.13324317480E+03  0.13701882345E+03  0.00000000000E+00 0. -1.
          3    1    1    2  502    0  0.38963680094E+02 -0.81546850033E+02 -0.11171542318E+04  0.11208040127E+04  0.00000000000E+00 0. -1.
<mgrwt>
<rscale>  0 0.53803683E+02</rscale>
<asrwt>0</asrwt>
<pdfrwt beam="2">  1        2 0.20958781E+00 0.90622435E+02</pdfrwt>
<pdfrwt beam="1">  1        1 0.25121225E-01 0.31943925E+02</pdfrwt>
<totfact> 0.42846559E+02</totfact>
</mgrwt>
</event>
<event>
 5    1  0.8274494E-003  0.6342717E+02  0.7546771E-02  0.1503330E+00
          1   -1    0    0  501    0 -0.00000000000E+00  0.00000000000E+00  0.34867015280E+02  0.34867015280E+02  0.00000000000E+00 0. -1.
          2   -1    0    0  502    0  0.00000000000E+00 -0.00000000000E+00 -0.56925634900E+03  0.56925634900E+03  0.00000000000E+00 0. -1.
         25    1    1    2    0    0 -0.31888322790E+02 -0.26202931730E+02 -0.15147814456E+03  0.20068404780E+03  0.12500000000E+03 0.  0.
          2    1    1    2  501    0 -0.12342389838E+02 -0.22973951846E+02 -0.15961277623E+02  0.30576125224E+02  0.00000000000E+00 0. -1.
          1    1    1    2  502    0  0.44230712627E+02  0.49176883576E+02 -0.36694991153E+03  0.37286319125E+03  0.00000000000E+00 0. -1.
<mgrwt>
<rscale>  0 0.40671180E+02</rscale>
<asrwt>0</asrwt>
<pdfrwt beam="2">  1        2 0.87577891E-01 0.63427170E+02</pdfrwt>
<pdfrwt beam="1">  1        1 0.53641568E-02 0.26079437E+02</pdfrwt>
<totfact> 0.90171629E+03</totfact>
</mgrwt>
</event>
<event>
 5    1  0.8274494E-003  0.5842109E+02  0.7546771E-02  0.1409606E+00
          2   -1    0    0  502    0  0.00000000000E+00  0.00000000000E+00  0.99657801304E+03  0.99657801304E+03  0.00000000000E+00 0. -1.
          1   -1    0    0  501    0 -0.00000000000E+00 -0.00000000000E+00 -0.18747769720E+03  0.18747769720E+03  0.00000000000E+00 0. -1.
         25    1    1    2    0    0 -0.51404390355E+02  0.19937411531E+02  0.48043677122E+03  0.49948413675E+03  0.12500000000E+03 0.  0.
          2    1    1    2  501    0  0.99795055937E+01 -0.57864558797E+02 -0.17149524076E+03  0.18126917912E+03  0.00000000000E+00 0. -1.
          1    1    1    2  502    0  0.41424884761E+02  0.37927147266E+02  0.50015878538E+03  0.50330239436E+03  0.00000000000E+00 0. -1.
<mgrwt>
<rscale>  0 0.57281857E+02</rscale>
<asrwt>0</asrwt>
<pdfrwt beam="1">  1        2 0.15331969E+00 0.56164843E+02</pdfrwt>
<pdfrwt beam="2">  1        1 0.28842723E-01 0.58421087E+02</pdfrwt>
<totfact> 0.60224444E+02</totfact>
</mgrwt>
</event>
<event>
 5    1  0.8274494E-003  0.1063585E+03  0.7546771E-02  0.1388249E+00
          1   -1    0    0  501    0 -0.00000000000E+00  0.00000000000E+00  0.24711476733E+04  0.24711476733E+04  0.00000000000E+00 0. -1.
          2   -1    0    0  502    0  0.00000000000E+00 -0.00000000000E+00 -0.15871530890E+03  0.15871530890E+03  0.00000000000E+00 0. -1.
         25    1    1    2    0    0 -0.12021623143E+02  0.13867054557E+03  0.71079399539E+02  0.20012826055E+03  0.12500000000E+03 0.  0.
          2    1    1    2  501    0  0.21876531090E+02 -0.10347987444E+03  0.23307541776E+04  0.23331527390E+04  0.00000000000E+00 0. -1.
          1    1    1    2  502    0 -0.98549079478E+01 -0.35190671127E+02 -0.89401212714E+02  0.96581982687E+02  0.00000000000E+00 0. -1.
<mgrwt>
<rscale>  0 0.62344389E+02</rscale>
<asrwt>0</asrwt>
<pdfrwt beam="2">  1        2 0.24417742E-01 0.36544528E+02</pdfrwt>
<pdfrwt beam="1">  1        1 0.38017654E+00 0.10635854E+03</pdfrwt>
<totfact> 0.53413014E+01</totfact>
</mgrwt>
</event>
<event>
 5    1  0.8274494E-003  0.5383364E+02  0.7546771E-02  0.1441419E+00
          1   -1    0    0  501    0 -0.00000000000E+00  0.00000000000E+00  0.26602628356E+03  0.26602628356E+03  0.00000000000E+00 0. -1.
          2   -1    0    0  502    0  0.00000000000E+00 -0.00000000000E+00 -0.52086132729E+03  0.52086132729E+03  0.00000000000E+00 0. -1.
         25    1    1    2    0    0 -0.69493451491E+02  0.73147698351E+02  0.12241916339E+03  0.20196875288E+03  0.12500000000E+03 0.  0.
          2    1    1    2  501    0  0.29907639349E+02 -0.37305666598E+02  0.96747873160E+02  0.10791816628E+03  0.00000000000E+00 0. -1.
          1    1    1    2  502    0  0.39585812142E+02 -0.35842031752E+02 -0.47400208029E+03  0.47700069170E+03  0.00000000000E+00 0. -1.
<mgrwt>
<rscale>  0 0.50734627E+02</rscale>
<asrwt>0</asrwt>
<pdfrwt beam="2">  1        2 0.80132512E-01 0.53833642E+02</pdfrwt>
<pdfrwt beam="1">  1        1 0.40927120E-01 0.47814011E+02</pdfrwt>
<totfact> 0.83936248E+02</totfact>
</mgrwt>
</event>
<event>
 5    1  0.8274494E-003  0.8320478E+02  0.7546771E-02  0.1474725E+00
         -2   -1    0    0    0  501 -0.00000000000E+00  0.00000000000E+00  0.20454023870E+03  0.20454023870E+03  0.00000000000E+00 0.  1.
          2   -1    0    0  502    0  0.00000000000E+00 -0.00000000000E+00 -0.91778329022E+03  0.91778329022E+03  0.00000000000E+00 0. -1.
         25    1    1    2    0    0 -0.37404288867E+02  0.48054874867E+02 -0.74955778311E+03  0.76234521186E+03  0.12500000000E+03 0.  0.
          1    1    1    2  502    0 -0.21685523445E+02  0.10901037772E+02 -0.15203557113E+03  0.15396073994E+03  0.00000000000E+00 0. -1.
         -1    1    1    2    0  501  0.59089812312E+02 -0.58955912640E+02  0.18835030272E+03  0.20601757713E+03  0.00000000000E+00 0.  1.
<mgrwt>
<rscale>  0 0.44938689E+02</rscale>
<asrwt>0</asrwt>
<pdfrwt beam="2">  1        2 0.14119743E+00 0.24271270E+02</pdfrwt>
<pdfrwt beam="1">  1       -2 0.31467729E-01 0.83204785E+02</pdfrwt>
<totfact> 0.30638464E+02</totfact>
</mgrwt>
</event>
<event>
 5    1  0.8274494E-003  0.9572731E+02  0.7546771E-02  0.1372577E+00
          1   -1    0    0  501    0 -0.00000000000E+00  0.00000000000E+00  0.27913720562E+03  0.27913720562E+03  0.00000000000E+00 0. -1.
          2   -1    0    0  502    0  0.00000000000E+00 -0.00000000000E+00 -0.73284296680E+03  0.73284296680E+03  0.00000000000E+00 0. -1.
         25    1    1    2    0    0  0.12955135336E+03 -0.20663341958E+02 -0.13214341035E+03  0.22427083572E+03  0.12500000000E+03 0.  0.
          2    1    1    2  501    0 -0.93660874951E+02 -0.83247645798E+01  0.22257369068E+03  0.24162100278E+03  0.00000000000E+00 0. -1.
          1    1    1    2  502    0 -0.35890478406E+02  0.28988106538E+02 -0.54413604152E+03  0.54608833392E+03  0.00000000000E+00 0. -1.
<mgrwt>
<rscale>  0 0.66455835E+02</rscale>
<asrwt>0</asrwt>
<pdfrwt beam="2">  1        2 0.11274507E+00 0.46134984E+02</pdfrwt>
<pdfrwt beam="1">  1        1 0.42944186E-01 0.95727312E+02</pdfrwt>
<totfact> 0.54889271E+02</totfact>
</mgrwt>
</event>
<event>
 5    1  0.8274494E-003  0.8326187E+02  0.7546771E-02  0.1407020E+00
          2   -1    0    0  502    0  0.00000000000E+00  0.00000000000E+00  0.97977329973E+03  0.97977329973E+03  0.00000000000E+00 0. -1.
          1   -1    0    0  501    0 -0.00000000000E+00 -0.00000000000E+00 -0.48913475700E+02  0.48913475700E+02  0.00000000000E+00 0. -1.
         25    1    1    2    0    0  0.50719790650E+02 -0.23914356306E+02  0.72224499641E+03  0.73512395447E+03  0.12500000000E+03 0.  0.
          2    1    1    2  501    0 -0.85142732706E+02  0.31251727455E+01  0.42788997256E+01  0.85307447625E+02  0.00000000000E+00 0. -1.
          1    1    1    2  502    0  0.34422942057E+02  0.20789183560E+02  0.20433592790E+03  0.20825537334E+03  0.00000000000E+00 0. -1.
<mgrwt>
<rscale>  0 0.57864107E+02</rscale>
<asrwt>0</asrwt>
<pdfrwt beam="1">  1        2 0.15073434E+00 0.40213544E+02</pdfrwt>
<pdfrwt beam="2">  1        1 0.75251508E-02 0.83261871E+02</pdfrwt>
<totfact> 0.35081158E+03</totfact>
</mgrwt>
</event>
<event>
 5    1  0.8274494E-003  0.1167002E+03  0.7546771E-02  0.1271972E+00
         -1   -1    0    0    0  501 -0.00000000000E+00  0.00000000000E+00  0.57291553754E+04  0.57291553754E+04  0.00000000000E+00 0.  1.
          1   -1    0    0  502    0  0.00000000000E+00 -0.00000000000E+00 -0.73804489844E+02  0.73804489844E+02  0.00000000000E+00 0. -1.
         25    1    1    2    0    0 -0.43939396165E+00  0.14990613964E+03  0.11177357720E+04  0.11346498578E+04  0.12500000000E+03 0.  0.
          2    1    1    2  502    0 -0.71890638675E+02 -0.91769521768E+02 -0.12504232133E+02  0.11724446629E+03  0.00000000000E+00 0. -1.
         -2    1    1    2    0  501  0.72330032637E+02 -0.58136617873E+02  0.45501193457E+04  0.45510655412E+04  0.00000000000E+00 0.  1.
<mgrwt>
<rscale>  0 0.10406520E+03</rscale>
<asrwt>0</asrwt>
<pdfrwt beam="2">  1        1 0.11354541E-01 0.11670021E+03</pdfrwt>
<pdfrwt beam="1">  1       -1 0.88140817E+00 0.92798168E+02</pdfrwt>
<totfact> 0.16869024E-02</totfact>
</mgrwt>
</event>
<event>
 5    1  0.8274494E-003  0.9146805E+02  0.7546771E-02  0.1411037E+00
          1   -1    0    0  501    0 -0.00000000000E+00  0.00000000000E+00  0.25138569545E+03  0.25138569545E+03  0.00000000000E+00 0. -1.
          2   -1    0    0  502    0  0.00000000000E+00 -0.00000000000E+00 -0.18501824072E+04  0.18501824072E+04  0.00000000000E+00 0. -1.
         25    1    1    2    0    0  0.97134930198E+01  0.66281432986E+02 -0.49850678366E+03  0.51828717297E+03  0.12500000000E+03 0.  0.
          2    1    1    2  501    0 -0.20123292406E+02  0.29214795770E+02  0.23846236716E+03  0.24108660631E+03  0.00000000000E+00 0. -1.
          1    1    1    2  502    0  0.10409799386E+02 -0.95496228756E+02 -0.13387522953E+04  0.13421943234E+04  0.00000000000E+00 0. -1.
<mgrwt>
<rscale>  0 0.56963124E+02</rscale>
<asrwt>0</asrwt>
<pdfrwt beam="2">  1        2 0.28464346E+00 0.91468047E+02</pdfrwt>
<pdfrwt beam="1">  1        1 0.38674720E-01 0.35474656E+02</pdfrwt>
<totfact> 0.14575548E+02</totfact>
</mgrwt>
</event>
<event>
 5    1  0.8274494E-003  0.6045319E+02  0.7546771E-02  0.1448400E+00
          1   -1    0    0  501    0 -0.00000000000E+00  0.00000000000E+00  0.69052201413E+03  0.69052201413E+03  0.00000000000E+00 0. -1.
          2   -1    0    0  502    0  0.00000000000E+00 -0.00000000000E+00 -0.34794161215E+03  0.34794161215E+03  0.00000000000E+00 0. -1.
         25    1    1    2    0    0 -0.99002469278E+02  0.10753264146E+01 -0.22266397913E+02  0.16100757040E+03  0.12500000000E+03 0.  0.
          2    1    1    2  501    0  0.59255582912E+02 -0.84706286742E+01  0.61810228180E+03  0.62099388598E+03  0.00000000000E+00 0. -1.
          1    1    1    2  502    0  0.39746886366E+02  0.73953022596E+01 -0.25325548191E+03  0.25646216990E+03  0.00000000000E+00 0. -1.
<mgrwt>
<rscale>  0 0.49437468E+02</rscale>
<asrwt>0</asrwt>
<pdfrwt beam="2">  1        2 0.53529479E-01 0.40429018E+02</pdfrwt>
<pdfrwt beam="1">  1        1 0.10623416E+00 0.60453195E+02</pdfrwt>
<totfact> 0.38711694E+02</totfact>
</mgrwt>
</event>
<event>
 5    1  0.8274494E-003  0.9497132E+02  0.7546771E-02  0.1364480E+00
         -2   -1    0    0    0  501 -0.00000000000E+00  0.00000000000E+00  0.63924020962E+03  0.63924020962E+03  0.00000000000E+00 0.  1.
          2   -1    0    0  502    0  0.00000000000E+00 -0.00000000000E+00 -0.13295495304E+04  0.13295495304E+04  0.00000000000E+00 0. -1.
         25    1    1    2    0    0  0.97168811528E+02 -0.50525497625E+02  0.45571919751E+02  0.17232644520E+03  0.12500000000E+03 0.  0.
          1    1    1    2  502    0 -0.42061005397E+02 -0.26538130918E+02 -0.12614468687E+04  0.12624268704E+04  0.00000000000E+00 0. -1.
         -1    1    1    2    0  501 -0.55107806131E+02  0.77063628543E+02  0.52556562815E+03  0.53403642444E+03  0.00000000000E+00 0.  1.
<mgrwt>
<rscale>  0 0.68725808E+02</rscale>
<asrwt>0</asrwt>
<pdfrwt beam="2">  1        2 0.20454608E+00 0.49733294E+02</pdfrwt>
<pdfrwt beam="1">  1       -2 0.98344647E-01 0.94971322E+02</pdfrwt>
<totfact> 0.17801986E+01</totfact>
</mgrwt>
</event>
<event>
 5    1  0.8274494E-003  0.1287297E+03  0.7546771E-02  0.1369798E+00
         -2   -1    0    0    0  501  0.00000000000E+00  0.00000000000E+00  0.81906187484E+02  0.81906187484E+02  0.00000000000E+00 0.  1.
         -1   -1    0    0    0  502 -0.00000000000E+00 -0.00000000000E+00 -0.13251631850E+04  0.13251631850E+04  0.00000000000E+00 0.  1.
         25    1    1    2    0    0 -0.36101454240E+02  0.14152015366E+03 -0.38841227154E+03  0.43338246570E+03  0.12500000000E+03 0.  0.
         -2    1    1    2    0  502  0.56125532988E+02 -0.11268705368E+03 -0.90431024221E+03  0.91303092045E+03  0.00000000000E+00 0.  1.
         -1    1    1    2    0  501 -0.20024078747E+02 -0.28833099984E+02  0.49465516228E+02  0.60655986350E+02  0.00000000000E+00 0.  1.
<mgrwt>
<rscale>  0 0.67223255E+02</rscale>
<asrwt>0</asrwt>
<pdfrwt beam="1">  1       -2 0.12600952E-01 0.35104293E+02</pdfrwt>
<pdfrwt beam="2">  1       -1 0.20387126E+00 0.12872972E+03</pdfrwt>
<totfact> 0.50314984E+01</totfact>
</mgrwt>
</event>
<event>
 5    1  0.8274494E-003  0.2585932E+03  0.7546771E-02  0.1317167E+00
          1   -1    0    0  501    0 -0.00000000000E+00  0.00000000000E+00  0.68592920268E+03  0.68592920268E+03  0.00000000000E+00 0. -1.
          2   -1    0    0  502    0  0.00000000000E+00 -0.00000000000E+00 -0.78987986903E+03  0.78987986903E+03  0.00000000000E+00 0. -1.
         25    1    1    2    0    0  0.58027557229E+02  0.26973587764E+03  0.25381259182E+03  0.39518409995E+03  0.12500000000E+03 0.  0.
          2    1    1    2  501    0 -0.23264626728E+02 -0.14677475484E+02  0.33782004296E+03  0.33893812499E+03  0.00000000000E+00 0. -1.
          1    1    1    2  502    0 -0.34762930501E+02 -0.25505840216E+03 -0.69558330114E+03  0.74168684677E+03  0.00000000000E+00 0. -1.
<mgrwt>
<rscale>  0 0.84340345E+02</rscale>
<asrwt>0</asrwt>
<pdfrwt beam="2">  1        2 0.12151998E+00 0.25859324E+03</pdfrwt>
<pdfrwt beam="1">  1        1 0.10552757E+00 0.27507656E+02</pdfrwt>
<totfact> 0.15787928E+02</totfact>
</mgrwt>
</event>
<event>
 5    1  0.8274494E-003  0.6771133E+02  0.7546771E-02  0.1475777E+00
          1   -1    0    0  501    0 -0.00000000000E+00  0.00000000000E+00  0.99401347526E+02  0.99401347526E+02  0.00000000000E+00 0. -1.
          2   -1    0    0  502    0  0.00000000000E+00 -0.00000000000E+00 -0.13680607044E+04  0.13680607044E+04  0.00000000000E+00 0. -1.
         25    1    1    2    0    0 -0.47231067998E+02 -0.63324736003E+02 -0.60958625766E+03  0.62726485754E+03  0.12500000000E+03 0.  0.
          2    1    1    2  501    0 -0.92750996174E+01  0.28112166764E+02  0.86619439955E+02  0.91538236662E+02  0.00000000000E+00 0. -1.
          1    1    1    2  502    0  0.56506167615E+02  0.35212569239E+02 -0.74569253917E+03  0.74865895773E+03  0.00000000000E+00 0. -1.
<mgrwt>
<rscale>  0 0.44770971E+02</rscale>
<asrwt>0</asrwt>
<pdfrwt beam="2">  1        2 0.21047088E+00 0.67711325E+02</pdfrwt>
<pdfrwt beam="1">  1        1 0.15292515E-01 0.29602726E+02</pdfrwt>
<totfact> 0.78912209E+02</totfact>
</mgrwt>
</event>
<event>
 5    1  0.8274494E-003  0.8423558E+02  0.7546771E-02  0.1381375E+00
          1   -1    0    0  501    0 -0.00000000000E+00  0.00000000000E+00  0.20909052505E+03  0.20909052505E+03  0.00000000000E+00 0. -1.
          2   -1    0    0  502    0  0.00000000000E+00 -0.00000000000E+00 -0.11595979612E+03  0.11595979612E+03  0.00000000000E+00 0. -1.
         25    1    1    2    0    0 -0.26849786219E+02  0.61304407422E+02  0.10808962992E+03  0.17829051990E+03  0.12500000000E+03 0.  0.
          2    1    1    2  501    0 -0.47619252077E+02 -0.10593815352E+02  0.16239603078E+02  0.51415433483E+02  0.00000000000E+00 0. -1.
          3    1    1    2  502    0  0.74469038296E+02 -0.50710592070E+02 -0.31198504069E+02  0.95344367788E+02  0.00000000000E+00 0. -1.
<mgrwt>
<rscale>  0 0.64103820E+02</rscale>
<asrwt>0</asrwt>
<pdfrwt beam="2">  1        2 0.17839969E-01 0.84235580E+02</pdfrwt>
<pdfrwt beam="1">  1        1 0.32167773E-01 0.48783420E+02</pdfrwt>
<totfact> 0.55311213E+03</totfact>
</mgrwt>
</event>
<event>
 5    1  0.8274494E-003  0.1223980E+03  0.7546771E-02  0.1317768E+00
          2   -1    0    0  502    0  0.00000000000E+00  0.00000000000E+00  0.27846300655E+03  0.27846300655E+03  0.00000000000E+00 0. -1.
          1   -1    0    0  501    0 -0.00000000000E+00 -0.00000000000E+00 -0.71187335256E+03  0.71187335256E+03  0.00000000000E+00 0. -1.
         25    1    1    2    0    0  0.77995348875E+02  0.14070891038E+03 -0.20197974036E+03  0.28688514674E+03  0.12500000000E+03 0.  0.
          2    1    1    2  501    0 -0.27048371496E+02 -0.11340246255E+03 -0.45646175186E+03  0.47111470347E+03  0.00000000000E+00 0. -1.
          1    1    1    2  502    0 -0.50946977379E+02 -0.27306447830E+02  0.22503114621E+03  0.23233650889E+03  0.00000000000E+00 0. -1.
<mgrwt>
<rscale>  0 0.84113155E+02</rscale>
<asrwt>0</asrwt>
<pdfrwt beam="1">  1        2 0.42840463E-01 0.57803431E+02</pdfrwt>
<pdfrwt beam="2">  1        1 0.10951898E+00 0.12239797E+03</pdfrwt>
<totfact> 0.45366763E+02</totfact>
</mgrwt>
</event>
<event>
 5    1  0.8274494E-003  0.7775346E+02  0.7546771E-02  0.1376120E+00
         -1   -1    0    0    0  501 -0.00000000000E+00  0.00000000000E+00  0.54257102139E+02  0.54257102139E+02  0.00000000000E+00 0.  1.
          1   -1    0    0  502    0  0.00000000000E+00 -0.00000000000E+00 -0.21364656215E+04  0.21364656215E+04  0.00000000000E+00 0. -1.
         25    1    1    2    0    0 -0.51525887038E+02 -0.10941491340E+03 -0.67271477243E+03  0.69483573983E+03  0.12500000000E+03 0.  0.
          2    1    1    2  502    0 -0.15762430824E+01  0.55146182331E+02 -0.14183702235E+04  0.14194427346E+04  0.00000000000E+00 0. -1.
         -2    1    1    2    0  501  0.53102130121E+02  0.54268731066E+02  0.88764765756E+01  0.76444249170E+02  0.00000000000E+00 0.  1.
<mgrwt>
<rscale>  0 0.65494714E+02</rscale>
<asrwt>0</asrwt>
<pdfrwt beam="2">  1        1 0.32868708E+00 0.55168705E+02</pdfrwt>
<pdfrwt beam="1">  1       -1 0.83472449E-02 0.77753459E+02</pdfrwt>
<totfact> 0.25044242E+02</totfact>
</mgrwt>
</event>
<event>
 5    1  0.8274494E-003  0.8444022E+02  0.7546771E-02  0.1373217E+00
         -2   -1    0    0    0  501 -0.00000000000E+00  0.00000000000E+00  0.20637932004E+02  0.20637932004E+02  0.00000000000E+00 0.  1.
          2   -1    0    0  502    0  0.00000000000E+00 -0.00000000000E+00 -0.29365172660E+04  0.29365172660E+04  0.00000000000E+00 0. -1.
         25    1    1    2    0    0 -0.41053921182E+02  0.59270807363E+02 -0.82864875722E+03  0.84111962045E+03  0.12500000000E+03 0.  0.
          1    1    1    2  502    0 -0.21992843937E+01 -0.88183996636E+02 -0.20503879158E+04  0.20522845464E+04  0.00000000000E+00 0. -1.
         -1    1    1    2    0  501  0.43253205576E+02  0.28913189273E+02 -0.36842660964E+02  0.63751031156E+02  0.00000000000E+00 0.  1.
<mgrwt>
<rscale>  0 0.66281023E+02</rscale>
<asrwt>0</asrwt>
<pdfrwt beam="2">  1        2 0.45177190E+00 0.84440215E+02</pdfrwt>
<pdfrwt beam="1">  1       -2 0.31750663E-02 0.52027034E+02</pdfrwt>
<totfact> 0.87916228E+02</totfact>
</mgrwt>
</event>
<event>
 5    1  0.8274494E-003  0.9017233E+02  0.7546771E-02  0.1399649E+00
          1   -1    0    0  502    0  0.00000000000E+00  0.00000000000E+00  0.15614895468E+04  0.15614895468E+04  0.00000000000E+00 0. -1.
         -1   -1    0    0    0  501 -0.00000000000E+00 -0.00000000000E+00 -0.61876733719E+02  0.61876733719E+02  0.00000000000E+00 0.  1.
         25    1    1    2    0    0  0.35619330483E+02  0.49812239168E+02  0.60829335084E+03  0.62401586242E+03  0.12500000000E+03 0.  0.
          2    1    1    2  502    0 -0.64719765035E+02 -0.76302899143E+02  0.93512637708E+03  0.94046378001E+03  0.00000000000E+00 0. -1.
         -2    1    1    2    0  501  0.29100434552E+02  0.26490659974E+02 -0.43806914841E+02  0.58886638085E+02  0.00000000000E+00 0.  1.
<mgrwt>
<rscale>  0 0.59569064E+02</rscale>
<asrwt>0</asrwt>
<pdfrwt beam="1">  1        1 0.24022913E+00 0.90172327E+02</pdfrwt>
<pdfrwt beam="2">  1       -1 0.95194987E-02 0.39352133E+02</pdfrwt>
<totfact> 0.41839010E+02</totfact>
</mgrwt>
</event>
<event>
 5    1  0.8274494E-003  0.3357518E+02  0.7546771E-02  0.1584203E+00
          2   -1    0    0  502    0  0.00000000000E+00  0.00000000000E+00  0.88419219069E+03  0.88419219069E+03  0.00000000000E+00 0. -1.
          1   -1    0    0  501    0 -0.00000000000E+00 -0.00000000000E+00 -0.78052435504E+02  0.78052435504E+02  0.00000000000E+00 0. -1.
         25    1    1    2    0    0 -0.87470898752E+00 -0.16944205005E+02  0.84286874079E+01  0.12642750480E+03  0.12500000000E+03 0.  0.
          2    1    1    2  501    0 -0.32387262929E+02  0.12368826392E+02 -0.26334752094E+01  0.34768633249E+02  0.00000000000E+00 0. -1.
          1    1    1    2  502    0  0.33261971917E+02  0.45753786131E+01  0.80034454299E+03  0.80104848814E+03  0.00000000000E+00 0. -1.
<mgrwt>
<rscale>  0 0.31294726E+02</rscale>
<asrwt>0</asrwt>
<pdfrwt beam="1">  1        2 0.13602956E+00 0.33575182E+02</pdfrwt>
<pdfrwt beam="2">  1        1 0.12008068E-01 0.29169160E+02</pdfrwt>
<totfact> 0.20308978E+03</totfact>
</mgrwt>
</event>
<event>
 5    1  0.8274494E-003  0.1487892E+03  0.7546771E-02  0.1389446E+00
          1   -1    0    0  502    0  0.00000000000E+00  0.00000000000E+00  0.46928135012E+03  0.46928135012E+03  0.00000000000E+00 0. -1.
         -1   -1    0    0    0  501 -0.00000000000E+00 -0.00000000000E+00 -0.12224111905E+03  0.12224111905E+03  0.00000000000E+00 0.  1.
         25    1    1    2    0    0  0.15334823498E+03  0.36049108766E+02  0.20270868099E+03  0.28553638781E+03  0.12500000000E+03 0.  0.
          2    1    1    2  502    0 -0.13419215994E+03 -0.53439495428E+02  0.19877204278E+03  0.24571048095E+03  0.00000000000E+00 0. -1.
         -2    1    1    2    0  501 -0.19156075048E+02  0.17390386662E+02 -0.54440492698E+02  0.60275600409E+02  0.00000000000E+00 0.  1.
<mgrwt>
<rscale>  0 0.62044610E+02</rscale>
<asrwt>0</asrwt>
<pdfrwt beam="1">  1        1 0.72197130E-01 0.14878923E+03</pdfrwt>
<pdfrwt beam="2">  1       -1 0.18806326E-01 0.25872394E+02</pdfrwt>
<totfact> 0.10056040E+03</totfact>
</mgrwt>
</event>
<event>
 5    1  0.8274494E-003  0.1599379E+03  0.7546771E-02  0.1297579E+00
          1   -1    0    0  501    0 -0.00000000000E+00  0.00000000000E+00  0.13191167978E+04  0.13191167978E+04  0.00000000000E+00 0. -1.
          2   -1    0    0  502    0  0.00000000000E+00 -0.00000000000E+00 -0.14676307261E+04  0.14676307261E+04  0.00000000000E+00 0. -1.
         25    1    1    2    0    0 -0.13377569121E+03 -0.12580114332E+03 -0.41623563657E+03  0.47180395120E+03  0.12500000000E+03 0.  0.
          2    1    1    2  501    0  0.14195876536E+03  0.73268862056E+02  0.12856955318E+04  0.12955823469E+04  0.00000000000E+00 0. -1.
          1    1    1    2  502    0 -0.81830741509E+01  0.52532281266E+02 -0.10179738235E+04  0.10193612258E+04  0.00000000000E+00 0. -1.
<mgrwt>
<rscale>  0 0.92212955E+02</rscale>
<asrwt>0</asrwt>
<pdfrwt beam="2">  1        2 0.22578934E+00 0.53165809E+02</pdfrwt>
<pdfrwt beam="1">  1        1 0.20294105E+00 0.15993792E+03</pdfrwt>
<totfact> 0.21997478E+01</totfact>
</mgrwt>
</event>
<event>
 5    1  0.8274494E-003  0.2390897E+03  0.7546771E-02  0.1224618E+00
          2   -1    0    0  502    0  0.00000000000E+00  0.00000000000E+00  0.20486718771E+04  0.20486718771E+04  0.00000000000E+00 0. -1.
          1   -1    0    0  501    0 -0.00000000000E+00 -0.00000000000E+00 -0.19518278367E+03  0.19518278367E+03  0.00000000000E+00 0. -1.
         25    1    1    2    0    0 -0.20687326358E+03 -0.71054502501E+02  0.79627209153E+02  0.26421730062E+03  0.12500000000E+03 0.  0.
          2    1    1    2  501    0  0.26155141468E+03  0.22989338724E+02  0.66667589463E+02  0.27089152756E+03  0.00000000000E+00 0. -1.
          1    1    1    2  502    0 -0.54678151105E+02  0.48065163777E+02  0.17071942948E+04  0.17087458326E+04  0.00000000000E+00 0. -1.
<mgrwt>
<rscale>  0 0.13193152E+03</rscale>
<asrwt>0</asrwt>
<pdfrwt beam="1">  1        2 0.31518027E+00 0.72800825E+02</pdfrwt>
<pdfrwt beam="2">  1        1 0.30028122E-01 0.23908968E+03</pdfrwt>
<totfact> 0.16623374E+02</totfact>
</mgrwt>
</event>
<event>
 5    1  0.8274494E-003  0.1868757E+03  0.7546771E-02  0.1327890E+00
          1   -1    0    0  501    0 -0.00000000000E+00  0.00000000000E+00  0.11792164980E+04  0.11792164980E+04  0.00000000000E+00 0. -1.
          2   -1    0    0  502    0  0.00000000000E+00 -0.00000000000E+00 -0.20612764673E+04  0.20612764673E+04  0.00000000000E+00 0. -1.
         25    1    1    2    0    0  0.21028959355E+03 -0.21620254283E+02 -0.15819732298E+03  0.29213103489E+03  0.12500000000E+03 0.  0.
          2    1    1    2  501    0 -0.29381773010E+02 -0.18271890542E+02  0.11073059519E+04  0.11078463890E+04  0.00000000000E+00 0. -1.
          3    1    1    2  502    0 -0.18090782054E+03  0.39892144825E+02 -0.18311685982E+04  0.18405155413E+04  0.00000000000E+00 0. -1.
<mgrwt>
<rscale>  0 0.80410652E+02</rscale>
<asrwt>0</asrwt>
<pdfrwt beam="2">  1        2 0.31711946E+00 0.18687568E+03</pdfrwt>
<pdfrwt beam="1">  1        1 0.18141792E+00 0.34599864E+02</pdfrwt>
<totfact> 0.13720730E+01</totfact>
</mgrwt>
</event>
<event>
 5    1  0.8274494E-003  0.4818728E+02  0.7546771E-02  0.1564477E+00
          1   -1    0    0  502    0  0.00000000000E+00  0.00000000000E+00  0.50008412259E+02  0.50008412259E+02  0.00000000000E+00 0. -1.
         -1   -1    0    0    0  501 -0.00000000000E+00 -0.00000000000E+00 -0.72133334822E+03  0.72133334822E+03  0.00000000000E+00 0.  1.
         25    1    1    2    0    0  0.38457413229E+02  0.94985016876E+01 -0.45782085406E+02  0.13888914108E+03  0.12500000000E+03 0.  0.
          2    1    1    2  502    0  0.85531876032E+01 -0.21325994227E+02 -0.51822516112E+02  0.56687990122E+02  0.00000000000E+00 0. -1.
         -2    1    1    2    0  501 -0.47010600832E+02  0.11827492540E+02 -0.57372033444E+03  0.57576462927E+03  0.00000000000E+00 0.  1.
<mgrwt>
<rscale>  0 0.33274799E+02</rscale>
<asrwt>0</asrwt>
<pdfrwt beam="1">  1        1 0.76936016E-02 0.22977272E+02</pdfrwt>
<pdfrwt beam="2">  1       -1 0.11097436E+00 0.48187281E+02</pdfrwt>
<totfact> 0.65044233E+02</totfact>
</mgrwt>
</event>
<event>
 5    1  0.8274494E-003  0.7660563E+02  0.7546771E-02  0.1369523E+00
         -2   -1    0    0    0  501 -0.00000000000E+00  0.00000000000E+00  0.16926664461E+03  0.16926664461E+03  0.00000000000E+00 0.  1.
          2   -1    0    0  502    0  0.00000000000E+00 -0.00000000000E+00 -0.13856786917E+03  0.13856786917E+03  0.00000000000E+00 0. -1.
         25    1    1    2    0    0 -0.99917048070E+02 -0.46969575895E+01 -0.24763740709E+02  0.16199913814E+03  0.12500000000E+03 0.  0.
          1    1    1    2  502    0  0.58353670242E+02 -0.37353546421E+02  0.74753152340E+01  0.69687291516E+02  0.00000000000E+00 0. -1.
         -1    1    1    2    0  501  0.41563377827E+02  0.42050504011E+02  0.47987200910E+02  0.76148084120E+02  0.00000000000E+00 0.  1.
<mgrwt>
<rscale>  0 0.67300101E+02</rscale>
<asrwt>0</asrwt>
<pdfrwt beam="2">  1        2 0.21318134E-01 0.76605627E+02</pdfrwt>
<pdfrwt beam="1">  1       -2 0.26041022E-01 0.59124946E+02</pdfrwt>
<totfact> 0.31415372E+03</totfact>
</mgrwt>
</event>
<event>
 5    1  0.8274494E-003  0.8725017E+02  0.7546771E-02  0.1359650E+00
          2   -1    0    0  502    0  0.00000000000E+00  0.00000000000E+00  0.60427994060E+03  0.60427994060E+03  0.00000000000E+00 0. -1.
         -2   -1    0    0    0  501 -0.00000000000E+00 -0.00000000000E+00 -0.46257795178E+02  0.46257795178E+02  0.00000000000E+00 0.  1.
         25    1    1    2    0    0  0.76268366463E+02 -0.10895140448E+03  0.27446656815E+03  0.32961214979E+03  0.12500000000E+03 0.  0.
          1    1    1    2  502    0 -0.48049555763E+02  0.60153440397E+02  0.23234275734E+03  0.24476591489E+03  0.00000000000E+00 0. -1.
         -1    1    1    2    0  501 -0.28218810700E+02  0.48797964087E+02  0.51212819936E+02  0.76159671101E+02  0.00000000000E+00 0.  1.
<mgrwt>
<rscale>  0 0.70130345E+02</rscale>
<asrwt>0</asrwt>
<pdfrwt beam="1">  1        2 0.92966139E-01 0.87250167E+02</pdfrwt>
<pdfrwt beam="2">  1       -2 0.71165843E-02 0.56369696E+02</pdfrwt>
<totfact> 0.51492286E+03</totfact>
</mgrwt>
</event>
<event>
 5    1  0.8274494E-003  0.4856601E+02  0.7546771E-02  0.1527066E+00
          2   -1    0    0  502    0  0.00000000000E+00  0.00000000000E+00  0.38922481712E+03  0.38922481712E+03  0.00000000000E+00 0. -1.
         -2   -1    0    0    0  501 -0.00000000000E+00 -0.00000000000E+00 -0.34016262788E+02  0.34016262788E+02  0.00000000000E+00 0.  1.
         25    1    1    2    0    0 -0.70950139377E+01  0.44301365127E+02  0.20594386968E+03  0.24505270378E+03  0.12500000000E+03 0.  0.
          3    1    1    2  502    0 -0.21474427470E+02 -0.49456092108E+02  0.45850264566E+02  0.70776428580E+02  0.00000000000E+00 0.  1.
         -3    1    1    2    0  501  0.28569441408E+02  0.51547269813E+01  0.10341442009E+03  0.10741194755E+03  0.00000000000E+00 0. -1.
<mgrwt>
<rscale>  0 0.37548735E+02</rscale>
<asrwt>0</asrwt>
<pdfrwt beam="1">  1        2 0.59880738E-01 0.48566011E+02</pdfrwt>
<pdfrwt beam="2">  1       -2 0.52332715E-02 0.29030746E+02</pdfrwt>
<totfact> 0.12056702E+04</totfact>
</mgrwt>
</event>
<event>
 5    1  0.8274494E-003  0.8781819E+02  0.7546771E-02  0.1308599E+00
          1   -1    0    0  501    0 -0.00000000000E+00  0.00000000000E+00  0.63664545528E+02  0.63664545528E+02  0.00000000000E+00 0. -1.
          2   -1    0    0  502    0  0.00000000000E+00 -0.00000000000E+00 -0.85547107823E+03  0.85547107823E+03  0.00000000000E+00 0. -1.
         25    1    1    2    0    0  0.74650564228E+02  0.57979306163E+02 -0.36573399626E+03  0.39789529113E+03  0.12500000000E+03 0.  0.
          2    1    1    2  501    0 -0.79353932040E+02  0.37616330874E+02 -0.34184756993E+01  0.87884702052E+02  0.00000000000E+00 0. -1.
          1    1    1    2  502    0  0.47033678119E+01 -0.95595637038E+02 -0.42265406074E+03  0.43335563057E+03  0.00000000000E+00 0. -1.
<mgrwt>
<rscale>  0 0.87667978E+02</rscale>
<asrwt>0</asrwt>
<pdfrwt beam="2">  1        2 0.13161093E+00 0.87518021E+02</pdfrwt>
<pdfrwt beam="1">  1        1 0.97945460E-02 0.87818192E+02</pdfrwt>
<totfact> 0.28492571E+03</totfact>
</mgrwt>
</event>
<event>
 5    1  0.8274494E-003  0.3685816E+02  0.7546771E-02  0.1536027E+00
          1   -1    0    0  502    0  0.00000000000E+00  0.00000000000E+00  0.19885604231E+04  0.19885604231E+04  0.00000000000E+00 0. -1.
         -1   -1    0    0    0  501 -0.00000000000E+00 -0.00000000000E+00 -0.96730157282E+02  0.96730157282E+02  0.00000000000E+00 0.  1.
         25    1    1    2    0    0 -0.28953999590E+02 -0.19772441934E+02  0.70178852434E+03  0.71369560489E+03  0.12500000000E+03 0.  0.
          2    1    1    2  502    0 -0.23667514553E+01  0.37644040242E+02  0.12769475957E+04  0.12775045352E+04  0.00000000000E+00 0. -1.
         -2    1    1    2    0  501  0.31320751046E+02 -0.17871598307E+02 -0.86905854178E+02  0.94090440335E+02  0.00000000000E+00 0.  1.
<mgrwt>
<rscale>  0 0.36457317E+02</rscale>
<asrwt>0</asrwt>
<pdfrwt beam="1">  1        1 0.30593234E+00 0.36858163E+02</pdfrwt>
<pdfrwt beam="2">  1       -1 0.14881564E-01 0.36060830E+02</pdfrwt>
<totfact> 0.12984967E+02</totfact>
</mgrwt>
</event>
<event>
 5    1  0.8274494E-003  0.6409541E+02  0.7546771E-02  0.1468463E+00
          2   -1    0    0  502    0  0.00000000000E+00  0.00000000000E+00  0.78543594857E+02  0.78543594857E+02  0.00000000000E+00 0. -1.
          1   -1    0    0  501    0 -0.00000000000E+00 -0.00000000000E+00 -0.22274705204E+04  0.22274705204E+04  0.00000000000E+00 0. -1.
         25    1    1    2    0    0  0.85950528214E+01  0.51039954119E+02 -0.19508549884E+03  0.23740746346E+03  0.12500000000E+03 0.  0.
          2    1    1    2  501    0  0.23018378700E+02 -0.60328080047E+02 -0.20059313401E+04  0.20069703197E+04  0.00000000000E+00 0. -1.
          1    1    1    2  502    0 -0.31613431522E+02  0.92881259286E+01  0.52089913483E+02  0.61636332001E+02  0.00000000000E+00 0. -1.
<mgrwt>
<rscale>  0 0.45955632E+02</rscale>
<asrwt>0</asrwt>
<pdfrwt beam="1">  1        2 0.12083630E-01 0.32949633E+02</pdfrwt>
<pdfrwt beam="2">  1        1 0.34268777E+00 0.64095406E+02</pdfrwt>
<totfact> 0.17662931E+02</totfact>
</mgrwt>
</event>
<event>
 5    1  0.8274494E-003  0.1790330E+03  0.7546771E-02  0.1372526E+00
          1   -1    0    0  501    0 -0.00000000000E+00  0.00000000000E+00  0.23198398766E+04  0.23198398766E+04  0.00000000000E+00 0. -1.
          2   -1    0    0  502    0  0.00000000000E+00 -0.00000000000E+00 -0.36209326996E+03  0.36209326996E+03  0.00000000000E+00 0. -1.
         25    1    1    2    0    0 -0.54368714428E+02 -0.14701943343E+03  0.58997689379E+03  0.62311187287E+03  0.12500000000E+03 0.  0.
          2    1    1    2  501    0 -0.16535401070E+02 -0.18319625809E+02  0.16897825106E+04  0.16899627101E+04  0.00000000000E+00 0. -1.
          1    1    1    2  502    0  0.70904115498E+02  0.16533905923E+03 -0.32201279772E+03  0.36885856368E+03  0.00000000000E+00 0. -1.
<mgrwt>
<rscale>  0 0.66470033E+02</rscale>
<asrwt>0</asrwt>
<pdfrwt beam="2">  1        2 0.55706658E-01 0.17903300E+03</pdfrwt>
<pdfrwt beam="1">  1        1 0.35689843E+00 0.24678496E+02</pdfrwt>
<totfact> 0.36018686E+01</totfact>
</mgrwt>
</event>
<event>
 5    1  0.8274494E-003  0.9288864E+02  0.7546771E-02  0.1375134E+00
          1   -1    0    0  501    0 -0.00000000000E+00  0.00000000000E+00  0.10746254250E+04  0.10746254250E+04  0.00000000000E+00 0. -1.
          2   -1    0    0  502    0  0.00000000000E+00 -0.00000000000E+00 -0.28047067549E+02  0.28047067549E+02  0.00000000000E+00 0. -1.
         25    1    1    2    0    0  0.52198658246E+02  0.18351442277E+02  0.28200547788E+03  0.31339043525E+03  0.12500000000E+03 0.  0.
          2    1    1    2  501    0 -0.93031359794E+02 -0.40712910874E+02  0.71138936143E+03  0.71860086180E+03  0.00000000000E+00 0. -1.
          1    1    1    2  502    0  0.40832701548E+02  0.22361468597E+02  0.53183518096E+02  0.70681195453E+02  0.00000000000E+00 0. -1.
<mgrwt>
<rscale>  0 0.65760227E+02</rscale>
<asrwt>0</asrwt>
<pdfrwt beam="2">  1        2 0.43149343E-02 0.46554750E+02</pdfrwt>
<pdfrwt beam="1">  1        1 0.16532696E+00 0.92888641E+02</pdfrwt>
<totfact> 0.33227166E+03</totfact>
</mgrwt>
</event>
<event>
 5    1  0.8274494E-003  0.6151479E+02  0.7546771E-02  0.1505007E+00
         -2   -1    0    0    0  501 -0.00000000000E+00  0.00000000000E+00  0.10984410238E+04  0.10984410238E+04  0.00000000000E+00 0.  1.
          2   -1    0    0  502    0  0.00000000000E+00 -0.00000000000E+00 -0.12372546832E+03  0.12372546832E+03  0.00000000000E+00 0. -1.
         25    1    1    2    0    0  0.35838993161E+02 -0.13234095690E+02  0.28915668917E+03  0.31732659140E+03  0.12500000000E+03 0.  0.
          1    1    1    2  502    0  0.26575549403E+02  0.66467348760E+00 -0.10673311675E+03  0.10999390814E+03  0.00000000000E+00 0. -1.
         -1    1    1    2    0  501 -0.62414542564E+02  0.12569422202E+02  0.79229198301E+03  0.79484599253E+03  0.00000000000E+00 0.  1.
<mgrwt>
<rscale>  0 0.40438851E+02</rscale>
<asrwt>0</asrwt>
<pdfrwt beam="2">  1        2 0.19034688E-01 0.26583860E+02</pdfrwt>
<pdfrwt beam="1">  1       -2 0.16899092E+00 0.61514794E+02</pdfrwt>
<totfact> 0.67325330E+01</totfact>
</mgrwt>
</event>
<event>
 5    1  0.8274494E-003  0.8422893E+02  0.7546771E-02  0.1329740E+00
          1   -1    0    0  501    0 -0.00000000000E+00  0.00000000000E+00  0.27608143949E+02  0.27608143949E+02  0.00000000000E+00 0. -1.
          2   -1    0    0  502    0  0.00000000000E+00 -0.00000000000E+00 -0.41910401443E+04  0.41910401443E+04  0.00000000000E+00 0. -1.
         25    1    1    2    0    0  0.32560003117E+02  0.12100768947E+03 -0.50599189737E+03  0.53605579459E+03  0.12500000000E+03 0.  0.
          2    1    1    2  501    0 -0.59751683093E+02 -0.50548692520E+02 -0.11361684065E+03  0.13796456222E+03  0.00000000000E+00 0. -1.
          1    1    1    2  502    0  0.27191679977E+02 -0.70458996951E+02 -0.35438232623E+04  0.35446279314E+04  0.00000000000E+00 0. -1.
<mgrwt>
<rscale>  0 0.79757735E+02</rscale>
<asrwt>0</asrwt>
<pdfrwt beam="2">  1        2 0.64477488E+00 0.75523888E+02</pdfrwt>
<pdfrwt beam="1">  1        1 0.42474102E-02 0.84228930E+02</pdfrwt>
<totfact> 0.10658371E+02</totfact>
</mgrwt>
</event>
<event>
 5    1  0.8915547E-003  0.6126201E+02  0.7546771E-02  0.1420223E+00
          2   -1    0    0  502    0  0.00000000000E+00  0.00000000000E+00  0.17797756348E+04  0.17797756348E+04  0.00000000000E+00 0. -1.
          1   -1    0    0  501    0 -0.00000000000E+00 -0.00000000000E+00 -0.12990257132E+04  0.12990257132E+04  0.00000000000E+00 0. -1.
         25    1    1    2    0    0 -0.54147237008E+02  0.75126805140E+02 -0.71662466595E+02  0.17127892236E+03  0.12500000000E+03 0.  0.
          2    1    1    2  501    0  0.70214947036E+01 -0.60541631888E+02 -0.11764143214E+04  0.11779920400E+04  0.00000000000E+00 0. -1.
          1    1    1    2  502    0  0.47125742305E+02 -0.14585173252E+02  0.17288267096E+04  0.17295303856E+04  0.00000000000E+00 0. -1.
<mgrwt>
<rscale>  0 0.54973865E+02</rscale>
<asrwt>0</asrwt>
<pdfrwt beam="1">  1        2 0.27381164E+00 0.49331155E+02</pdfrwt>
<pdfrwt beam="2">  1        1 0.19985011E+00 0.61262012E+02</pdfrwt>
<totfact> 0.17401091E+01</totfact>
</mgrwt>
</event>
<event>
 5    1  0.8274494E-003  0.3521950E+02  0.7546771E-02  0.1632071E+00
         -1   -1    0    0    0  501 -0.00000000000E+00  0.00000000000E+00  0.60386564760E+02  0.60386564760E+02  0.00000000000E+00 0.  1.
          1   -1    0    0  502    0  0.00000000000E+00 -0.00000000000E+00 -0.18971810096E+04  0.18971810096E+04  0.00000000000E+00 0. -1.
         25    1    1    2    0    0  0.50669700469E+01  0.17694108210E+02 -0.79392553400E+03  0.80391635709E+03  0.12500000000E+03 0.  0.
          2    1    1    2  502    0  0.51001467468E+01 -0.35966083138E+02 -0.10959749648E+04  0.10965768072E+04  0.00000000000E+00 0. -1.
         -2    1    1    2    0  501 -0.10167116794E+02  0.18271974928E+02  0.53106053897E+02  0.57074410134E+02  0.00000000000E+00 0.  1.
<mgrwt>
<rscale>  0 0.27137534E+02</rscale>
<asrwt>0</asrwt>
<pdfrwt beam="2">  1        1 0.29187403E+00 0.35219496E+02</pdfrwt>
<pdfrwt beam="1">  1       -1 0.92902397E-02 0.20910173E+02</pdfrwt>
<totfact> 0.28204302E+02</totfact>
</mgrwt>
</event>
<event>
 5    1  0.8274494E-003  0.4820429E+02  0.7546771E-02  0.1470241E+00
         -2   -1    0    0    0  501  0.00000000000E+00  0.00000000000E+00  0.79797551517E+02  0.79797551517E+02  0.00000000000E+00 0.  1.
         -1   -1    0    0    0  502 -0.00000000000E+00 -0.00000000000E+00 -0.18340044840E+03  0.18340044840E+03  0.00000000000E+00 0.  1.
         25    1    1    2    0    0  0.13627637846E+02 -0.36478504882E+02 -0.39345632380E+02  0.13670944598E+03  0.12500000000E+03 0.  0.
         -2    1    1    2    0  502 -0.48202857682E+02 -0.37224227228E+00 -0.58238268019E+02  0.75599933299E+02  0.00000000000E+00 0.  1.
         -1    1    1    2    0  501  0.34575219836E+02  0.36850747154E+02 -0.60189964889E+01  0.50888620646E+02  0.00000000000E+00 0.  1.
<mgrwt>
<rscale>  0 0.45663521E+02</rscale>
<asrwt>0</asrwt>
<pdfrwt beam="1">  1       -2 0.12276547E-01 0.43256667E+02</pdfrwt>
<pdfrwt beam="2">  1       -1 0.28215453E-01 0.48204295E+02</pdfrwt>
<totfact> 0.34495212E+03</totfact>
</mgrwt>
</event>
<event>
 5    1  0.8274494E-003  0.1141896E+03  0.7546771E-02  0.1437983E+00
          2   -1    0    0  502    0  0.00000000000E+00  0.00000000000E+00  0.10626486270E+03  0.10626486270E+03  0.00000000000E+00 0. -1.
          1   -1    0    0  501    0 -0.00000000000E+00 -0.00000000000E+00 -0.87445261593E+03  0.87445261593E+03  0.00000000000E+00 0. -1.
         25    1    1    2    0    0 -0.91137217273E+02 -0.34715692542E+02 -0.28745151732E+03  0.32827510794E+03  0.12500000000E+03 0.  0.
          2    1    1    2  501    0 -0.11629368376E+02 -0.19991616066E+02 -0.52675036553E+03  0.52725786339E+03  0.00000000000E+00 0. -1.
          1    1    1    2  502    0  0.10276658565E+03  0.54707308608E+02  0.46014129632E+02  0.12518450730E+03  0.00000000000E+00 0. -1.
<mgrwt>
<rscale>  0 0.51390507E+02</rscale>
<asrwt>0</asrwt>
<pdfrwt beam="1">  1        2 0.16348441E-01 0.11418964E+03</pdfrwt>
<pdfrwt beam="2">  1        1 0.13453117E+00 0.23128055E+02</pdfrwt>
<totfact> 0.10622419E+03</totfact>
</mgrwt>
</event>
<event>
 5    1  0.8274494E-003  0.8418727E+02  0.7546771E-02  0.1349044E+00
          2   -1    0    0  502    0  0.00000000000E+00  0.00000000000E+00  0.12380786195E+04  0.12380786195E+04  0.00000000000E+00 0. -1.
          1   -1    0    0  501    0 -0.00000000000E+00 -0.00000000000E+00 -0.22828623977E+03  0.22828623977E+03  0.00000000000E+00 0. -1.
         25    1    1    2    0    0  0.56964445884E+02 -0.11293001508E+03  0.51440062999E+03  0.54427120495E+03  0.12500000000E+03 0.  0.
          2    1    1    2  501    0 -0.10792428965E+00  0.83732282785E+02 -0.20362095096E+03  0.22016493476E+03  0.00000000000E+00 0. -1.
          1    1    1    2  502    0 -0.56856521595E+02  0.29197732298E+02  0.69901270071E+03  0.70192871958E+03  0.00000000000E+00 0. -1.
<mgrwt>
<rscale>  0 0.73354338E+02</rscale>
<asrwt>0</asrwt>
<pdfrwt beam="1">  1        2 0.19047363E+00 0.63915347E+02</pdfrwt>
<pdfrwt beam="2">  1        1 0.35120961E-01 0.84187275E+02</pdfrwt>
<totfact> 0.34929061E+02</totfact>
</mgrwt>
</event>
<event>
 5    1  0.8274494E-003  0.8384570E+02  0.7546771E-02  0.1324536E+00
          2   -1    0    0  502    0  0.00000000000E+00  0.00000000000E+00  0.15143581143E+04  0.15143581143E+04  0.00000000000E+00 0. -1.
          3   -1    0    0  501    0 -0.00000000000E+00 -0.00000000000E+00 -0.13786074556E+03  0.13786074556E+03  0.00000000000E+00 0. -1.
         25    1    1    2    0    0  0.31749854488E+02 -0.88530373595E+02 -0.26769916415E+02  0.15870509990E+03  0.12500000000E+03 0.  0.
          2    1    1    2  501    0  0.50063493358E+02  0.70181606546E+02 -0.15250718342E+01  0.86221442279E+02  0.00000000000E+00 0. -1.
          1    1    1    2  502    0 -0.81813347845E+02  0.18348767049E+02  0.14047923570E+04  0.14072923176E+04  0.00000000000E+00 0. -1.
<mgrwt>
<rscale>  0 0.81612878E+02</rscale>
<asrwt>0</asrwt>
<pdfrwt beam="1">  1        2 0.23297816E+00 0.83845698E+02</pdfrwt>
<pdfrwt beam="2">  1        3 0.21209346E-01 0.79439518E+02</pdfrwt>
<totfact> 0.17082191E+02</totfact>
</mgrwt>
</event>
<event>
 5    1  0.8274494E-003  0.8193600E+02  0.7546771E-02  0.1448274E+00
          1   -1    0    0  501    0 -0.00000000000E+00  0.00000000000E+00  0.11534626098E+03  0.11534626098E+03  0.00000000000E+00 0. -1.
          2   -1    0    0  502    0  0.00000000000E+00 -0.00000000000E+00 -0.24575739372E+03  0.24575739372E+03  0.00000000000E+00 0. -1.
         25    1    1    2    0    0  0.55773026320E+02 -0.67920254782E+02  0.23707227442E+02  0.15463125204E+03  0.12500000000E+03 0.  0.
          2    1    1    2  501    0 -0.67369892346E+02  0.40407964991E+02 -0.39309706380E+02  0.87845085492E+02  0.00000000000E+00 0. -1.
          1    1    1    2  502    0  0.11596866026E+02  0.27512289791E+02 -0.11480865380E+03  0.11862731717E+03  0.00000000000E+00 0. -1.
<mgrwt>
<rscale>  0 0.49460347E+02</rscale>
<asrwt>0</asrwt>
<pdfrwt beam="2">  1        2 0.37808829E-01 0.29856547E+02</pdfrwt>
<pdfrwt beam="1">  1        1 0.17745579E-01 0.81935996E+02</pdfrwt>
<totfact> 0.50628015E+03</totfact>
</mgrwt>
</event>
<event>
 5    1  0.8274494E-003  0.2123616E+03  0.7546771E-02  0.1215531E+00
          2   -1    0    0  502    0  0.00000000000E+00  0.00000000000E+00  0.99994106955E+03  0.99994106955E+03  0.00000000000E+00 0. -1.
          1   -1    0    0  501    0 -0.00000000000E+00 -0.00000000000E+00 -0.65440241904E+03  0.65440241904E+03  0.00000000000E+00 0. -1.
         25    1    1    2    0    0  0.22693132160E+03 -0.17313146807E+03  0.15601407551E+02  0.31199476578E+03  0.12500000000E+03 0.  0.
          2    1    1    2  501    0 -0.17914239982E+03  0.96670935794E+02 -0.48314775539E+03  0.52427952734E+03  0.00000000000E+00 0. -1.
          1    1    1    2  502    0 -0.47788921782E+02  0.76460532271E+02  0.81308499836E+03  0.81806919548E+03  0.00000000000E+00 0. -1.
<mgrwt>
<rscale>  0 0.13837594E+03</rscale>
<asrwt>0</asrwt>
<pdfrwt beam="1">  1        2 0.15383709E+00 0.90166480E+02</pdfrwt>
<pdfrwt beam="2">  1        1 0.10067729E+00 0.21236162E+03</pdfrwt>
<totfact> 0.11949938E+02</totfact>
</mgrwt>
</event>
<event>
 5    1  0.8274494E-003  0.1184675E+03  0.7546771E-02  0.1448101E+00
          2   -1    0    0  502    0  0.00000000000E+00  0.00000000000E+00  0.10698535852E+04  0.10698535852E+04  0.00000000000E+00 0. -1.
          1   -1    0    0  501    0 -0.00000000000E+00 -0.00000000000E+00 -0.48223172250E+03  0.48223172250E+03  0.00000000000E+00 0. -1.
         25    1    1    2    0    0  0.17317149722E+02  0.13719919131E+03  0.20978252124E+03  0.28063714649E+03  0.12500000000E+03 0.  0.
          2    1    1    2  501    0 -0.11942743541E+02 -0.11723371652E+03 -0.43890147028E+03  0.45444567775E+03  0.00000000000E+00 0. -1.
          1    1    1    2  502    0 -0.53744061809E+01 -0.19965474796E+02  0.81674081170E+03  0.81700248343E+03  0.00000000000E+00 0. -1.
<mgrwt>
<rscale>  0 0.49491964E+02</rscale>
<asrwt>0</asrwt>
<pdfrwt beam="1">  1        2 0.16459286E+00 0.20676180E+02</pdfrwt>
<pdfrwt beam="2">  1        1 0.74189496E-01 0.11846746E+03</pdfrwt>
<totfact> 0.18231262E+02</totfact>
</mgrwt>
</event>
<event>
 5    1  0.8274494E-003  0.5959708E+02  0.7546771E-02  0.1441734E+00
          1   -1    0    0  501    0 -0.00000000000E+00  0.00000000000E+00  0.56347852971E+03  0.56347852971E+03  0.00000000000E+00 0. -1.
          2   -1    0    0  502    0  0.00000000000E+00 -0.00000000000E+00 -0.94935884721E+03  0.94935884721E+03  0.00000000000E+00 0. -1.
         25    1    1    2    0    0 -0.80451506239E+02 -0.22029632343E+02  0.25825512631E+03  0.29879501304E+03  0.12500000000E+03 0.  0.
          2    1    1    2  501    0  0.55848474554E+02 -0.13344389995E+02  0.28155452982E+03  0.28735009678E+03  0.00000000000E+00 0. -1.
          1    1    1    2  502    0  0.24603031685E+02  0.35374022338E+02 -0.92568997363E+03  0.92669226710E+03  0.00000000000E+00 0. -1.
<mgrwt>
<rscale>  0 0.50675013E+02</rscale>
<asrwt>0</asrwt>
<pdfrwt beam="2">  1        2 0.14605521E+00 0.43088637E+02</pdfrwt>
<pdfrwt beam="1">  1        1 0.86689005E-01 0.59597080E+02</pdfrwt>
<totfact> 0.16960714E+02</totfact>
</mgrwt>
</event>
<event>
 5    1  0.8274494E-003  0.1425566E+03  0.7546771E-02  0.1400189E+00
          1   -1    0    0  501    0 -0.00000000000E+00  0.00000000000E+00  0.51203360425E+02  0.51203360425E+02  0.00000000000E+00 0. -1.
          2   -1    0    0  502    0  0.00000000000E+00 -0.00000000000E+00 -0.29810600611E+04  0.29810600611E+04  0.00000000000E+00 0. -1.
         25    1    1    2    0    0  0.12467126298E+02  0.16089920261E+03 -0.41201985505E+03  0.45981446649E+03  0.12500000000E+03 0.  0.
          2    1    1    2  501    0  0.11604031985E+02 -0.21901396645E+02  0.19287488187E+02  0.31405921956E+02  0.00000000000E+00 0. -1.
          1    1    1    2  502    0 -0.24071158283E+02 -0.13899780597E+03 -0.25371243338E+04  0.25410430330E+04  0.00000000000E+00 0. -1.
<mgrwt>
<rscale>  0 0.59441960E+02</rscale>
<asrwt>0</asrwt>
<pdfrwt beam="2">  1        2 0.45862456E+00 0.14255657E+03</pdfrwt>
<pdfrwt beam="1">  1        1 0.78774412E-02 0.24785575E+02</pdfrwt>
<totfact> 0.23506346E+02</totfact>
</mgrwt>
</event>
<event>
 5    1  0.8274494E-003  0.9483457E+02  0.7546771E-02  0.1295209E+00
          2   -1    0    0  502    0  0.00000000000E+00  0.00000000000E+00  0.83429010098E+03  0.83429010098E+03  0.00000000000E+00 0. -1.
         -2   -1    0    0    0  501 -0.00000000000E+00 -0.00000000000E+00 -0.51473785915E+03  0.51473785915E+03  0.00000000000E+00 0.  1.
         25    1    1    2    0    0 -0.56346926151E+02  0.78216854247E+02 -0.15160432850E+03  0.21886462664E+03  0.12500000000E+03 0.  0.
          1    1    1    2  502    0  0.89681263801E+02  0.18921824368E+02  0.78994303443E+03  0.79524258070E+03  0.00000000000E+00 0. -1.
         -1    1    1    2    0  501 -0.33334337651E+02 -0.97138678614E+02 -0.31878646410E+03  0.33492075278E+03  0.00000000000E+00 0.  1.
<mgrwt>
<rscale>  0 0.93231581E+02</rscale>
<asrwt>0</asrwt>
<pdfrwt beam="1">  1        2 0.12835232E+00 0.91655685E+02</pdfrwt>
<pdfrwt beam="2">  1       -2 0.79190440E-01 0.94834573E+02</pdfrwt>
<totfact> 0.52886310E+01</totfact>
</mgrwt>
</event>
<event>
 5    1  0.8274494E-003  0.5085199E+02  0.7546771E-02  0.1481022E+00
          2   -1    0    0  502    0  0.00000000000E+00  0.00000000000E+00  0.80226414190E+03  0.80226414190E+03  0.00000000000E+00 0. -1.
          1   -1    0    0  501    0 -0.00000000000E+00 -0.00000000000E+00 -0.24847834877E+03  0.24847834877E+03  0.00000000000E+00 0. -1.
         25    1    1    2    0    0  0.53788105835E+02 -0.51828122014E+02  0.12830696438E+03  0.19407985900E+03  0.12500000000E+03 0.  0.
          2    1    1    2  501    0 -0.48526295204E+02  0.14214088806E+02 -0.21205404261E+03  0.21799944641E+03  0.00000000000E+00 0. -1.
          3    1    1    2  502    0 -0.52618106307E+01  0.37614033209E+02  0.63753287136E+03  0.63866318526E+03  0.00000000000E+00 0. -1.
<mgrwt>
<rscale>  0 0.43947389E+02</rscale>
<asrwt>0</asrwt>
<pdfrwt beam="1">  1        2 0.12342525E+00 0.37980286E+02</pdfrwt>
<pdfrwt beam="2">  1        1 0.38227439E-01 0.50851987E+02</pdfrwt>
<totfact> 0.56993179E+02</totfact>
</mgrwt>
</event>
<event>
 5    1  0.8274494E-003  0.7260983E+02  0.7546771E-02  0.1412300E+00
          2   -1    0    0  502    0  0.00000000000E+00  0.00000000000E+00  0.18515372631E+03  0.18515372631E+03  0.00000000000E+00 0. -1.
          1   -1    0    0  501    0 -0.00000000000E+00 -0.00000000000E+00 -0.98588794705E+03  0.98588794705E+03  0.00000000000E+00 0. -1.
         25    1    1    2    0    0 -0.67629094382E+02  0.81880808427E+02 -0.52369044457E+03  0.54877576744E+03  0.12500000000E+03 0.  0.
          2    1    1    2  501    0  0.41830150792E+02 -0.14435743033E+02 -0.44094638662E+03  0.44316122130E+03  0.00000000000E+00 0. -1.
          1    1    1    2  502    0  0.25798943590E+02 -0.67445065394E+02  0.16390261046E+03  0.17910468462E+03  0.00000000000E+00 0. -1.
<mgrwt>
<rscale>  0 0.56683848E+02</rscale>
<asrwt>0</asrwt>
<pdfrwt beam="1">  1        2 0.28485189E-01 0.72609832E+02</pdfrwt>
<pdfrwt beam="2">  1        1 0.15167507E+00 0.44251013E+02</pdfrwt>
<totfact> 0.45202267E+02</totfact>
</mgrwt>
</event>
<event>
 5    1  0.8274494E-003  0.1222650E+03  0.7546771E-02  0.1378656E+00
         -1   -1    0    0    0  501 -0.00000000000E+00  0.00000000000E+00  0.13988862173E+03  0.13988862173E+03  0.00000000000E+00 0.  1.
          1   -1    0    0  502    0  0.00000000000E+00 -0.00000000000E+00 -0.19118190930E+04  0.19118190930E+04  0.00000000000E+00 0. -1.
         25    1    1    2    0    0 -0.34432639422E+02 -0.13762478092E+03 -0.94154846678E+03  0.96034613670E+03  0.12500000000E+03 0.  0.
          2    1    1    2  502    0  0.30453144454E+02  0.15919513727E+02 -0.93207771498E+03  0.93271093683E+03  0.00000000000E+00 0. -1.
         -2    1    1    2    0  501  0.39794949673E+01  0.12170526719E+03  0.10169571045E+03  0.15865064124E+03  0.00000000000E+00 0.  1.
<mgrwt>
<rscale>  0 0.64818263E+02</rscale>
<asrwt>0</asrwt>
<pdfrwt beam="2">  1        1 0.29412602E+00 0.34363133E+02</pdfrwt>
<pdfrwt beam="1">  1       -1 0.21521326E-01 0.12226496E+03</pdfrwt>
<totfact> 0.87002920E+01</totfact>
</mgrwt>
</event>
<event>
 5    1  0.8274494E-003  0.1075510E+03  0.7546771E-02  0.1440875E+00
          2   -1    0    0  502    0  0.00000000000E+00  0.00000000000E+00  0.12737673163E+04  0.12737673163E+04  0.00000000000E+00 0. -1.
          1   -1    0    0  501    0 -0.00000000000E+00 -0.00000000000E+00 -0.54312809476E+03  0.54312809476E+03  0.00000000000E+00 0. -1.
         25    1    1    2    0    0  0.80805030813E+02  0.34249957078E+02  0.24760485532E+03  0.29092211491E+03  0.12500000000E+03 0.  0.
          2    1    1    2  501    0  0.16876366634E+02  0.17106565163E+02 -0.51815903412E+03  0.51871594439E+03  0.00000000000E+00 0. -1.
          1    1    1    2  502    0 -0.97681397447E+02 -0.51356522240E+02  0.10011934003E+04  0.10072573517E+04  0.00000000000E+00 0. -1.
<mgrwt>
<rscale>  0 0.50837614E+02</rscale>
<asrwt>0</asrwt>
<pdfrwt beam="1">  1        2 0.19596420E+00 0.10755101E+03</pdfrwt>
<pdfrwt beam="2">  1        1 0.83558169E-01 0.24030113E+02</pdfrwt>
<totfact> 0.11411425E+02</totfact>
</mgrwt>
</event>
<event>
 5    1  0.2991684E-002  0.6240156E+02  0.7546771E-02  0.1481080E+00
         -2   -1    0    0    0  501 -0.00000000000E+00  0.00000000000E+00  0.29447560425E+02  0.29447560425E+02  0.00000000000E+00 0.  1.
          2   -1    0    0  502    0  0.00000000000E+00 -0.00000000000E+00 -0.60706775643E+03  0.60706775643E+03  0.00000000000E+00 0. -1.
         25    1    1    2    0    0  0.36259969931E+02  0.53235175331E+02 -0.21165032759E+03  0.25410554988E+03  0.12500000000E+03 0.  0.
          3    1    1    2  502    0  0.20355242246E+02 -0.23298657079E+02 -0.23047276721E+03  0.23254001749E+03  0.00000000000E+00 0. -1.
         -3    1    1    2    0  501 -0.56615212178E+02 -0.29936518253E+02 -0.13549710120E+03  0.14986974948E+03  0.00000000000E+00 0.  1.
<mgrwt>
<rscale>  0 0.43938401E+02</rscale>
<asrwt>0</asrwt>
<pdfrwt beam="2">  1        2 0.93395041E-01 0.30938056E+02</pdfrwt>
<pdfrwt beam="1">  1       -2 0.45303938E-02 0.62401564E+02</pdfrwt>
<totfact> 0.10322293E+04</totfact>
</mgrwt>
</event>
<event>
 5    1  0.8274494E-003  0.1177798E+03  0.7546771E-02  0.1354082E+00
          1   -1    0    0  501    0 -0.00000000000E+00  0.00000000000E+00  0.61258594788E+03  0.61258594788E+03  0.00000000000E+00 0. -1.
          2   -1    0    0  502    0  0.00000000000E+00 -0.00000000000E+00 -0.10058091735E+04  0.10058091735E+04  0.00000000000E+00 0. -1.
         25    1    1    2    0    0  0.69021042610E+02  0.59638563760E+02  0.44371516998E+02  0.16097979417E+03  0.12500000000E+03 0.  0.
          2    1    1    2  501    0 -0.87645711005E+01  0.42881749054E+02  0.50522923478E+03  0.50712152566E+03  0.00000000000E+00 0. -1.
          1    1    1    2  502    0 -0.60256471510E+02 -0.10252031281E+03 -0.94282397738E+03  0.95029380153E+03  0.00000000000E+00 0. -1.
<mgrwt>
<rscale>  0 0.71798461E+02</rscale>
<asrwt>0</asrwt>
<pdfrwt beam="2">  1        2 0.15473987E+00 0.11777980E+03</pdfrwt>
<pdfrwt beam="1">  1        1 0.94243993E-01 0.43768277E+02</pdfrwt>
<totfact> 0.13535952E+02</totfact>
</mgrwt>
</event>
<event>
 5    1  0.8274494E-003  0.1080986E+03  0.7546771E-02  0.1442670E+00
          2   -1    0    0  502    0  0.00000000000E+00  0.00000000000E+00  0.85409099449E+03  0.85409099449E+03  0.00000000000E+00 0. -1.
          1   -1    0    0  501    0 -0.00000000000E+00 -0.00000000000E+00 -0.48247198275E+02  0.48247198275E+02  0.00000000000E+00 0. -1.
         25    1    1    2    0    0  0.68252162976E+02 -0.97049433060E+02  0.50486532615E+03  0.53347066251E+03  0.12500000000E+03 0.  0.
          2    1    1    2  501    0 -0.76026041655E+02  0.74776381569E+02  0.51760104898E+02  0.11853512015E+03  0.00000000000E+00 0. -1.
          1    1    1    2  502    0  0.77738786794E+01  0.22273051490E+02  0.24921836517E+03  0.25033241010E+03  0.00000000000E+00 0. -1.
<mgrwt>
<rscale>  0 0.50498743E+02</rscale>
<asrwt>0</asrwt>
<pdfrwt beam="1">  1        2 0.13139860E+00 0.23590719E+02</pdfrwt>
<pdfrwt beam="2">  1        1 0.74226465E-02 0.10809857E+03</pdfrwt>
<totfact> 0.44182039E+03</totfact>
</mgrwt>
</event>
<event>
 5    1  0.8274494E-003  0.1280843E+03  0.7546771E-02  0.1329964E+00
          1   -1    0    0  501    0 -0.00000000000E+00  0.00000000000E+00  0.19453763424E+03  0.19453763424E+03  0.00000000000E+00 0. -1.
          2   -1    0    0  502    0  0.00000000000E+00 -0.00000000000E+00 -0.97747946494E+03  0.97747946494E+03  0.00000000000E+00 0. -1.
         25    1    1    2    0    0  0.83652766124E+02  0.66275583072E+02 -0.67763070332E+01  0.16450275538E+03  0.12500000000E+03 0.  0.
          2    1    1    2  501    0 -0.13085702491E+03 -0.51153334347E+02  0.72018977441E+02  0.15788273400E+03  0.00000000000E+00 0. -1.
          1    1    1    2  502    0  0.47204258789E+02 -0.15122248725E+02 -0.84818450110E+03  0.84963160980E+03  0.00000000000E+00 0. -1.
<mgrwt>
<rscale>  0 0.79679366E+02</rscale>
<asrwt>0</asrwt>
<pdfrwt beam="2">  1        2 0.15038146E+00 0.49567373E+02</pdfrwt>
<pdfrwt beam="1">  1        1 0.29928867E-01 0.12808428E+03</pdfrwt>
<totfact> 0.60346746E+02</totfact>
</mgrwt>
</event>
<event>
 5    1  0.8274494E-003  0.9061778E+02  0.7546771E-02  0.1331740E+00
          1   -1    0    0  501    0 -0.00000000000E+00  0.00000000000E+00  0.11169646659E+03  0.11169646659E+03  0.00000000000E+00 0. -1.
          2   -1    0    0  502    0  0.00000000000E+00 -0.00000000000E+00 -0.17388833566E+04  0.17388833566E+04  0.00000000000E+00 0. -1.
         25    1    1    2    0    0 -0.73138843785E+02  0.39237098058E+02 -0.69364069099E+03  0.70968390748E+03  0.12500000000E+03 0.  0.
          2    1    1    2  501    0 -0.21698633642E+02 -0.65474408265E+02  0.89574355308E+02  0.11305438500E+03  0.00000000000E+00 0. -1.
          3    1    1    2  502    0  0.94837477427E+02  0.26237310207E+02 -0.10231205544E+04  0.10278415308E+04  0.00000000000E+00 0. -1.
<mgrwt>
<rscale>  0 0.79059966E+02</rscale>
<asrwt>0</asrwt>
<pdfrwt beam="2">  1        2 0.26752051E+00 0.90617777E+02</pdfrwt>
<pdfrwt beam="1">  1        1 0.17184072E-01 0.68976292E+02</pdfrwt>
<totfact> 0.45312872E+02</totfact>
</mgrwt>
</event>
<event>
 5    1  0.8274494E-003  0.1225760E+03  0.7546771E-02  0.1376200E+00
          2   -1    0    0  502    0  0.00000000000E+00  0.00000000000E+00  0.25059729955E+04  0.25059729955E+04  0.00000000000E+00 0. -1.
         -2   -1    0    0    0  501 -0.00000000000E+00 -0.00000000000E+00 -0.10734770766E+03  0.10734770766E+03  0.00000000000E+00 0.  1.
         25    1    1    2    0    0 -0.39856050819E+02  0.14011010321E+03  0.52997051407E+03  0.56366043997E+03  0.12500000000E+03 0.  0.
          1    1    1    2  502    0  0.11436651567E+02 -0.11972908930E+03  0.19538593822E+04  0.19575577482E+04  0.00000000000E+00 0. -1.
         -1    1    1    2    0  501  0.28419399253E+02 -0.20381013905E+02 -0.85204608432E+02  0.92102515057E+02  0.00000000000E+00 0.  1.
<mgrwt>
<rscale>  0 0.65473207E+02</rscale>
<asrwt>0</asrwt>
<pdfrwt beam="1">  1        2 0.38553426E+00 0.12257601E+03</pdfrwt>
<pdfrwt beam="2">  1       -2 0.16515034E-01 0.34972103E+02</pdfrwt>
<totfact> 0.11696194E+02</totfact>
</mgrwt>
</event>
<event>
 5    1  0.8274494E-003  0.8161512E+02  0.7546771E-02  0.1468885E+00
          2   -1    0    0  502    0  0.00000000000E+00  0.00000000000E+00  0.19812572559E+03  0.19812572559E+03  0.00000000000E+00 0. -1.
          1   -1    0    0  501    0 -0.00000000000E+00 -0.00000000000E+00 -0.13058315325E+04  0.13058315325E+04  0.00000000000E+00 0. -1.
         25    1    1    2    0    0 -0.75284064377E+02 -0.43748399851E+02 -0.95724266139E+02  0.17991594695E+03  0.12500000000E+03 0.  0.
          2    1    1    2  501    0 -0.41104721662E+01  0.25468598365E+02 -0.11572226431E+04  0.11575101689E+04  0.00000000000E+00 0. -1.
          1    1    1    2  502    0  0.79394536544E+02  0.18279801486E+02  0.14524110224E+03  0.16653114229E+03  0.00000000000E+00 0. -1.
<mgrwt>
<rscale>  0 0.45885953E+02</rscale>
<asrwt>0</asrwt>
<pdfrwt beam="1">  1        2 0.30480881E-01 0.81615123E+02</pdfrwt>
<pdfrwt beam="2">  1        1 0.20089716E+00 0.25798168E+02</pdfrwt>
<totfact> 0.27232796E+02</totfact>
</mgrwt>
</event>
<event>
 5    1  0.8274494E-003  0.1461456E+03  0.7546771E-02  0.1302245E+00
          2   -1    0    0  502    0  0.00000000000E+00  0.00000000000E+00  0.55505745327E+03  0.55505745327E+03  0.00000000000E+00 0. -1.
          1   -1    0    0  501    0 -0.00000000000E+00 -0.00000000000E+00 -0.39109944722E+03  0.39109944722E+03  0.00000000000E+00 0. -1.
         25    1    1    2    0    0  0.11730253840E+03  0.16161188001E+03 -0.21059921458E+03  0.31599891528E+03  0.12500000000E+03 0.  0.
          2    1    1    2  501    0 -0.30975771649E+02 -0.46333155462E+02 -0.11072246090E+03  0.12395855385E+03  0.00000000000E+00 0. -1.
          1    1    1    2  502    0 -0.86326766756E+02 -0.11527872454E+03  0.48527968153E+03  0.50619943135E+03  0.00000000000E+00 0. -1.
<mgrwt>
<rscale>  0 0.90251053E+02</rscale>
<asrwt>0</asrwt>
<pdfrwt beam="1">  1        2 0.85393455E-01 0.14614558E+03</pdfrwt>
<pdfrwt beam="2">  1        1 0.60169145E-01 0.55733829E+02</pdfrwt>
<totfact> 0.48493183E+02</totfact>
</mgrwt>
</event>
<event>
 5    1  0.8274494E-003  0.1299350E+03  0.7546771E-02  0.1303525E+00
          2   -1    0    0  502    0  0.00000000000E+00  0.00000000000E+00  0.14306284112E+04  0.14306284112E+04  0.00000000000E+00 0. -1.
          1   -1    0    0  501    0 -0.00000000000E+00 -0.00000000000E+00 -0.10994292273E+03  0.10994292273E+03  0.00000000000E+00 0. -1.
         25    1    1    2    0    0 -0.11300156066E+03  0.61092228824E+02  0.22976850791E+02  0.18070569667E+03  0.12500000000E+03 0.  0.
          2    1    1    2  501    0  0.81929901483E+02 -0.11469264399E+03  0.13391023300E+03  0.19441929391E+03  0.00000000000E+00 0. -1.
          1    1    1    2  502    0  0.31071659181E+02  0.53600415167E+02  0.11637984047E+04  0.11654463434E+04  0.00000000000E+00 0. -1.
<mgrwt>
<rscale>  0 0.89722639E+02</rscale>
<asrwt>0</asrwt>
<pdfrwt beam="1">  1        2 0.22009667E+00 0.61955246E+02</pdfrwt>
<pdfrwt beam="2">  1        1 0.16914297E-01 0.12993495E+03</pdfrwt>
<totfact> 0.70091453E+02</totfact>
</mgrwt>
</event>
<event>
 5    1  0.8274494E-003  0.1407076E+03  0.7546771E-02  0.1236714E+00
          2   -1    0    0  502    0  0.00000000000E+00  0.00000000000E+00  0.10176394009E+03  0.10176394009E+03  0.00000000000E+00 0. -1.
          1   -1    0    0  501    0 -0.00000000000E+00 -0.00000000000E+00 -0.84911732578E+03  0.84911732578E+03  0.00000000000E+00 0. -1.
         25    1    1    2    0    0 -0.34671863483E+02  0.10356541311E+03 -0.11799143897E+03  0.20365390391E+03  0.12500000000E+03 0.  0.
          2    1    1    2  501    0  0.81287478860E+02  0.72909526454E+02 -0.52651464246E+03  0.53771844119E+03  0.00000000000E+00 0. -1.
          1    1    1    2  502    0 -0.46615615377E+02 -0.17647493956E+03 -0.10284730425E+03  0.20950892077E+03  0.00000000000E+00 0. -1.
<mgrwt>
<rscale>  0 0.12395366E+03</rscale>
<asrwt>0</asrwt>
<pdfrwt beam="1">  1        2 0.15655991E-01 0.14070764E+03</pdfrwt>
<pdfrwt beam="2">  1        1 0.13063343E+00 0.10919457E+03</pdfrwt>
<totfact> 0.10776568E+03</totfact>
</mgrwt>
</event>
<event>
 5    1  0.8274494E-003  0.8699861E+02  0.7546771E-02  0.1419163E+00
          2   -1    0    0  502    0  0.00000000000E+00  0.00000000000E+00  0.73050679705E+02  0.73050679705E+02  0.00000000000E+00 0. -1.
          1   -1    0    0  501    0 -0.00000000000E+00 -0.00000000000E+00 -0.89794612440E+03  0.89794612440E+03  0.00000000000E+00 0. -1.
         25    1    1    2    0    0  0.52554355190E+02  0.32031868045E+02 -0.22084851656E+03  0.26112653655E+03  0.12500000000E+03 0.  0.
          2    1    1    2  501    0 -0.64004777826E+02 -0.65129154509E+02 -0.64758672777E+03  0.65399311031E+03  0.00000000000E+00 0. -1.
          1    1    1    2  502    0  0.11450422636E+02  0.33097286463E+02  0.43539799637E+02  0.55877157249E+02  0.00000000000E+00 0. -1.
<mgrwt>
<rscale>  0 0.55198441E+02</rscale>
<asrwt>0</asrwt>
<pdfrwt beam="1">  1        2 0.11238566E-01 0.35022029E+02</pdfrwt>
<pdfrwt beam="2">  1        1 0.13814556E+00 0.86998610E+02</pdfrwt>
<totfact> 0.13581084E+03</totfact>
</mgrwt>
</event>
<event>
 5    1  0.8274494E-003  0.4613151E+02  0.7546771E-02  0.1498255E+00
          1   -1    0    0  501    0 -0.00000000000E+00  0.00000000000E+00  0.12868362005E+03  0.12868362005E+03  0.00000000000E+00 0. -1.
          2   -1    0    0  502    0  0.00000000000E+00 -0.00000000000E+00 -0.83634588766E+03  0.83634588766E+03  0.00000000000E+00 0. -1.
         25    1    1    2    0    0 -0.46869756646E+02 -0.22390836917E+02 -0.10325038173E+03  0.17024618936E+03  0.12500000000E+03 0.  0.
          2    1    1    2  501    0  0.30623993327E+02 -0.20992146786E+02  0.90764708512E+02  0.98064935146E+02  0.00000000000E+00 0. -1.
          3    1    1    2  502    0  0.16245763320E+02  0.43382983704E+02 -0.69517659439E+03  0.69671838320E+03  0.00000000000E+00 0. -1.
<mgrwt>
<rscale>  0 0.41385713E+02</rscale>
<asrwt>0</asrwt>
<pdfrwt beam="2">  1        2 0.12866860E+00 0.46131505E+02</pdfrwt>
<pdfrwt beam="1">  1        1 0.19797480E-01 0.37128146E+02</pdfrwt>
<totfact> 0.11761059E+03</totfact>
</mgrwt>
</event>
<event>
 5    1  0.8274494E-003  0.5361498E+02  0.7546771E-02  0.1436427E+00
         -1   -1    0    0    0  502 -0.00000000000E+00  0.00000000000E+00  0.57291100418E+03  0.57291100418E+03  0.00000000000E+00 0.  1.
         -2   -1    0    0    0  501  0.00000000000E+00 -0.00000000000E+00 -0.27243233395E+03  0.27243233395E+03  0.00000000000E+00 0.  1.
         25    1    1    2    0    0 -0.42460630136E+02 -0.54061573124E+02  0.21604082732E+03  0.25889032015E+03  0.12500000000E+03 0.  0.
         -2    1    1    2    0  502 -0.73725931845E+01  0.53491420343E+02  0.33076067634E+03  0.33513924299E+03  0.00000000000E+00 0.  1.
         -1    1    1    2    0  501  0.49833223321E+02  0.57015278123E+00 -0.24632283344E+03  0.25131377498E+03  0.00000000000E+00 0.  1.
<mgrwt>
<rscale>  0 0.51691219E+02</rscale>
<asrwt>0</asrwt>
<pdfrwt beam="2">  1       -2 0.41912667E-01 0.49836485E+02</pdfrwt>
<pdfrwt beam="1">  1       -1 0.88140154E-01 0.53614981E+02</pdfrwt>
<totfact> 0.56549247E+01</totfact>
</mgrwt>
</event>
<event>
 5    1  0.8274494E-003  0.3580492E+02  0.7546771E-02  0.1557197E+00
         -2   -1    0    0    0  501 -0.00000000000E+00  0.00000000000E+00  0.46753009988E+02  0.46753009988E+02  0.00000000000E+00 0.  1.
          2   -1    0    0  502    0  0.00000000000E+00 -0.00000000000E+00 -0.27666878525E+03  0.27666878525E+03  0.00000000000E+00 0. -1.
         25    1    1    2    0    0  0.88503122113E+01  0.27422210221E+02 -0.15916175274E+03  0.20442056935E+03  0.12500000000E+03 0.  0.
          1    1    1    2  502    0  0.23209599011E+02 -0.31978728973E+02 -0.76510511297E+02  0.86111456450E+02  0.00000000000E+00 0. -1.
         -1    1    1    2    0  501 -0.32059911222E+02  0.45565187520E+01  0.57564887717E+01  0.32889769438E+02  0.00000000000E+00 0.  1.
<mgrwt>
<rscale>  0 0.34050523E+02</rscale>
<asrwt>0</asrwt>
<pdfrwt beam="2">  1        2 0.42564428E-01 0.35804918E+02</pdfrwt>
<pdfrwt beam="1">  1       -2 0.71927708E-02 0.32382090E+02</pdfrwt>
<totfact> 0.10849357E+04</totfact>
</mgrwt>
</event>
<event>
 5    1  0.8274494E-003  0.4533401E+02  0.7546771E-02  0.1559602E+00
          2   -1    0    0  502    0  0.00000000000E+00  0.00000000000E+00  0.12053771077E+04  0.12053771077E+04  0.00000000000E+00 0. -1.
         -2   -1    0    0    0  501 -0.00000000000E+00 -0.00000000000E+00 -0.50157550513E+02  0.50157550513E+02  0.00000000000E+00 0.  1.
         25    1    1    2    0    0 -0.15696425889E+02 -0.49440965425E+02  0.28684763213E+03  0.31717085444E+03  0.12500000000E+03 0.  0.
          3    1    1    2  502    0  0.24681805569E+02  0.50232298368E+01  0.88844338192E+03  0.88880035286E+03  0.00000000000E+00 0. -1.
         -1    1    1    2    0  501 -0.89853796801E+01  0.44417735589E+02 -0.20071456886E+02  0.49563450892E+02  0.00000000000E+00 0.  1.
<mgrwt>
<rscale>  0 0.33791466E+02</rscale>
<asrwt>0</asrwt>
<pdfrwt beam="1">  1        2 0.18544261E+00 0.25187782E+02</pdfrwt>
<pdfrwt beam="2">  1       -2 0.77165471E-02 0.45334010E+02</pdfrwt>
<totfact> 0.20220980E+03</totfact>
</mgrwt>
</event>
<event>
 5    1  0.8274494E-003  0.1321081E+03  0.7546771E-02  0.1342308E+00
          1   -1    0    0  501    0 -0.00000000000E+00  0.00000000000E+00  0.31067530317E+04  0.31067530317E+04  0.00000000000E+00 0. -1.
          2   -1    0    0  502    0  0.00000000000E+00 -0.00000000000E+00 -0.13075851315E+03  0.13075851315E+03  0.00000000000E+00 0. -1.
         25    1    1    2    0    0  0.19281072114E+02  0.10420593720E+03  0.31293948618E+03  0.35325169370E+03  0.12500000000E+03 0.  0.
          2    1    1    2  501    0 -0.29842260121E+02  0.31175617097E+02  0.27317425178E+04  0.27320833925E+04  0.00000000000E+00 0. -1.
          1    1    1    2  502    0  0.10561188007E+02 -0.13538155429E+03 -0.68687485437E+02  0.15217645873E+03  0.00000000000E+00 0. -1.
<mgrwt>
<rscale>  0 0.75507057E+02</rscale>
<asrwt>0</asrwt>
<pdfrwt beam="2">  1        2 0.20116697E-01 0.13210806E+03</pdfrwt>
<pdfrwt beam="1">  1        1 0.47796195E+00 0.43156455E+02</pdfrwt>
<totfact> 0.30910513E+01</totfact>
</mgrwt>
</event>
<event>
 5    1  0.8274494E-003  0.4950724E+02  0.7546771E-02  0.1499032E+00
          2   -1    0    0  502    0  0.00000000000E+00  0.00000000000E+00  0.46202900961E+03  0.46202900961E+03  0.00000000000E+00 0. -1.
         -2   -1    0    0    0  501 -0.00000000000E+00 -0.00000000000E+00 -0.64260101652E+02  0.64260101652E+02  0.00000000000E+00 0.  1.
         25    1    1    2    0    0 -0.64272574958E+02 -0.50698056608E+02  0.13767487110E+03  0.20317634451E+03  0.12500000000E+03 0.  0.
          1    1    1    2  502    0  0.38394295713E+02  0.28015779293E+02  0.27956356285E+03  0.28357501918E+03  0.00000000000E+00 0. -1.
         -1    1    1    2    0  501  0.25878279246E+02  0.22682277315E+02 -0.19469525987E+02  0.39537747572E+02  0.00000000000E+00 0.  1.
<mgrwt>
<rscale>  0 0.41275084E+02</rscale>
<asrwt>0</asrwt>
<pdfrwt beam="1">  1        2 0.71081384E-01 0.49507240E+02</pdfrwt>
<pdfrwt beam="2">  1       -2 0.98861698E-02 0.34411786E+02</pdfrwt>
<totfact> 0.40417040E+03</totfact>
</mgrwt>
</event>
<event>
 5    1  0.8274494E-003  0.4979785E+02  0.7546771E-02  0.1482605E+00
          2   -1    0    0  502    0  0.00000000000E+00  0.00000000000E+00  0.55295437420E+03  0.55295437420E+03  0.00000000000E+00 0. -1.
          1   -1    0    0  501    0 -0.00000000000E+00 -0.00000000000E+00 -0.58860281940E+03  0.58860281940E+03  0.00000000000E+00 0. -1.
         25    1    1    2    0    0 -0.37045964864E+02 -0.13834845991E+02 -0.45264899234E+02  0.13870009942E+03  0.12500000000E+03 0.  0.
          2    1    1    2  501    0  0.44476961662E+02 -0.23792560820E+02 -0.49460933402E+03  0.49717469703E+03  0.00000000000E+00 0. -1.
          1    1    1    2  502    0 -0.74309967978E+01  0.37627406811E+02  0.50422578805E+03  0.50568239715E+03  0.00000000000E+00 0. -1.
<mgrwt>
<rscale>  0 0.43703028E+02</rscale>
<asrwt>0</asrwt>
<pdfrwt beam="1">  1        2 0.85069903E-01 0.38354158E+02</pdfrwt>
<pdfrwt beam="2">  1        1 0.90554280E-01 0.49797852E+02</pdfrwt>
<totfact> 0.29987793E+02</totfact>
</mgrwt>
</event>
<event>
 5    1  0.8274494E-003  0.2976583E+03  0.7546771E-02  0.1244584E+00
         -2   -1    0    0    0  501 -0.00000000000E+00  0.00000000000E+00  0.13685713323E+04  0.13685713323E+04  0.00000000000E+00 0.  1.
          2   -1    0    0  502    0  0.00000000000E+00 -0.00000000000E+00 -0.11804718040E+03  0.11804718040E+03  0.00000000000E+00 0. -1.
         25    1    1    2    0    0 -0.18077672667E+03  0.24465747286E+03  0.28729347633E+03  0.43669216329E+03  0.12500000000E+03 0.  0.
          1    1    1    2  502    0  0.43945953480E+02  0.18438459749E+02  0.62674548513E+01  0.48067708656E+02  0.00000000000E+00 0. -1.
         -1    1    1    2    0  501  0.13683077320E+03 -0.26309593261E+03  0.95696322075E+03  0.10018586408E+04  0.00000000000E+00 0.  1.
<mgrwt>
<rscale>  0 0.11910334E+03</rscale>
<asrwt>0</asrwt>
<pdfrwt beam="2">  1        2 0.18161106E-01 0.47657356E+02</pdfrwt>
<pdfrwt beam="1">  1       -2 0.21054942E+00 0.29765826E+03</pdfrwt>
<totfact> 0.35846179E+01</totfact>
</mgrwt>
</event>
<event>
 5    1  0.8274494E-003  0.5028274E+02  0.7546771E-02  0.1453681E+00
         -2   -1    0    0    0  501 -0.00000000000E+00  0.00000000000E+00  0.33324779788E+02  0.33324779788E+02  0.00000000000E+00 0.  1.
          2   -1    0    0  502    0  0.00000000000E+00 -0.00000000000E+00 -0.12262218762E+04  0.12262218762E+04  0.00000000000E+00 0. -1.
         25    1    1    2    0    0 -0.50293878548E+02  0.76946219058E+02 -0.28689370012E+03  0.32616436043E+03  0.12500000000E+03 0.  0.
          1    1    1    2  502    0  0.36911447914E+02 -0.32148064076E+02 -0.87699516372E+03  0.87836010281E+03  0.00000000000E+00 0. -1.
         -1    1    1    2    0  501  0.13382430635E+02 -0.44798154982E+02 -0.29008232597E+02  0.55022192776E+02  0.00000000000E+00 0.  1.
<mgrwt>
<rscale>  0 0.48486431E+02</rscale>
<asrwt>0</asrwt>
<pdfrwt beam="2">  1        2 0.18864954E+00 0.50282739E+02</pdfrwt>
<pdfrwt beam="1">  1       -2 0.51268885E-02 0.46754295E+02</pdfrwt>
<totfact> 0.34458702E+03</totfact>
</mgrwt>
</event>
<event>
 5    1  0.8274494E-003  0.8260912E+02  0.7546771E-02  0.1363494E+00
          1   -1    0    0  501    0 -0.00000000000E+00  0.00000000000E+00  0.12568373140E+04  0.12568373140E+04  0.00000000000E+00 0. -1.
          2   -1    0    0  502    0  0.00000000000E+00 -0.00000000000E+00 -0.29083642400E+04  0.29083642400E+04  0.00000000000E+00 0. -1.
         25    1    1    2    0    0 -0.77697346307E+02 -0.52131285406E+02  0.14085989694E+03  0.21028803843E+03  0.12500000000E+03 0.  0.
          2    1    1    2  501    0  0.26490144608E+02  0.78611239915E+02  0.10793825680E+04  0.10825655560E+04  0.00000000000E+00 0. -1.
          1    1    1    2  502    0  0.51207201700E+02 -0.26479954509E+02 -0.28717693910E+04  0.28723479595E+04  0.00000000000E+00 0. -1.
<mgrwt>
<rscale>  0 0.69009444E+02</rscale>
<asrwt>0</asrwt>
<pdfrwt beam="2">  1        2 0.44744064E+00 0.57648638E+02</pdfrwt>
<pdfrwt beam="1">  1        1 0.19335959E+00 0.82609120E+02</pdfrwt>
<totfact> 0.47344989E+00</totfact>
</mgrwt>
</event>
<event>
 5    1  0.8274494E-003  0.1010940E+03  0.7546771E-02  0.1294105E+00
         -2   -1    0    0    0  501 -0.00000000000E+00  0.00000000000E+00  0.49411787678E+03  0.49411787678E+03  0.00000000000E+00 0.  1.
          2   -1    0    0  502    0  0.00000000000E+00 -0.00000000000E+00 -0.21571670303E+03  0.21571670303E+03  0.00000000000E+00 0. -1.
         25    1    1    2    0    0 -0.57751560343E+02 -0.52038859372E+02  0.21290661818E+03  0.25883877931E+03  0.12500000000E+03 0.  0.
          1    1    1    2  502    0  0.43495302997E+02 -0.75194693860E+02 -0.16548904452E+03  0.18690293530E+03  0.00000000000E+00 0. -1.
         -1    1    1    2    0  501  0.14256257346E+02  0.12723355323E+03  0.23098360009E+03  0.26409286520E+03  0.00000000000E+00 0.  1.
<mgrwt>
<rscale>  0 0.93711520E+02</rscale>
<asrwt>0</asrwt>
<pdfrwt beam="2">  1        2 0.33187185E-01 0.86868195E+02</pdfrwt>
<pdfrwt beam="1">  1       -2 0.76018135E-01 0.10109395E+03</pdfrwt>
<totfact> 0.25155015E+02</totfact>
</mgrwt>
</event>
<event>
 5    1  0.8274494E-003  0.6048512E+02  0.7546771E-02  0.1445104E+00
          2   -1    0    0  502    0  0.00000000000E+00  0.00000000000E+00  0.85732468451E+02  0.85732468451E+02  0.00000000000E+00 0. -1.
         -2   -1    0    0    0  501 -0.00000000000E+00 -0.00000000000E+00 -0.26223840104E+03  0.26223840104E+03  0.00000000000E+00 0.  1.
         25    1    1    2    0    0 -0.24273274259E+02  0.10702848460E+02 -0.13319428280E+01  0.12779091079E+03  0.12500000000E+03 0.  0.
          1    1    1    2  502    0 -0.17823495098E+02  0.37372781851E+02 -0.93196862185E+01  0.42441234100E+02  0.00000000000E+00 0. -1.
         -1    1    1    2    0  501  0.42096769357E+02 -0.48075630311E+02 -0.16585430354E+03  0.17773872460E+03  0.00000000000E+00 0.  1.
<mgrwt>
<rscale>  0 0.50044046E+02</rscale>
<asrwt>0</asrwt>
<pdfrwt beam="1">  1        2 0.13189611E-01 0.41405335E+02</pdfrwt>
<pdfrwt beam="2">  1       -2 0.40344368E-01 0.60485117E+02</pdfrwt>
<totfact> 0.23847722E+03</totfact>
</mgrwt>
</event>
<event>
 5    1  0.8274494E-003  0.1005603E+03  0.7546771E-02  0.1395129E+00
          1   -1    0    0  501    0 -0.00000000000E+00  0.00000000000E+00  0.93941846810E+03  0.93941846810E+03  0.00000000000E+00 0. -1.
          2   -1    0    0  502    0  0.00000000000E+00 -0.00000000000E+00 -0.17899733611E+03  0.17899733611E+03  0.00000000000E+00 0. -1.
         25    1    1    2    0    0 -0.62637355255E+02  0.83271643468E+02  0.19914070105E+03  0.25717625025E+03  0.12500000000E+03 0.  0.
          2    1    1    2  501    0  0.34060288199E+02  0.13335478962E+02  0.69380542528E+03  0.69476895900E+03  0.00000000000E+00 0. -1.
          1    1    1    2  502    0  0.28577067056E+02 -0.96607122430E+02 -0.13252499434E+03  0.16647059497E+03  0.00000000000E+00 0. -1.
<mgrwt>
<rscale>  0 0.60648826E+02</rscale>
<asrwt>0</asrwt>
<pdfrwt beam="2">  1        2 0.27538052E-01 0.10056035E+03</pdfrwt>
<pdfrwt beam="1">  1        1 0.14452591E+00 0.36577838E+02</pdfrwt>
<totfact> 0.51621135E+02</totfact>
</mgrwt>
</event>
<event>
 5    1  0.8274494E-003  0.9239619E+02  0.7546771E-02  0.1472235E+00
          2   -1    0    0  502    0  0.00000000000E+00  0.00000000000E+00  0.11999683892E+04  0.11999683892E+04  0.00000000000E+00 0. -1.
          1   -1    0    0  501    0 -0.00000000000E+00 -0.00000000000E+00 -0.74455487481E+03  0.74455487481E+03  0.00000000000E+00 0. -1.
         25    1    1    2    0    0  0.88024910487E+02  0.65986357601E+02  0.37272901449E+03  0.40823339219E+03  0.12500000000E+03 0.  0.
          2    1    1    2  501    0 -0.21612615760E+02 -0.52797758024E+01 -0.72413099849E+03  0.72447269387E+03  0.00000000000E+00 0. -1.
          1    1    1    2  502    0 -0.66412294728E+02 -0.60706581799E+02  0.80681549834E+03  0.81181717790E+03  0.00000000000E+00 0. -1.
<mgrwt>
<rscale>  0 0.45339237E+02</rscale>
<asrwt>0</asrwt>
<pdfrwt beam="1">  1        2 0.18461052E+00 0.92396189E+02</pdfrwt>
<pdfrwt beam="2">  1        1 0.11454690E+00 0.22248173E+02</pdfrwt>
<totfact> 0.84646129E+01</totfact>
</mgrwt>
</event>
<event>
 5    1  0.8274494E-003  0.2052192E+03  0.7546771E-02  0.1341481E+00
         -1   -1    0    0    0  501 -0.00000000000E+00  0.00000000000E+00  0.21434274002E+03  0.21434274002E+03  0.00000000000E+00 0.  1.
          1   -1    0    0  502    0  0.00000000000E+00 -0.00000000000E+00 -0.65901027344E+03  0.65901027344E+03  0.00000000000E+00 0. -1.
         25    1    1    2    0    0 -0.15429805709E+03 -0.13811901739E+03 -0.32307704051E+03  0.40359450875E+03  0.12500000000E+03 0.  0.
          2    1    1    2  502    0  0.21313369479E+02 -0.18128908249E+02 -0.23409368170E+03  0.23575998144E+03  0.00000000000E+00 0. -1.
         -2    1    1    2    0  501  0.13298468761E+03  0.15624792564E+03  0.11250318880E+03  0.23399852328E+03  0.00000000000E+00 0.  1.
<mgrwt>
<rscale>  0 0.75777085E+02</rscale>
<asrwt>0</asrwt>
<pdfrwt beam="2">  1        1 0.10138620E+00 0.27980655E+02</pdfrwt>
<pdfrwt beam="1">  1       -1 0.32975806E-01 0.20521917E+03</pdfrwt>
<totfact> 0.29314515E+02</totfact>
</mgrwt>
</event>
<event>
 5    1  0.8274494E-003  0.9101652E+02  0.7546771E-02  0.1348835E+00
          2   -1    0    0  502    0  0.00000000000E+00  0.00000000000E+00  0.14600263760E+04  0.14600263760E+04  0.00000000000E+00 0. -1.
          1   -1    0    0  501    0 -0.00000000000E+00 -0.00000000000E+00 -0.11893442673E+03  0.11893442673E+03  0.00000000000E+00 0. -1.
         25    1    1    2    0    0 -0.12340437389E+02  0.56161282392E+02  0.20445546617E+03  0.24644150154E+03  0.12500000000E+03 0.  0.
          2    1    1    2  501    0 -0.37718926256E+02 -0.87811244021E+02 -0.73729933552E+02  0.12070474339E+03  0.00000000000E+00 0. -1.
          1    1    1    2  502    0  0.50059363646E+02  0.31649961630E+02  0.12103664167E+04  0.12118145578E+04  0.00000000000E+00 0. -1.
<mgrwt>
<rscale>  0 0.73420017E+02</rscale>
<asrwt>0</asrwt>
<pdfrwt beam="1">  1        2 0.22461943E+00 0.59225501E+02</pdfrwt>
<pdfrwt beam="2">  1        1 0.18297605E-01 0.91016517E+02</pdfrwt>
<totfact> 0.60698086E+02</totfact>
</mgrwt>
</event>
<event>
 5    1  0.8274494E-003  0.1072702E+03  0.7546771E-02  0.1359198E+00
          1   -1    0    0  501    0 -0.00000000000E+00  0.00000000000E+00  0.25304499415E+03  0.25304499415E+03  0.00000000000E+00 0. -1.
          2   -1    0    0  502    0  0.00000000000E+00 -0.00000000000E+00 -0.15717830053E+04  0.15717830053E+04  0.00000000000E+00 0. -1.
         25    1    1    2    0    0 -0.14125445268E+03  0.25794461193E+02 -0.57298802811E+03  0.60378676284E+03  0.12500000000E+03 0.  0.
          2    1    1    2  501    0  0.10650992991E+03  0.43886407212E+01  0.22511862708E+03  0.24908235906E+03  0.00000000000E+00 0. -1.
          1    1    1    2  502    0  0.34744522769E+02 -0.30183101914E+02 -0.97086861009E+03  0.97195887750E+03  0.00000000000E+00 0. -1.
<mgrwt>
<rscale>  0 0.70263751E+02</rscale>
<asrwt>0</asrwt>
<pdfrwt beam="2">  1        2 0.24181278E+00 0.46023923E+02</pdfrwt>
<pdfrwt beam="1">  1        1 0.38929998E-01 0.10727019E+03</pdfrwt>
<totfact> 0.21490830E+02</totfact>
</mgrwt>
</event>
<event>
 5    1  0.8274494E-003  0.1565019E+03  0.7546771E-02  0.1320566E+00
         -1   -1    0    0    0  501 -0.00000000000E+00  0.00000000000E+00  0.44465036791E+03  0.44465036791E+03  0.00000000000E+00 0.  1.
          1   -1    0    0  502    0  0.00000000000E+00 -0.00000000000E+00 -0.17178594624E+04  0.17178594624E+04  0.00000000000E+00 0. -1.
         25    1    1    2    0    0  0.12452066723E+03 -0.10825879488E+03 -0.12560170523E+04  0.12729608002E+04  0.12500000000E+03 0.  0.
          2    1    1    2  502    0 -0.38101820514E+02 -0.22185091308E+02 -0.43819544916E+03  0.44040796844E+03  0.00000000000E+00 0. -1.
         -2    1    1    2    0  501 -0.86418846714E+02  0.13044388619E+03  0.42100340701E+03  0.44914106161E+03  0.00000000000E+00 0.  1.
<mgrwt>
<rscale>  0 0.83067236E+02</rscale>
<asrwt>0</asrwt>
<pdfrwt beam="2">  1        1 0.26428607E+00 0.44089988E+02</pdfrwt>
<pdfrwt beam="1">  1       -1 0.68407748E-01 0.15650187E+03</pdfrwt>
<totfact> 0.14476912E+01</totfact>
</mgrwt>
</event>
<event>
 5    1  0.8274494E-003  0.2969546E+02  0.7546771E-02  0.1618375E+00
          2   -1    0    0  502    0  0.00000000000E+00  0.00000000000E+00  0.21593365910E+03  0.21593365910E+03  0.00000000000E+00 0. -1.
          1   -1    0    0  501    0 -0.00000000000E+00 -0.00000000000E+00 -0.22513256350E+03  0.22513256350E+03  0.00000000000E+00 0. -1.
         25    1    1    2    0    0  0.55010085120E+02 -0.33052053621E+01  0.47819530395E+02  0.14473680021E+03  0.12500000000E+03 0.  0.
          2    1    1    2  501    0 -0.26762287683E+02 -0.22868544868E+01 -0.17389530065E+03  0.17595745319E+03  0.00000000000E+00 0. -1.
          1    1    1    2  502    0 -0.28247797438E+02  0.55920598489E+01  0.11687686586E+03  0.12037196919E+03  0.00000000000E+00 0. -1.
<mgrwt>
<rscale>  0 0.28242071E+02</rscale>
<asrwt>0</asrwt>
<pdfrwt beam="1">  1        2 0.33220563E-01 0.29695459E+02</pdfrwt>
<pdfrwt beam="2">  1        1 0.34635779E-01 0.26859817E+02</pdfrwt>
<totfact> 0.24695339E+03</totfact>
</mgrwt>
</event>
<event>
 5    1  0.8274494E-003  0.7274113E+02  0.7546771E-02  0.1472364E+00
          2   -1    0    0  502    0  0.00000000000E+00  0.00000000000E+00  0.23374641817E+04  0.23374641817E+04  0.00000000000E+00 0. -1.
          1   -1    0    0  501    0 -0.00000000000E+00 -0.00000000000E+00 -0.16101587781E+03  0.16101587781E+03  0.00000000000E+00 0. -1.
         25    1    1    2    0    0  0.15930359538E+02 -0.51464096059E+02 -0.26178993461E+02  0.13860977324E+03  0.12500000000E+03 0.  0.
          2    1    1    2  501    0 -0.18430165234E+02 -0.21388681547E+02 -0.75484813365E+02  0.80592206432E+02  0.00000000000E+00 0. -1.
          1    1    1    2  502    0  0.24998056958E+01  0.72852777606E+02  0.22781121107E+04  0.22792780798E+04  0.00000000000E+00 0. -1.
<mgrwt>
<rscale>  0 0.45318403E+02</rscale>
<asrwt>0</asrwt>
<pdfrwt beam="1">  1        2 0.35960985E+00 0.72741134E+02</pdfrwt>
<pdfrwt beam="2">  1        1 0.24771675E-01 0.28233786E+02</pdfrwt>
<totfact> 0.14295273E+02</totfact>
</mgrwt>
</event>
<event>
 5    1  0.8274494E-003  0.4445469E+02  0.7546771E-02  0.1490092E+00
         -2   -1    0    0    0  501 -0.00000000000E+00  0.00000000000E+00  0.20179055222E+03  0.20179055222E+03  0.00000000000E+00 0.  1.
          2   -1    0    0  502    0  0.00000000000E+00 -0.00000000000E+00 -0.10360652371E+03  0.10360652371E+03  0.00000000000E+00 0. -1.
         25    1    1    2    0    0 -0.46472050063E+02 -0.17299070130E+02  0.45181595563E+02  0.14186361705E+03  0.12500000000E+03 0.  0.
          1    1    1    2  502    0  0.39545784558E+02 -0.22878108892E+02 -0.40800737328E+02  0.61253384473E+02  0.00000000000E+00 0. -1.
         -3    1    1    2    0  501  0.69262655044E+01  0.40177179022E+02  0.93803170277E+02  0.10228007441E+03  0.00000000000E+00 0.  1.
<mgrwt>
<rscale>  0 0.42572410E+02</rscale>
<asrwt>0</asrwt>
<pdfrwt beam="2">  1        2 0.15939465E-01 0.44454691E+02</pdfrwt>
<pdfrwt beam="1">  1       -2 0.31044700E-01 0.40769828E+02</pdfrwt>
<totfact> 0.30769514E+03</totfact>
</mgrwt>
</event>
<event>
 5    1  0.8274494E-003  0.8056142E+02  0.7546771E-02  0.1454987E+00
          2   -1    0    0  502    0  0.00000000000E+00  0.00000000000E+00  0.43814717623E+03  0.43814717623E+03  0.00000000000E+00 0. -1.
          1   -1    0    0  501    0 -0.00000000000E+00 -0.00000000000E+00 -0.59036444453E+03  0.59036444453E+03  0.00000000000E+00 0. -1.
         25    1    1    2    0    0 -0.60806279350E+02 -0.65505165623E+02 -0.13514602114E+03  0.20464060536E+03  0.12500000000E+03 0.  0.
          2    1    1    2  501    0  0.27809432687E+02 -0.78789196869E+01 -0.41595245812E+03  0.41695550043E+03  0.00000000000E+00 0. -1.
          1    1    1    2  502    0  0.32996846663E+02  0.73384085310E+02  0.39888121096E+03  0.40691551497E+03  0.00000000000E+00 0. -1.
<mgrwt>
<rscale>  0 0.48255035E+02</rscale>
<asrwt>0</asrwt>
<pdfrwt beam="1">  1        2 0.67407258E-01 0.80561423E+02</pdfrwt>
<pdfrwt beam="2">  1        1 0.90825299E-01 0.28904012E+02</pdfrwt>
<totfact> 0.38519200E+02</totfact>
</mgrwt>
</event>
<event>
 5    1  0.8274494E-003  0.8067934E+02  0.7546771E-02  0.1335248E+00
          2   -1    0    0  502    0  0.00000000000E+00  0.00000000000E+00  0.52155978893E+03  0.52155978893E+03  0.00000000000E+00 0. -1.
         -2   -1    0    0    0  501 -0.00000000000E+00 -0.00000000000E+00 -0.28241615948E+03  0.28241615948E+03  0.00000000000E+00 0.  1.
         25    1    1    2    0    0 -0.16114005837E+02  0.11279098275E+02  0.12502059636E+02  0.12715416130E+03  0.12500000000E+03 0.  0.
          1    1    1    2  502    0  0.43456538154E+01 -0.85483020150E+02  0.44123293481E+03  0.44945826747E+03  0.00000000000E+00 0. -1.
         -1    1    1    2    0  501  0.11768352021E+02  0.74203921876E+02 -0.21459136499E+03  0.22736351963E+03  0.00000000000E+00 0.  1.
<mgrwt>
<rscale>  0 0.77855929E+02</rscale>
<asrwt>0</asrwt>
<pdfrwt beam="1">  1        2 0.80239967E-01 0.80679338E+02</pdfrwt>
<pdfrwt beam="2">  1       -2 0.43448640E-01 0.75131326E+02</pdfrwt>
<totfact> 0.30805650E+02</totfact>
</mgrwt>
</event>
<event>
 5    1  0.8274494E-003  0.5899429E+02  0.7546771E-02  0.1453894E+00
          2   -1    0    0  502    0  0.00000000000E+00  0.00000000000E+00  0.39890856687E+03  0.39890856687E+03  0.00000000000E+00 0. -1.
          1   -1    0    0  501    0 -0.00000000000E+00 -0.00000000000E+00 -0.14842285379E+04  0.14842285379E+04  0.00000000000E+00 0. -1.
         25    1    1    2    0    0  0.53828942230E+02  0.52821623315E+02 -0.11050218161E+03  0.18309399512E+03  0.12500000000E+03 0.  0.
          2    1    1    2  501    0  0.35785819690E+01 -0.39626677613E+02 -0.13347398693E+04  0.13353327670E+04  0.00000000000E+00 0. -1.
          1    1    1    2  502    0 -0.57407524199E+02 -0.13194945702E+02  0.35992207991E+03  0.36471034265E+03  0.00000000000E+00 0. -1.
<mgrwt>
<rscale>  0 0.48448539E+02</rscale>
<asrwt>0</asrwt>
<pdfrwt beam="1">  1        2 0.61370549E-01 0.58994288E+02</pdfrwt>
<pdfrwt beam="2">  1        1 0.22834285E+00 0.39787936E+02</pdfrwt>
<totfact> 0.97288644E+01</totfact>
</mgrwt>
</event>
<event>
 5    1  0.8274494E-003  0.3529894E+02  0.7546771E-02  0.1611593E+00
          2   -1    0    0  502    0  0.00000000000E+00  0.00000000000E+00  0.40416448005E+03  0.40416448005E+03  0.00000000000E+00 0. -1.
         -2   -1    0    0    0  501 -0.00000000000E+00 -0.00000000000E+00 -0.48940547317E+02  0.48940547317E+02  0.00000000000E+00 0.  1.
         25    1    1    2    0    0 -0.11435030212E+02 -0.51824114986E+02  0.19635490361E+03  0.23873991494E+03  0.12500000000E+03 0.  0.
          3    1    1    2  502    0  0.17749957579E+02  0.29169004630E+02  0.17971965404E+03  0.18293453986E+03  0.00000000000E+00 0. -1.
         -1    1    1    2    0  501 -0.63149273667E+01  0.22655110355E+02 -0.20850624919E+02  0.31430572575E+02  0.00000000000E+00 0.  1.
<mgrwt>
<rscale>  0 0.28812976E+02</rscale>
<asrwt>0</asrwt>
<pdfrwt beam="1">  1        2 0.62179149E-01 0.35298943E+02</pdfrwt>
<pdfrwt beam="2">  1       -2 0.75293152E-02 0.23518766E+02</pdfrwt>
<totfact> 0.66756314E+03</totfact>
</mgrwt>
</event>
<event>
 5    1  0.8274494E-003  0.4430682E+02  0.7546771E-02  0.1484770E+00
         -1   -1    0    0    0  501 -0.00000000000E+00  0.00000000000E+00  0.24344693855E+02  0.24344693855E+02  0.00000000000E+00 0.  1.
          1   -1    0    0  502    0  0.00000000000E+00 -0.00000000000E+00 -0.11668523569E+04  0.11668523569E+04  0.00000000000E+00 0. -1.
         25    1    1    2    0    0 -0.32057058741E+02  0.47692322332E+02 -0.86595575735E+03  0.87681616449E+03  0.12500000000E+03 0.  0.
          2    1    1    2  502    0 -0.10157229533E+02 -0.43164556728E+02 -0.26726753633E+03  0.27092117719E+03  0.00000000000E+00 0. -1.
         -2    1    1    2    0  501  0.42214288274E+02 -0.45277656044E+01 -0.92843693162E+01  0.43459709035E+02  0.00000000000E+00 0.  1.
<mgrwt>
<rscale>  0 0.43371750E+02</rscale>
<asrwt>0</asrwt>
<pdfrwt beam="2">  1        1 0.17951575E+00 0.44306824E+02</pdfrwt>
<pdfrwt beam="1">  1       -1 0.37453374E-02 0.42456411E+02</pdfrwt>
<totfact> 0.30880022E+03</totfact>
</mgrwt>
</event>
<event>
 5    1  0.8274494E-003  0.4066088E+02  0.7546771E-02  0.1529672E+00
          2   -1    0    0  502    0  0.00000000000E+00  0.00000000000E+00  0.51402583840E+03  0.51402583840E+03  0.00000000000E+00 0. -1.
          1   -1    0    0  501    0 -0.00000000000E+00 -0.00000000000E+00 -0.21530253613E+04  0.21530253613E+04  0.00000000000E+00 0. -1.
         25    1    1    2    0    0  0.15042323276E+02  0.67518257414E+02 -0.57825174621E+02  0.15412247530E+03  0.12500000000E+03 0.  0.
          2    1    1    2  501    0 -0.20271039383E+02 -0.27399007523E+02 -0.20460309493E+04  0.20463148013E+04  0.00000000000E+00 0. -1.
          3    1    1    2  502    0  0.52287161063E+01 -0.40119249891E+02  0.46485660102E+03  0.46661392307E+03  0.00000000000E+00 0. -1.
<mgrwt>
<rscale>  0 0.37226694E+02</rscale>
<asrwt>0</asrwt>
<pdfrwt beam="1">  1        2 0.79080899E-01 0.40660881E+02</pdfrwt>
<pdfrwt beam="2">  1        1 0.33123467E+00 0.34082556E+02</pdfrwt>
<totfact> 0.30089405E+01</totfact>
</mgrwt>
</event>
<event>
 5    1  0.8274494E-003  0.1908027E+03  0.7546771E-02  0.1303205E+00
         -1   -1    0    0    0  502 -0.00000000000E+00  0.00000000000E+00  0.29179694662E+03  0.29179694662E+03  0.00000000000E+00 0.  1.
         -2   -1    0    0    0  501  0.00000000000E+00 -0.00000000000E+00 -0.15174166714E+04  0.15174166714E+04  0.00000000000E+00 0.  1.
         25    1    1    2    0    0 -0.14152921855E+03  0.11606647293E+03 -0.51138554446E+03  0.55735277960E+03  0.12500000000E+03 0.  0.
         -2    1    1    2    0  502  0.17122222010E+03 -0.85919146443E+02  0.23415086384E+03  0.30253227170E+03  0.00000000000E+00 0.  1.
         -1    1    1    2    0  501 -0.29693001556E+02 -0.30147326486E+02 -0.94838504416E+03  0.94932856674E+03  0.00000000000E+00 0.  1.
<mgrwt>
<rscale>  0 0.89854129E+02</rscale>
<asrwt>0</asrwt>
<pdfrwt beam="2">  1       -2 0.23344872E+00 0.42314721E+02</pdfrwt>
<pdfrwt beam="1">  1       -1 0.44891838E-01 0.19080273E+03</pdfrwt>
<totfact> 0.39372859E+00</totfact>
</mgrwt>
</event>
<event>
 5    1  0.8274494E-003  0.6252402E+02  0.7546771E-02  0.1484287E+00
          1   -1    0    0  501    0 -0.00000000000E+00  0.00000000000E+00  0.60749018181E+03  0.60749018181E+03  0.00000000000E+00 0. -1.
          2   -1    0    0  502    0  0.00000000000E+00 -0.00000000000E+00 -0.14807452328E+04  0.14807452328E+04  0.00000000000E+00 0. -1.
         25    1    1    2    0    0 -0.67597504280E+02  0.59488772782E+02  0.65145566419E+02  0.16726410702E+03  0.12500000000E+03 0.  0.
          2    1    1    2  501    0  0.40400107376E+02 -0.46387569101E+02  0.48919959569E+03  0.49305194419E+03  0.00000000000E+00 0. -1.
          1    1    1    2  502    0  0.27197396904E+02 -0.13101203681E+02 -0.14276002131E+04  0.14279193634E+04  0.00000000000E+00 0. -1.
<mgrwt>
<rscale>  0 0.43445374E+02</rscale>
<asrwt>0</asrwt>
<pdfrwt beam="2">  1        2 0.22780696E+00 0.30188407E+02</pdfrwt>
<pdfrwt beam="1">  1        1 0.93460029E-01 0.62524018E+02</pdfrwt>
<totfact> 0.83377872E+01</totfact>
</mgrwt>
</event>
<event>
 5    1  0.8274494E-003  0.1042461E+03  0.7546771E-02  0.1326112E+00
          1   -1    0    0  501    0 -0.00000000000E+00  0.00000000000E+00  0.11623624550E+04  0.11623624550E+04  0.00000000000E+00 0. -1.
          2   -1    0    0  502    0  0.00000000000E+00 -0.00000000000E+00 -0.14650884350E+03  0.14650884350E+03  0.00000000000E+00 0. -1.
         25    1    1    2    0    0  0.15875907409E+03 -0.39103061445E+02  0.62772816429E+03  0.66060664639E+03  0.12500000000E+03 0.  0.
          2    1    1    2  501    0 -0.62935608781E+02  0.30026051743E+01  0.49573386489E+03  0.49972189395E+03  0.00000000000E+00 0. -1.
          3    1    1    2  502    0 -0.95823465308E+02  0.36100456270E+02 -0.10760841768E+03  0.14854275816E+03  0.00000000000E+00 0. -1.
<mgrwt>
<rscale>  0 0.81044762E+02</rscale>
<asrwt>0</asrwt>
<pdfrwt beam="2">  1        2 0.22539823E-01 0.10424609E+03</pdfrwt>
<pdfrwt beam="1">  1        1 0.17882499E+00 0.63007194E+02</pdfrwt>
<totfact> 0.43487440E+02</totfact>
</mgrwt>
</event>
<event>
 5    1  0.8274494E-003  0.1976701E+03  0.7546771E-02  0.1190235E+00
          2   -1    0    0  502    0  0.00000000000E+00  0.00000000000E+00  0.17977484377E+04  0.17977484377E+04  0.00000000000E+00 0. -1.
          1   -1    0    0  501    0 -0.00000000000E+00 -0.00000000000E+00 -0.10932005188E+04  0.10932005188E+04  0.00000000000E+00 0. -1.
         25    1    1    2    0    0 -0.18138703737E+03  0.23929980503E+03  0.29940442442E+03  0.44207879770E+03  0.12500000000E+03 0.  0.
          2    1    1    2  501    0  0.11019969707E+03 -0.63778179577E+02 -0.10115698055E+04  0.10195514214E+04  0.00000000000E+00 0. -1.
          1    1    1    2  502    0  0.71187340298E+02 -0.17552162546E+03  0.14167133000E+04  0.14293187373E+04  0.00000000000E+00 0. -1.
<mgrwt>
<rscale>  0 0.15864530E+03</rscale>
<asrwt>0</asrwt>
<pdfrwt beam="1">  1        2 0.27657668E+00 0.19767014E+03</pdfrwt>
<pdfrwt beam="2">  1        1 0.16818470E+00 0.12732490E+03</pdfrwt>
<totfact> 0.19349325E+01</totfact>
</mgrwt>
</event>
<event>
 5    1  0.8274494E-003  0.1085273E+03  0.7546771E-02  0.1308208E+00
          2   -1    0    0  502    0  0.00000000000E+00  0.00000000000E+00  0.35652060811E+03  0.35652060811E+03  0.00000000000E+00 0. -1.
          1   -1    0    0  501    0 -0.00000000000E+00 -0.00000000000E+00 -0.22390475892E+03  0.22390475892E+03  0.00000000000E+00 0. -1.
         25    1    1    2    0    0 -0.54137522841E+02 -0.42675502611E+02  0.12929149052E+03  0.19259636400E+03  0.12500000000E+03 0.  0.
          2    1    1    2  501    0  0.11412516594E+03  0.45636621438E+01 -0.16754271896E+03  0.20277066649E+03  0.00000000000E+00 0. -1.
          1    1    1    2  502    0 -0.59987643100E+02  0.38111840468E+02  0.17086707763E+03  0.18505833655E+03  0.00000000000E+00 0. -1.
<mgrwt>
<rscale>  0 0.87824247E+02</rscale>
<asrwt>0</asrwt>
<pdfrwt beam="1">  1        2 0.54849324E-01 0.71070597E+02</pdfrwt>
<pdfrwt beam="2">  1        1 0.34446886E-01 0.10852728E+03</pdfrwt>
<totfact> 0.15487261E+03</totfact>
</mgrwt>
</event>
<event>
 5    1  0.8274494E-003  0.2282412E+03  0.7546771E-02  0.1135404E+00
          1   -1    0    0  501    0 -0.00000000000E+00  0.00000000000E+00  0.27395274345E+03  0.27395274345E+03  0.00000000000E+00 0. -1.
          2   -1    0    0  502    0  0.00000000000E+00 -0.00000000000E+00 -0.14839723705E+04  0.14839723705E+04  0.00000000000E+00 0. -1.
         25    1    1    2    0    0 -0.59834089488E+02  0.29633356413E+02  0.17617598194E+02  0.14280628083E+03  0.12500000000E+03 0.  0.
          2    1    1    2  501    0 -0.83385517814E+02 -0.21246387534E+03  0.11288186471E+03  0.25462984563E+03  0.00000000000E+00 0. -1.
          1    1    1    2  502    0  0.14321960730E+03  0.18283051893E+03 -0.13405190899E+04  0.13604889875E+04  0.00000000000E+00 0. -1.
<mgrwt>
<rscale>  0 0.21797222E+03</rscale>
<asrwt>0</asrwt>
<pdfrwt beam="2">  1        2 0.22830344E+00 0.20816526E+03</pdfrwt>
<pdfrwt beam="1">  1        1 0.42146576E-01 0.22824119E+03</pdfrwt>
<totfact> 0.19092999E+02</totfact>
</mgrwt>
</event>
<event>
 5    1  0.8274494E-003  0.1152764E+03  0.7546771E-02  0.1293753E+00
          1   -1    0    0  502    0  0.00000000000E+00  0.00000000000E+00  0.14125734028E+04  0.14125734028E+04  0.00000000000E+00 0. -1.
         -1   -1    0    0    0  501 -0.00000000000E+00 -0.00000000000E+00 -0.37573469519E+03  0.37573469519E+03  0.00000000000E+00 0.  1.
         25    1    1    2    0    0 -0.14594530579E+03 -0.56072884705E+02  0.11233957092E+03  0.22954167350E+03  0.12500000000E+03 0.  0.
          2    1    1    2  502    0  0.75482000439E+02  0.85678839798E+02  0.12343540987E+04  0.12396243128E+04  0.00000000000E+00 0. -1.
         -2    1    1    2    0  501  0.70463305346E+02 -0.29605955093E+02 -0.30985496198E+03  0.31914211167E+03  0.00000000000E+00 0.  1.
<mgrwt>
<rscale>  0 0.93864852E+02</rscale>
<asrwt>0</asrwt>
<pdfrwt beam="1">  1        1 0.21731898E+00 0.11527641E+03</pdfrwt>
<pdfrwt beam="2">  1       -1 0.57805339E-01 0.76430295E+02</pdfrwt>
<totfact> 0.28483115E+01</totfact>
</mgrwt>
</event>
<event>
 5    1  0.8274494E-003  0.1029260E+03  0.7546771E-02  0.1414266E+00
          2   -1    0    0  502    0  0.00000000000E+00  0.00000000000E+00  0.17995858359E+04  0.17995858359E+04  0.00000000000E+00 0. -1.
          1   -1    0    0  501    0 -0.00000000000E+00 -0.00000000000E+00 -0.63966620028E+03  0.63966620028E+03  0.00000000000E+00 0. -1.
         25    1    1    2    0    0 -0.12389354959E+03  0.22404332413E+02  0.22320829273E+03  0.28512893168E+03  0.12500000000E+03 0.  0.
          2    1    1    2  501    0  0.96162537970E+02 -0.35678105580E+02 -0.60423075155E+03  0.61287434441E+03  0.00000000000E+00 0. -1.
          1    1    1    2  502    0  0.27731011620E+02  0.13273773167E+02  0.15409420944E+04  0.15412487601E+04  0.00000000000E+00 0. -1.
<mgrwt>
<rscale>  0 0.56252742E+02</rscale>
<asrwt>0</asrwt>
<pdfrwt beam="1">  1        2 0.27685936E+00 0.30744139E+02</pdfrwt>
<pdfrwt beam="2">  1        1 0.98410185E-01 0.10292599E+03</pdfrwt>
<totfact> 0.53816903E+01</totfact>
</mgrwt>
</event>
<event>
 5    1  0.8274494E-003  0.5581591E+02  0.7546771E-02  0.1419878E+00
          1   -1    0    0  501    0 -0.00000000000E+00  0.00000000000E+00  0.51900460286E+02  0.51900460286E+02  0.00000000000E+00 0. -1.
          2   -1    0    0  502    0  0.00000000000E+00 -0.00000000000E+00 -0.72716098516E+03  0.72716098516E+03  0.00000000000E+00 0. -1.
         25    1    1    2    0    0  0.44586035100E+02  0.10182162220E+02 -0.17108098793E+03  0.21676091757E+03  0.12500000000E+03 0.  0.
          2    1    1    2  501    0 -0.18993190510E+02 -0.58059317378E+02 -0.62339384132E+01  0.61404296334E+02  0.00000000000E+00 0. -1.
          1    1    1    2  502    0 -0.25592844589E+02  0.47877155158E+02 -0.49794559853E+03  0.50089623154E+03  0.00000000000E+00 0. -1.
<mgrwt>
<rscale>  0 0.55046790E+02</rscale>
<asrwt>0</asrwt>
<pdfrwt beam="2">  1        2 0.11187092E+00 0.54288265E+02</pdfrwt>
<pdfrwt beam="1">  1        1 0.79846864E-02 0.55815914E+02</pdfrwt>
<totfact> 0.44512874E+03</totfact>
</mgrwt>
</event>
<event>
 5    1  0.8274494E-003  0.2532048E+03  0.7546771E-02  0.1196083E+00
         -2   -1    0    0    0  501 -0.00000000000E+00  0.00000000000E+00  0.75981870204E+03  0.75981870204E+03  0.00000000000E+00 0.  1.
          2   -1    0    0  502    0  0.00000000000E+00 -0.00000000000E+00 -0.24989024955E+04  0.24989024955E+04  0.00000000000E+00 0. -1.
         25    1    1    2    0    0  0.34757999233E+02  0.33760643186E+03 -0.71752909051E+02  0.36872713665E+03  0.12500000000E+03 0.  0.
          1    1    1    2  502    0 -0.45789729672E+02 -0.24504913698E+03 -0.22682402089E+04  0.22818982064E+04  0.00000000000E+00 0. -1.
         -1    1    1    2    0  501  0.11031730439E+02 -0.92557294876E+02  0.60090932455E+03  0.60809585448E+03  0.00000000000E+00 0.  1.
<mgrwt>
<rscale>  0 0.15362885E+03</rscale>
<asrwt>0</asrwt>
<pdfrwt beam="2">  1        2 0.38444654E+00 0.25320477E+03</pdfrwt>
<pdfrwt beam="1">  1       -2 0.11689519E+00 0.93212402E+02</pdfrwt>
<totfact> 0.25383303E+00</totfact>
</mgrwt>
</event>
<event>
 5    1  0.8274494E-003  0.7722657E+02  0.7546771E-02  0.1406221E+00
          2   -1    0    0  502    0  0.00000000000E+00  0.00000000000E+00  0.16382662348E+04  0.16382662348E+04  0.00000000000E+00 0. -1.
          1   -1    0    0  501    0 -0.00000000000E+00 -0.00000000000E+00 -0.95422269323E+03  0.95422269323E+03  0.00000000000E+00 0. -1.
         25    1    1    2    0    0  0.68977944695E+02 -0.90461906927E+01  0.47966566645E+03  0.50054364644E+03  0.12500000000E+03 0.  0.
          2    1    1    2  501    0  0.27495011906E+01  0.43542023242E+02 -0.94189881316E+03  0.94290871339E+03  0.00000000000E+00 0. -1.
          1    1    1    2  502    0 -0.71727445886E+02 -0.34495832549E+02  0.11462766883E+04  0.11490365682E+04  0.00000000000E+00 0. -1.
<mgrwt>
<rscale>  0 0.58045659E+02</rscale>
<asrwt>0</asrwt>
<pdfrwt beam="1">  1        2 0.25204096E+00 0.77226572E+02</pdfrwt>
<pdfrwt beam="2">  1        1 0.14680349E+00 0.43628747E+02</pdfrwt>
<totfact> 0.34246997E+01</totfact>
</mgrwt>
</event>
<event>
 5    1  0.8274494E-003  0.7493945E+02  0.7546771E-02  0.1450616E+00
          2   -1    0    0  502    0  0.00000000000E+00  0.00000000000E+00  0.21105594018E+03  0.21105594018E+03  0.00000000000E+00 0. -1.
          1   -1    0    0  501    0 -0.00000000000E+00 -0.00000000000E+00 -0.19165427400E+03  0.19165427400E+03  0.00000000000E+00 0. -1.
         25    1    1    2    0    0 -0.70396539759E+01  0.59163796079E+02 -0.42792722029E+02  0.14493491144E+03  0.12500000000E+03 0.  0.
          2    1    1    2  501    0 -0.31173006971E+02  0.75960435398E+01 -0.85460446401E+02  0.91284961194E+02  0.00000000000E+00 0. -1.
          1    1    1    2  502    0  0.38212660947E+02 -0.66759839619E+02  0.14765483461E+03  0.16649034154E+03  0.00000000000E+00 0. -1.
<mgrwt>
<rscale>  0 0.49035117E+02</rscale>
<asrwt>0</asrwt>
<pdfrwt beam="1">  1        2 0.32470145E-01 0.74939449E+02</pdfrwt>
<pdfrwt beam="2">  1        1 0.29485273E-01 0.32085141E+02</pdfrwt>
<totfact> 0.31468168E+03</totfact>
</mgrwt>
</event>
<event>
 5    1  0.8274494E-003  0.1104185E+03  0.7546771E-02  0.1304237E+00
         -2   -1    0    0    0  501 -0.00000000000E+00  0.00000000000E+00  0.16168929740E+03  0.16168929740E+03  0.00000000000E+00 0.  1.
          2   -1    0    0  502    0  0.00000000000E+00 -0.00000000000E+00 -0.55232907360E+03  0.55232907360E+03  0.00000000000E+00 0. -1.
         25    1    1    2    0    0  0.76254628252E+02  0.63686770251E+02 -0.13318975595E+03  0.20793096000E+03  0.12500000000E+03 0.  0.
          1    1    1    2  502    0 -0.53087493681E+02  0.49275620351E+02 -0.35050472291E+03  0.35791050491E+03  0.00000000000E+00 0. -1.
         -1    1    1    2    0  501 -0.23167134571E+02 -0.11296239060E+03  0.93054702647E+02  0.14817690609E+03  0.00000000000E+00 0.  1.
<mgrwt>
<rscale>  0 0.89430507E+02</rscale>
<asrwt>0</asrwt>
<pdfrwt beam="2">  1        2 0.84973703E-01 0.72431821E+02</pdfrwt>
<pdfrwt beam="1">  1       -2 0.24875277E-01 0.11041853E+03</pdfrwt>
<totfact> 0.80282913E+02</totfact>
</mgrwt>
</event>
<event>
 5    1  0.8274494E-003  0.7726641E+02  0.7546771E-02  0.1407085E+00
          2   -1    0    0  502    0  0.00000000000E+00  0.00000000000E+00  0.22371747695E+04  0.22371747695E+04  0.00000000000E+00 0. -1.
         -2   -1    0    0    0  501 -0.00000000000E+00 -0.00000000000E+00 -0.87237055318E+02  0.87237055318E+02  0.00000000000E+00 0.  1.
         25    1    1    2    0    0  0.10102102256E+03 -0.41806627384E+02  0.12891316391E+04  0.12997839913E+04  0.12500000000E+03 0.  0.
          1    1    1    2  502    0 -0.68594789716E+02  0.13093443680E+02  0.93559779237E+03  0.93820035841E+03  0.00000000000E+00 0. -1.
         -1    1    1    2    0  501 -0.32426232840E+02  0.28713183704E+02 -0.74791717240E+02  0.86427475159E+02  0.00000000000E+00 0.  1.
<mgrwt>
<rscale>  0 0.57849314E+02</rscale>
<asrwt>0</asrwt>
<pdfrwt beam="1">  1        2 0.34418069E+00 0.77266407E+02</pdfrwt>
<pdfrwt beam="2">  1       -2 0.13421087E-01 0.43311748E+02</pdfrwt>
<totfact> 0.24092909E+02</totfact>
</mgrwt>
</event>
<event>
 5    1  0.8274494E-003  0.1418444E+03  0.7546771E-02  0.1304636E+00
          1   -1    0    0  501    0 -0.00000000000E+00  0.00000000000E+00  0.22959214683E+03  0.22959214683E+03  0.00000000000E+00 0. -1.
          2   -1    0    0  502    0  0.00000000000E+00 -0.00000000000E+00 -0.17115293563E+04  0.17115293563E+04  0.00000000000E+00 0. -1.
         25    1    1    2    0    0 -0.62066818970E+02 -0.17870463176E+03 -0.50436333261E+03  0.55298734770E+03  0.12500000000E+03 0.  0.
          2    1    1    2  501    0  0.66958861812E+02  0.12273909094E+03  0.18071318173E+03  0.22848550867E+03  0.00000000000E+00 0. -1.
          1    1    1    2  502    0 -0.48920428426E+01  0.55965540821E+02 -0.11582870586E+04  0.11596486468E+04  0.00000000000E+00 0. -1.
<mgrwt>
<rscale>  0 0.89267398E+02</rscale>
<asrwt>0</asrwt>
<pdfrwt beam="2">  1        2 0.26331221E+00 0.56178945E+02</pdfrwt>
<pdfrwt beam="1">  1        1 0.35321869E-01 0.14184439E+03</pdfrwt>
<totfact> 0.20350888E+02</totfact>
</mgrwt>
</event>
<event>
 5    1  0.8274494E-003  0.6227446E+02  0.7546771E-02  0.1425605E+00
          1   -1    0    0  501    0 -0.00000000000E+00  0.00000000000E+00  0.73574188411E+02  0.73574188411E+02  0.00000000000E+00 0. -1.
          2   -1    0    0  502    0  0.00000000000E+00 -0.00000000000E+00 -0.23190281302E+04  0.23190281302E+04  0.00000000000E+00 0. -1.
         25    1    1    2    0    0 -0.74309329832E+02 -0.52550962592E+02 -0.17417460371E+04  0.17485959332E+04  0.12500000000E+03 0.  0.
          2    1    1    2  501    0  0.61646088941E+02  0.77364449840E+01  0.55231642035E+02  0.83130181911E+02  0.00000000000E+00 0. -1.
          1    1    1    2  502    0  0.12663240890E+02  0.44814517608E+02 -0.55893954676E+03  0.56087620345E+03  0.00000000000E+00 0. -1.
<mgrwt>
<rscale>  0 0.53852365E+02</rscale>
<asrwt>0</asrwt>
<pdfrwt beam="2">  1        2 0.35677346E+00 0.46569289E+02</pdfrwt>
<pdfrwt beam="1">  1        1 0.11319109E-01 0.62274459E+02</pdfrwt>
<totfact> 0.42629760E+02</totfact>
</mgrwt>
</event>
<event>
 5    1  0.8274494E-003  0.3460691E+02  0.7546771E-02  0.1589331E+00
         -1   -1    0    0    0  502 -0.00000000000E+00  0.00000000000E+00  0.16843586351E+03  0.16843586351E+03  0.00000000000E+00 0.  1.
         -2   -1    0    0    0  501  0.00000000000E+00 -0.00000000000E+00 -0.60004823461E+03  0.60004823461E+03  0.00000000000E+00 0.  1.
         25    1    1    2    0    0 -0.44381089624E+02  0.33668688758E+02 -0.49691692191E+03  0.51541700495E+03  0.12500000000E+03 0.  0.
         -2    1    1    2    0  502  0.17898925178E+02 -0.20779024689E+02  0.15564713082E+03  0.15804483137E+03  0.00000000000E+00 0.  1.
         -1    1    1    2    0  501  0.26482164446E+02 -0.12889664069E+02 -0.90342580013E+02  0.95022261797E+02  0.00000000000E+00 0.  1.
<mgrwt>
<rscale>  0 0.30807466E+02</rscale>
<asrwt>0</asrwt>
<pdfrwt beam="2">  1       -2 0.92315113E-01 0.34606907E+02</pdfrwt>
<pdfrwt beam="1">  1       -1 0.25913210E-01 0.27425160E+02</pdfrwt>
<totfact> 0.99140624E+01</totfact>
</mgrwt>
</event>
<event>
 5    1  0.1059155E-002  0.6599355E+02  0.7546771E-02  0.1419490E+00
          2   -1    0    0  502    0  0.00000000000E+00  0.00000000000E+00  0.88645831331E+03  0.88645831331E+03  0.00000000000E+00 0. -1.
          1   -1    0    0  501    0 -0.00000000000E+00 -0.00000000000E+00 -0.21344755011E+04  0.21344755011E+04  0.00000000000E+00 0. -1.
         25    1    1    2    0    0  0.27066112828E+02  0.26555369561E+02 -0.70097633161E+03  0.71304318214E+03  0.12500000000E+03 0.  0.
          2    1    1    2  501    0 -0.70292498949E+02 -0.10669673931E+02 -0.14259772443E+04  0.14277485698E+04  0.00000000000E+00 0. -1.
          1    1    1    2  502    0  0.43226386121E+02 -0.15885695630E+02  0.87893638811E+03  0.88014206247E+03  0.00000000000E+00 0. -1.
<mgrwt>
<rscale>  0 0.55128928E+02</rscale>
<asrwt>0</asrwt>
<pdfrwt beam="1">  1        2 0.13637820E+00 0.46052967E+02</pdfrwt>
<pdfrwt beam="2">  1        1 0.32838084E+00 0.65993547E+02</pdfrwt>
<totfact> 0.15185934E+01</totfact>
</mgrwt>
</event>
<event>
 5    1  0.8274494E-003  0.9171856E+02  0.7546771E-02  0.1408544E+00
         -2   -1    0    0    0  501 -0.00000000000E+00  0.00000000000E+00  0.24132275123E+04  0.24132275123E+04  0.00000000000E+00 0.  1.
          2   -1    0    0  502    0  0.00000000000E+00 -0.00000000000E+00 -0.29365142181E+03  0.29365142181E+03  0.00000000000E+00 0. -1.
         25    1    1    2    0    0 -0.14198905952E+02  0.60356315408E+02 -0.49865801443E+02  0.14817588162E+03  0.12500000000E+03 0.  0.
          1    1    1    2  502    0 -0.29667463103E+02  0.20520306116E+02 -0.19205558903E+03  0.19541389564E+03  0.00000000000E+00 0. -1.
         -1    1    1    2    0  501  0.43866369055E+02 -0.80876621524E+02  0.23614974809E+04  0.23632891568E+04  0.00000000000E+00 0.  1.
<mgrwt>
<rscale>  0 0.57519895E+02</rscale>
<asrwt>0</asrwt>
<pdfrwt beam="2">  1        2 0.45177143E-01 0.36072723E+02</pdfrwt>
<pdfrwt beam="1">  1       -2 0.37126576E+00 0.91718563E+02</pdfrwt>
<totfact> 0.17655423E+00</totfact>
</mgrwt>
</event>
<event>
 5    1  0.8274494E-003  0.8996878E+02  0.7546771E-02  0.1456785E+00
         -1   -1    0    0    0  501 -0.00000000000E+00  0.00000000000E+00  0.38670036147E+02  0.38670036147E+02  0.00000000000E+00 0.  1.
          1   -1    0    0  502    0  0.00000000000E+00 -0.00000000000E+00 -0.11733419104E+04  0.11733419104E+04  0.00000000000E+00 0. -1.
         25    1    1    2    0    0  0.68292874232E+02 -0.13844233124E+02 -0.35422336384E+03  0.38204027399E+03  0.12500000000E+03 0.  0.
          2    1    1    2  502    0  0.25492333360E+02 -0.16245882441E+01 -0.71291139747E+03  0.71336888003E+03  0.00000000000E+00 0. -1.
         -2    1    1    2    0  501 -0.93785207592E+02  0.15468821368E+02 -0.67537112909E+02  0.11660279250E+03  0.00000000000E+00 0.  1.
<mgrwt>
<rscale>  0 0.47939199E+02</rscale>
<asrwt>0</asrwt>
<pdfrwt beam="2">  1        1 0.18051415E+00 0.25544047E+02</pdfrwt>
<pdfrwt beam="1">  1       -1 0.59492360E-02 0.89968783E+02</pdfrwt>
<totfact> 0.17837149E+03</totfact>
</mgrwt>
</event>
<event>
 5    1  0.8274494E-003  0.5597250E+02  0.7546771E-02  0.1487977E+00
         -2   -1    0    0    0  501 -0.00000000000E+00  0.00000000000E+00  0.19822099052E+03  0.19822099052E+03  0.00000000000E+00 0.  1.
          2   -1    0    0  502    0  0.00000000000E+00 -0.00000000000E+00 -0.65973973276E+03  0.65973973276E+03  0.00000000000E+00 0. -1.
         25    1    1    2    0    0 -0.85352481331E+02 -0.80797459479E+01 -0.45990556842E+02  0.15839968334E+03  0.12500000000E+03 0.  0.
          1    1    1    2  502    0  0.30943854559E+02  0.11061473309E+02 -0.55181090882E+03  0.55278852866E+03  0.00000000000E+00 0. -1.
         -1    1    1    2    0  501  0.54408626772E+02 -0.29817273614E+01  0.13628272342E+03  0.14677251128E+03  0.00000000000E+00 0.  1.
<mgrwt>
<rscale>  0 0.42887531E+02</rscale>
<asrwt>0</asrwt>
<pdfrwt beam="2">  1        2 0.10149842E+00 0.32861502E+02</pdfrwt>
<pdfrwt beam="1">  1       -2 0.30495537E-01 0.55972496E+02</pdfrwt>
<totfact> 0.46214235E+02</totfact>
</mgrwt>
</event>
<event>
 5    1  0.8274494E-003  0.2428516E+02  0.7546771E-02  0.1691535E+00
          1   -1    0    0  501    0 -0.00000000000E+00  0.00000000000E+00  0.25788112787E+03  0.25788112787E+03  0.00000000000E+00 0. -1.
          2   -1    0    0  502    0  0.00000000000E+00 -0.00000000000E+00 -0.14931031815E+03  0.14931031815E+03  0.00000000000E+00 0. -1.
         25    1    1    2    0    0  0.10181545257E+02  0.44272814906E+02 -0.77895980521E+00  0.13300132624E+03  0.12500000000E+03 0.  0.
          2    1    1    2  501    0 -0.82894805290E+01 -0.22575201520E+02  0.18955796890E+03  0.19107741568E+03  0.00000000000E+00 0. -1.
          1    1    1    2  502    0 -0.18920647278E+01 -0.21697613386E+02 -0.80208199376E+02  0.83112704099E+02  0.00000000000E+00 0. -1.
<mgrwt>
<rscale>  0 0.22998471E+02</rscale>
<asrwt>0</asrwt>
<pdfrwt beam="2">  1        2 0.22970818E-01 0.21779953E+02</pdfrwt>
<pdfrwt beam="1">  1        1 0.39674020E-01 0.24285162E+02</pdfrwt>
<totfact> 0.30316281E+03</totfact>
</mgrwt>
</event>
<event>
 5    1  0.8274494E-003  0.8932058E+02  0.7546771E-02  0.1400980E+00
          2   -1    0    0  502    0  0.00000000000E+00  0.00000000000E+00  0.12894046068E+04  0.12894046068E+04  0.00000000000E+00 0. -1.
          1   -1    0    0  501    0 -0.00000000000E+00 -0.00000000000E+00 -0.17802069240E+04  0.17802069240E+04  0.00000000000E+00 0. -1.
         25    1    1    2    0    0 -0.54321914422E+02  0.60716765715E+02  0.65295190286E+02  0.16286760850E+03  0.12500000000E+03 0.  0.
          2    1    1    2  501    0  0.29722066924E+02  0.25728763846E+02 -0.17294787834E+04  0.17299254992E+04  0.00000000000E+00 0. -1.
          1    1    1    2  502    0  0.24599847497E+02 -0.86445529560E+02  0.11733812760E+04  0.11768184231E+04  0.00000000000E+00 0. -1.
<mgrwt>
<rscale>  0 0.59256217E+02</rscale>
<asrwt>0</asrwt>
<pdfrwt beam="1">  1        2 0.19836994E+00 0.89320577E+02</pdfrwt>
<pdfrwt beam="2">  1        1 0.27387799E+00 0.39311201E+02</pdfrwt>
<totfact> 0.15365486E+01</totfact>
</mgrwt>
</event>
<event>
 5    1  0.8274494E-003  0.6152801E+02  0.7546771E-02  0.1475370E+00
          2   -1    0    0  502    0  0.00000000000E+00  0.00000000000E+00  0.11343658914E+03  0.11343658914E+03  0.00000000000E+00 0. -1.
          1   -1    0    0  501    0 -0.00000000000E+00 -0.00000000000E+00 -0.19272195375E+04  0.19272195375E+04  0.00000000000E+00 0. -1.
         25    1    1    2    0    0 -0.13870956757E+02  0.50949421641E+02 -0.11716618703E+04  0.11794934443E+04  0.12500000000E+03 0.  0.
          2    1    1    2  501    0  0.31656823962E+02  0.80810047558E+01 -0.74257785852E+03  0.74329626200E+03  0.00000000000E+00 0. -1.
          1    1    1    2  502    0 -0.17785867206E+02 -0.59030426397E+02  0.10045678040E+03  0.11786642033E+03  0.00000000000E+00 0. -1.
<mgrwt>
<rscale>  0 0.44835710E+02</rscale>
<asrwt>0</asrwt>
<pdfrwt beam="1">  1        2 0.17451782E-01 0.61528013E+02</pdfrwt>
<pdfrwt beam="2">  1        1 0.29649532E+00 0.32671963E+02</pdfrwt>
<totfact> 0.20320050E+02</totfact>
</mgrwt>
</event>
<event>
 5    1  0.8274494E-003  0.1214194E+03  0.7546771E-02  0.1243941E+00
          1   -1    0    0  501    0 -0.00000000000E+00  0.00000000000E+00  0.44599987630E+03  0.44599987630E+03  0.00000000000E+00 0. -1.
          2   -1    0    0  502    0  0.00000000000E+00 -0.00000000000E+00 -0.73074239501E+03  0.73074239501E+03  0.00000000000E+00 0. -1.
         25    1    1    2    0    0 -0.28804081465E+02 -0.14174324098E+02  0.28353401986E+02  0.13213440875E+03  0.12500000000E+03 0.  0.
          2    1    1    2  501    0  0.52465502157E+02  0.13326591584E+03  0.34597398244E+03  0.37444683169E+03  0.00000000000E+00 0. -1.
          1    1    1    2  502    0 -0.23661420692E+02 -0.11909159174E+03 -0.65906990314E+03  0.67016103086E+03  0.00000000000E+00 0. -1.
<mgrwt>
<rscale>  0 0.11948972E+03</rscale>
<asrwt>0</asrwt>
<pdfrwt beam="2">  1        2 0.11242191E+00 0.12141940E+03</pdfrwt>
<pdfrwt beam="1">  1        1 0.68615366E-01 0.11759071E+03</pdfrwt>
<totfact> 0.29800124E+02</totfact>
</mgrwt>
</event>
<event>
 5    1  0.8274494E-003  0.1674141E+03  0.7546771E-02  0.1307925E+00
         -2   -1    0    0    0  501 -0.00000000000E+00  0.00000000000E+00  0.24053553492E+03  0.24053553492E+03  0.00000000000E+00 0.  1.
          2   -1    0    0  502    0  0.00000000000E+00 -0.00000000000E+00 -0.10260444618E+04  0.10260444618E+04  0.00000000000E+00 0. -1.
         25    1    1    2    0    0 -0.19333321425E+03 -0.25291828926E+02 -0.23330088188E+03  0.32874261943E+03  0.12500000000E+03 0.  0.
          1    1    1    2  502    0  0.15470358709E+03  0.50616046830E+02 -0.73319661992E+03  0.75104758006E+03  0.00000000000E+00 0. -1.
         -3    1    1    2    0  501  0.38629627161E+02 -0.25324217905E+02  0.18098857490E+03  0.18678979724E+03  0.00000000000E+00 0.  1.
<mgrwt>
<rscale>  0 0.87937158E+02</rscale>
<asrwt>0</asrwt>
<pdfrwt beam="2">  1        2 0.15785299E+00 0.16741409E+03</pdfrwt>
<pdfrwt beam="1">  1       -2 0.37005467E-01 0.46190520E+02</pdfrwt>
<totfact> 0.17714999E+02</totfact>
</mgrwt>
</event>
<event>
 5    1  0.8274494E-003  0.6459172E+02  0.7546771E-02  0.1437865E+00
          2   -1    0    0  502    0  0.00000000000E+00  0.00000000000E+00  0.24506323837E+03  0.24506323837E+03  0.00000000000E+00 0. -1.
          1   -1    0    0  501    0 -0.00000000000E+00 -0.00000000000E+00 -0.32416221248E+03  0.32416221248E+03  0.00000000000E+00 0. -1.
         25    1    1    2    0    0  0.76979643856E+02 -0.31152123607E+02  0.57695240739E+01  0.15018191563E+03  0.12500000000E+03 0.  0.
          2    1    1    2  501    0 -0.36619184562E+02 -0.18269106682E+02 -0.24409819111E+03  0.24750485215E+03  0.00000000000E+00 0. -1.
          1    1    1    2  502    0 -0.40360459294E+02  0.49421230289E+02  0.15922969293E+03  0.17153868306E+03  0.00000000000E+00 0. -1.
<mgrwt>
<rscale>  0 0.51413161E+02</rscale>
<asrwt>0</asrwt>
<pdfrwt beam="1">  1        2 0.37702037E-01 0.64591722E+02</pdfrwt>
<pdfrwt beam="2">  1        1 0.49871109E-01 0.40923403E+02</pdfrwt>
<totfact> 0.14492229E+03</totfact>
</mgrwt>
</event>
<event>
 5    1  0.8274494E-003  0.5944721E+02  0.7546771E-02  0.1408638E+00
          1   -1    0    0  501    0 -0.00000000000E+00  0.00000000000E+00  0.92528291294E+02  0.92528291294E+02  0.00000000000E+00 0. -1.
          2   -1    0    0  502    0  0.00000000000E+00 -0.00000000000E+00 -0.51297457651E+03  0.51297457651E+03  0.00000000000E+00 0. -1.
         25    1    1    2    0    0 -0.71522944290E+01 -0.25361636223E+02 -0.20812083829E+03  0.24420002301E+03  0.12500000000E+03 0.  0.
          2    1    1    2  501    0 -0.45878979305E+02  0.42113915757E+02  0.58128338507E+02  0.85190177721E+02  0.00000000000E+00 0. -1.
          1    1    1    2  502    0  0.53031273734E+02 -0.16752279534E+02 -0.27045378544E+03  0.27611266708E+03  0.00000000000E+00 0. -1.
<mgrwt>
<rscale>  0 0.57498847E+02</rscale>
<asrwt>0</asrwt>
<pdfrwt beam="2">  1        2 0.78919166E-01 0.55614340E+02</pdfrwt>
<pdfrwt beam="1">  1        1 0.14235122E-01 0.59447210E+02</pdfrwt>
<totfact> 0.31212417E+03</totfact>
</mgrwt>
</event>
<event>
 5    1  0.8274494E-003  0.4191635E+02  0.7546771E-02  0.1510893E+00
         -2   -1    0    0    0  501 -0.00000000000E+00  0.00000000000E+00  0.15934140816E+02  0.15934140816E+02  0.00000000000E+00 0.  1.
          2   -1    0    0  502    0  0.00000000000E+00 -0.00000000000E+00 -0.80447783956E+03  0.80447783956E+03  0.00000000000E+00 0. -1.
         25    1    1    2    0    0  0.25659118964E+02 -0.12665598812E+02 -0.53301832428E+03  0.54822654240E+03  0.12500000000E+03 0.  0.
          1    1    1    2  502    0  0.14323593402E+02  0.34638727340E+02 -0.18071229792E+03  0.18455877486E+03  0.00000000000E+00 0. -1.
         -1    1    1    2    0  501 -0.39982712366E+02 -0.21973128529E+02 -0.74813076550E+02  0.87626663113E+02  0.00000000000E+00 0.  1.
<mgrwt>
<rscale>  0 0.39637961E+02</rscale>
<asrwt>0</asrwt>
<pdfrwt beam="2">  1        2 0.12376583E+00 0.37483420E+02</pdfrwt>
<pdfrwt beam="1">  1       -2 0.24514062E-02 0.41916345E+02</pdfrwt>
<totfact> 0.17190804E+04</totfact>
</mgrwt>
</event>
<event>
 5    1  0.8274494E-003  0.4714415E+02  0.7546771E-02  0.1522410E+00
         -1   -1    0    0    0  501 -0.00000000000E+00  0.00000000000E+00  0.11131048602E+04  0.11131048602E+04  0.00000000000E+00 0.  1.
          1   -1    0    0  502    0  0.00000000000E+00 -0.00000000000E+00 -0.16105274602E+02  0.16105274602E+02  0.00000000000E+00 0. -1.
         25    1    1    2    0    0  0.21769249186E+02 -0.10046209586E+01  0.46003793175E+03  0.47721568302E+03  0.12500000000E+03 0.  0.
          2    1    1    2  502    0  0.26280758163E+02  0.16149107637E+02  0.30279539431E+02  0.43224095540E+02  0.00000000000E+00 0. -1.
         -2    1    1    2    0  501 -0.48050007349E+02 -0.15144486678E+02  0.60668211439E+03  0.60877035621E+03  0.00000000000E+00 0.  1.
<mgrwt>
<rscale>  0 0.38134049E+02</rscale>
<asrwt>0</asrwt>
<pdfrwt beam="2">  1        1 0.24777354E-02 0.30845939E+02</pdfrwt>
<pdfrwt beam="1">  1       -1 0.17124684E+00 0.47144153E+02</pdfrwt>
<totfact> 0.10237271E+03</totfact>
</mgrwt>
</event>
<event>
 5    1  0.8274494E-003  0.7408803E+02  0.7546771E-02  0.1438220E+00
          1   -1    0    0  501    0 -0.00000000000E+00  0.00000000000E+00  0.77172171376E+02  0.77172171376E+02  0.00000000000E+00 0. -1.
          2   -1    0    0  502    0  0.00000000000E+00 -0.00000000000E+00 -0.36586860485E+04  0.36586860485E+04  0.00000000000E+00 0. -1.
         25    1    1    2    0    0  0.61855700135E+02 -0.36370958250E+02 -0.11102185547E+04  0.11195352667E+04  0.12500000000E+03 0.  0.
          2    1    1    2  501    0  0.13335394043E+02  0.32989853688E+02  0.67557011528E+02  0.76355176558E+02  0.00000000000E+00 0. -1.
          1    1    1    2  502    0 -0.75191094179E+02  0.33811045623E+01 -0.25388523340E+04  0.25399677766E+04  0.00000000000E+00 0. -1.
<mgrwt>
<rscale>  0 0.51344797E+02</rscale>
<asrwt>0</asrwt>
<pdfrwt beam="2">  1        2 0.56287480E+00 0.74088029E+02</pdfrwt>
<pdfrwt beam="1">  1        1 0.11872641E-01 0.35583187E+02</pdfrwt>
<totfact> 0.62380021E+01</totfact>
</mgrwt>
</event>
<event>
 5    1  0.8274494E-003  0.4681606E+02  0.7546771E-02  0.1532105E+00
          2   -1    0    0  502    0  0.00000000000E+00  0.00000000000E+00  0.61860852310E+03  0.61860852310E+03  0.00000000000E+00 0. -1.
         -2   -1    0    0    0  501 -0.00000000000E+00 -0.00000000000E+00 -0.13687858656E+03  0.13687858656E+03  0.00000000000E+00 0.  1.
         25    1    1    2    0    0  0.18037600082E+01  0.21850532392E+02  0.17520313645E+03  0.21633732535E+03  0.12500000000E+03 0.  0.
          1    1    1    2  502    0  0.13323444361E+02 -0.46745521580E+02  0.41958902566E+03  0.42239508568E+03  0.00000000000E+00 0. -1.
         -1    1    1    2    0  501 -0.15127204370E+02  0.24894989189E+02 -0.11306222557E+03  0.11675469862E+03  0.00000000000E+00 0.  1.
<mgrwt>
<rscale>  0 0.36929401E+02</rscale>
<asrwt>0</asrwt>
<pdfrwt beam="1">  1        2 0.95170540E-01 0.46816060E+02</pdfrwt>
<pdfrwt beam="2">  1       -2 0.21058245E-01 0.29130616E+02</pdfrwt>
<totfact> 0.89656283E+02</totfact>
</mgrwt>
</event>
<event>
 5    1  0.8274494E-003  0.2565416E+02  0.7546771E-02  0.1667336E+00
          2   -1    0    0  502    0  0.00000000000E+00  0.00000000000E+00  0.77611498432E+02  0.77611498432E+02  0.00000000000E+00 0. -1.
         -2   -1    0    0    0  501 -0.00000000000E+00 -0.00000000000E+00 -0.11660665717E+04  0.11660665717E+04  0.00000000000E+00 0.  1.
         25    1    1    2    0    0 -0.14647771672E+02 -0.18671830873E+01 -0.76725930899E+03  0.77751520295E+03  0.12500000000E+03 0.  0.
          1    1    1    2  502    0  0.13882267682E+02 -0.21641639219E+02  0.69838894057E+02  0.74421428549E+02  0.00000000000E+00 0. -1.
         -1    1    1    2    0  501  0.76550399063E+00  0.23508822307E+02 -0.39103465832E+03  0.39174143861E+03  0.00000000000E+00 0.  1.
<mgrwt>
<rscale>  0 0.24564584E+02</rscale>
<asrwt>0</asrwt>
<pdfrwt beam="1">  1        2 0.11940231E-01 0.25654162E+02</pdfrwt>
<pdfrwt beam="2">  1       -2 0.17939486E+00 0.23521282E+02</pdfrwt>
<totfact> 0.10125457E+02</totfact>
</mgrwt>
</event>
<event>
 5    1  0.8274494E-003  0.6514637E+02  0.7546771E-02  0.1422740E+00
         -2   -1    0    0    0  501 -0.00000000000E+00  0.00000000000E+00  0.29969102389E+02  0.29969102389E+02  0.00000000000E+00 0.  1.
          2   -1    0    0  502    0  0.00000000000E+00 -0.00000000000E+00 -0.87799327349E+03  0.87799327349E+03  0.00000000000E+00 0. -1.
         25    1    1    2    0    0  0.10457789692E+03 -0.50307617020E+01 -0.60531189868E+03  0.62688861831E+03  0.12500000000E+03 0.  0.
          3    1    1    2  502    0 -0.43510817610E+02  0.13313664733E+02 -0.20235771033E+03  0.20741043331E+03  0.00000000000E+00 0. -1.
         -3    1    1    2    0  501 -0.61067079312E+02 -0.82829030308E+01 -0.40354562094E+02  0.73663324254E+02  0.00000000000E+00 0.  1.
<mgrwt>
<rscale>  0 0.54445378E+02</rscale>
<asrwt>0</asrwt>
<pdfrwt beam="2">  1        2 0.13507591E+00 0.45502142E+02</pdfrwt>
<pdfrwt beam="1">  1       -2 0.46106305E-02 0.65146366E+02</pdfrwt>
<totfact> 0.65665902E+03</totfact>
</mgrwt>
</event>
<event>
 5    1  0.8274494E-003  0.1493158E+03  0.7546771E-02  0.1310223E+00
         -2   -1    0    0    0  501 -0.00000000000E+00  0.00000000000E+00  0.26865684643E+03  0.26865684643E+03  0.00000000000E+00 0.  1.
          2   -1    0    0  502    0  0.00000000000E+00 -0.00000000000E+00 -0.19864820611E+03  0.19864820611E+03  0.00000000000E+00 0. -1.
         25    1    1    2    0    0  0.52385574601E+02  0.10144861691E+03 -0.92035576077E+01  0.16954579255E+03  0.12500000000E+03 0.  0.
          1    1    1    2  502    0  0.32037031664E+02  0.39319633046E+02 -0.62790805362E+02  0.80716108545E+02  0.00000000000E+00 0. -1.
         -1    1    1    2    0  501 -0.84422606264E+02 -0.14076824996E+03  0.14200300329E+03  0.21704315144E+03  0.00000000000E+00 0.  1.
<mgrwt>
<rscale>  0 0.87023746E+02</rscale>
<asrwt>0</asrwt>
<pdfrwt beam="2">  1        2 0.30561262E-01 0.50718882E+02</pdfrwt>
<pdfrwt beam="1">  1       -2 0.41331823E-01 0.14931584E+03</pdfrwt>
<totfact> 0.92775845E+02</totfact>
</mgrwt>
</event>
<event>
 5    1  0.8274494E-003  0.1562133E+03  0.7546771E-02  0.1395785E+00
         -2   -1    0    0    0  501 -0.00000000000E+00  0.00000000000E+00  0.31537328792E+03  0.31537328792E+03  0.00000000000E+00 0.  1.
          2   -1    0    0  502    0  0.00000000000E+00 -0.00000000000E+00 -0.83635723898E+03  0.83635723898E+03  0.00000000000E+00 0. -1.
         25    1    1    2    0    0  0.52309671402E+02  0.16042272720E+03 -0.70334603509E+03  0.73402479400E+03  0.12500000000E+03 0.  0.
          1    1    1    2  502    0 -0.22202251231E+02 -0.74650203389E+01 -0.95917101944E+02  0.98735793579E+02  0.00000000000E+00 0. -1.
         -1    1    1    2    0  501 -0.30107420171E+02 -0.15295770686E+03  0.27827918598E+03  0.31896993931E+03  0.00000000000E+00 0.  1.
<mgrwt>
<rscale>  0 0.60490359E+02</rscale>
<asrwt>0</asrwt>
<pdfrwt beam="2">  1        2 0.12867034E+00 0.23423631E+02</pdfrwt>
<pdfrwt beam="1">  1       -2 0.48518968E-01 0.15621334E+03</pdfrwt>
<totfact> 0.15270966E+02</totfact>
</mgrwt>
</event>
<event>
 5    1  0.8274494E-003  0.1552708E+03  0.7546771E-02  0.1394790E+00
          2   -1    0    0  502    0  0.00000000000E+00  0.00000000000E+00  0.88371588217E+02  0.88371588217E+02  0.00000000000E+00 0. -1.
          1   -1    0    0  501    0 -0.00000000000E+00 -0.00000000000E+00 -0.15847084231E+04  0.15847084231E+04  0.00000000000E+00 0. -1.
         25    1    1    2    0    0 -0.80066163579E+02 -0.10658976772E+03 -0.99766587753E+02  0.20820744743E+03  0.12500000000E+03 0.  0.
          2    1    1    2  501    0  0.95546447013E+02  0.12460637358E+03 -0.14216698252E+04  0.14303149876E+04  0.00000000000E+00 0. -1.
          1    1    1    2  502    0 -0.15480283433E+02 -0.18016605862E+02  0.25099578048E+02  0.34557576307E+02  0.00000000000E+00 0. -1.
<mgrwt>
<rscale>  0 0.60730978E+02</rscale>
<asrwt>0</asrwt>
<pdfrwt beam="1">  1        2 0.13595630E-01 0.23753679E+02</pdfrwt>
<pdfrwt beam="2">  1        1 0.24380128E+00 0.15527075E+03</pdfrwt>
<totfact> 0.34517531E+02</totfact>
</mgrwt>
</event>
<event>
 5    1  0.8274494E-003  0.1564169E+03  0.7546771E-02  0.1260558E+00
          2   -1    0    0  502    0  0.00000000000E+00  0.00000000000E+00  0.23159636314E+04  0.23159636314E+04  0.00000000000E+00 0. -1.
          1   -1    0    0  501    0 -0.00000000000E+00 -0.00000000000E+00 -0.27974504369E+03  0.27974504369E+03  0.00000000000E+00 0. -1.
         25    1    1    2    0    0  0.94969974726E+02  0.81917916249E+02 -0.97317674887E+01  0.17734020526E+03  0.12500000000E+03 0.  0.
          2    1    1    2  501    0 -0.40227742247E+02  0.66085138852E+02 -0.17525120321E+03  0.19156852834E+03  0.00000000000E+00 0. -1.
          1    1    1    2  502    0 -0.54742232478E+02 -0.14800305510E+03  0.22212015584E+04  0.22267999415E+04  0.00000000000E+00 0. -1.
<mgrwt>
<rscale>  0 0.11000622E+03</rscale>
<asrwt>0</asrwt>
<pdfrwt beam="1">  1        2 0.35630209E+00 0.15641690E+03</pdfrwt>
<pdfrwt beam="2">  1        1 0.43037700E-01 0.77366122E+02</pdfrwt>
<totfact> 0.70382880E+01</totfact>
</mgrwt>
</event>
<event>
 5    1  0.8274494E-003  0.1252345E+03  0.7546771E-02  0.1324823E+00
         -1   -1    0    0    0  501 -0.00000000000E+00  0.00000000000E+00  0.22970866044E+02  0.22970866044E+02  0.00000000000E+00 0.  1.
          1   -1    0    0  502    0  0.00000000000E+00 -0.00000000000E+00 -0.18811465803E+04  0.18811465803E+04  0.00000000000E+00 0. -1.
         25    1    1    2    0    0  0.15235076520E+03  0.22868192430E+02 -0.64138650113E+03  0.67136826982E+03  0.12500000000E+03 0.  0.
          2    1    1    2  502    0 -0.10808271190E+03 -0.52102666792E+02 -0.10692736149E+04  0.10759844906E+04  0.00000000000E+00 0. -1.
         -2    1    1    2    0  501 -0.44268053296E+02  0.29234474362E+02 -0.14751559825E+03  0.15676468595E+03  0.00000000000E+00 0.  1.
<mgrwt>
<rscale>  0 0.81508938E+02</rscale>
<asrwt>0</asrwt>
<pdfrwt beam="2">  1        1 0.28940717E+00 0.12523454E+03</pdfrwt>
<pdfrwt beam="1">  1       -1 0.35339793E-02 0.53050118E+02</pdfrwt>
<totfact> 0.10938099E+03</totfact>
</mgrwt>
</event>
<event>
 5    1  0.8274494E-003  0.2274313E+03  0.7546771E-02  0.1241029E+00
          2   -1    0    0  502    0  0.00000000000E+00  0.00000000000E+00  0.61450039980E+03  0.61450039980E+03  0.00000000000E+00 0. -1.
          1   -1    0    0  501    0 -0.00000000000E+00 -0.00000000000E+00 -0.38148913945E+03  0.38148913945E+03  0.00000000000E+00 0. -1.
         25    1    1    2    0    0 -0.14061908770E+03 -0.13337318416E+03  0.89059477751E+01  0.23079525555E+03  0.12500000000E+03 0.  0.
          2    1    1    2  501    0 -0.63432831981E+02  0.12513032341E+02 -0.23754677824E+03  0.24618848877E+03  0.00000000000E+00 0. -1.
          1    1    1    2  502    0  0.20405191968E+03  0.12086015182E+03  0.46165209081E+03  0.51900579493E+03  0.00000000000E+00 0. -1.
<mgrwt>
<rscale>  0 0.12126262E+03</rscale>
<asrwt>0</asrwt>
<pdfrwt beam="1">  1        2 0.94538523E-01 0.22743125E+03</pdfrwt>
<pdfrwt beam="2">  1        1 0.58690637E-01 0.64655241E+02</pdfrwt>
<totfact> 0.44008302E+02</totfact>
</mgrwt>
</event>
<event>
 5    1  0.8274494E-003  0.8502342E+02  0.7546771E-02  0.1337296E+00
          2   -1    0    0  502    0  0.00000000000E+00  0.00000000000E+00  0.11892951773E+04  0.11892951773E+04  0.00000000000E+00 0. -1.
          1   -1    0    0  501    0 -0.00000000000E+00 -0.00000000000E+00 -0.19639374779E+04  0.19639374779E+04  0.00000000000E+00 0. -1.
         25    1    1    2    0    0 -0.15639305561E+02 -0.27728181095E+01  0.39320201208E+03  0.41289841209E+03  0.12500000000E+03 0.  0.
          2    1    1    2  501    0  0.16791882822E+02 -0.83348750911E+02 -0.19508017644E+04  0.19526537086E+04  0.00000000000E+00 0. -1.
          1    1    1    2  502    0 -0.11525772614E+01  0.86121569021E+02  0.78295745175E+03  0.78768053444E+03  0.00000000000E+00 0. -1.
<mgrwt>
<rscale>  0 0.77164532E+02</rscale>
<asrwt>0</asrwt>
<pdfrwt beam="1">  1        2 0.18296849E+00 0.70032059E+02</pdfrwt>
<pdfrwt beam="2">  1        1 0.30214423E+00 0.85023418E+02</pdfrwt>
<totfact> 0.12366228E+01</totfact>
</mgrwt>
</event>
<event>
 5    1  0.8274494E-003  0.9734115E+02  0.7546771E-02  0.1311903E+00
          2   -1    0    0  502    0  0.00000000000E+00  0.00000000000E+00  0.55676612950E+03  0.55676612950E+03  0.00000000000E+00 0. -1.
         -2   -1    0    0    0  501 -0.00000000000E+00 -0.00000000000E+00 -0.15837101095E+03  0.15837101095E+03  0.00000000000E+00 0.  1.
         25    1    1    2    0    0  0.45672945213E+02  0.48589867082E+02  0.53139658342E+02  0.15131363586E+03  0.12500000000E+03 0.  0.
          1    1    1    2  502    0 -0.45338120785E+02  0.61772671944E+02  0.42232114735E+03  0.42921621555E+03  0.00000000000E+00 0. -1.
         -1    1    1    2    0  501 -0.33482442783E+00 -0.11036253903E+03 -0.77065687139E+02  0.13460728904E+03  0.00000000000E+00 0.  1.
<mgrwt>
<rscale>  0 0.86364210E+02</rscale>
<asrwt>0</asrwt>
<pdfrwt beam="1">  1        2 0.85656327E-01 0.76625115E+02</pdfrwt>
<pdfrwt beam="2">  1       -2 0.24364771E-01 0.97341149E+02</pdfrwt>
<totfact> 0.82106003E+02</totfact>
</mgrwt>
</event>
<event>
 5    1  0.8274494E-003  0.4789675E+02  0.7546771E-02  0.1524567E+00
          1   -1    0    0  501    0 -0.00000000000E+00  0.00000000000E+00  0.10512959771E+04  0.10512959771E+04  0.00000000000E+00 0. -1.
          2   -1    0    0  502    0  0.00000000000E+00 -0.00000000000E+00 -0.25600314681E+03  0.25600314681E+03  0.00000000000E+00 0. -1.
         25    1    1    2    0    0 -0.28035122897E+02 -0.50198632363E+02  0.60161103051E+02  0.15016733709E+03  0.12500000000E+03 0.  0.
          2    1    1    2  501    0  0.41680012808E+02  0.23561637150E+02  0.94446102261E+03  0.94567383248E+03  0.00000000000E+00 0. -1.
          1    1    1    2  502    0 -0.13644889911E+02  0.26636995213E+02 -0.20932929539E+03  0.21145795432E+03  0.00000000000E+00 0. -1.
<mgrwt>
<rscale>  0 0.37861270E+02</rscale>
<asrwt>0</asrwt>
<pdfrwt beam="2">  1        2 0.39385100E-01 0.29928457E+02</pdfrwt>
<pdfrwt beam="1">  1        1 0.16173784E+00 0.47896749E+02</pdfrwt>
<totfact> 0.28312146E+02</totfact>
</mgrwt>
</event>
<event>
 5    1  0.8274494E-003  0.8601793E+02  0.7546771E-02  0.1375900E+00
          2   -1    0    0  502    0  0.00000000000E+00  0.00000000000E+00  0.15801034341E+04  0.15801034341E+04  0.00000000000E+00 0. -1.
          1   -1    0    0  501    0 -0.00000000000E+00 -0.00000000000E+00 -0.89284203095E+03  0.89284203095E+03  0.00000000000E+00 0. -1.
         25    1    1    2    0    0  0.57053474708E+02  0.11322989991E+03  0.23862357536E+03  0.29772860113E+03  0.12500000000E+03 0.  0.
          2    1    1    2  501    0 -0.57842648355E+02 -0.63277727362E+02 -0.86068352270E+03  0.86494275475E+03  0.00000000000E+00 0. -1.
          1    1    1    2  502    0  0.78917364778E+00 -0.49952172543E+02  0.13093213505E+04  0.13102741092E+04  0.00000000000E+00 0. -1.
<mgrwt>
<rscale>  0 0.65553937E+02</rscale>
<asrwt>0</asrwt>
<pdfrwt beam="1">  1        2 0.24309284E+00 0.49958406E+02</pdfrwt>
<pdfrwt beam="2">  1        1 0.13736031E+00 0.86017930E+02</pdfrwt>
<totfact> 0.40542076E+01</totfact>
</mgrwt>
</event>
<event>
 5    1  0.8274494E-003  0.3914360E+02  0.7546771E-02  0.1550543E+00
          2   -1    0    0  502    0  0.00000000000E+00  0.00000000000E+00  0.77385872773E+02  0.77385872773E+02  0.00000000000E+00 0. -1.
          1   -1    0    0  501    0 -0.00000000000E+00 -0.00000000000E+00 -0.66413242375E+03  0.66413242375E+03  0.00000000000E+00 0. -1.
         25    1    1    2    0    0 -0.59716706293E+01  0.76390096072E+01 -0.19316930887E+03  0.23028981134E+03  0.12500000000E+03 0.  0.
          2    1    1    2  501    0  0.25309582339E+02 -0.31748565665E+02 -0.44735947047E+03  0.44919822150E+03  0.00000000000E+00 0. -1.
          1    1    1    2  502    0 -0.19337911709E+02  0.24109556057E+02  0.53782228373E+02  0.62030263673E+02  0.00000000000E+00 0. -1.
<mgrwt>
<rscale>  0 0.34782187E+02</rscale>
<asrwt>0</asrwt>
<pdfrwt beam="1">  1        2 0.11905519E-01 0.30906723E+02</pdfrwt>
<pdfrwt beam="2">  1        1 0.10217422E+00 0.39143604E+02</pdfrwt>
<totfact> 0.20177305E+03</totfact>
</mgrwt>
</event>
<event>
 5    1  0.1037179E-002  0.5763031E+02  0.7546771E-02  0.1458137E+00
         -2   -1    0    0    0  501 -0.00000000000E+00  0.00000000000E+00  0.46958175603E+02  0.46958175603E+02  0.00000000000E+00 0.  1.
          2   -1    0    0  502    0  0.00000000000E+00 -0.00000000000E+00 -0.35408641014E+03  0.35408641014E+03  0.00000000000E+00 0. -1.
         25    1    1    2    0    0 -0.65177990594E+02  0.10145526724E+02 -0.21468612970E+03  0.25703353177E+03  0.12500000000E+03 0.  0.
          3    1    1    2  502    0  0.40720158811E+02 -0.41145637045E+02 -0.86494863341E+02  0.10407908611E+03  0.00000000000E+00 0. -1.
         -3    1    1    2    0  501  0.24457831783E+02  0.31000110321E+02 -0.59472414931E+01  0.39931967856E+02  0.00000000000E+00 0.  1.
<mgrwt>
<rscale>  0 0.47703517E+02</rscale>
<asrwt>0</asrwt>
<pdfrwt beam="2">  1        2 0.54474831E-01 0.57630308E+02</pdfrwt>
<pdfrwt beam="1">  1       -2 0.72243349E-02 0.39486610E+02</pdfrwt>
<totfact> 0.86121286E+03</totfact>
</mgrwt>
</event>
<event>
 5    1  0.8274494E-003  0.8385095E+02  0.7546771E-02  0.1404172E+00
          1   -1    0    0  501    0 -0.00000000000E+00  0.00000000000E+00  0.81570834076E+02  0.81570834076E+02  0.00000000000E+00 0. -1.
          2   -1    0    0  502    0  0.00000000000E+00 -0.00000000000E+00 -0.19514823770E+04  0.19514823770E+04  0.00000000000E+00 0. -1.
         25    1    1    2    0    0  0.52870843685E+02  0.37179180409E+02 -0.19190480952E+03  0.23797074081E+03  0.12500000000E+03 0.  0.
          2    1    1    2  501    0  0.31444653180E+02 -0.26051462306E+02  0.50241479233E+02  0.64742962068E+02  0.00000000000E+00 0. -1.
          1    1    1    2  502    0 -0.84315496864E+02 -0.11127718103E+02 -0.17282482127E+04  0.17303395082E+04  0.00000000000E+00 0. -1.
<mgrwt>
<rscale>  0 0.58514953E+02</rscale>
<asrwt>0</asrwt>
<pdfrwt beam="2">  1        2 0.30022808E+00 0.83850947E+02</pdfrwt>
<pdfrwt beam="1">  1        1 0.12549358E-01 0.40834359E+02</pdfrwt>
<totfact> 0.51517277E+02</totfact>
</mgrwt>
</event>
<event>
 5    1  0.8274494E-003  0.4847438E+02  0.7546771E-02  0.1507489E+00
         -1   -1    0    0    0  502 -0.00000000000E+00  0.00000000000E+00  0.32264675522E+03  0.32264675522E+03  0.00000000000E+00 0.  1.
         -2   -1    0    0    0  501  0.00000000000E+00 -0.00000000000E+00 -0.51454149627E+03  0.51454149627E+03  0.00000000000E+00 0.  1.
         25    1    1    2    0    0  0.18423348537E+02  0.17136360658E+02 -0.31158870081E+03  0.33666837259E+03  0.12500000000E+03 0.  0.
         -2    1    1    2    0  502 -0.67325511155E+01 -0.48177361371E+02  0.30673097788E+03  0.31056445094E+03  0.00000000000E+00 0.  1.
         -1    1    1    2    0  501 -0.11690797421E+02  0.31041000713E+02 -0.18703701811E+03  0.18995542797E+03  0.00000000000E+00 0.  1.
<mgrwt>
<rscale>  0 0.40098292E+02</rscale>
<asrwt>0</asrwt>
<pdfrwt beam="2">  1       -2 0.79160230E-01 0.33169541E+02</pdfrwt>
<pdfrwt beam="1">  1       -1 0.49637962E-01 0.48474383E+02</pdfrwt>
<totfact> 0.47514779E+01</totfact>
</mgrwt>
</event>
<event>
 5    1  0.8274494E-003  0.1879919E+03  0.7546771E-02  0.1233572E+00
         -1   -1    0    0    0  501 -0.00000000000E+00  0.00000000000E+00  0.69554876191E+03  0.69554876191E+03  0.00000000000E+00 0.  1.
          1   -1    0    0  502    0  0.00000000000E+00 -0.00000000000E+00 -0.44508537787E+03  0.44508537787E+03  0.00000000000E+00 0. -1.
         25    1    1    2    0    0  0.11959474261E+03  0.18057047148E+03  0.10927420022E+03  0.27290007047E+03  0.12500000000E+03 0.  0.
          2    1    1    2  502    0 -0.15462431927E+03 -0.10378229495E+03 -0.33545290476E+03  0.38367707276E+03  0.00000000000E+00 0. -1.
         -2    1    1    2    0  501  0.35029576659E+02 -0.76788176526E+02  0.47664208858E+03  0.48405699654E+03  0.00000000000E+00 0.  1.
<mgrwt>
<rscale>  0 0.12596295E+03</rscale>
<asrwt>0</asrwt>
<pdfrwt beam="2">  1        1 0.68474673E-01 0.18799186E+03</pdfrwt>
<pdfrwt beam="1">  1       -1 0.10700750E+00 0.84400802E+02</pdfrwt>
<totfact> 0.49030756E+01</totfact>
</mgrwt>
</event>
<event>
 5    1  0.8274494E-003  0.9830067E+02  0.7546771E-02  0.1378370E+00
          2   -1    0    0  502    0  0.00000000000E+00  0.00000000000E+00  0.12906763611E+04  0.12906763611E+04  0.00000000000E+00 0. -1.
          1   -1    0    0  501    0 -0.00000000000E+00 -0.00000000000E+00 -0.28895243148E+02  0.28895243148E+02  0.00000000000E+00 0. -1.
         25    1    1    2    0    0 -0.94948823559E+02 -0.65177846067E+02  0.59530742392E+03  0.61909559818E+03  0.12500000000E+03 0.  0.
          2    1    1    2  501    0  0.26247083880E+01  0.42760134731E+02  0.20392083764E+02  0.47446341235E+02  0.00000000000E+00 0. -1.
          1    1    1    2  502    0  0.92324115171E+02  0.22417711336E+02  0.64608161025E+03  0.65302966481E+03  0.00000000000E+00 0. -1.
<mgrwt>
<rscale>  0 0.64894231E+02</rscale>
<asrwt>0</asrwt>
<pdfrwt beam="1">  1        2 0.19856555E+00 0.98300674E+02</pdfrwt>
<pdfrwt beam="2">  1        1 0.44454230E-02 0.42840614E+02</pdfrwt>
<totfact> 0.42299124E+03</totfact>
</mgrwt>
</event>
<event>
 5    1  0.8274494E-003  0.1428839E+03  0.7546771E-02  0.1227723E+00
          1   -1    0    0  501    0 -0.00000000000E+00  0.00000000000E+00  0.12581366416E+03  0.12581366416E+03  0.00000000000E+00 0. -1.
          2   -1    0    0  502    0  0.00000000000E+00 -0.00000000000E+00 -0.91079101984E+03  0.91079101984E+03  0.00000000000E+00 0. -1.
         25    1    1    2    0    0 -0.47064613473E+02 -0.44069405411E+02 -0.31826426150E+03  0.34795736877E+03  0.12500000000E+03 0.  0.
          2    1    1    2  501    0  0.19412115234E+02  0.15873302217E+03  0.42893803851E+02  0.16556835735E+03  0.00000000000E+00 0. -1.
          1    1    1    2  502    0  0.27652498239E+02 -0.11466361676E+03 -0.50960689803E+03  0.52307895789E+03  0.00000000000E+00 0. -1.
<mgrwt>
<rscale>  0 0.12982020E+03</rscale>
<asrwt>0</asrwt>
<pdfrwt beam="2">  1        2 0.14012169E+00 0.11795086E+03</pdfrwt>
<pdfrwt beam="1">  1        1 0.19355949E-01 0.14288395E+03</pdfrwt>
<totfact> 0.11007735E+03</totfact>
</mgrwt>
</event>
<event>
 5    1  0.8274494E-003  0.1184977E+03  0.7546771E-02  0.1269702E+00
          2   -1    0    0  502    0  0.00000000000E+00  0.00000000000E+00  0.16382754173E+04  0.16382754173E+04  0.00000000000E+00 0. -1.
          1   -1    0    0  501    0 -0.00000000000E+00 -0.00000000000E+00 -0.44741258752E+03  0.44741258752E+03  0.00000000000E+00 0. -1.
         25    1    1    2    0    0 -0.35034131570E+02  0.15702007600E+03 -0.20568719802E+03  0.28950806219E+03  0.12500000000E+03 0.  0.
          2    1    1    2  501    0 -0.40537950223E+02 -0.10210605352E+03 -0.18322998249E+03  0.21364034745E+03  0.00000000000E+00 0. -1.
          1    1    1    2  502    0  0.75572081793E+02 -0.54914022476E+02  0.15797800103E+04  0.15825395952E+04  0.00000000000E+00 0. -1.
<mgrwt>
<rscale>  0 0.10521250E+03</rscale>
<asrwt>0</asrwt>
<pdfrwt beam="1">  1        2 0.25204237E+00 0.93416751E+02</pdfrwt>
<pdfrwt beam="2">  1        1 0.68832707E-01 0.11849770E+03</pdfrwt>
<totfact> 0.92028852E+01</totfact>
</mgrwt>
</event>
<event>
 5    1  0.8274494E-003  0.1758117E+03  0.7546771E-02  0.1204722E+00
          2   -1    0    0  502    0  0.00000000000E+00  0.00000000000E+00  0.22827926628E+04  0.22827926628E+04  0.00000000000E+00 0. -1.
          1   -1    0    0  501    0 -0.00000000000E+00 -0.00000000000E+00 -0.45845478700E+03  0.45845478700E+03  0.00000000000E+00 0. -1.
         25    1    1    2    0    0  0.15155056396E+02  0.18051111140E+03  0.44937319219E+03  0.50037506226E+03  0.12500000000E+03 0.  0.
          2    1    1    2  501    0  0.11123919952E+03 -0.50661031748E+02 -0.41967211568E+03  0.43711026563E+03  0.00000000000E+00 0. -1.
          1    1    1    2  502    0 -0.12639425591E+03 -0.12985007965E+03  0.17946367993E+04  0.18037621219E+04  0.00000000000E+00 0. -1.
<mgrwt>
<rscale>  0 0.14659413E+03</rscale>
<asrwt>0</asrwt>
<pdfrwt beam="1">  1        2 0.35119886E+00 0.17581168E+03</pdfrwt>
<pdfrwt beam="2">  1        1 0.70531507E-01 0.12223215E+03</pdfrwt>
<totfact> 0.39072063E+01</totfact>
</mgrwt>
</event>
<event>
 5    1  0.8274494E-003  0.7215810E+02  0.7546771E-02  0.1409970E+00
         -2   -1    0    0    0  501 -0.00000000000E+00  0.00000000000E+00  0.66825616682E+02  0.66825616682E+02  0.00000000000E+00 0.  1.
          2   -1    0    0  502    0  0.00000000000E+00 -0.00000000000E+00 -0.12520345164E+04  0.12520345164E+04  0.00000000000E+00 0. -1.
         25    1    1    2    0    0  0.90508378077E+02  0.48349322966E+02 -0.14768477781E+03  0.21900962794E+03  0.12500000000E+03 0.  0.
          1    1    1    2  502    0 -0.45636365426E+02 -0.54871639321E+02 -0.10503153215E+04  0.10527373126E+04  0.00000000000E+00 0. -1.
         -1    1    1    2    0  501 -0.44872012651E+02  0.65223163550E+01  0.12791199586E+02  0.47113192599E+02  0.00000000000E+00 0.  1.
<mgrwt>
<rscale>  0 0.57200569E+02</rscale>
<asrwt>0</asrwt>
<pdfrwt beam="2">  1        2 0.19262068E+00 0.72158104E+02</pdfrwt>
<pdfrwt beam="1">  1       -2 0.10280865E-01 0.45343557E+02</pdfrwt>
<totfact> 0.11520793E+03</totfact>
</mgrwt>
</event>
<event>
 5    1  0.8274494E-003  0.6359820E+02  0.7546771E-02  0.1438129E+00
          1   -1    0    0  501    0 -0.00000000000E+00  0.00000000000E+00  0.16364793887E+03  0.16364793887E+03  0.00000000000E+00 0. -1.
          2   -1    0    0  502    0  0.00000000000E+00 -0.00000000000E+00 -0.13869886023E+04  0.13869886023E+04  0.00000000000E+00 0. -1.
         25    1    1    2    0    0 -0.10025997892E+03 -0.21626968337E+02 -0.64697178551E+02  0.17415657910E+03  0.12500000000E+03 0.  0.
          2    1    1    2  501    0  0.37300162665E+02  0.18147814943E+02  0.10415344988E+03  0.11210970718E+03  0.00000000000E+00 0. -1.
          1    1    1    2  502    0  0.62959816253E+02  0.34791533943E+01 -0.12627969348E+04  0.12643702549E+04  0.00000000000E+00 0. -1.
<mgrwt>
<rscale>  0 0.51362394E+02</rscale>
<asrwt>0</asrwt>
<pdfrwt beam="2">  1        2 0.21338285E+00 0.63598201E+02</pdfrwt>
<pdfrwt beam="1">  1        1 0.25176607E-01 0.41480662E+02</pdfrwt>
<totfact> 0.43050593E+02</totfact>
</mgrwt>
</event>
<event>
 5    1  0.8274494E-003  0.3621850E+03  0.7546771E-02  0.1181943E+00
          1   -1    0    0  501    0 -0.00000000000E+00  0.00000000000E+00  0.43783633226E+03  0.43783633226E+03  0.00000000000E+00 0. -1.
          2   -1    0    0  502    0  0.00000000000E+00 -0.00000000000E+00 -0.19472067020E+04  0.19472067020E+04  0.00000000000E+00 0. -1.
         25    1    1    2    0    0  0.25897056095E+03 -0.34736973626E+03  0.58190948965E+02  0.45468964322E+03  0.12500000000E+03 0.  0.
          2    1    1    2  501    0 -0.43998343375E+02  0.62217965245E+02  0.15417183243E+03  0.17197640342E+03  0.00000000000E+00 0. -1.
          1    1    1    2  502    0 -0.21497221757E+03  0.28515177101E+03 -0.17217331511E+04  0.17583769876E+04  0.00000000000E+00 0. -1.
<mgrwt>
<rscale>  0 0.16613145E+03</rscale>
<asrwt>0</asrwt>
<pdfrwt beam="2">  1        2 0.29957026E+00 0.36218497E+03</pdfrwt>
<pdfrwt beam="1">  1        1 0.67359437E-01 0.76203211E+02</pdfrwt>
<totfact> 0.58266926E+01</totfact>
</mgrwt>
</event>
<event>
 5    1  0.8274494E-003  0.4997158E+02  0.7546771E-02  0.1512555E+00
         -2   -1    0    0    0  501 -0.00000000000E+00  0.00000000000E+00  0.87769831536E+03  0.87769831536E+03  0.00000000000E+00 0.  1.
          2   -1    0    0  502    0  0.00000000000E+00 -0.00000000000E+00 -0.84561503991E+03  0.84561503991E+03  0.00000000000E+00 0. -1.
         25    1    1    2    0    0 -0.12592508413E+01 -0.29201954322E+02  0.14201952785E+03  0.19143898803E+03  0.12500000000E+03 0.  0.
          1    1    1    2  502    0 -0.26981788774E+02  0.42202910279E+02 -0.81980061888E+03  0.82132950591E+03  0.00000000000E+00 0. -1.
         -1    1    1    2    0  501  0.28241039615E+02 -0.13000955957E+02  0.70986436648E+03  0.71054486134E+03  0.00000000000E+00 0.  1.
<mgrwt>
<rscale>  0 0.39415871E+02</rscale>
<asrwt>0</asrwt>
<pdfrwt beam="2">  1        2 0.13009462E+00 0.49971580E+02</pdfrwt>
<pdfrwt beam="1">  1       -2 0.13503051E+00 0.31089889E+02</pdfrwt>
<totfact> 0.16256147E+01</totfact>
</mgrwt>
</event>
<event>
 5    1  0.8274494E-003  0.1942661E+03  0.7546771E-02  0.1278997E+00
          2   -1    0    0  502    0  0.00000000000E+00  0.00000000000E+00  0.38455257816E+03  0.38455257816E+03  0.00000000000E+00 0. -1.
          1   -1    0    0  501    0 -0.00000000000E+00 -0.00000000000E+00 -0.11172651831E+04  0.11172651831E+04  0.00000000000E+00 0. -1.
         25    1    1    2    0    0 -0.17808845231E+03 -0.13787544385E+03 -0.17939381330E+03  0.31389851085E+03  0.12500000000E+03 0.  0.
          2    1    1    2  501    0  0.76359051906E+01  0.51554114431E+02 -0.84097651148E+03  0.84258983297E+03  0.00000000000E+00 0. -1.
          1    1    1    2  502    0  0.17045254712E+03  0.86321329416E+02  0.28765771987E+03  0.34532941742E+03  0.00000000000E+00 0. -1.
<mgrwt>
<rscale>  0 0.10062047E+03</rscale>
<asrwt>0</asrwt>
<pdfrwt beam="1">  1        2 0.59161936E-01 0.19426613E+03</pdfrwt>
<pdfrwt beam="2">  1        1 0.17188695E+00 0.52116540E+02</pdfrwt>
<totfact> 0.16861276E+02</totfact>
</mgrwt>
</event>
<event>
 5    1  0.8274494E-003  0.1105545E+03  0.7546771E-02  0.1314089E+00
          2   -1    0    0  502    0  0.00000000000E+00  0.00000000000E+00  0.24049427553E+03  0.24049427553E+03  0.00000000000E+00 0. -1.
          1   -1    0    0  501    0 -0.00000000000E+00 -0.00000000000E+00 -0.59139045873E+03  0.59139045873E+03  0.00000000000E+00 0. -1.
         25    1    1    2    0    0 -0.98078916249E+02 -0.28605187897E+00  0.42307060857E+02  0.16442154067E+03  0.12500000000E+03 0.  0.
          2    1    1    2  501    0  0.90857073773E+02  0.66038505950E+02 -0.51594621223E+03  0.52803085709E+03  0.00000000000E+00 0. -1.
          1    1    1    2  502    0  0.72218424761E+01 -0.65752454071E+02  0.12274296817E+03  0.13943233650E+03  0.00000000000E+00 0. -1.
<mgrwt>
<rscale>  0 0.85515745E+02</rscale>
<asrwt>0</asrwt>
<pdfrwt beam="1">  1        2 0.36999120E-01 0.66147866E+02</pdfrwt>
<pdfrwt beam="2">  1        1 0.90983146E-01 0.11055448E+03</pdfrwt>
<totfact> 0.68671447E+02</totfact>
</mgrwt>
</event>
<event>
 5    1  0.8274494E-003  0.7326799E+02  0.7546771E-02  0.1407836E+00
          2   -1    0    0  502    0  0.00000000000E+00  0.00000000000E+00  0.20655634409E+04  0.20655634409E+04  0.00000000000E+00 0. -1.
         -2   -1    0    0    0  501 -0.00000000000E+00 -0.00000000000E+00 -0.78910028654E+02  0.78910028654E+02  0.00000000000E+00 0.  1.
         25    1    1    2    0    0 -0.68614032750E+02  0.82790324902E+02  0.35156809865E+03  0.38831334175E+03  0.12500000000E+03 0.  0.
          3    1    1    2  502    0  0.25961791900E+02 -0.67213680514E+02  0.16862289873E+04  0.16877677242E+04  0.00000000000E+00 0. -1.
         -1    1    1    2    0  501  0.42652240849E+02 -0.15576644388E+02 -0.51143673711E+02  0.68392403530E+02  0.00000000000E+00 0.  1.
<mgrwt>
<rscale>  0 0.57679457E+02</rscale>
<asrwt>0</asrwt>
<pdfrwt beam="1">  1        2 0.31777895E+00 0.73267988E+02</pdfrwt>
<pdfrwt beam="2">  1       -2 0.12140006E-01 0.45407549E+02</pdfrwt>
<totfact> 0.34697079E+02</totfact>
</mgrwt>
</event>
<event>
 5    1  0.8274494E-003  0.4872874E+02  0.7546771E-02  0.1554497E+00
          1   -1    0    0  501    0 -0.00000000000E+00  0.00000000000E+00  0.12862963753E+03  0.12862963753E+03  0.00000000000E+00 0. -1.
          2   -1    0    0  502    0  0.00000000000E+00 -0.00000000000E+00 -0.22448032108E+03  0.22448032108E+03  0.00000000000E+00 0. -1.
         25    1    1    2    0    0 -0.63497861376E+02  0.30720854863E+02 -0.72402032008E+02  0.16075697049E+03  0.12500000000E+03 0.  0.
          2    1    1    2  501    0  0.45036257386E+02 -0.15064044374E+02  0.76210840578E+02  0.89795780156E+02  0.00000000000E+00 0. -1.
          1    1    1    2  502    0  0.18461603990E+02 -0.15656810489E+02 -0.99659492121E+02  0.10255720797E+03  0.00000000000E+00 0. -1.
<mgrwt>
<rscale>  0 0.34344784E+02</rscale>
<asrwt>0</asrwt>
<pdfrwt beam="2">  1        2 0.34535434E-01 0.24206746E+02</pdfrwt>
<pdfrwt beam="1">  1        1 0.19789175E-01 0.48728739E+02</pdfrwt>
<totfact> 0.47055096E+03</totfact>
</mgrwt>
</event>
<event>
 5    1  0.8274494E-003  0.9804036E+02  0.7546771E-02  0.1314936E+00
         -2   -1    0    0    0  501 -0.00000000000E+00  0.00000000000E+00  0.59862495219E+02  0.59862495219E+02  0.00000000000E+00 0.  1.
          2   -1    0    0  502    0  0.00000000000E+00 -0.00000000000E+00 -0.98232729762E+03  0.98232729762E+03  0.00000000000E+00 0. -1.
         25    1    1    2    0    0  0.16350736776E+02  0.99059601418E+02 -0.20510595197E+03  0.26033363740E+03  0.12500000000E+03 0.  0.
          1    1    1    2  502    0 -0.80090759133E+02 -0.61419413709E+02 -0.69811264641E+03  0.70537092452E+03  0.00000000000E+00 0. -1.
         -3    1    1    2    0  501  0.63740022357E+02 -0.37640187709E+02 -0.19246204025E+02  0.76485230929E+02  0.00000000000E+00 0.  1.
<mgrwt>
<rscale>  0 0.85190106E+02</rscale>
<asrwt>0</asrwt>
<pdfrwt beam="2">  1        2 0.15112729E+00 0.98040363E+02</pdfrwt>
<pdfrwt beam="1">  1       -2 0.92096140E-02 0.74024146E+02</pdfrwt>
<totfact> 0.19688922E+03</totfact>
</mgrwt>
</event>
<event>
 5    1  0.8274494E-003  0.7266337E+02  0.7546771E-02  0.1419514E+00
          2   -1    0    0  502    0  0.00000000000E+00  0.00000000000E+00  0.55418619493E+03  0.55418619493E+03  0.00000000000E+00 0. -1.
          1   -1    0    0  501    0 -0.00000000000E+00 -0.00000000000E+00 -0.76619376593E+03  0.76619376593E+03  0.00000000000E+00 0. -1.
         25    1    1    2    0    0  0.27716172244E+02 -0.88962259353E+02 -0.43938862453E+02  0.16198176881E+03  0.12500000000E+03 0.  0.
          2    1    1    2  501    0 -0.38052797884E+02  0.17341926123E+02 -0.65992436642E+03  0.66124800735E+03  0.00000000000E+00 0. -1.
          1    1    1    2  502    0  0.10336625640E+02  0.71620333229E+02  0.49185565788E+03  0.49715018470E+03  0.00000000000E+00 0. -1.
<mgrwt>
<rscale>  0 0.55123932E+02</rscale>
<asrwt>0</asrwt>
<pdfrwt beam="1">  1        2 0.85259415E-01 0.72663370E+02</pdfrwt>
<pdfrwt beam="2">  1        1 0.11787596E+00 0.41818152E+02</pdfrwt>
<totfact> 0.20892820E+02</totfact>
</mgrwt>
</event>
<event>
 5    1  0.8274494E-003  0.8493818E+02  0.7546771E-02  0.1344656E+00
          1   -1    0    0  501    0 -0.00000000000E+00  0.00000000000E+00  0.19524618572E+04  0.19524618572E+04  0.00000000000E+00 0. -1.
          2   -1    0    0  502    0  0.00000000000E+00 -0.00000000000E+00 -0.39607087943E+02  0.39607087943E+02  0.00000000000E+00 0. -1.
         25    1    1    2    0    0 -0.26854440338E+02  0.17601726378E+02  0.76486824873E+03  0.77567997245E+03  0.12500000000E+03 0.  0.
          2    1    1    2  501    0 -0.62620866653E+02 -0.20136892595E+02  0.11209575932E+04  0.11228859217E+04  0.00000000000E+00 0. -1.
          1    1    1    2  502    0  0.89475306991E+02  0.25351662172E+01  0.27028927282E+02  0.93503050960E+02  0.00000000000E+00 0. -1.
<mgrwt>
<rscale>  0 0.74747189E+02</rscale>
<asrwt>0</asrwt>
<pdfrwt beam="2">  1        2 0.60933997E-02 0.84938176E+02</pdfrwt>
<pdfrwt beam="1">  1        1 0.30037867E+00 0.65778928E+02</pdfrwt>
<totfact> 0.64344064E+02</totfact>
</mgrwt>
</event>
<event>
 5    1  0.8274494E-003  0.8210762E+02  0.7546771E-02  0.1462726E+00
         -2   -1    0    0    0  501 -0.00000000000E+00  0.00000000000E+00  0.57378308404E+03  0.57378308404E+03  0.00000000000E+00 0.  1.
          2   -1    0    0  502    0  0.00000000000E+00 -0.00000000000E+00 -0.92553240522E+03  0.92553240522E+03  0.00000000000E+00 0. -1.
         25    1    1    2    0    0  0.80157379604E+02  0.14858341493E+02 -0.96211232064E+02  0.17756006587E+03  0.12500000000E+03 0.  0.
          1    1    1    2  502    0 -0.81491325886E+02  0.11915571646E+02 -0.78615732792E+03  0.79045946214E+03  0.00000000000E+00 0. -1.
         -1    1    1    2    0  501  0.13339462817E+01 -0.26773913139E+02  0.53061923881E+03  0.53129596125E+03  0.00000000000E+00 0.  1.
<mgrwt>
<rscale>  0 0.46915552E+02</rscale>
<asrwt>0</asrwt>
<pdfrwt beam="2">  1        2 0.14238960E+00 0.82107620E+02</pdfrwt>
<pdfrwt beam="1">  1       -2 0.88274322E-01 0.26807123E+02</pdfrwt>
<totfact> 0.37507462E+01</totfact>
</mgrwt>
</event>
<event>
 5    1  0.8274494E-003  0.9186252E+02  0.7546771E-02  0.1424675E+00
          2   -1    0    0  502    0  0.00000000000E+00  0.00000000000E+00  0.19326162271E+04  0.19326162271E+04  0.00000000000E+00 0. -1.
          1   -1    0    0  501    0 -0.00000000000E+00 -0.00000000000E+00 -0.28251951273E+03  0.28251951273E+03  0.00000000000E+00 0. -1.
         25    1    1    2    0    0 -0.65647221137E+02 -0.77670694644E+02  0.28410404685E+03  0.32662272408E+03  0.12500000000E+03 0.  0.
          2    1    1    2  501    0  0.34689559952E+02  0.84918305203E+02 -0.25304745535E+03  0.26916073039E+03  0.00000000000E+00 0. -1.
          3    1    1    2  502    0  0.30957661185E+02 -0.72476105592E+01  0.16190401229E+04  0.16193522854E+04  0.00000000000E+00 0. -1.
<mgrwt>
<rscale>  0 0.54043904E+02</rscale>
<asrwt>0</asrwt>
<pdfrwt beam="1">  1        2 0.29732557E+00 0.31794727E+02</pdfrwt>
<pdfrwt beam="2">  1        1 0.43464542E-01 0.91862515E+02</pdfrwt>
<totfact> 0.13102979E+02</totfact>
</mgrwt>
</event>
<event>
 5    1  0.8274494E-003  0.1639397E+03  0.7546771E-02  0.1360500E+00
         -2   -1    0    0    0  501 -0.00000000000E+00  0.00000000000E+00  0.15284836220E+03  0.15284836220E+03  0.00000000000E+00 0.  1.
          2   -1    0    0  502    0  0.00000000000E+00 -0.00000000000E+00 -0.47236343865E+03  0.47236343865E+03  0.00000000000E+00 0. -1.
         25    1    1    2    0    0 -0.12976786946E+03 -0.12760427707E+03 -0.22341229844E+03  0.31410285985E+03  0.12500000000E+03 0.  0.
          1    1    1    2  502    0  0.31478009021E+01  0.29620333629E+02 -0.14157297534E+03  0.14467266556E+03  0.00000000000E+00 0. -1.
         -1    1    1    2    0  501  0.12662006856E+03  0.97983943440E+02  0.45470197333E+02  0.16643627543E+03  0.00000000000E+00 0.  1.
<mgrwt>
<rscale>  0 0.69880552E+02</rscale>
<asrwt>0</asrwt>
<pdfrwt beam="2">  1        2 0.72671298E-01 0.29787125E+02</pdfrwt>
<pdfrwt beam="1">  1       -2 0.23515133E-01 0.16393967E+03</pdfrwt>
<totfact> 0.10662468E+03</totfact>
</mgrwt>
</event>
<event>
 5    1  0.8274494E-003  0.1353187E+03  0.7546771E-02  0.1351318E+00
          2   -1    0    0  502    0  0.00000000000E+00  0.00000000000E+00  0.32550184576E+04  0.32550184576E+04  0.00000000000E+00 0. -1.
          1   -1    0    0  501    0 -0.00000000000E+00 -0.00000000000E+00 -0.38768007804E+02  0.38768007804E+02  0.00000000000E+00 0. -1.
         25    1    1    2    0    0  0.24218646902E+02 -0.10738609405E+03  0.91080263071E+03  0.92590752678E+03  0.12500000000E+03 0.  0.
          2    1    1    2  501    0 -0.16300036884E+02 -0.35431090871E+02 -0.15908164589E+02  0.42120340732E+02  0.00000000000E+00 0. -1.
          1    1    1    2  502    0 -0.79186100181E+01  0.14281718492E+03  0.23213559837E+04  0.23257585979E+04  0.00000000000E+00 0. -1.
<mgrwt>
<rscale>  0 0.72646553E+02</rscale>
<asrwt>0</asrwt>
<pdfrwt beam="1">  1        2 0.50077185E+00 0.13531869E+03</pdfrwt>
<pdfrwt beam="2">  1        1 0.59643115E-02 0.39000685E+02</pdfrwt>
<totfact> 0.24463868E+02</totfact>
</mgrwt>
</event>
<event>
 5    1  0.8274494E-003  0.1255541E+03  0.7546771E-02  0.1264687E+00
          2   -1    0    0  502    0  0.00000000000E+00  0.00000000000E+00  0.65869455321E+03  0.65869455321E+03  0.00000000000E+00 0. -1.
          1   -1    0    0  501    0 -0.00000000000E+00 -0.00000000000E+00 -0.39861298616E+03  0.39861298616E+03  0.00000000000E+00 0. -1.
         25    1    1    2    0    0  0.53942481759E+02  0.26166769117E+02  0.12852423202E+03  0.18904488716E+03  0.12500000000E+03 0.  0.
          2    1    1    2  501    0  0.91537739467E+02  0.13768674821E+02 -0.35082927109E+03  0.36283592932E+03  0.00000000000E+00 0. -1.
          1    1    1    2  502    0 -0.14548022123E+03 -0.39935443937E+02  0.48238660612E+03  0.50542672289E+03  0.00000000000E+00 0. -1.
<mgrwt>
<rscale>  0 0.10780643E+03</rscale>
<asrwt>0</asrwt>
<pdfrwt beam="1">  1        2 0.10133762E+00 0.12555412E+03</pdfrwt>
<pdfrwt beam="2">  1        1 0.61325075E-01 0.92567457E+02</pdfrwt>
<totfact> 0.38892407E+02</totfact>
</mgrwt>
</event>
<event>
 5    1  0.8274494E-003  0.1174899E+03  0.7546771E-02  0.1278597E+00
          2   -1    0    0  502    0  0.00000000000E+00  0.00000000000E+00  0.85250691391E+03  0.85250691391E+03  0.00000000000E+00 0. -1.
          1   -1    0    0  501    0 -0.00000000000E+00 -0.00000000000E+00 -0.15847950294E+04  0.15847950294E+04  0.00000000000E+00 0. -1.
         25    1    1    2    0    0 -0.12440366187E+03  0.13791501374E+03 -0.39384349901E+03  0.45302817110E+03  0.12500000000E+03 0.  0.
          2    1    1    2  501    0  0.97057067938E+02 -0.55849540824E+02 -0.11563739326E+04  0.11617830768E+04  0.00000000000E+00 0. -1.
          1    1    1    2  502    0  0.27346593931E+02 -0.82065472915E+02  0.81792931604E+03  0.82249069544E+03  0.00000000000E+00 0. -1.
<mgrwt>
<rscale>  0 0.10081218E+03</rscale>
<asrwt>0</asrwt>
<pdfrwt beam="1">  1        2 0.13115491E+00 0.86501896E+02</pdfrwt>
<pdfrwt beam="2">  1        1 0.24381462E+00 0.11748986E+03</pdfrwt>
<totfact> 0.32063379E+01</totfact>
</mgrwt>
</event>
<event>
 5    1  0.8274494E-003  0.1691846E+03  0.7546771E-02  0.1342765E+00
          2   -1    0    0  502    0  0.00000000000E+00  0.00000000000E+00  0.57500113667E+03  0.57500113667E+03  0.00000000000E+00 0. -1.
          1   -1    0    0  501    0 -0.00000000000E+00 -0.00000000000E+00 -0.62027157102E+03  0.62027157102E+03  0.00000000000E+00 0. -1.
         25    1    1    2    0    0 -0.16228610376E+03 -0.11956957555E+03 -0.35947305048E+03  0.43067335290E+03  0.12500000000E+03 0.  0.
          2    1    1    2  501    0  0.28338431056E+02  0.17989433821E+02 -0.21073972686E+03  0.21339615479E+03  0.00000000000E+00 0. -1.
          1    1    1    2  502    0  0.13394767271E+03  0.10158014173E+03  0.52494234299E+03  0.55120320000E+03  0.00000000000E+00 0. -1.
<mgrwt>
<rscale>  0 0.75358314E+02</rscale>
<asrwt>0</asrwt>
<pdfrwt beam="1">  1        2 0.88461713E-01 0.16918460E+03</pdfrwt>
<pdfrwt beam="2">  1        1 0.95426396E-01 0.33566150E+02</pdfrwt>
<totfact> 0.26444230E+02</totfact>
</mgrwt>
</event>
<event>
 5    1  0.8274494E-003  0.4444752E+02  0.7546771E-02  0.1483100E+00
         -1   -1    0    0    0  501 -0.00000000000E+00  0.00000000000E+00  0.72193402470E+02  0.72193402470E+02  0.00000000000E+00 0.  1.
          1   -1    0    0  502    0  0.00000000000E+00 -0.00000000000E+00 -0.55518910634E+03  0.55518910634E+03  0.00000000000E+00 0. -1.
         25    1    1    2    0    0  0.62833704464E+01 -0.49112266868E+01 -0.11722909598E+03  0.17155541914E+03  0.12500000000E+03 0.  0.
          2    1    1    2  502    0 -0.43503802448E+02 -0.16262450400E+02 -0.39895546589E+03  0.40164973781E+03  0.00000000000E+00 0. -1.
         -2    1    1    2    0  501  0.37220432002E+02  0.21173677086E+02  0.33188857997E+02  0.54177351863E+02  0.00000000000E+00 0.  1.
<mgrwt>
<rscale>  0 0.43626959E+02</rscale>
<asrwt>0</asrwt>
<pdfrwt beam="2">  1        1 0.85413711E-01 0.44447516E+02</pdfrwt>
<pdfrwt beam="1">  1       -1 0.11106677E-01 0.42821550E+02</pdfrwt>
<totfact> 0.19055562E+03</totfact>
</mgrwt>
</event>
<event>
 5    1  0.8274494E-003  0.4895742E+02  0.7546771E-02  0.1501206E+00
         -1   -1    0    0    0  502 -0.00000000000E+00  0.00000000000E+00  0.71434377769E+02  0.71434377769E+02  0.00000000000E+00 0.  1.
         -2   -1    0    0    0  501  0.00000000000E+00 -0.00000000000E+00 -0.16117169132E+04  0.16117169132E+04  0.00000000000E+00 0.  1.
         25    1    1    2    0    0  0.25845645840E+02  0.19548035579E+02 -0.42271929137E+03  0.44200307963E+03  0.12500000000E+03 0.  0.
         -2    1    1    2    0  502 -0.80930719520E+01 -0.48876158170E+02  0.51570762612E+02  0.71511678819E+02  0.00000000000E+00 0.  1.
         -1    1    1    2    0  501 -0.17752573888E+02  0.29328122591E+02 -0.11691340067E+04  0.11696365325E+04  0.00000000000E+00 0.  1.
<mgrwt>
<rscale>  0 0.40968095E+02</rscale>
<asrwt>0</asrwt>
<pdfrwt beam="2">  1       -2 0.24795641E+00 0.34282542E+02</pdfrwt>
<pdfrwt beam="1">  1       -1 0.10989906E-01 0.48957421E+02</pdfrwt>
<totfact> 0.31155271E+01</totfact>
</mgrwt>
</event>
<event>
 5    1  0.8274494E-003  0.1369475E+03  0.7546771E-02  0.1273746E+00
          2   -1    0    0  502    0  0.00000000000E+00  0.00000000000E+00  0.27451425123E+03  0.27451425123E+03  0.00000000000E+00 0. -1.
          1   -1    0    0  501    0 -0.00000000000E+00 -0.00000000000E+00 -0.26764903934E+03  0.26764903934E+03  0.00000000000E+00 0. -1.
         25    1    1    2    0    0  0.84439379001E+02  0.94471060627E+02 -0.34582261953E+02  0.18131663703E+03  0.12500000000E+03 0.  0.
          2    1    1    2  501    0 -0.61609255046E+02  0.47411260280E+02 -0.12108559600E+03  0.14389318770E+03  0.00000000000E+00 0. -1.
          1    1    1    2  502    0 -0.22830123955E+02 -0.14188232091E+03  0.16253306984E+03  0.21695346583E+03  0.00000000000E+00 0. -1.
<mgrwt>
<rscale>  0 0.10318097E+03</rscale>
<asrwt>0</asrwt>
<pdfrwt beam="1">  1        2 0.42232961E-01 0.13694745E+03</pdfrwt>
<pdfrwt beam="2">  1        1 0.41176776E-01 0.77740131E+02</pdfrwt>
<totfact> 0.16384384E+03</totfact>
</mgrwt>
</event>
<event>
 5    1  0.8274494E-003  0.9151008E+02  0.7546771E-02  0.1308753E+00
          1   -1    0    0  502    0  0.00000000000E+00  0.00000000000E+00  0.95285494414E+02  0.95285494414E+02  0.00000000000E+00 0. -1.
         -1   -1    0    0    0  501 -0.00000000000E+00 -0.00000000000E+00 -0.46477572540E+03  0.46477572540E+03  0.00000000000E+00 0.  1.
         25    1    1    2    0    0  0.32487859665E+02 -0.24909512724E+02 -0.21145071780E+03  0.24902279195E+03  0.12500000000E+03 0.  0.
          2    1    1    2  502    0  0.33825443466E+02  0.87970122657E+02  0.32474009909E+02  0.99686831756E+02  0.00000000000E+00 0. -1.
         -2    1    1    2    0  501 -0.66313303132E+02 -0.63060609933E+02 -0.19051352309E+03  0.21135159611E+03  0.00000000000E+00 0.  1.
<mgrwt>
<rscale>  0 0.87606749E+02</rscale>
<asrwt>0</asrwt>
<pdfrwt beam="1">  1        1 0.14659307E-01 0.83869913E+02</pdfrwt>
<pdfrwt beam="2">  1       -1 0.71503958E-01 0.91510080E+02</pdfrwt>
<totfact> 0.77314521E+02</totfact>
</mgrwt>
</event>
<event>
 5    1  0.8274494E-003  0.1097497E+03  0.7546771E-02  0.1406630E+00
          1   -1    0    0  501    0 -0.00000000000E+00  0.00000000000E+00  0.34856948253E+03  0.34856948253E+03  0.00000000000E+00 0. -1.
          2   -1    0    0  502    0  0.00000000000E+00 -0.00000000000E+00 -0.79850290188E+03  0.79850290188E+03  0.00000000000E+00 0. -1.
         25    1    1    2    0    0 -0.38070678232E+02  0.12707082112E+03 -0.12940344092E+02  0.18272608633E+03  0.12500000000E+03 0.  0.
          2    1    1    2  501    0  0.45244625965E+02 -0.97321985825E+02  0.25240192147E+03  0.27427244678E+03  0.00000000000E+00 0. -1.
          1    1    1    2  502    0 -0.71739477333E+01 -0.29748835294E+02 -0.68939499673E+03  0.69007385130E+03  0.00000000000E+00 0. -1.
<mgrwt>
<rscale>  0 0.57952723E+02</rscale>
<asrwt>0</asrwt>
<pdfrwt beam="2">  1        2 0.12284660E+00 0.30601613E+02</pdfrwt>
<pdfrwt beam="1">  1        1 0.53626074E-01 0.10974971E+03</pdfrwt>
<totfact> 0.38400724E+02</totfact>
</mgrwt>
</event>
<event>
 5    1  0.8274494E-003  0.1663623E+03  0.7546771E-02  0.1185021E+00
         -2   -1    0    0    0  501  0.00000000000E+00  0.00000000000E+00  0.64680597575E+03  0.64680597575E+03  0.00000000000E+00 0.  1.
         -1   -1    0    0    0  502 -0.00000000000E+00 -0.00000000000E+00 -0.76587003688E+03  0.76587003688E+03  0.00000000000E+00 0.  1.
         25    1    1    2    0    0 -0.62909772586E+01  0.72182025467E+02 -0.67043811066E+02  0.15927866711E+03  0.12500000000E+03 0.  0.
         -2    1    1    2    0  502  0.15166181068E+03 -0.13971992609E+03 -0.62514571797E+03  0.65827815645E+03  0.00000000000E+00 0.  1.
         -1    1    1    2    0  501 -0.14537083342E+03  0.67537900625E+02  0.57312546791E+03  0.59511918906E+03  0.00000000000E+00 0.  1.
<mgrwt>
<rscale>  0 0.16329978E+03</rscale>
<asrwt>0</asrwt>
<pdfrwt beam="1">  1       -2 0.99508612E-01 0.16029363E+03</pdfrwt>
<pdfrwt beam="2">  1       -1 0.11782616E+00 0.16636232E+03</pdfrwt>
<totfact> 0.46937946E+00</totfact>
</mgrwt>
</event>
<event>
 5    1  0.8274494E-003  0.1882963E+03  0.7546771E-02  0.1330800E+00
          2   -1    0    0  502    0  0.00000000000E+00  0.00000000000E+00  0.14690830213E+04  0.14690830213E+04  0.00000000000E+00 0. -1.
          1   -1    0    0  501    0 -0.00000000000E+00 -0.00000000000E+00 -0.93340509241E+03  0.93340509241E+03  0.00000000000E+00 0. -1.
         25    1    1    2    0    0 -0.81345373828E+02  0.13763140962E+03 -0.19479194798E+03  0.28129766753E+03  0.12500000000E+03 0.  0.
          2    1    1    2  501    0  0.88945114909E+00  0.33458354819E+02 -0.68868469628E+03  0.68949754424E+03  0.00000000000E+00 0. -1.
          1    1    1    2  502    0  0.80455922679E+02 -0.17108976444E+03  0.14191545732E+04  0.14316929020E+04  0.00000000000E+00 0. -1.
<mgrwt>
<rscale>  0 0.79387090E+02</rscale>
<asrwt>0</asrwt>
<pdfrwt beam="1">  1        2 0.22601277E+00 0.18829630E+03</pdfrwt>
<pdfrwt beam="2">  1        1 0.14360078E+00 0.33470175E+02</pdfrwt>
<totfact> 0.40932532E+01</totfact>
</mgrwt>
</event>
<event>
 5    1  0.8274494E-003  0.5834808E+02  0.7546771E-02  0.1515188E+00
          1   -1    0    0  501    0 -0.00000000000E+00  0.00000000000E+00  0.98194486392E+02  0.98194486392E+02  0.00000000000E+00 0. -1.
          2   -1    0    0  502    0  0.00000000000E+00 -0.00000000000E+00 -0.40172801319E+03  0.40172801319E+03  0.00000000000E+00 0. -1.
         25    1    1    2    0    0  0.43656069792E+02 -0.69521163407E+01 -0.77635588893E+02  0.15364396836E+03  0.12500000000E+03 0.  0.
          2    1    1    2  501    0 -0.51602556560E+02  0.31873942901E+02  0.44116342342E+02  0.75000158274E+02  0.00000000000E+00 0. -1.
          1    1    1    2  502    0  0.79464867680E+01 -0.24921826560E+02 -0.27001428024E+03  0.27127837294E+03  0.00000000000E+00 0. -1.
<mgrwt>
<rscale>  0 0.39067539E+02</rscale>
<asrwt>0</asrwt>
<pdfrwt beam="2">  1        2 0.61804310E-01 0.26158060E+02</pdfrwt>
<pdfrwt beam="1">  1        1 0.15106844E-01 0.58348081E+02</pdfrwt>
<totfact> 0.37328851E+03</totfact>
</mgrwt>
</event>
<event>
 5    1  0.8274494E-003  0.2602936E+03  0.7546771E-02  0.1264356E+00
          1   -1    0    0  501    0 -0.00000000000E+00  0.00000000000E+00  0.10044202136E+04  0.10044202136E+04  0.00000000000E+00 0. -1.
          2   -1    0    0  502    0  0.00000000000E+00 -0.00000000000E+00 -0.12952158844E+04  0.12952158844E+04  0.00000000000E+00 0. -1.
         25    1    1    2    0    0  0.82874153494E+02  0.21809477235E+03  0.27419354413E+03  0.38110438817E+03  0.12500000000E+03 0.  0.
          2    1    1    2  501    0 -0.11499436193E+03 -0.24931766845E+03  0.64849442283E+03  0.70422156990E+03  0.00000000000E+00 0. -1.
          1    1    1    2  502    0  0.32120208437E+02  0.31222896098E+02 -0.12134836377E+04  0.12143101399E+04  0.00000000000E+00 0. -1.
<mgrwt>
<rscale>  0 0.10798060E+03</rscale>
<asrwt>0</asrwt>
<pdfrwt beam="2">  1        2 0.19926398E+00 0.44794833E+02</pdfrwt>
<pdfrwt beam="1">  1        1 0.15452619E+00 0.26029364E+03</pdfrwt>
<totfact> 0.43850221E+01</totfact>
</mgrwt>
</event>
<event>
 5    1  0.9122942E-003  0.9713094E+02  0.7546771E-02  0.1433814E+00
         -2   -1    0    0    0  501 -0.00000000000E+00  0.00000000000E+00  0.61999002329E+02  0.61999002329E+02  0.00000000000E+00 0.  1.
          2   -1    0    0  502    0  0.00000000000E+00 -0.00000000000E+00 -0.37452019287E+03  0.37452019287E+03  0.00000000000E+00 0. -1.
         25    1    1    2    0    0  0.90196231563E+02  0.26741242845E+02 -0.98328859986E+02  0.18478100271E+03  0.12500000000E+03 0.  0.
          3    1    1    2  502    0 -0.98826678713E+02 -0.46231885578E-01 -0.19209320134E+03  0.21602433327E+03  0.00000000000E+00 0. -1.
         -3    1    1    2    0  501  0.86304471502E+01 -0.26695010959E+02 -0.22099129207E+02  0.35713859213E+02  0.00000000000E+00 0.  1.
<mgrwt>
<rscale>  0 0.52202032E+02</rscale>
<asrwt>0</asrwt>
<pdfrwt beam="2">  1        2 0.57618490E-01 0.97130941E+02</pdfrwt>
<pdfrwt beam="1">  1       -2 0.95383082E-02 0.28055449E+02</pdfrwt>
<totfact> 0.51908359E+03</totfact>
</mgrwt>
</event>
<event>
 5    1  0.8274494E-003  0.1718611E+03  0.7546771E-02  0.1249346E+00
          1   -1    0    0  501    0 -0.00000000000E+00  0.00000000000E+00  0.18656480329E+04  0.18656480329E+04  0.00000000000E+00 0. -1.
          2   -1    0    0  502    0  0.00000000000E+00 -0.00000000000E+00 -0.12027654549E+04  0.12027654549E+04  0.00000000000E+00 0. -1.
         25    1    1    2    0    0  0.21126903718E+03 -0.12896024934E+03 -0.24305976568E+03  0.36873893430E+03  0.12500000000E+03 0.  0.
          2    1    1    2  501    0 -0.13760095170E+03  0.10130553069E+03  0.17970219720E+04  0.18051273640E+04  0.00000000000E+00 0. -1.
          1    1    1    2  502    0 -0.73668085482E+02  0.27654718647E+02 -0.89107962832E+03  0.89454718952E+03  0.00000000000E+00 0. -1.
<mgrwt>
<rscale>  0 0.11629003E+03</rscale>
<asrwt>0</asrwt>
<pdfrwt beam="2">  1        2 0.18504084E+00 0.78687803E+02</pdfrwt>
<pdfrwt beam="1">  1        1 0.28702278E+00 0.17186109E+03</pdfrwt>
<totfact> 0.12837478E+01</totfact>
</mgrwt>
</event>
<event>
 5    1  0.8274494E-003  0.8197733E+02  0.7546771E-02  0.1389277E+00
          2   -1    0    0  502    0  0.00000000000E+00  0.00000000000E+00  0.57372570702E+03  0.57372570702E+03  0.00000000000E+00 0. -1.
         -2   -1    0    0    0  501 -0.00000000000E+00 -0.00000000000E+00 -0.33496631715E+03  0.33496631715E+03  0.00000000000E+00 0.  1.
         25    1    1    2    0    0  0.36230580358E+02 -0.41617839697E+02  0.21178683249E+03  0.25203841364E+03  0.12500000000E+03 0.  0.
          1    1    1    2  502    0  0.43266157243E+02  0.18416523842E+02  0.33469534025E+03  0.33798239525E+03  0.00000000000E+00 0. -1.
         -1    1    1    2    0  501 -0.79496737601E+02  0.23201315855E+02 -0.30772278288E+03  0.31867121528E+03  0.00000000000E+00 0.  1.
<mgrwt>
<rscale>  0 0.62086958E+02</rscale>
<asrwt>0</asrwt>
<pdfrwt beam="1">  1        2 0.88265493E-01 0.47022640E+02</pdfrwt>
<pdfrwt beam="2">  1       -2 0.51533280E-01 0.81977327E+02</pdfrwt>
<totfact> 0.20174840E+02</totfact>
</mgrwt>
</event>
<event>
 5    1  0.8274494E-003  0.4058131E+02  0.7546771E-02  0.1506058E+00
          2   -1    0    0  502    0  0.00000000000E+00  0.00000000000E+00  0.48707956893E+03  0.48707956893E+03  0.00000000000E+00 0. -1.
         -2   -1    0    0    0  501 -0.00000000000E+00 -0.00000000000E+00 -0.27579086021E+02  0.27579086021E+02  0.00000000000E+00 0.  1.
         25    1    1    2    0    0  0.39419544568E+02 -0.27860947191E+02  0.20964568607E+03  0.24881006121E+03  0.12500000000E+03 0.  0.
          1    1    1    2  502    0 -0.37186031541E+02 -0.14762034654E+02  0.17652209496E+03  0.18099936083E+03  0.00000000000E+00 0. -1.
         -1    1    1    2    0  501 -0.22335130276E+01  0.42622981845E+02  0.73332701870E+02  0.84849232910E+02  0.00000000000E+00 0.  1.
<mgrwt>
<rscale>  0 0.40294129E+02</rscale>
<asrwt>0</asrwt>
<pdfrwt beam="1">  1        2 0.74935312E-01 0.40008982E+02</pdfrwt>
<pdfrwt beam="2">  1       -2 0.42429367E-02 0.40581308E+02</pdfrwt>
<totfact> 0.13528130E+04</totfact>
</mgrwt>
</event>
<event>
 5    1  0.8274494E-003  0.3806326E+02  0.7546771E-02  0.1586186E+00
          2   -1    0    0  502    0  0.00000000000E+00  0.00000000000E+00  0.11723339539E+04  0.11723339539E+04  0.00000000000E+00 0. -1.
          1   -1    0    0  501    0 -0.00000000000E+00 -0.00000000000E+00 -0.13220944027E+04  0.13220944027E+04  0.00000000000E+00 0. -1.
         25    1    1    2    0    0 -0.21779334832E+02 -0.17308041813E+02  0.17087859971E+03  0.21353782704E+03  0.12500000000E+03 0.  0.
          2    1    1    2  501    0 -0.16533504005E+02  0.19306957967E+02 -0.13002650970E+04  0.13005135286E+04  0.00000000000E+00 0. -1.
          1    1    1    2  502    0  0.38312838837E+02 -0.19989161546E+01  0.97962604845E+03  0.98037700100E+03  0.00000000000E+00 0. -1.
<mgrwt>
<rscale>  0 0.31105020E+02</rscale>
<asrwt>0</asrwt>
<pdfrwt beam="1">  1        2 0.18035907E+00 0.38063256E+02</pdfrwt>
<pdfrwt beam="2">  1        1 0.20339914E+00 0.25418800E+02</pdfrwt>
<totfact> 0.37411020E+01</totfact>
</mgrwt>
</event>
<event>
 5    1  0.8274494E-003  0.6891613E+02  0.7546771E-02  0.1373038E+00
          1   -1    0    0  501    0 -0.00000000000E+00  0.00000000000E+00  0.28011004237E+03  0.28011004237E+03  0.00000000000E+00 0. -1.
          2   -1    0    0  502    0  0.00000000000E+00 -0.00000000000E+00 -0.25740505308E+03  0.25740505308E+03  0.00000000000E+00 0. -1.
         25    1    1    2    0    0  0.39414565473E+02 -0.12395880740E+03  0.78447006245E+02  0.19671864856E+03  0.12500000000E+03 0.  0.
          2    1    1    2  501    0 -0.22017721910E+02  0.59923516924E+02  0.12930805643E+03  0.14420881186E+03  0.00000000000E+00 0. -1.
          1    1    1    2  502    0 -0.17396843563E+02  0.64035290472E+02 -0.18505007338E+03  0.19658763504E+03  0.00000000000E+00 0. -1.
<mgrwt>
<rscale>  0 0.66329780E+02</rscale>
<asrwt>0</asrwt>
<pdfrwt beam="2">  1        2 0.39600777E-01 0.68916134E+02</pdfrwt>
<pdfrwt beam="1">  1        1 0.43093853E-01 0.63840488E+02</pdfrwt>
<totfact> 0.16444245E+03</totfact>
</mgrwt>
</event>
<event>
 5    1  0.8274494E-003  0.2798636E+03  0.7546771E-02  0.1253230E+00
          2   -1    0    0  502    0  0.00000000000E+00  0.00000000000E+00  0.38875586645E+03  0.38875586645E+03  0.00000000000E+00 0. -1.
          1   -1    0    0  501    0 -0.00000000000E+00 -0.00000000000E+00 -0.95461453727E+03  0.95461453727E+03  0.00000000000E+00 0. -1.
         25    1    1    2    0    0  0.12354166083E+03  0.25171363453E+03 -0.15313562138E+03  0.34307115050E+03  0.12500000000E+03 0.  0.
          2    1    1    2  501    0 -0.43232226906E+02  0.17086637710E+02 -0.63850021842E+03  0.64019021201E+03  0.00000000000E+00 0. -1.
          1    1    1    2  502    0 -0.80309433928E+02 -0.26880027224E+03  0.22577716898E+03  0.36010904121E+03  0.00000000000E+00 0. -1.
<mgrwt>
<rscale>  0 0.11406065E+03</rscale>
<asrwt>0</asrwt>
<pdfrwt beam="1">  1        2 0.59808596E-01 0.27986364E+03</pdfrwt>
<pdfrwt beam="2">  1        1 0.14686377E+00 0.46486327E+02</pdfrwt>
<totfact> 0.21708982E+02</totfact>
</mgrwt>
</event>
<event>
 5    1  0.8274494E-003  0.1599709E+03  0.7546771E-02  0.1392636E+00
         -1   -1    0    0    0  501 -0.00000000000E+00  0.00000000000E+00  0.17401278012E+03  0.17401278012E+03  0.00000000000E+00 0.  1.
          1   -1    0    0  502    0  0.00000000000E+00 -0.00000000000E+00 -0.48560915939E+03  0.48560915939E+03  0.00000000000E+00 0. -1.
         25    1    1    2    0    0 -0.86966338500E+02  0.13596562167E+03  0.65224046893E+01  0.20424822171E+03  0.12500000000E+03 0.  0.
          2    1    1    2  502    0  0.65701526577E+02 -0.14586472308E+03 -0.36744165828E+03  0.40075750807E+03  0.00000000000E+00 0. -1.
         -2    1    1    2    0  501  0.21264811923E+02  0.98991014135E+01  0.49322874318E+02  0.54616209735E+02  0.00000000000E+00 0.  1.
<mgrwt>
<rscale>  0 0.61255846E+02</rscale>
<asrwt>0</asrwt>
<pdfrwt beam="2">  1        1 0.74709101E-01 0.15997088E+03</pdfrwt>
<pdfrwt beam="1">  1       -1 0.26771197E-01 0.23456011E+02</pdfrwt>
<totfact> 0.55438892E+02</totfact>
</mgrwt>
</event>
<event>
 5    1  0.8274494E-003  0.4481876E+02  0.7546771E-02  0.1490202E+00
          1   -1    0    0  502    0  0.00000000000E+00  0.00000000000E+00  0.13931652689E+04  0.13931652689E+04  0.00000000000E+00 0. -1.
         -1   -1    0    0    0  501 -0.00000000000E+00 -0.00000000000E+00 -0.11246717428E+03  0.11246717428E+03  0.00000000000E+00 0.  1.
         25    1    1    2    0    0  0.78610502692E+02  0.13497573843E+02  0.10195994125E+04  0.10303250737E+04  0.12500000000E+03 0.  0.
          2    1    1    2  502    0 -0.34556553146E+02 -0.20943292618E+02  0.36237123168E+03  0.36461717790E+03  0.00000000000E+00 0. -1.
         -2    1    1    2    0  501 -0.44053949545E+02  0.74457187748E+01 -0.10127254958E+03  0.11069019151E+03  0.00000000000E+00 0.  1.
<mgrwt>
<rscale>  0 0.42556079E+02</rscale>
<asrwt>0</asrwt>
<pdfrwt beam="1">  1        1 0.21433311E+00 0.40407634E+02</pdfrwt>
<pdfrwt beam="2">  1       -1 0.17302643E-01 0.44818756E+02</pdfrwt>
<totfact> 0.23851248E+02</totfact>
</mgrwt>
</event>
<event>
 5    1  0.8932028E-003  0.7283916E+02  0.7546771E-02  0.1410924E+00
          2   -1    0    0  502    0  0.00000000000E+00  0.00000000000E+00  0.15712375660E+02  0.15712375660E+02  0.00000000000E+00 0. -1.
         -2   -1    0    0    0  501 -0.00000000000E+00 -0.00000000000E+00 -0.11396820942E+04  0.11396820942E+04  0.00000000000E+00 0.  1.
         25    1    1    2    0    0  0.74903048156E+02  0.20839321452E+02 -0.61984571525E+03  0.63708590838E+03  0.12500000000E+03 0.  0.
          1    1    1    2  502    0 -0.48589621588E+02 -0.56833124603E+02 -0.28134123474E+03  0.29110796235E+03  0.00000000000E+00 0. -1.
         -1    1    1    2    0  501 -0.26313426569E+02  0.35993803151E+02 -0.22278276855E+03  0.22720059913E+03  0.00000000000E+00 0.  1.
<mgrwt>
<rscale>  0 0.56988057E+02</rscale>
<asrwt>0</asrwt>
<pdfrwt beam="1">  1        2 0.24172883E-02 0.72839162E+02</pdfrwt>
<pdfrwt beam="2">  1       -2 0.17533573E+00 0.44586436E+02</pdfrwt>
<totfact> 0.84623650E+02</totfact>
</mgrwt>
</event>
<event>
 5    1  0.8274494E-003  0.7784671E+02  0.7546771E-02  0.1366038E+00
         -2   -1    0    0    0  501 -0.00000000000E+00  0.00000000000E+00  0.11282664154E+03  0.11282664154E+03  0.00000000000E+00 0.  1.
          2   -1    0    0  502    0  0.00000000000E+00 -0.00000000000E+00 -0.14985676761E+04  0.14985676761E+04  0.00000000000E+00 0. -1.
         25    1    1    2    0    0  0.30845514209E+02  0.38236856115E+02 -0.56089549045E+03  0.57675146651E+03  0.12500000000E+03 0.  0.
          1    1    1    2  502    0 -0.44985252368E+02  0.39537865850E+02 -0.91373079968E+03  0.91569148192E+03  0.00000000000E+00 0. -1.
         -1    1    1    2    0  501  0.14139738159E+02 -0.77774721965E+02  0.88885255588E+02  0.11895136919E+03  0.00000000000E+00 0.  1.
<mgrwt>
<rscale>  0 0.68281087E+02</rscale>
<asrwt>0</asrwt>
<pdfrwt beam="2">  1        2 0.23054886E+00 0.59890865E+02</pdfrwt>
<pdfrwt beam="1">  1       -2 0.17357946E-01 0.77846711E+02</pdfrwt>
<totfact> 0.39531605E+02</totfact>
</mgrwt>
</event>
<event>
 5    1  0.8274494E-003  0.6854996E+02  0.7546771E-02  0.1448400E+00
          2   -1    0    0  502    0  0.00000000000E+00  0.00000000000E+00  0.11875344432E+04  0.11875344432E+04  0.00000000000E+00 0. -1.
          1   -1    0    0  501    0 -0.00000000000E+00 -0.00000000000E+00 -0.13220810749E+04  0.13220810749E+04  0.00000000000E+00 0. -1.
         25    1    1    2    0    0  0.22397302168E+02  0.71679731588E+02 -0.34288463453E+02  0.14980094055E+03  0.12500000000E+03 0.  0.
          2    1    1    2  501    0 -0.35387854023E+02 -0.43453356839E+01 -0.12287369340E+04  0.12292540971E+04  0.00000000000E+00 0. -1.
          1    1    1    2  502    0  0.12990551855E+02 -0.67334395905E+02  0.11284787658E+04  0.11305604805E+04  0.00000000000E+00 0. -1.
<mgrwt>
<rscale>  0 0.49437391E+02</rscale>
<asrwt>0</asrwt>
<pdfrwt beam="1">  1        2 0.18269761E+00 0.68549959E+02</pdfrwt>
<pdfrwt beam="2">  1        1 0.20339709E+00 0.35653642E+02</pdfrwt>
<totfact> 0.34183705E+01</totfact>
</mgrwt>
</event>
<event>
 5    1  0.8274494E-003  0.4166944E+02  0.7546771E-02  0.1583682E+00
          2   -1    0    0  502    0  0.00000000000E+00  0.00000000000E+00  0.18147761904E+04  0.18147761904E+04  0.00000000000E+00 0. -1.
         -2   -1    0    0    0  501 -0.00000000000E+00 -0.00000000000E+00 -0.10399321852E+02  0.10399321852E+02  0.00000000000E+00 0.  1.
         25    1    1    2    0    0 -0.30166634644E+02  0.11194615673E+02  0.15651954092E+04  0.15705085209E+04  0.12500000000E+03 0.  0.
          1    1    1    2  502    0  0.52874950037E+01  0.22977935198E+02  0.18219822985E+03  0.18371754971E+03  0.00000000000E+00 0. -1.
         -1    1    1    2    0  501  0.24879139640E+02 -0.34172550871E+02  0.56983229415E+02  0.70949441554E+02  0.00000000000E+00 0.  1.
<mgrwt>
<rscale>  0 0.31344867E+02</rscale>
<asrwt>0</asrwt>
<pdfrwt beam="1">  1        2 0.27919609E+00 0.23578446E+02</pdfrwt>
<pdfrwt beam="2">  1       -2 0.15998971E-02 0.41669442E+02</pdfrwt>
<totfact> 0.98513283E+03</totfact>
</mgrwt>
</event>
<event>
 5    1  0.8274494E-003  0.2571151E+03  0.7546771E-02  0.1166698E+00
          2   -1    0    0  502    0  0.00000000000E+00  0.00000000000E+00  0.83583540508E+03  0.83583540508E+03  0.00000000000E+00 0. -1.
          1   -1    0    0  501    0 -0.00000000000E+00 -0.00000000000E+00 -0.18990849758E+04  0.18990849758E+04  0.00000000000E+00 0. -1.
         25    1    1    2    0    0 -0.19468909469E+03 -0.46367013140E+02  0.26519228810E+03  0.35497280624E+03  0.12500000000E+03 0.  0.
          2    1    1    2  501    0  0.19254329604E+03  0.17397325830E+03 -0.18371948391E+04  0.18554310799E+04  0.00000000000E+00 0. -1.
          1    1    1    2  502    0  0.21457986439E+01 -0.12760624516E+03  0.50875298031E+03  0.52451649472E+03  0.00000000000E+00 0. -1.
<mgrwt>
<rscale>  0 0.18114673E+03</rscale>
<asrwt>0</asrwt>
<pdfrwt beam="1">  1        2 0.12859006E+00 0.12762429E+03</pdfrwt>
<pdfrwt beam="2">  1        1 0.29216692E+00 0.25711515E+03</pdfrwt>
<totfact> 0.18752717E+01</totfact>
</mgrwt>
</event>
<event>
 5    1  0.8274494E-003  0.8907227E+02  0.7546771E-02  0.1402360E+00
          2   -1    0    0  502    0  0.00000000000E+00  0.00000000000E+00  0.33278324051E+03  0.33278324051E+03  0.00000000000E+00 0. -1.
         -2   -1    0    0    0  501 -0.00000000000E+00 -0.00000000000E+00 -0.83165255065E+02  0.83165255065E+02  0.00000000000E+00 0.  1.
         25    1    1    2    0    0  0.11586719563E+03 -0.77397679600E+01  0.17736288833E+03  0.24610506941E+03  0.12500000000E+03 0.  0.
          1    1    1    2  502    0 -0.78231480585E+02 -0.24599568094E+01  0.96250912752E+02  0.12405826916E+03  0.00000000000E+00 0. -1.
         -1    1    1    2    0  501 -0.37635715048E+02  0.10199724769E+02 -0.23995815646E+02  0.45785156995E+02  0.00000000000E+00 0.  1.
<mgrwt>
<rscale>  0 0.58934085E+02</rscale>
<asrwt>0</asrwt>
<pdfrwt beam="1">  1        2 0.51197421E-01 0.89072272E+02</pdfrwt>
<pdfrwt beam="2">  1       -2 0.12794655E-01 0.38993351E+02</pdfrwt>
<totfact> 0.38680808E+03</totfact>
</mgrwt>
</event>
<event>
 5    1  0.8274494E-003  0.3060454E+03  0.7546771E-02  0.1223110E+00
          1   -1    0    0  501    0 -0.00000000000E+00  0.00000000000E+00  0.29947838378E+03  0.29947838378E+03  0.00000000000E+00 0. -1.
          2   -1    0    0  502    0  0.00000000000E+00 -0.00000000000E+00 -0.77861860232E+03  0.77861860232E+03  0.00000000000E+00 0. -1.
         25    1    1    2    0    0  0.23832964262E+03  0.17910262952E+03 -0.39904668179E+03  0.51355819991E+03  0.12500000000E+03 0.  0.
          2    1    1    2  501    0 -0.19571297797E+02  0.54358890304E+02  0.15636978792E+03  0.16670163535E+03  0.00000000000E+00 0. -1.
          1    1    1    2  502    0 -0.21875834483E+03 -0.23346151982E+03 -0.23646332467E+03  0.39783715083E+03  0.00000000000E+00 0. -1.
<mgrwt>
<rscale>  0 0.13297257E+03</rscale>
<asrwt>0</asrwt>
<pdfrwt beam="2">  1        2 0.11978748E+00 0.30604542E+03</pdfrwt>
<pdfrwt beam="1">  1        1 0.46073597E-01 0.57774775E+02</pdfrwt>
<totfact> 0.43857785E+02</totfact>
</mgrwt>
</event>
<event>
 5    1  0.8274494E-003  0.8283517E+02  0.7546771E-02  0.1369721E+00
         -2   -1    0    0    0  501 -0.00000000000E+00  0.00000000000E+00  0.15596607768E+03  0.15596607768E+03  0.00000000000E+00 0.  1.
          2   -1    0    0  502    0  0.00000000000E+00 -0.00000000000E+00 -0.49969187304E+03  0.49969187304E+03  0.00000000000E+00 0. -1.
         25    1    1    2    0    0  0.14744826541E+02  0.84438371353E+02 -0.53797383229E+02  0.16083036687E+03  0.12500000000E+03 0.  0.
          1    1    1    2  502    0 -0.61842495952E+02 -0.56839151703E+02 -0.38018166952E+03  0.38934982382E+03  0.00000000000E+00 0. -1.
         -1    1    1    2    0  501  0.47097669411E+02 -0.27599219650E+02  0.90253257393E+02  0.10547776002E+03  0.00000000000E+00 0.  1.
<mgrwt>
<rscale>  0 0.67244703E+02</rscale>
<asrwt>0</asrwt>
<pdfrwt beam="2">  1        2 0.76875674E-01 0.82835170E+02</pdfrwt>
<pdfrwt beam="1">  1       -2 0.23994781E-01 0.54588528E+02</pdfrwt>
<totfact> 0.92767046E+02</totfact>
</mgrwt>
</event>
<event>
 5    1  0.8274494E-003  0.4800123E+02  0.7546771E-02  0.1550520E+00
         -2   -1    0    0    0  501 -0.00000000000E+00  0.00000000000E+00  0.62188218654E+02  0.62188218654E+02  0.00000000000E+00 0.  1.
          2   -1    0    0  502    0  0.00000000000E+00 -0.00000000000E+00 -0.10482317808E+04  0.10482317808E+04  0.00000000000E+00 0. -1.
         25    1    1    2    0    0 -0.62097201601E+02  0.19343398756E+02 -0.93291436205E+03  0.94349585926E+03  0.12500000000E+03 0.  0.
          1    1    1    2  502    0  0.14266942475E+02 -0.20781219387E+02 -0.98081976082E+02  0.10126933770E+03  0.00000000000E+00 0. -1.
         -1    1    1    2    0  501  0.47830259126E+02  0.14378206306E+01  0.44952776009E+02  0.65654802468E+02  0.00000000000E+00 0.  1.
<mgrwt>
<rscale>  0 0.34784741E+02</rscale>
<asrwt>0</asrwt>
<pdfrwt beam="2">  1        2 0.16126642E+00 0.25207236E+02</pdfrwt>
<pdfrwt beam="1">  1       -2 0.95674186E-02 0.48001225E+02</pdfrwt>
<totfact> 0.17725967E+03</totfact>
</mgrwt>
</event>
<event>
 5    1  0.8274494E-003  0.6672902E+02  0.7546771E-02  0.1383754E+00
          2   -1    0    0  502    0  0.00000000000E+00  0.00000000000E+00  0.35474840546E+04  0.35474840546E+04  0.00000000000E+00 0. -1.
          1   -1    0    0  501    0 -0.00000000000E+00 -0.00000000000E+00 -0.22164816539E+02  0.22164816539E+02  0.00000000000E+00 0. -1.
         25    1    1    2    0    0  0.55746423824E+02  0.11969449641E+02  0.18107135230E+04  0.18159183335E+04  0.12500000000E+03 0.  0.
          2    1    1    2  501    0 -0.24165060355E+02 -0.63458673941E+02  0.41597592816E+02  0.79632362569E+02  0.00000000000E+00 0. -1.
          1    1    1    2  502    0 -0.31581363469E+02  0.51489224300E+02  0.16730081222E+04  0.16740981751E+04  0.00000000000E+00 0. -1.
<mgrwt>
<rscale>  0 0.63487269E+02</rscale>
<asrwt>0</asrwt>
<pdfrwt beam="1">  1        2 0.54576633E+00 0.60403003E+02</pdfrwt>
<pdfrwt beam="2">  1        1 0.34099746E-02 0.66729022E+02</pdfrwt>
<totfact> 0.41733292E+02</totfact>
</mgrwt>
</event>
<event>
 5    1  0.8274494E-003  0.8185056E+02  0.7546771E-02  0.1342763E+00
          1   -1    0    0  501    0 -0.00000000000E+00  0.00000000000E+00  0.95840981015E+02  0.95840981015E+02  0.00000000000E+00 0. -1.
          2   -1    0    0  502    0  0.00000000000E+00 -0.00000000000E+00 -0.15205545203E+04  0.15205545203E+04  0.00000000000E+00 0. -1.
         25    1    1    2    0    0 -0.41956544276E+02  0.45733669302E+02 -0.58166669478E+02  0.15119616911E+03  0.12500000000E+03 0.  0.
          2    1    1    2  501    0 -0.34408301650E+02 -0.75194237316E+02  0.12581260597E+02  0.83644441933E+02  0.00000000000E+00 0. -1.
          1    1    1    2  502    0  0.76364845926E+02  0.29460568014E+02 -0.13791281304E+04  0.13815548903E+04  0.00000000000E+00 0. -1.
<mgrwt>
<rscale>  0 0.75358848E+02</rscale>
<asrwt>0</asrwt>
<pdfrwt beam="2">  1        2 0.23393146E+00 0.81850564E+02</pdfrwt>
<pdfrwt beam="1">  1        1 0.14744766E-01 0.69382002E+02</pdfrwt>
<totfact> 0.71494149E+02</totfact>
</mgrwt>
</event>
<event>
 5    1  0.8274494E-003  0.1002369E+03  0.7546771E-02  0.1326485E+00
          2   -1    0    0  502    0  0.00000000000E+00  0.00000000000E+00  0.14621063841E+04  0.14621063841E+04  0.00000000000E+00 0. -1.
          1   -1    0    0  501    0 -0.00000000000E+00 -0.00000000000E+00 -0.14017901319E+04  0.14017901319E+04  0.00000000000E+00 0. -1.
         25    1    1    2    0    0 -0.13913570044E+03 -0.74837155493E+02 -0.10284908950E+03  0.22619080041E+03  0.12500000000E+03 0.  0.
          2    1    1    2  501    0  0.94764107787E+02  0.26912728921E+02 -0.12345455584E+04  0.12384697279E+04  0.00000000000E+00 0. -1.
          1    1    1    2  502    0  0.44371592657E+02  0.47924426572E+02  0.13977109001E+04  0.13992359877E+04  0.00000000000E+00 0. -1.
<mgrwt>
<rscale>  0 0.80911179E+02</rscale>
<asrwt>0</asrwt>
<pdfrwt beam="1">  1        2 0.22493945E+00 0.65311476E+02</pdfrwt>
<pdfrwt beam="2">  1        1 0.21566002E+00 0.10023688E+03</pdfrwt>
<totfact> 0.19975000E+01</totfact>
</mgrwt>
</event>
<event>
 5    1  0.8274494E-003  0.2131880E+03  0.7546771E-02  0.1203893E+00
          1   -1    0    0  501    0 -0.00000000000E+00  0.00000000000E+00  0.45153222084E+03  0.45153222084E+03  0.00000000000E+00 0. -1.
          2   -1    0    0  502    0  0.00000000000E+00 -0.00000000000E+00 -0.18599497483E+04  0.18599497483E+04  0.00000000000E+00 0. -1.
         25    1    1    2    0    0 -0.12511801299E+03  0.74042919067E+02 -0.16656139562E+01  0.19174108926E+03  0.12500000000E+03 0.  0.
          2    1    1    2  501    0  0.18763461330E+03 -0.15426760862E+03  0.31343855070E+03  0.39654630025E+03  0.00000000000E+00 0. -1.
          1    1    1    2  502    0 -0.62516600304E+02  0.80224689555E+02 -0.17201904642E+04  0.17231945797E+04  0.00000000000E+00 0. -1.
<mgrwt>
<rscale>  0 0.14725055E+03</rscale>
<asrwt>0</asrwt>
<pdfrwt beam="2">  1        2 0.28614612E+00 0.10170706E+03</pdfrwt>
<pdfrwt beam="1">  1        1 0.69466495E-01 0.21318799E+03</pdfrwt>
<totfact> 0.68986955E+01</totfact>
</mgrwt>
</event>
<event>
 5    1  0.8274494E-003  0.5086802E+02  0.7546771E-02  0.1526892E+00
          1   -1    0    0  501    0 -0.00000000000E+00  0.00000000000E+00  0.11213011789E+03  0.11213011789E+03  0.00000000000E+00 0. -1.
          2   -1    0    0  502    0  0.00000000000E+00 -0.00000000000E+00 -0.14383917454E+04  0.14383917454E+04  0.00000000000E+00 0. -1.
         25    1    1    2    0    0 -0.36515387867E+02 -0.15140524790E+02 -0.27151012177E+03  0.30150514965E+03  0.12500000000E+03 0.  0.
          2    1    1    2  501    0 -0.14285797025E+02  0.23788965480E+02  0.94561579988E+02  0.98548928381E+02  0.00000000000E+00 0. -1.
          1    1    1    2  502    0  0.50801184892E+02 -0.86484406898E+01 -0.11493130858E+04  0.11504677853E+04  0.00000000000E+00 0. -1.
<mgrwt>
<rscale>  0 0.37570325E+02</rscale>
<asrwt>0</asrwt>
<pdfrwt beam="2">  1        2 0.22129102E+00 0.50868024E+02</pdfrwt>
<pdfrwt beam="1">  1        1 0.17250789E-01 0.27748854E+02</pdfrwt>
<totfact> 0.63933796E+02</totfact>
</mgrwt>
</event>
<event>
 5    1  0.8274494E-003  0.1426444E+03  0.7546771E-02  0.1355147E+00
          2   -1    0    0  502    0  0.00000000000E+00  0.00000000000E+00  0.20369729552E+04  0.20369729552E+04  0.00000000000E+00 0. -1.
          1   -1    0    0  501    0 -0.00000000000E+00 -0.00000000000E+00 -0.71874642683E+02  0.71874642683E+02  0.00000000000E+00 0. -1.
         25    1    1    2    0    0 -0.11669466463E+03  0.12967332919E+03  0.71303486874E+03  0.74463181579E+03  0.12500000000E+03 0.  0.
          2    1    1    2  501    0  0.90093235608E+02 -0.10569335428E+03  0.30580301085E+02  0.14220770392E+03  0.00000000000E+00 0. -1.
          1    1    1    2  502    0  0.26601429025E+02 -0.23979974910E+02  0.12214831427E+04  0.12220080782E+04  0.00000000000E+00 0. -1.
<mgrwt>
<rscale>  0 0.71475403E+02</rscale>
<asrwt>0</asrwt>
<pdfrwt beam="1">  1        2 0.31338041E+00 0.35814456E+02</pdfrwt>
<pdfrwt beam="2">  1        1 0.11057639E-01 0.14264445E+03</pdfrwt>
<totfact> 0.65547531E+02</totfact>
</mgrwt>
</event>
<event>
 5    1  0.8274494E-003  0.7735702E+02  0.7546771E-02  0.1390297E+00
         -1   -1    0    0    0  501 -0.00000000000E+00  0.00000000000E+00  0.59839838655E+03  0.59839838655E+03  0.00000000000E+00 0.  1.
          1   -1    0    0  502    0  0.00000000000E+00 -0.00000000000E+00 -0.29826874608E+03  0.29826874608E+03  0.00000000000E+00 0. -1.
         25    1    1    2    0    0  0.10725710462E+02  0.10334491110E+03  0.14018510887E+03  0.21464406878E+03  0.12500000000E+03 0.  0.
          2    1    1    2  502    0  0.27340140835E+02 -0.71821044723E+02 -0.25388073429E+03  0.26525680577E+03  0.00000000000E+00 0. -1.
         -2    1    1    2    0  501 -0.38065851297E+02 -0.31523866379E+02  0.41382526589E+03  0.41676625808E+03  0.00000000000E+00 0.  1.
<mgrwt>
<rscale>  0 0.61832986E+02</rscale>
<asrwt>0</asrwt>
<pdfrwt beam="2">  1        1 0.45887499E-01 0.77357025E+02</pdfrwt>
<pdfrwt beam="1">  1       -1 0.92061290E-01 0.49424318E+02</pdfrwt>
<totfact> 0.11508982E+02</totfact>
</mgrwt>
</event>
<event>
 5    1  0.8274494E-003  0.7018398E+02  0.7546771E-02  0.1361887E+00
          2   -1    0    0  502    0  0.00000000000E+00  0.00000000000E+00  0.25611948795E+03  0.25611948795E+03  0.00000000000E+00 0. -1.
          1   -1    0    0  501    0 -0.00000000000E+00 -0.00000000000E+00 -0.10414681094E+04  0.10414681094E+04  0.00000000000E+00 0. -1.
         25    1    1    2    0    0 -0.37685963335E+02  0.11613528025E+03  0.51138587925E+02  0.18206534631E+03  0.12500000000E+03 0.  0.
          2    1    1    2  501    0  0.50160719268E+02 -0.48502377159E+02 -0.96619418441E+03  0.96871036969E+03  0.00000000000E+00 0. -1.
          3    1    1    2  502    0 -0.12474755932E+02 -0.67632903090E+02  0.12970697507E+03  0.14681188132E+03  0.00000000000E+00 0. -1.
<mgrwt>
<rscale>  0 0.69475286E+02</rscale>
<asrwt>0</asrwt>
<pdfrwt beam="1">  1        2 0.39402998E-01 0.68773753E+02</pdfrwt>
<pdfrwt beam="2">  1        1 0.16022586E+00 0.70183976E+02</pdfrwt>
<totfact> 0.28436613E+02</totfact>
</mgrwt>
</event>
<event>
 5    1  0.8274494E-003  0.7916746E+02  0.7546771E-02  0.1498929E+00
          1   -1    0    0  501    0 -0.00000000000E+00  0.00000000000E+00  0.13949284431E+04  0.13949284431E+04  0.00000000000E+00 0. -1.
          2   -1    0    0  502    0  0.00000000000E+00 -0.00000000000E+00 -0.14714101684E+04  0.14714101684E+04  0.00000000000E+00 0. -1.
         25    1    1    2    0    0 -0.78379050712E+02 -0.41740912597E+02  0.32159544486E+03  0.35627827541E+03  0.12500000000E+03 0.  0.
          2    1    1    2  501    0  0.18849567193E+02 -0.10413222801E+02  0.10548046555E+04  0.10550244560E+04  0.00000000000E+00 0. -1.
          1    1    1    2  502    0  0.59529483519E+02  0.52154135399E+02 -0.14528818256E+04  0.14550358801E+04  0.00000000000E+00 0. -1.
<mgrwt>
<rscale>  0 0.41289755E+02</rscale>
<asrwt>0</asrwt>
<pdfrwt beam="2">  1        2 0.22637080E+00 0.79167456E+02</pdfrwt>
<pdfrwt beam="1">  1        1 0.21460438E+00 0.21534656E+02</pdfrwt>
<totfact> 0.22843499E+01</totfact>
</mgrwt>
</event>
<event>
 5    1  0.8274494E-003  0.9190750E+02  0.7546771E-02  0.1343320E+00
          1   -1    0    0  502    0  0.00000000000E+00  0.00000000000E+00  0.88263096993E+03  0.88263096993E+03  0.00000000000E+00 0. -1.
         -1   -1    0    0    0  501 -0.00000000000E+00 -0.00000000000E+00 -0.32098276557E+03  0.32098276557E+03  0.00000000000E+00 0.  1.
         25    1    1    2    0    0  0.79567133043E+02  0.12730028799E+03 -0.75571874392E+01  0.19549527633E+03  0.12500000000E+03 0.  0.
          2    1    1    2  502    0 -0.57290190408E+02 -0.69983352147E+02  0.78169497580E+03  0.78690969665E+03  0.00000000000E+00 0. -1.
         -2    1    1    2    0  501 -0.22276942635E+02 -0.57316935847E+02 -0.21248958400E+03  0.22120876252E+03  0.00000000000E+00 0.  1.
<mgrwt>
<rscale>  0 0.75178094E+02</rscale>
<asrwt>0</asrwt>
<pdfrwt beam="1">  1        1 0.13578938E+00 0.91907500E+02</pdfrwt>
<pdfrwt beam="2">  1       -1 0.49381964E-01 0.61493848E+02</pdfrwt>
<totfact> 0.89970490E+01</totfact>
</mgrwt>
</event>
<event>
 5    1  0.8274494E-003  0.1521092E+03  0.7546771E-02  0.1237846E+00
         -2   -1    0    0    0  501 -0.00000000000E+00  0.00000000000E+00  0.16439293056E+03  0.16439293056E+03  0.00000000000E+00 0.  1.
          2   -1    0    0  502    0  0.00000000000E+00 -0.00000000000E+00 -0.14785858769E+04  0.14785858769E+04  0.00000000000E+00 0. -1.
         25    1    1    2    0    0 -0.44720480627E+02 -0.11562319148E+03  0.63681265679E+01  0.17616525433E+03  0.12500000000E+03 0.  0.
          1    1    1    2  502    0 -0.50250912773E+02  0.14645110828E+03 -0.13529972544E+04  0.13618276880E+04  0.00000000000E+00 0. -1.
         -1    1    1    2    0  501  0.94971393399E+02 -0.30827916793E+02  0.32436181466E+02  0.10498586517E+03  0.00000000000E+00 0.  1.
<mgrwt>
<rscale>  0 0.12323972E+03</rscale>
<asrwt>0</asrwt>
<pdfrwt beam="2">  1        2 0.22747476E+00 0.15210918E+03</pdfrwt>
<pdfrwt beam="1">  1       -2 0.25291219E-01 0.99849517E+02</pdfrwt>
<totfact> 0.20089166E+02</totfact>
</mgrwt>
</event>
<event>
 5    1  0.8274494E-003  0.2120058E+03  0.7546771E-02  0.1206123E+00
          1   -1    0    0  501    0 -0.00000000000E+00  0.00000000000E+00  0.18225185774E+04  0.18225185774E+04  0.00000000000E+00 0. -1.
          2   -1    0    0  502    0  0.00000000000E+00 -0.00000000000E+00 -0.36185284600E+04  0.36185284600E+04  0.00000000000E+00 0. -1.
         25    1    1    2    0    0 -0.12400318289E+03  0.62581176978E+02  0.85083950383E+02  0.20532284747E+03  0.12500000000E+03 0.  0.
          2    1    1    2  501    0  0.21928534998E+03 -0.32733608120E+02  0.16692834211E+04  0.16839431979E+04  0.00000000000E+00 0. -1.
          1    1    1    2  502    0 -0.95282167083E+02 -0.29847568858E+02 -0.35503772541E+04  0.35517809920E+04  0.00000000000E+00 0. -1.
<mgrwt>
<rscale>  0 0.14549327E+03</rscale>
<asrwt>0</asrwt>
<pdfrwt beam="2">  1        2 0.55669668E+00 0.99847728E+02</pdfrwt>
<pdfrwt beam="1">  1        1 0.28038748E+00 0.21200575E+03</pdfrwt>
<totfact> 0.63223246E-01</totfact>
</mgrwt>
</event>
<event>
 5    1  0.8274494E-003  0.7432858E+02  0.7546771E-02  0.1367623E+00
          1   -1    0    0  501    0 -0.00000000000E+00  0.00000000000E+00  0.63481502596E+02  0.63481502596E+02  0.00000000000E+00 0. -1.
          2   -1    0    0  502    0  0.00000000000E+00 -0.00000000000E+00 -0.84407752872E+03  0.84407752872E+03  0.00000000000E+00 0. -1.
         25    1    1    2    0    0  0.65826828350E+02 -0.10914023591E+03 -0.38321135893E+03  0.42275372031E+03  0.12500000000E+03 0.  0.
          2    1    1    2  501    0 -0.40390595529E+02  0.46911802510E+02  0.17642232281E+02  0.64368981519E+02  0.00000000000E+00 0. -1.
          1    1    1    2  502    0 -0.25436232822E+02  0.62228433399E+02 -0.41502689947E+03  0.42043632948E+03  0.00000000000E+00 0. -1.
<mgrwt>
<rscale>  0 0.67832468E+02</rscale>
<asrwt>0</asrwt>
<pdfrwt beam="2">  1        2 0.12985808E+00 0.74328578E+02</pdfrwt>
<pdfrwt beam="1">  1        1 0.97663854E-02 0.61904099E+02</pdfrwt>
<totfact> 0.28586990E+03</totfact>
</mgrwt>
</event>
<event>
 5    1  0.8274494E-003  0.1082133E+03  0.7546771E-02  0.1387203E+00
          2   -1    0    0  502    0  0.00000000000E+00  0.00000000000E+00  0.26269371385E+04  0.26269371385E+04  0.00000000000E+00 0. -1.
          1   -1    0    0  501    0 -0.00000000000E+00 -0.00000000000E+00 -0.38445241998E+03  0.38445241998E+03  0.00000000000E+00 0. -1.
         25    1    1    2    0    0  0.75982012538E+02  0.11028446551E+03  0.35742847449E+03  0.40164168600E+03  0.12500000000E+03 0.  0.
          2    1    1    2  501    0 -0.41418110587E+02 -0.99450314842E+02 -0.35418867983E+03  0.37021000247E+03  0.00000000000E+00 0. -1.
          3    1    1    2  502    0 -0.34563901951E+02 -0.10834150664E+02  0.22392449239E+04  0.22395378700E+04  0.00000000000E+00 0. -1.
<mgrwt>
<rscale>  0 0.62607619E+02</rscale>
<asrwt>0</asrwt>
<pdfrwt beam="1">  1        2 0.40414416E+00 0.36222122E+02</pdfrwt>
<pdfrwt beam="2">  1        1 0.59146528E-01 0.10821326E+03</pdfrwt>
<totfact> 0.40249402E+01</totfact>
</mgrwt>
</event>
<event>
 5    1  0.8274494E-003  0.1634907E+03  0.7546771E-02  0.1255842E+00
          2   -1    0    0  502    0  0.00000000000E+00  0.00000000000E+00  0.18657408540E+03  0.18657408540E+03  0.00000000000E+00 0. -1.
          1   -1    0    0  501    0 -0.00000000000E+00 -0.00000000000E+00 -0.19385698733E+04  0.19385698733E+04  0.00000000000E+00 0. -1.
         25    1    1    2    0    0  0.11707950557E+03 -0.84561174417E+02 -0.21413277997E+03  0.28694259060E+03  0.12500000000E+03 0.  0.
          2    1    1    2  501    0 -0.39720268768E+02 -0.66594966584E+02 -0.16388204268E+04  0.16406538272E+04  0.00000000000E+00 0. -1.
          1    1    1    2  502    0 -0.77359236803E+02  0.15115614100E+03  0.10095741890E+03  0.19754754089E+03  0.00000000000E+00 0. -1.
<mgrwt>
<rscale>  0 0.11259312E+03</rscale>
<asrwt>0</asrwt>
<pdfrwt beam="1">  1        2 0.28703704E-01 0.16349066E+03</pdfrwt>
<pdfrwt beam="2">  1        1 0.29824153E+00 0.77540888E+02</pdfrwt>
<totfact> 0.10631597E+02</totfact>
</mgrwt>
</event>
<event>
 5    1  0.8274494E-003  0.5202962E+02  0.7546771E-02  0.1477638E+00
          2   -1    0    0  502    0  0.00000000000E+00  0.00000000000E+00  0.13185864301E+04  0.13185864301E+04  0.00000000000E+00 0. -1.
          1   -1    0    0  501    0 -0.00000000000E+00 -0.00000000000E+00 -0.12156021990E+04  0.12156021990E+04  0.00000000000E+00 0. -1.
         25    1    1    2    0    0  0.49035437120E+02  0.97285326929E+01  0.11567811809E+04  0.11645886909E+04  0.12500000000E+03 0.  0.
          2    1    1    2  501    0 -0.29906252411E+02 -0.42585139939E+02 -0.12088419640E+04  0.12099614754E+04  0.00000000000E+00 0. -1.
          1    1    1    2  502    0 -0.19129184709E+02  0.32856607246E+02  0.15504501429E+03  0.15963846280E+03  0.00000000000E+00 0. -1.
<mgrwt>
<rscale>  0 0.44476286E+02</rscale>
<asrwt>0</asrwt>
<pdfrwt beam="1">  1        2 0.20285945E+00 0.38019500E+02</pdfrwt>
<pdfrwt beam="2">  1        1 0.18701572E+00 0.52029617E+02</pdfrwt>
<totfact> 0.34463111E+01</totfact>
</mgrwt>
</event>
<event>
 5    1  0.8274494E-003  0.8101912E+02  0.7546771E-02  0.1365822E+00
         -2   -1    0    0    0  501 -0.00000000000E+00  0.00000000000E+00  0.35379961353E+03  0.35379961353E+03  0.00000000000E+00 0.  1.
          2   -1    0    0  502    0  0.00000000000E+00 -0.00000000000E+00 -0.22099740336E+04  0.22099740336E+04  0.00000000000E+00 0. -1.
         25    1    1    2    0    0 -0.10236137866E+03  0.92436879535E+02 -0.24746078870E+01  0.18615464599E+03  0.12500000000E+03 0.  0.
          1    1    1    2  502    0  0.56826935672E+02 -0.57080663070E+02 -0.21117106062E+04  0.21132461255E+04  0.00000000000E+00 0. -1.
         -1    1    1    2    0  501  0.45534442987E+02 -0.35356216465E+02  0.25801079401E+03  0.26437287563E+03  0.00000000000E+00 0.  1.
<mgrwt>
<rscale>  0 0.68342518E+02</rscale>
<asrwt>0</asrwt>
<pdfrwt beam="2">  1        2 0.33999600E+00 0.81019124E+02</pdfrwt>
<pdfrwt beam="1">  1       -2 0.54430710E-01 0.57649350E+02</pdfrwt>
<totfact> 0.21824706E+01</totfact>
</mgrwt>
</event>
<event>
 5    1  0.8274494E-003  0.1532110E+03  0.7546771E-02  0.1363717E+00
          2   -1    0    0  502    0  0.00000000000E+00  0.00000000000E+00  0.15176447785E+03  0.15176447785E+03  0.00000000000E+00 0. -1.
          1   -1    0    0  501    0 -0.00000000000E+00 -0.00000000000E+00 -0.10530361440E+04  0.10530361440E+04  0.00000000000E+00 0. -1.
         25    1    1    2    0    0 -0.12752370997E+03 -0.29497613936E+01 -0.10005405659E+03  0.20471153347E+03  0.12500000000E+03 0.  0.
          2    1    1    2  501    0  0.15581531133E+03  0.15684239313E+02 -0.89122773860E+03  0.90488191973E+03  0.00000000000E+00 0. -1.
          1    1    1    2  502    0 -0.28291601365E+02 -0.12734477919E+02  0.90010129029E+02  0.95207168656E+02  0.00000000000E+00 0. -1.
<mgrwt>
<rscale>  0 0.68945262E+02</rscale>
<asrwt>0</asrwt>
<pdfrwt beam="1">  1        2 0.23348381E-01 0.31025500E+02</pdfrwt>
<pdfrwt beam="2">  1        1 0.16200556E+00 0.15321104E+03</pdfrwt>
<totfact> 0.44640006E+02</totfact>
</mgrwt>
</event>
<event>
 5    1  0.8274494E-003  0.5476480E+02  0.7546771E-02  0.1421578E+00
          1   -1    0    0  501    0 -0.00000000000E+00  0.00000000000E+00  0.10234961851E+04  0.10234961851E+04  0.00000000000E+00 0. -1.
          2   -1    0    0  502    0  0.00000000000E+00 -0.00000000000E+00 -0.69443045575E+03  0.69443045575E+03  0.00000000000E+00 0. -1.
         25    1    1    2    0    0 -0.11299091925E+02  0.31674915818E+01 -0.65377508129E+02  0.14155183167E+03  0.12500000000E+03 0.  0.
          2    1    1    2  501    0 -0.65947740286E+01 -0.54764805968E+02  0.98337275351E+03  0.98491859936E+03  0.00000000000E+00 0. -1.
          1    1    1    2  502    0  0.17893865954E+02  0.51597314386E+02 -0.58892951602E+03  0.59145620982E+03  0.00000000000E+00 0. -1.
<mgrwt>
<rscale>  0 0.54688360E+02</rscale>
<asrwt>0</asrwt>
<pdfrwt beam="2">  1        2 0.10683545E+00 0.54612025E+02</pdfrwt>
<pdfrwt beam="1">  1        1 0.15746095E+00 0.54764802E+02</pdfrwt>
<totfact> 0.10396098E+02</totfact>
</mgrwt>
</event>
<event>
 5    1  0.8274494E-003  0.1804596E+03  0.7546771E-02  0.1239312E+00
          2   -1    0    0  502    0  0.00000000000E+00  0.00000000000E+00  0.23290996483E+03  0.23290996483E+03  0.00000000000E+00 0. -1.
          1   -1    0    0  501    0 -0.00000000000E+00 -0.00000000000E+00 -0.11932107326E+04  0.11932107326E+04  0.00000000000E+00 0. -1.
         25    1    1    2    0    0  0.13815384309E+03  0.17957740477E+03 -0.46893029058E+03  0.53558859780E+03  0.12500000000E+03 0.  0.
          2    1    1    2  501    0 -0.58086302577E+02 -0.15802892822E+03 -0.67147296745E+03  0.69225942154E+03  0.00000000000E+00 0. -1.
          1    1    1    2  502    0 -0.80067540516E+02 -0.21548476548E+02  0.18010249025E+03  0.19827267809E+03  0.00000000000E+00 0. -1.
<mgrwt>
<rscale>  0 0.12232368E+03</rscale>
<asrwt>0</asrwt>
<pdfrwt beam="1">  1        2 0.35832304E-01 0.82916512E+02</pdfrwt>
<pdfrwt beam="2">  1        1 0.18357087E+00 0.18045962E+03</pdfrwt>
<totfact> 0.23105714E+02</totfact>
</mgrwt>
</event>
<event>
 5    1  0.8274494E-003  0.5542461E+02  0.7546771E-02  0.1420347E+00
          2   -1    0    0  502    0  0.00000000000E+00  0.00000000000E+00  0.31442785746E+04  0.31442785746E+04  0.00000000000E+00 0. -1.
         -2   -1    0    0    0  501 -0.00000000000E+00 -0.00000000000E+00 -0.21454893155E+03  0.21454893155E+03  0.00000000000E+00 0.  1.
         25    1    1    2    0    0 -0.11263188803E+01 -0.45716055610E+02  0.47418285600E+03  0.49250949967E+03  0.12500000000E+03 0.  0.
          1    1    1    2  502    0  0.51144980715E+02  0.24137743822E+02  0.26570140921E+04  0.26576159100E+04  0.00000000000E+00 0. -1.
         -1    1    1    2    0  501 -0.50018661834E+02  0.21578311787E+02 -0.20146730502E+03  0.20870209646E+03  0.00000000000E+00 0.  1.
<mgrwt>
<rscale>  0 0.54947587E+02</rscale>
<asrwt>0</asrwt>
<pdfrwt beam="1">  1        2 0.48373513E+00 0.55424606E+02</pdfrwt>
<pdfrwt beam="2">  1       -2 0.33007530E-01 0.54474674E+02</pdfrwt>
<totfact> 0.18750693E+01</totfact>
</mgrwt>
</event>
<event>
 5    1  0.8274494E-003  0.2571067E+03  0.7546771E-02  0.1238222E+00
          1   -1    0    0  502    0  0.00000000000E+00  0.00000000000E+00  0.24440945729E+04  0.24440945729E+04  0.00000000000E+00 0. -1.
         -1   -1    0    0    0  501 -0.00000000000E+00 -0.00000000000E+00 -0.41671728602E+03  0.41671728602E+03  0.00000000000E+00 0.  1.
         25    1    1    2    0    0 -0.16567023307E+03 -0.19077489523E+03 -0.22552115763E+03  0.36100758900E+03  0.12500000000E+03 0.  0.
          2    1    1    2  502    0  0.35467183791E+02 -0.46958020679E+02  0.22267116969E+04  0.22274891600E+04  0.00000000000E+00 0. -1.
         -2    1    1    2    0  501  0.13020304928E+03  0.23773291591E+03  0.26186747623E+02  0.27231510993E+03  0.00000000000E+00 0.  1.
<mgrwt>
<rscale>  0 0.12300397E+03</rscale>
<asrwt>0</asrwt>
<pdfrwt beam="1">  1        1 0.37601454E+00 0.58847063E+02</pdfrwt>
<pdfrwt beam="2">  1       -1 0.64110353E-01 0.25710674E+03</pdfrwt>
<totfact> 0.55765011E+00</totfact>
</mgrwt>
</event>
<event>
 5    1  0.8274494E-003  0.5492364E+02  0.7546771E-02  0.1497223E+00
          1   -1    0    0  502    0  0.00000000000E+00  0.00000000000E+00  0.22033694287E+04  0.22033694287E+04  0.00000000000E+00 0. -1.
         -1   -1    0    0    0  501 -0.00000000000E+00 -0.00000000000E+00 -0.33366863625E+02  0.33366863625E+02  0.00000000000E+00 0.  1.
         25    1    1    2    0    0  0.57549395088E+02 -0.51218061011E+02  0.43553522359E+03  0.45962066276E+03  0.12500000000E+03 0.  0.
          2    1    1    2  502    0 -0.31052570874E+02  0.47069189491E+01  0.17218281413E+04  0.17221145622E+04  0.00000000000E+00 0. -1.
         -2    1    1    2    0  501 -0.26496824214E+02  0.46511142062E+02  0.12639200207E+02  0.55001067364E+02  0.00000000000E+00 0.  1.
<mgrwt>
<rscale>  0 0.41533146E+02</rscale>
<asrwt>0</asrwt>
<pdfrwt beam="1">  1        1 0.33897980E+00 0.31407280E+02</pdfrwt>
<pdfrwt beam="2">  1       -1 0.51333653E-02 0.54923641E+02</pdfrwt>
<totfact> 0.48917099E+02</totfact>
</mgrwt>
</event>
<event>
 5    1  0.8274494E-003  0.5192929E+02  0.7546771E-02  0.1502507E+00
         -2   -1    0    0    0  501 -0.00000000000E+00  0.00000000000E+00  0.36779527631E+03  0.36779527631E+03  0.00000000000E+00 0.  1.
          2   -1    0    0  502    0  0.00000000000E+00 -0.00000000000E+00 -0.49725254250E+03  0.49725254250E+03  0.00000000000E+00 0. -1.
         25    1    1    2    0    0  0.50182337904E+02 -0.56386692730E+02  0.84559524184E+02  0.16873956052E+03  0.12500000000E+03 0.  0.
          3    1    1    2  502    0 -0.45420523625E+02  0.24709056563E+02 -0.45262023926E+03  0.45556409256E+03  0.00000000000E+00 0. -1.
         -1    1    1    2    0  501 -0.47618142795E+01  0.31677636167E+02  0.23860344889E+03  0.24074416572E+03  0.00000000000E+00 0.  1.
<mgrwt>
<rscale>  0 0.40785768E+02</rscale>
<asrwt>0</asrwt>
<pdfrwt beam="2">  1        2 0.76500391E-01 0.51929290E+02</pdfrwt>
<pdfrwt beam="1">  1       -2 0.56583889E-01 0.32033537E+02</pdfrwt>
<totfact> 0.19431460E+02</totfact>
</mgrwt>
</event>
<event>
 5    1  0.8274494E-003  0.4369798E+02  0.7546771E-02  0.1493373E+00
          2   -1    0    0  502    0  0.00000000000E+00  0.00000000000E+00  0.16068784415E+04  0.16068784415E+04  0.00000000000E+00 0. -1.
          1   -1    0    0  501    0 -0.00000000000E+00 -0.00000000000E+00 -0.68667412082E+03  0.68667412082E+03  0.00000000000E+00 0. -1.
         25    1    1    2    0    0 -0.14532871454E+02  0.78000401633E+02  0.57702693850E+03  0.59571835188E+03  0.12500000000E+03 0.  0.
          2    1    1    2  501    0 -0.43680642044E+01 -0.40304807132E+02 -0.67628551371E+03  0.67749955979E+03  0.00000000000E+00 0. -1.
          1    1    1    2  502    0  0.18900935659E+02 -0.37695594501E+02  0.10194628959E+04  0.10203346506E+04  0.00000000000E+00 0. -1.
<mgrwt>
<rscale>  0 0.42089803E+02</rscale>
<asrwt>0</asrwt>
<pdfrwt beam="1">  1        2 0.24721207E+00 0.43697977E+02</pdfrwt>
<pdfrwt beam="2">  1        1 0.10564217E+00 0.40540812E+02</pdfrwt>
<totfact> 0.60408376E+01</totfact>
</mgrwt>
</event>
<event>
 5    1  0.8274494E-003  0.9510209E+02  0.7546771E-02  0.1426650E+00
          2   -1    0    0  502    0  0.00000000000E+00  0.00000000000E+00  0.57306976428E+02  0.57306976428E+02  0.00000000000E+00 0. -1.
          1   -1    0    0  501    0 -0.00000000000E+00 -0.00000000000E+00 -0.35887380767E+03  0.35887380767E+03  0.00000000000E+00 0. -1.
         25    1    1    2    0    0 -0.71357471370E+02 -0.32357416802E+02 -0.14836145413E+03  0.20922478872E+03  0.12500000000E+03 0.  0.
          2    1    1    2  501    0 -0.21548750412E+02 -0.21233716092E+02 -0.47854363508E+02  0.56615010820E+02  0.00000000000E+00 0. -1.
          1    1    1    2  502    0  0.92906221783E+02  0.53591132894E+02 -0.10535101360E+03  0.15034098456E+03  0.00000000000E+00 0. -1.
<mgrwt>
<rscale>  0 0.53638463E+02</rscale>
<asrwt>0</asrwt>
<pdfrwt beam="1">  1        2 0.88164578E-02 0.95102089E+02</pdfrwt>
<pdfrwt beam="2">  1        1 0.55211355E-01 0.30252592E+02</pdfrwt>
<totfact> 0.67195045E+03</totfact>
</mgrwt>
</event>
<event>
 5    1  0.8274494E-003  0.4393482E+02  0.7546771E-02  0.1487659E+00
          1   -1    0    0  501    0 -0.00000000000E+00  0.00000000000E+00  0.52700415273E+03  0.52700415273E+03  0.00000000000E+00 0. -1.
          2   -1    0    0  502    0  0.00000000000E+00 -0.00000000000E+00 -0.16666057985E+04  0.16666057985E+04  0.00000000000E+00 0. -1.
         25    1    1    2    0    0 -0.33150100467E+02  0.53022130847E+02  0.19703875027E+03  0.24157720221E+03  0.12500000000E+03 0.  0.
          2    1    1    2  501    0 -0.75948592252E+01 -0.43003723173E+02  0.30587748960E+03  0.30897902961E+03  0.00000000000E+00 0. -1.
          1    1    1    2  502    0  0.40744959692E+02 -0.10018407675E+02 -0.16425178857E+04  0.16430537194E+04  0.00000000000E+00 0. -1.
<mgrwt>
<rscale>  0 0.42935316E+02</rscale>
<asrwt>0</asrwt>
<pdfrwt beam="2">  1        2 0.25640089E+00 0.41958554E+02</pdfrwt>
<pdfrwt beam="1">  1        1 0.81077564E-01 0.43934817E+02</pdfrwt>
<totfact> 0.79784212E+01</totfact>
</mgrwt>
</event>
<event>
 5    1  0.8274494E-003  0.9536623E+02  0.7546771E-02  0.1306822E+00
          2   -1    0    0  502    0  0.00000000000E+00  0.00000000000E+00  0.17979197864E+04  0.17979197864E+04  0.00000000000E+00 0. -1.
          1   -1    0    0  501    0 -0.00000000000E+00 -0.00000000000E+00 -0.32895247932E+02  0.32895247932E+02  0.00000000000E+00 0. -1.
         25    1    1    2    0    0 -0.13832480530E+02  0.10601141155E+03  0.34420649439E+03  0.38148770318E+03  0.12500000000E+03 0.  0.
          2    1    1    2  501    0 -0.65304456280E+02 -0.49436235239E+02  0.12243817049E+03  0.14730824470E+03  0.00000000000E+00 0. -1.
          1    1    1    2  502    0  0.79136936810E+02 -0.56575176311E+02  0.12983798736E+04  0.13020190864E+04  0.00000000000E+00 0. -1.
<mgrwt>
<rscale>  0 0.88380305E+02</rscale>
<asrwt>0</asrwt>
<pdfrwt beam="1">  1        2 0.27660297E+00 0.95366228E+02</pdfrwt>
<pdfrwt beam="2">  1        1 0.50608088E-02 0.81906125E+02</pdfrwt>
<totfact> 0.21003274E+03</totfact>
</mgrwt>
</event>
<event>
 5    1  0.8274494E-003  0.4353720E+02  0.7546771E-02  0.1486874E+00
          2   -1    0    0  502    0  0.00000000000E+00  0.00000000000E+00  0.28081667348E+04  0.28081667348E+04  0.00000000000E+00 0. -1.
          1   -1    0    0  501    0 -0.00000000000E+00 -0.00000000000E+00 -0.13235912181E+04  0.13235912181E+04  0.00000000000E+00 0. -1.
         25    1    1    2    0    0 -0.44645519008E+02  0.73100462944E+02  0.72440340954E+03  0.74008256283E+03  0.12500000000E+03 0.  0.
          2    1    1    2  501    0  0.26261077555E+02 -0.34699557933E+02 -0.13151734394E+04  0.13158931869E+04  0.00000000000E+00 0. -1.
          1    1    1    2  502    0  0.18384441454E+02 -0.38400905011E+02  0.20753455466E+04  0.20757822031E+04  0.00000000000E+00 0. -1.
<mgrwt>
<rscale>  0 0.43053330E+02</rscale>
<asrwt>0</asrwt>
<pdfrwt beam="1">  1        2 0.43202565E+00 0.42574842E+02</pdfrwt>
<pdfrwt beam="2">  1        1 0.20362942E+00 0.43537195E+02</pdfrwt>
<totfact> 0.54043384E+00</totfact>
</mgrwt>
</event>
<event>
 5    1  0.8274494E-003  0.1294166E+03  0.7546771E-02  0.1407481E+00
          2   -1    0    0  502    0  0.00000000000E+00  0.00000000000E+00  0.15111085151E+04  0.15111085151E+04  0.00000000000E+00 0. -1.
         -2   -1    0    0    0  501 -0.00000000000E+00 -0.00000000000E+00 -0.65008292737E+02  0.65008292737E+02  0.00000000000E+00 0.  1.
         25    1    1    2    0    0  0.15189433636E+03 -0.67328277062E+01  0.12678745734E+04  0.12830620228E+04  0.12500000000E+03 0.  0.
          1    1    1    2  502    0 -0.23789562309E+02  0.99293803777E+01  0.16182440219E+03  0.16386480102E+03  0.00000000000E+00 0. -1.
         -3    1    1    2    0  501 -0.12810477405E+03 -0.31965526715E+01  0.16401246773E+02  0.12918998405E+03  0.00000000000E+00 0.  1.
<mgrwt>
<rscale>  0 0.57759650E+02</rscale>
<asrwt>0</asrwt>
<pdfrwt beam="1">  1        2 0.23247821E+00 0.25778593E+02</pdfrwt>
<pdfrwt beam="2">  1       -2 0.10001277E-01 0.12941657E+03</pdfrwt>
<totfact> 0.10452391E+03</totfact>
</mgrwt>
</event>
<event>
 5    1  0.8274494E-003  0.5352734E+02  0.7546771E-02  0.1459041E+00
          2   -1    0    0  502    0  0.00000000000E+00  0.00000000000E+00  0.18532124591E+03  0.18532124591E+03  0.00000000000E+00 0. -1.
          1   -1    0    0  501    0 -0.00000000000E+00 -0.00000000000E+00 -0.12983317690E+04  0.12983317690E+04  0.00000000000E+00 0. -1.
         25    1    1    2    0    0 -0.75129998784E+02  0.45081241212E+02 -0.15233665673E+03  0.21565781231E+03  0.12500000000E+03 0.  0.
          2    1    1    2  501    0  0.42053085143E+02 -0.39089788860E+01 -0.11093828328E+04  0.11101864762E+04  0.00000000000E+00 0. -1.
          1    1    1    2  502    0  0.33076913641E+02 -0.41172262326E+02  0.14870896651E+03  0.15780872638E+03  0.00000000000E+00 0. -1.
<mgrwt>
<rscale>  0 0.47546751E+02</rscale>
<asrwt>0</asrwt>
<pdfrwt beam="1">  1        2 0.28510962E-01 0.53527339E+02</pdfrwt>
<pdfrwt beam="2">  1        1 0.19974334E+00 0.42234371E+02</pdfrwt>
<totfact> 0.27878478E+02</totfact>
</mgrwt>
</event>
<event>
 5    1  0.8274494E-003  0.7573048E+02  0.7546771E-02  0.1495164E+00
         -2   -1    0    0    0  501 -0.00000000000E+00  0.00000000000E+00  0.11230410470E+04  0.11230410470E+04  0.00000000000E+00 0.  1.
          2   -1    0    0  502    0  0.00000000000E+00 -0.00000000000E+00 -0.81023083923E+03  0.81023083923E+03  0.00000000000E+00 0. -1.
         25    1    1    2    0    0  0.55681087080E+02 -0.27638221731E+02  0.47682090575E+03  0.49683742906E+03  0.12500000000E+03 0.  0.
          1    1    1    2  502    0  0.60485587827E+01 -0.22298629216E+02 -0.79757738176E+03  0.79791195869E+03  0.00000000000E+00 0. -1.
         -3    1    1    2    0  501 -0.61729645863E+02  0.49936850948E+02  0.63356668380E+03  0.63852249849E+03  0.00000000000E+00 0.  1.
<mgrwt>
<rscale>  0 0.41829514E+02</rscale>
<asrwt>0</asrwt>
<pdfrwt beam="2">  1        2 0.12465090E+00 0.23104414E+02</pdfrwt>
<pdfrwt beam="1">  1       -2 0.17277555E+00 0.75730476E+02</pdfrwt>
<totfact> 0.91219725E+00</totfact>
</mgrwt>
</event>
<event>
 5    1  0.8274494E-003  0.4974311E+02  0.7546771E-02  0.1507155E+00
          2   -1    0    0  502    0  0.00000000000E+00  0.00000000000E+00  0.12823481625E+04  0.12823481625E+04  0.00000000000E+00 0. -1.
          1   -1    0    0  501    0 -0.00000000000E+00 -0.00000000000E+00 -0.33471270657E+02  0.33471270657E+02  0.00000000000E+00 0. -1.
         25    1    1    2    0    0  0.18049792018E+02 -0.79134832400E+02  0.78809262110E+03  0.80206177825E+03  0.12500000000E+03 0.  0.
          2    1    1    2  501    0 -0.12408257567E+02  0.47232557029E+02 -0.29205482487E+01  0.48922478488E+02  0.00000000000E+00 0. -1.
          1    1    1    2  502    0 -0.56415344511E+01  0.31902275371E+02  0.46370481902E+03  0.46483517645E+03  0.00000000000E+00 0. -1.
<mgrwt>
<rscale>  0 0.40143992E+02</rscale>
<asrwt>0</asrwt>
<pdfrwt beam="1">  1        2 0.19728429E+00 0.32397254E+02</pdfrwt>
<pdfrwt beam="2">  1        1 0.51494273E-02 0.49743107E+02</pdfrwt>
<totfact> 0.38762223E+03</totfact>
</mgrwt>
</event>
<event>
 5    1  0.8274494E-003  0.2419920E+03  0.7546771E-02  0.1307223E+00
          1   -1    0    0  501    0 -0.00000000000E+00  0.00000000000E+00  0.43598504532E+03  0.43598504532E+03  0.00000000000E+00 0. -1.
          2   -1    0    0  502    0  0.00000000000E+00 -0.00000000000E+00 -0.26290137634E+03  0.26290137634E+03  0.00000000000E+00 0. -1.
         25    1    1    2    0    0 -0.58731201913E+02 -0.24478758547E+03  0.18940960989E+03  0.33892671243E+03  0.12500000000E+03 0.  0.
          2    1    1    2  501    0  0.31434454776E+02  0.67951686027E+01  0.91700185958E+02  0.97176248991E+02  0.00000000000E+00 0. -1.
          1    1    1    2  502    0  0.27296747137E+02  0.23799241687E+03 -0.10802612687E+03  0.26278346025E+03  0.00000000000E+00 0. -1.
<mgrwt>
<rscale>  0 0.88218992E+02</rscale>
<asrwt>0</asrwt>
<pdfrwt beam="2">  1        2 0.40446366E-01 0.24199204E+03</pdfrwt>
<pdfrwt beam="1">  1        1 0.67074622E-01 0.32160523E+02</pdfrwt>
<totfact> 0.96027150E+02</totfact>
</mgrwt>
</event>
<event>
 5    1  0.8274494E-003  0.1177822E+03  0.7546771E-02  0.1397371E+00
          1   -1    0    0  501    0 -0.00000000000E+00  0.00000000000E+00  0.24648574278E+02  0.24648574278E+02  0.00000000000E+00 0. -1.
          2   -1    0    0  502    0  0.00000000000E+00 -0.00000000000E+00 -0.16769903633E+04  0.16769903633E+04  0.00000000000E+00 0. -1.
         25    1    1    2    0    0 -0.65247228857E+02  0.97336372828E+02 -0.45073070828E+03  0.48219782427E+03  0.12500000000E+03 0.  0.
          2    1    1    2  501    0 -0.23907301755E+02 -0.19222715712E+02 -0.33861788517E+02  0.45691274858E+02  0.00000000000E+00 0. -1.
          1    1    1    2  502    0  0.89154530612E+02 -0.78113657116E+02 -0.11677492922E+04  0.11737498384E+04  0.00000000000E+00 0. -1.
<mgrwt>
<rscale>  0 0.60109843E+02</rscale>
<asrwt>0</asrwt>
<pdfrwt beam="2">  1        2 0.25799853E+00 0.11778223E+03</pdfrwt>
<pdfrwt beam="1">  1        1 0.37920882E-02 0.30676895E+02</pdfrwt>
<totfact> 0.31055966E+03</totfact>
</mgrwt>
</event>
<event>
 5    1  0.8274494E-003  0.7610693E+02  0.7546771E-02  0.1416079E+00
          1   -1    0    0  501    0 -0.00000000000E+00  0.00000000000E+00  0.18341969378E+04  0.18341969378E+04  0.00000000000E+00 0. -1.
          2   -1    0    0  502    0  0.00000000000E+00 -0.00000000000E+00 -0.35523703168E+03  0.35523703168E+03  0.00000000000E+00 0. -1.
         25    1    1    2    0    0  0.23511710251E+02  0.11158442053E+03  0.10920681702E+03  0.20138275077E+03  0.12500000000E+03 0.  0.
          2    1    1    2  501    0 -0.18172749537E+02 -0.36750494190E+02  0.16740957804E+04  0.16745977218E+04  0.00000000000E+00 0. -1.
          1    1    1    2  502    0 -0.53389607137E+01 -0.74833926341E+02 -0.30434269129E+03  0.31345349699E+03  0.00000000000E+00 0. -1.
<mgrwt>
<rscale>  0 0.55859134E+02</rscale>
<asrwt>0</asrwt>
<pdfrwt beam="2">  1        2 0.54651852E-01 0.76106933E+02</pdfrwt>
<pdfrwt beam="1">  1        1 0.28218414E+00 0.40998142E+02</pdfrwt>
<totfact> 0.66908401E+01</totfact>
</mgrwt>
</event>
<event>
 5    1  0.8274494E-003  0.5419249E+02  0.7546771E-02  0.1464116E+00
         -2   -1    0    0    0  501 -0.00000000000E+00  0.00000000000E+00  0.57408241126E+03  0.57408241126E+03  0.00000000000E+00 0.  1.
          2   -1    0    0  502    0  0.00000000000E+00 -0.00000000000E+00 -0.19002591492E+04  0.19002591492E+04  0.00000000000E+00 0. -1.
         25    1    1    2    0    0  0.14938636066E+02 -0.21293584834E+02  0.12017589560E+03  0.17533917271E+03  0.12500000000E+03 0.  0.
          1    1    1    2  502    0 -0.19782212141E+02 -0.35006739287E+02 -0.18705879955E+04  0.18710201112E+04  0.00000000000E+00 0. -1.
         -1    1    1    2    0  501  0.48435760749E+01  0.56300324121E+02  0.42423536193E+03  0.42798227655E+03  0.00000000000E+00 0.  1.
<mgrwt>
<rscale>  0 0.46680356E+02</rscale>
<asrwt>0</asrwt>
<pdfrwt beam="2">  1        2 0.29234756E+00 0.40209548E+02</pdfrwt>
<pdfrwt beam="1">  1       -2 0.88320371E-01 0.54192494E+02</pdfrwt>
<totfact> 0.12299068E+01</totfact>
</mgrwt>
</event>
<event>
 5    1  0.8274494E-003  0.9471717E+02  0.7546771E-02  0.1307153E+00
         -1   -1    0    0    0  501 -0.00000000000E+00  0.00000000000E+00  0.18578142392E+03  0.18578142392E+03  0.00000000000E+00 0.  1.
          1   -1    0    0  502    0  0.00000000000E+00 -0.00000000000E+00 -0.18884915997E+04  0.18884915997E+04  0.00000000000E+00 0. -1.
         25    1    1    2    0    0 -0.34516385297E+01  0.12985505352E+03 -0.65541186024E+03  0.67975286338E+03  0.12500000000E+03 0.  0.
          2    1    1    2  502    0 -0.58175080242E+02 -0.58100302801E+02 -0.12065223643E+04  0.12093205533E+04  0.00000000000E+00 0. -1.
         -2    1    1    2    0  501  0.61626718772E+02 -0.71754750719E+02  0.15922404873E+03  0.18519960694E+03  0.00000000000E+00 0.  1.
<mgrwt>
<rscale>  0 0.88247170E+02</rscale>
<asrwt>0</asrwt>
<pdfrwt beam="2">  1        1 0.29053716E+00 0.82219129E+02</pdfrwt>
<pdfrwt beam="1">  1       -1 0.28581759E-01 0.94717168E+02</pdfrwt>
<totfact> 0.50285756E+01</totfact>
</mgrwt>
</event>
<event>
 5    1  0.8274494E-003  0.9687667E+02  0.7546771E-02  0.1320335E+00
          1   -1    0    0  502    0  0.00000000000E+00  0.00000000000E+00  0.38480330855E+03  0.38480330855E+03  0.00000000000E+00 0. -1.
         -1   -1    0    0    0  501 -0.00000000000E+00 -0.00000000000E+00 -0.18342791656E+03  0.18342791656E+03  0.00000000000E+00 0.  1.
         25    1    1    2    0    0  0.11232559834E+03 -0.60078375862E+02  0.25249783565E+03  0.30920318287E+03  0.12500000000E+03 0.  0.
          2    1    1    2  502    0 -0.83239971453E+02 -0.50993137430E+01  0.76264161386E+02  0.11300937200E+03  0.00000000000E+00 0. -1.
         -2    1    1    2    0  501 -0.29085626890E+02  0.65177689605E+02 -0.12738660505E+03  0.14601867024E+03  0.00000000000E+00 0.  1.
<mgrwt>
<rscale>  0 0.83152742E+02</rscale>
<asrwt>0</asrwt>
<pdfrwt beam="1">  1        1 0.59200509E-01 0.96876671E+02</pdfrwt>
<pdfrwt beam="2">  1       -1 0.28219680E-01 0.71372998E+02</pdfrwt>
<totfact> 0.71737527E+02</totfact>
</mgrwt>
</event>
<event>
 5    1  0.8274494E-003  0.2263604E+03  0.7546771E-02  0.1343096E+00
         -3   -1    0    0    0  501 -0.00000000000E+00  0.00000000000E+00  0.13515388399E+04  0.13515388399E+04  0.00000000000E+00 0.  1.
          1   -1    0    0  502    0  0.00000000000E+00 -0.00000000000E+00 -0.23966095248E+04  0.23966095248E+04  0.00000000000E+00 0. -1.
         25    1    1    2    0    0 -0.14914809804E+02  0.21625843752E+03 -0.16837672092E+02  0.25079607363E+03  0.12500000000E+03 0.  0.
          2    1    1    2  502    0 -0.77967775965E+01 -0.22674617566E+03 -0.22569779508E+04  0.22683527257E+04  0.00000000000E+00 0. -1.
         -2    1    1    2    0  501  0.22711587400E+02  0.10487738140E+02  0.12287449380E+04  0.12289995653E+04  0.00000000000E+00 0.  1.
<mgrwt>
<rscale>  0 0.75250718E+02</rscale>
<asrwt>0</asrwt>
<pdfrwt beam="2">  1        1 0.36870916E+00 0.22636039E+03</pdfrwt>
<pdfrwt beam="1">  1       -3 0.20792905E+00 0.25016172E+02</pdfrwt>
<totfact> 0.15844897E-01</totfact>
</mgrwt>
</event>
<event>
 5    1  0.8274494E-003  0.5104639E+02  0.7546771E-02  0.1541107E+00
         -2   -1    0    0    0  501 -0.00000000000E+00  0.00000000000E+00  0.15159166623E+02  0.15159166623E+02  0.00000000000E+00 0.  1.
          2   -1    0    0  502    0  0.00000000000E+00 -0.00000000000E+00 -0.85210195204E+03  0.85210195204E+03  0.00000000000E+00 0. -1.
         25    1    1    2    0    0  0.26442883409E+02  0.17228515537E+02 -0.56903084019E+03  0.58345277865E+03  0.12500000000E+03 0.  0.
          1    1    1    2  502    0  0.11322539074E+02  0.22501269281E+02 -0.16772798132E+03  0.16960891111E+03  0.00000000000E+00 0. -1.
         -1    1    1    2    0  501 -0.37765422483E+02 -0.39729784818E+02 -0.10018396392E+03  0.11419942891E+03  0.00000000000E+00 0.  1.
<mgrwt>
<rscale>  0 0.35858458E+02</rscale>
<asrwt>0</asrwt>
<pdfrwt beam="2">  1        2 0.13109261E+00 0.25189423E+02</pdfrwt>
<pdfrwt beam="1">  1       -2 0.23321794E-02 0.51046386E+02</pdfrwt>
<totfact> 0.18058916E+04</totfact>
</mgrwt>
</event>
<event>
 5    1  0.8274494E-003  0.1019549E+03  0.7546771E-02  0.1351575E+00
          1   -1    0    0  501    0 -0.00000000000E+00  0.00000000000E+00  0.68381752248E+03  0.68381752248E+03  0.00000000000E+00 0. -1.
          2   -1    0    0  502    0  0.00000000000E+00 -0.00000000000E+00 -0.37251081744E+04  0.37251081744E+04  0.00000000000E+00 0. -1.
         25    1    1    2    0    0 -0.34391779628E+02  0.14621429709E+03  0.21712916926E+02  0.19661603683E+03  0.12500000000E+03 0.  0.
          2    1    1    2  501    0 -0.27156386258E+01 -0.51578606956E+02  0.57278066788E+03  0.57510470428E+03  0.00000000000E+00 0. -1.
          1    1    1    2  502    0  0.37107418254E+02 -0.94635690131E+02 -0.36357842367E+04  0.36372049557E+04  0.00000000000E+00 0. -1.
<mgrwt>
<rscale>  0 0.72567035E+02</rscale>
<asrwt>0</asrwt>
<pdfrwt beam="2">  1        2 0.57309355E+00 0.10195488E+03</pdfrwt>
<pdfrwt beam="1">  1        1 0.10520270E+00 0.51650047E+02</pdfrwt>
<totfact> 0.36760287E+00</totfact>
</mgrwt>
</event>
<event>
 5    1  0.8274494E-003  0.2794147E+02  0.7546771E-02  0.1631166E+00
         -1   -1    0    0    0  502 -0.00000000000E+00  0.00000000000E+00  0.15485066079E+03  0.15485066079E+03  0.00000000000E+00 0.  1.
         -2   -1    0    0    0  501  0.00000000000E+00 -0.00000000000E+00 -0.95564588398E+02  0.95564588398E+02  0.00000000000E+00 0.  1.
         25    1    1    2    0    0  0.10856285550E+02 -0.28001635890E+02 -0.39354791625E+02  0.13444608649E+03  0.12500000000E+03 0.  0.
         -2    1    1    2    0  502 -0.30316983550E+02  0.10022160432E+02  0.70079782643E+02  0.77011292202E+02  0.00000000000E+00 0.  1.
         -1    1    1    2    0  501  0.19460698000E+02  0.17979475458E+02  0.28561081373E+02  0.38957870496E+02  0.00000000000E+00 0.  1.
<mgrwt>
<rscale>  0 0.27208580E+02</rscale>
<asrwt>0</asrwt>
<pdfrwt beam="2">  1       -2 0.14702244E-01 0.27941473E+02</pdfrwt>
<pdfrwt beam="1">  1       -1 0.23823179E-01 0.26494911E+02</pdfrwt>
<totfact> 0.32174169E+03</totfact>
</mgrwt>
</event>
<event>
 5    1  0.8274494E-003  0.4014657E+02  0.7546771E-02  0.1548936E+00
         -2   -1    0    0    0  501 -0.00000000000E+00  0.00000000000E+00  0.28521589852E+02  0.28521589852E+02  0.00000000000E+00 0.  1.
          2   -1    0    0  502    0  0.00000000000E+00 -0.00000000000E+00 -0.12954019383E+04  0.12954019383E+04  0.00000000000E+00 0. -1.
         25    1    1    2    0    0 -0.49780257165E+02  0.43014849710E+02 -0.72867845256E+03  0.74224365172E+03  0.12500000000E+03 0.  0.
          1    1    1    2  502    0  0.21849144412E+02 -0.30894835248E+02 -0.54829805362E+03  0.54960224850E+03  0.00000000000E+00 0. -1.
         -1    1    1    2    0  501  0.27931112753E+02 -0.12120014462E+02  0.10096157758E+02  0.32077627899E+02  0.00000000000E+00 0.  1.
<mgrwt>
<rscale>  0 0.34962223E+02</rscale>
<asrwt>0</asrwt>
<pdfrwt beam="2">  1        2 0.19929259E+00 0.40146566E+02</pdfrwt>
<pdfrwt beam="1">  1       -2 0.43879371E-02 0.30447361E+02</pdfrwt>
<totfact> 0.38254809E+03</totfact>
</mgrwt>
</event>
<event>
 5    1  0.8274494E-003  0.3279796E+02  0.7546771E-02  0.1619757E+00
          2   -1    0    0  502    0  0.00000000000E+00  0.00000000000E+00  0.15951103243E+03  0.15951103243E+03  0.00000000000E+00 0. -1.
          1   -1    0    0  501    0 -0.00000000000E+00 -0.00000000000E+00 -0.83466193889E+03  0.83466193889E+03  0.00000000000E+00 0. -1.
         25    1    1    2    0    0  0.26883697463E+01  0.85802569827E+01 -0.98170089337E+02  0.15919552312E+03  0.12500000000E+03 0.  0.
          2    1    1    2  501    0 -0.11320153338E+02 -0.31105455236E+02 -0.70445938391E+03  0.70523664029E+03  0.00000000000E+00 0. -1.
          1    1    1    2  502    0  0.86317835913E+01  0.22525198253E+02  0.12747856680E+03  0.12974080791E+03  0.00000000000E+00 0. -1.
<mgrwt>
<rscale>  0 0.28127688E+02</rscale>
<asrwt>0</asrwt>
<pdfrwt beam="1">  1        2 0.24540159E-01 0.24122443E+02</pdfrwt>
<pdfrwt beam="2">  1        1 0.12840953E+00 0.32797957E+02</pdfrwt>
<totfact> 0.66477578E+02</totfact>
</mgrwt>
</event>
<event>
 5    1  0.8518547E-003  0.5852037E+02  0.7546771E-02  0.1425411E+00
          2   -1    0    0  502    0  0.00000000000E+00  0.00000000000E+00  0.10757385737E+04  0.10757385737E+04  0.00000000000E+00 0. -1.
         -2   -1    0    0    0  501 -0.00000000000E+00 -0.00000000000E+00 -0.69599165851E+03  0.69599165851E+03  0.00000000000E+00 0.  1.
         25    1    1    2    0    0 -0.43482166013E+02  0.67855213679E+02 -0.22883853729E+03  0.27292325832E+03  0.12500000000E+03 0.  0.
          1    1    1    2  502    0  0.48581495392E+02 -0.10149059646E+02  0.10512233453E+04  0.10523942640E+04  0.00000000000E+00 0. -1.
         -3    1    1    2    0  501 -0.50993293795E+01 -0.57706154032E+02 -0.44263789285E+03  0.44641270990E+03  0.00000000000E+00 0.  1.
<mgrwt>
<rscale>  0 0.53892323E+02</rscale>
<asrwt>0</asrwt>
<pdfrwt beam="1">  1        2 0.16549824E+00 0.49630284E+02</pdfrwt>
<pdfrwt beam="2">  1       -2 0.10707564E+00 0.58520369E+02</pdfrwt>
<totfact> 0.20190319E+01</totfact>
</mgrwt>
</event>
<event>
 5    1  0.8274494E-003  0.9401276E+02  0.7546771E-02  0.1335739E+00
         -2   -1    0    0    0  501 -0.00000000000E+00  0.00000000000E+00  0.59784132544E+02  0.59784132544E+02  0.00000000000E+00 0.  1.
          2   -1    0    0  502    0  0.00000000000E+00 -0.00000000000E+00 -0.90197486915E+03  0.90197486915E+03  0.00000000000E+00 0. -1.
         25    1    1    2    0    0  0.10363434723E+03  0.32665240188E+02 -0.29362954878E+03  0.33712076139E+03  0.12500000000E+03 0.  0.
          1    1    1    2  502    0 -0.47403942353E+02  0.43296008373E+02 -0.52273676760E+03  0.52666441525E+03  0.00000000000E+00 0. -1.
         -1    1    1    2    0  501 -0.56230404880E+02 -0.75961248562E+02 -0.25824420230E+02  0.97973825057E+02  0.00000000000E+00 0.  1.
<mgrwt>
<rscale>  0 0.77689427E+02</rscale>
<asrwt>0</asrwt>
<pdfrwt beam="2">  1        2 0.13876536E+00 0.64200297E+02</pdfrwt>
<pdfrwt beam="1">  1       -2 0.91975592E-02 0.94012761E+02</pdfrwt>
<totfact> 0.22893251E+03</totfact>
</mgrwt>
</event>
<event>
 5    1  0.8274494E-003  0.4715120E+02  0.7546771E-02  0.1473519E+00
          2   -1    0    0  502    0  0.00000000000E+00  0.00000000000E+00  0.13079435535E+04  0.13079435535E+04  0.00000000000E+00 0. -1.
          1   -1    0    0  501    0 -0.00000000000E+00 -0.00000000000E+00 -0.87589600898E+03  0.87589600898E+03  0.00000000000E+00 0. -1.
         25    1    1    2    0    0  0.18610381070E+02 -0.45272178760E+02  0.28322444054E+03  0.31342782290E+03  0.12500000000E+03 0.  0.
          2    1    1    2  501    0  0.24318078939E+02  0.40441705206E+02 -0.85968481408E+03  0.86097902416E+03  0.00000000000E+00 0. -1.
          1    1    1    2  502    0 -0.42928460009E+02  0.48304735535E+01  0.10085079181E+04  0.10094327154E+04  0.00000000000E+00 0. -1.
<mgrwt>
<rscale>  0 0.45132057E+02</rscale>
<asrwt>0</asrwt>
<pdfrwt beam="1">  1        2 0.20122209E+00 0.43199377E+02</pdfrwt>
<pdfrwt beam="2">  1        1 0.13475323E+00 0.47151202E+02</pdfrwt>
<totfact> 0.59752767E+01</totfact>
</mgrwt>
</event>
<event>
 5    1  0.8274494E-003  0.8803051E+02  0.7546771E-02  0.1369870E+00
          2   -1    0    0  502    0  0.00000000000E+00  0.00000000000E+00  0.25625299540E+04  0.25625299540E+04  0.00000000000E+00 0. -1.
          1   -1    0    0  501    0 -0.00000000000E+00 -0.00000000000E+00 -0.15983260658E+02  0.15983260658E+02  0.00000000000E+00 0. -1.
         25    1    1    2    0    0  0.12778256606E+03  0.89344244433E+01  0.86522656351E+03  0.88354412133E+03  0.12500000000E+03 0.  0.
          2    1    1    2  501    0 -0.77342688374E+02  0.43939514093E+00  0.22833937696E+03  0.24108288115E+03  0.00000000000E+00 0. -1.
          1    1    1    2  502    0 -0.50439877681E+02 -0.93738195842E+01  0.14529807529E+04  0.14538862122E+04  0.00000000000E+00 0. -1.
<mgrwt>
<rscale>  0 0.67203228E+02</rscale>
<asrwt>0</asrwt>
<pdfrwt beam="1">  1        2 0.39423505E+00 0.51303506E+02</pdfrwt>
<pdfrwt beam="2">  1        1 0.24589652E-02 0.88030510E+02</pdfrwt>
<totfact> 0.25124913E+03</totfact>
</mgrwt>
</event>
<event>
 5    1  0.8274494E-003  0.1213296E+03  0.7546771E-02  0.1405533E+00
         -1   -1    0    0    0  501 -0.00000000000E+00  0.00000000000E+00  0.51036138111E+02  0.51036138111E+02  0.00000000000E+00 0.  1.
          1   -1    0    0  502    0  0.00000000000E+00 -0.00000000000E+00 -0.31886132031E+04  0.31886132031E+04  0.00000000000E+00 0. -1.
         25    1    1    2    0    0  0.43654281860E+00  0.10703835821E+03 -0.94619943851E+03  0.96040396612E+03  0.12500000000E+03 0.  0.
          2    1    1    2  502    0 -0.23314305599E+02 -0.12304302349E+03 -0.22289331056E+04  0.22324484164E+04  0.00000000000E+00 0. -1.
         -2    1    1    2    0  501  0.22877762781E+02  0.16004665278E+02  0.37555479086E+02  0.46796958767E+02  0.00000000000E+00 0.  1.
<mgrwt>
<rscale>  0 0.58202693E+02</rscale>
<asrwt>0</asrwt>
<pdfrwt beam="2">  1        1 0.49055596E+00 0.12132955E+03</pdfrwt>
<pdfrwt beam="1">  1       -1 0.78517122E-02 0.27920268E+02</pdfrwt>
<totfact> 0.44999720E+01</totfact>
</mgrwt>
</event>
<event>
 5    1  0.8274494E-003  0.1325843E+03  0.7546771E-02  0.1288655E+00
         -1   -1    0    0    0  501 -0.00000000000E+00  0.00000000000E+00  0.81288372125E+03  0.81288372125E+03  0.00000000000E+00 0.  1.
          1   -1    0    0  502    0  0.00000000000E+00 -0.00000000000E+00 -0.96648388021E+03  0.96648388021E+03  0.00000000000E+00 0. -1.
         25    1    1    2    0    0 -0.11437301180E+03 -0.78337441060E+02 -0.21758714415E+03  0.28668293601E+03  0.12500000000E+03 0.  0.
          2    1    1    2  502    0  0.58976236703E+02  0.12063128200E+03 -0.70645191283E+03  0.71909972037E+03  0.00000000000E+00 0. -1.
         -2    1    1    2    0  501  0.55396775096E+02 -0.42293840941E+02  0.77043889802E+03  0.77358494508E+03  0.00000000000E+00 0.  1.
<mgrwt>
<rscale>  0 0.96128203E+02</rscale>
<asrwt>0</asrwt>
<pdfrwt beam="2">  1        1 0.14868983E+00 0.13258428E+03</pdfrwt>
<pdfrwt beam="1">  1       -1 0.12505903E+00 0.69696282E+02</pdfrwt>
<totfact> 0.11611687E+01</totfact>
</mgrwt>
</event>
<event>
 5    1  0.8274494E-003  0.8318829E+02  0.7546771E-02  0.1420610E+00
         -1   -1    0    0    0  501 -0.00000000000E+00  0.00000000000E+00  0.68935092024E+03  0.68935092024E+03  0.00000000000E+00 0.  1.
          1   -1    0    0  502    0  0.00000000000E+00 -0.00000000000E+00 -0.11963146284E+04  0.11963146284E+04  0.00000000000E+00 0. -1.
         25    1    1    2    0    0 -0.39232967089E+02 -0.50445313220E+02 -0.20154201356E+03  0.24561787102E+03  0.12500000000E+03 0.  0.
          2    1    1    2  502    0 -0.34445191243E+02  0.11201114428E+02 -0.96978459184E+03  0.97046076208E+03  0.00000000000E+00 0. -1.
         -2    1    1    2    0  501  0.73678158332E+02  0.39244198792E+02  0.66436289728E+03  0.66958691552E+03  0.00000000000E+00 0.  1.
<mgrwt>
<rscale>  0 0.54892029E+02</rscale>
<asrwt>0</asrwt>
<pdfrwt beam="2">  1        1 0.18404840E+00 0.36220659E+02</pdfrwt>
<pdfrwt beam="1">  1       -1 0.10605399E+00 0.83188294E+02</pdfrwt>
<totfact> 0.12772016E+01</totfact>
</mgrwt>
</event>
<event>
 5    1  0.8274494E-003  0.4257520E+02  0.7546771E-02  0.1534066E+00
          2   -1    0    0  502    0  0.00000000000E+00  0.00000000000E+00  0.21693672858E+04  0.21693672858E+04  0.00000000000E+00 0. -1.
         -2   -1    0    0    0  501 -0.00000000000E+00 -0.00000000000E+00 -0.68138128927E+01  0.68138128927E+01  0.00000000000E+00 0.  1.
         25    1    1    2    0    0  0.51815618006E+01 -0.33309607619E+02  0.16490367649E+04  0.16541111301E+04  0.12500000000E+03 0.  0.
          1    1    1    2  502    0  0.24311060796E+02  0.44718062910E+02  0.42572199688E+03  0.42875395212E+03  0.00000000000E+00 0. -1.
         -1    1    1    2    0  501 -0.29492622597E+02 -0.11408455291E+02  0.87794711130E+02  0.93316016536E+02  0.00000000000E+00 0.  1.
<mgrwt>
<rscale>  0 0.36692291E+02</rscale>
<asrwt>0</asrwt>
<pdfrwt beam="1">  1        2 0.33374826E+00 0.42575199E+02</pdfrwt>
<pdfrwt beam="2">  1       -2 0.10482806E-02 0.31622265E+02</pdfrwt>
<totfact> 0.10557620E+04</totfact>
</mgrwt>
</event>
<event>
 5    1  0.8274494E-003  0.5856279E+02  0.7546771E-02  0.1418294E+00
         -1   -1    0    0    0  502 -0.00000000000E+00  0.00000000000E+00  0.19183649805E+04  0.19183649805E+04  0.00000000000E+00 0.  1.
         -2   -1    0    0    0  501  0.00000000000E+00 -0.00000000000E+00 -0.73009539705E+02  0.73009539705E+02  0.00000000000E+00 0.  1.
         25    1    1    2    0    0  0.55211890547E+02  0.83310520106E+02  0.69002765335E+03  0.70834466046E+03  0.12500000000E+03 0.  0.
         -2    1    1    2    0  502 -0.46264141063E+02 -0.31703766768E+02  0.12076763310E+04  0.12089779238E+04  0.00000000000E+00 0.  1.
         -1    1    1    2    0  501 -0.89477494840E+01 -0.51606753338E+02 -0.52348543579E+02  0.74051936003E+02  0.00000000000E+00 0.  1.
<mgrwt>
<rscale>  0 0.55383444E+02</rscale>
<asrwt>0</asrwt>
<pdfrwt beam="2">  1       -2 0.11232238E-01 0.52376705E+02</pdfrwt>
<pdfrwt beam="1">  1       -1 0.29513304E+00 0.58562789E+02</pdfrwt>
<totfact> 0.18482079E+01</totfact>
</mgrwt>
</event>
<event>
 5    1  0.8274494E-003  0.1857014E+03  0.7546771E-02  0.1274801E+00
          1   -1    0    0  502    0  0.00000000000E+00  0.00000000000E+00  0.15528300124E+04  0.15528300124E+04  0.00000000000E+00 0. -1.
         -3   -1    0    0    0  501 -0.00000000000E+00 -0.00000000000E+00 -0.16695190302E+03  0.16695190302E+03  0.00000000000E+00 0.  1.
         25    1    1    2    0    0 -0.17065031330E+03 -0.11683519391E+03  0.31900445543E+03  0.40020099269E+03  0.12500000000E+03 0.  0.
          2    1    1    2  502    0  0.52117351698E+02 -0.22462948250E+02  0.11259448084E+04  0.11273741677E+04  0.00000000000E+00 0. -1.
         -2    1    1    2    0  501  0.11853296160E+03  0.13929814216E+03 -0.59071154466E+02  0.19220675504E+03  0.00000000000E+00 0.  1.
<mgrwt>
<rscale>  0 0.10265936E+03</rscale>
<asrwt>0</asrwt>
<pdfrwt beam="1">  1        1 0.23889692E+00 0.56752114E+02</pdfrwt>
<pdfrwt beam="2">  1       -3 0.25684909E-01 0.18570135E+03</pdfrwt>
<totfact> 0.59539521E+01</totfact>
</mgrwt>
</event>
<event>
 5    1  0.8274494E-003  0.6420679E+02  0.7546771E-02  0.1488461E+00
         -2   -1    0    0    0  501  0.00000000000E+00  0.00000000000E+00  0.80257844423E+03  0.80257844423E+03  0.00000000000E+00 0.  1.
         -1   -1    0    0    0  502 -0.00000000000E+00 -0.00000000000E+00 -0.73025025936E+02  0.73025025936E+02  0.00000000000E+00 0.  1.
         25    1    1    2    0    0  0.20146982517E+02  0.70577966996E+02  0.91308209660E+02  0.17131648923E+03  0.12500000000E+03 0.  0.
         -2    1    1    2    0  502 -0.39284290001E+02 -0.49390889868E+02 -0.22566741283E+01  0.63149093587E+02  0.00000000000E+00 0.  1.
         -1    1    1    2    0  501  0.19137307483E+02 -0.21187077128E+02  0.64050188276E+03  0.64113788735E+03  0.00000000000E+00 0.  1.
<mgrwt>
<rscale>  0 0.42815108E+02</rscale>
<asrwt>0</asrwt>
<pdfrwt beam="1">  1       -2 0.12347360E+00 0.28550460E+02</pdfrwt>
<pdfrwt beam="2">  1       -1 0.11234620E-01 0.64206792E+02</pdfrwt>
<totfact> 0.19459279E+02</totfact>
</mgrwt>
</event>
<event>
 5    1  0.8274494E-003  0.1572219E+03  0.7546771E-02  0.1213504E+00
          1   -1    0    0  501    0 -0.00000000000E+00  0.00000000000E+00  0.41639185167E+03  0.41639185167E+03  0.00000000000E+00 0. -1.
          2   -1    0    0  502    0  0.00000000000E+00 -0.00000000000E+00 -0.47349050779E+03  0.47349050779E+03  0.00000000000E+00 0. -1.
         25    1    1    2    0    0  0.53270693608E+02 -0.57594833793E+01  0.14691392529E+03  0.20019900072E+03  0.12500000000E+03 0.  0.
          2    1    1    2  501    0  0.99629944279E+02  0.74548035963E+02  0.20939154894E+03  0.24357412882E+03  0.00000000000E+00 0. -1.
          1    1    1    2  502    0 -0.15290063789E+03 -0.68788552584E+02 -0.41340413035E+03  0.44610922992E+03  0.00000000000E+00 0. -1.
<mgrwt>
<rscale>  0 0.13986982E+03</rscale>
<asrwt>0</asrwt>
<pdfrwt beam="2">  1        2 0.72844694E-01 0.15722188E+03</pdfrwt>
<pdfrwt beam="1">  1        1 0.64060285E-01 0.12443286E+03</pdfrwt>
<totfact> 0.52913845E+02</totfact>
</mgrwt>
</event>
<event>
 5    1  0.8274494E-003  0.1263386E+03  0.7546771E-02  0.1349394E+00
          2   -1    0    0  502    0  0.00000000000E+00  0.00000000000E+00  0.77583134296E+03  0.77583134296E+03  0.00000000000E+00 0. -1.
          1   -1    0    0  501    0 -0.00000000000E+00 -0.00000000000E+00 -0.10822398770E+04  0.10822398770E+04  0.00000000000E+00 0. -1.
         25    1    1    2    0    0  0.97014772985E+02 -0.35591905066E+01  0.16122810388E+03  0.22592927100E+03  0.12500000000E+03 0.  0.
          2    1    1    2  501    0  0.35049189191E+02  0.23973173874E+02 -0.10417835927E+04  0.10426486526E+04  0.00000000000E+00 0. -1.
          1    1    1    2  502    0 -0.13206396218E+03 -0.20413983368E+02  0.57414695476E+03  0.58949329639E+03  0.00000000000E+00 0. -1.
<mgrwt>
<rscale>  0 0.73244762E+02</rscale>
<asrwt>0</asrwt>
<pdfrwt beam="1">  1        2 0.11935867E+00 0.12633863E+03</pdfrwt>
<pdfrwt beam="2">  1        1 0.16649844E+00 0.42463617E+02</pdfrwt>
<totfact> 0.82402323E+01</totfact>
</mgrwt>
</event>
<event>
 5    1  0.8274494E-003  0.5228093E+02  0.7546771E-02  0.1570023E+00
          1   -1    0    0  502    0  0.00000000000E+00  0.00000000000E+00  0.37780526612E+03  0.37780526612E+03  0.00000000000E+00 0. -1.
         -1   -1    0    0    0  501 -0.00000000000E+00 -0.00000000000E+00 -0.82807271008E+03  0.82807271008E+03  0.00000000000E+00 0.  1.
         25    1    1    2    0    0  0.90373915888E+01 -0.33297071047E+02 -0.52130417569E+02  0.13976032993E+03  0.12500000000E+03 0.  0.
          2    1    1    2  502    0 -0.24570873008E+02  0.46603254112E+02  0.33176856114E+03  0.33592554123E+03  0.00000000000E+00 0. -1.
         -2    1    1    2    0  501  0.15533481419E+02 -0.13306183065E+02 -0.72990558753E+03  0.73019210504E+03  0.00000000000E+00 0.  1.
<mgrwt>
<rscale>  0 0.32700540E+02</rscale>
<asrwt>0</asrwt>
<pdfrwt beam="1">  1        1 0.58123888E-01 0.52280931E+02</pdfrwt>
<pdfrwt beam="2">  1       -1 0.12739580E+00 0.20453448E+02</pdfrwt>
<totfact> 0.44443594E+01</totfact>
</mgrwt>
</event>
<event>
 5    1  0.8274494E-003  0.1193580E+03  0.7546771E-02  0.1309934E+00
         -2   -1    0    0    0  501 -0.00000000000E+00  0.00000000000E+00  0.26591689338E+02  0.26591689338E+02  0.00000000000E+00 0.  1.
          2   -1    0    0  502    0  0.00000000000E+00 -0.00000000000E+00 -0.22204326696E+04  0.22204326696E+04  0.00000000000E+00 0. -1.
         25    1    1    2    0    0 -0.15258258510E+03  0.36059054539E+02 -0.16385034870E+04  0.16507272269E+04  0.12500000000E+03 0.  0.
          1    1    1    2  502    0  0.89846543531E+02 -0.25516438715E+02 -0.50924276788E+03  0.51773708257E+03  0.00000000000E+00 0. -1.
         -1    1    1    2    0  501  0.62736041571E+02 -0.10542615825E+02 -0.46094725297E+02  0.78560049392E+02  0.00000000000E+00 0.  1.
<mgrwt>
<rscale>  0 0.87138071E+02</rscale>
<asrwt>0</asrwt>
<pdfrwt beam="2">  1        2 0.34160508E+00 0.11935800E+03</pdfrwt>
<pdfrwt beam="1">  1       -2 0.40910284E-02 0.63615703E+02</pdfrwt>
<totfact> 0.14381436E+03</totfact>
</mgrwt>
</event>
<event>
 5    1  0.8274494E-003  0.1081078E+03  0.7546771E-02  0.1321527E+00
          1   -1    0    0  501    0 -0.00000000000E+00  0.00000000000E+00  0.13829514980E+04  0.13829514980E+04  0.00000000000E+00 0. -1.
          2   -1    0    0  502    0  0.00000000000E+00 -0.00000000000E+00 -0.33099245887E+04  0.33099245887E+04  0.00000000000E+00 0. -1.
         25    1    1    2    0    0 -0.14142054944E+03  0.87297534381E+02 -0.15387926288E+04  0.15527808557E+04  0.12500000000E+03 0.  0.
          2    1    1    2  501    0  0.79822705886E+02 -0.72796004917E+02  0.13732678164E+04  0.13775105874E+04  0.00000000000E+00 0. -1.
          1    1    1    2  502    0  0.61597843550E+02 -0.14501529463E+02 -0.17614482783E+04  0.17625846436E+04  0.00000000000E+00 0. -1.
<mgrwt>
<rscale>  0 0.82711907E+02</rscale>
<asrwt>0</asrwt>
<pdfrwt beam="2">  1        2 0.50921916E+00 0.63281820E+02</pdfrwt>
<pdfrwt beam="1">  1        1 0.21276177E+00 0.10810782E+03</pdfrwt>
<totfact> 0.22139091E+00</totfact>
</mgrwt>
</event>
<event>
 5    1  0.8274494E-003  0.1385729E+03  0.7546771E-02  0.1427889E+00
          2   -1    0    0  502    0  0.00000000000E+00  0.00000000000E+00  0.22657594950E+03  0.22657594950E+03  0.00000000000E+00 0. -1.
          1   -1    0    0  501    0 -0.00000000000E+00 -0.00000000000E+00 -0.56361786311E+03  0.56361786311E+03  0.00000000000E+00 0. -1.
         25    1    1    2    0    0  0.11655749560E+03 -0.60614482353E+02 -0.48862304746E+03  0.52118830355E+03  0.12500000000E+03 0.  0.
          2    1    1    2  501    0 -0.35517356323E+01 -0.20258283651E+02 -0.32439438445E+02  0.38410025372E+02  0.00000000000E+00 0. -1.
          1    1    1    2  502    0 -0.11300575997E+03  0.80872766004E+02  0.18402057229E+03  0.23059548368E+03  0.00000000000E+00 0. -1.
<mgrwt>
<rscale>  0 0.53386025E+02</rscale>
<asrwt>0</asrwt>
<pdfrwt beam="1">  1        2 0.34857839E-01 0.13857292E+03</pdfrwt>
<pdfrwt beam="2">  1        1 0.86710439E-01 0.20567277E+02</pdfrwt>
<totfact> 0.82819295E+02</totfact>
</mgrwt>
</event>
<event>
 5    1  0.8274494E-003  0.1599807E+03  0.7546771E-02  0.1204075E+00
          2   -1    0    0  502    0  0.00000000000E+00  0.00000000000E+00  0.60414694913E+03  0.60414694913E+03  0.00000000000E+00 0. -1.
          1   -1    0    0  501    0 -0.00000000000E+00 -0.00000000000E+00 -0.22335887083E+03  0.22335887083E+03  0.00000000000E+00 0. -1.
         25    1    1    2    0    0  0.15993877315E+03 -0.21306364794E+03  0.16429722257E+03  0.33703873156E+03  0.12500000000E+03 0.  0.
          2    1    1    2  501    0 -0.11540702471E+03  0.85337175528E+02 -0.80184050370E+02  0.16441014814E+03  0.00000000000E+00 0. -1.
          1    1    1    2  502    0 -0.44531748444E+02  0.12772647241E+03  0.29667490610E+03  0.32605694025E+03  0.00000000000E+00 0. -1.
<mgrwt>
<rscale>  0 0.14710572E+03</rscale>
<asrwt>0</asrwt>
<pdfrwt beam="1">  1        2 0.92945684E-01 0.13526688E+03</pdfrwt>
<pdfrwt beam="2">  1        1 0.34362903E-01 0.15998073E+03</pdfrwt>
<totfact> 0.87731402E+02</totfact>
</mgrwt>
</event>
<event>
 5    1  0.8274494E-003  0.1111028E+03  0.7546771E-02  0.1370009E+00
          2   -1    0    0  502    0  0.00000000000E+00  0.00000000000E+00  0.23480817594E+03  0.23480817594E+03  0.00000000000E+00 0. -1.
          1   -1    0    0  501    0 -0.00000000000E+00 -0.00000000000E+00 -0.63428765021E+03  0.63428765021E+03  0.00000000000E+00 0. -1.
         25    1    1    2    0    0 -0.12717827430E+03  0.78571319073E+02  0.86474882063E+02  0.21319162944E+03  0.12500000000E+03 0.  0.
          2    1    1    2  501    0  0.89427959292E+02 -0.63621120683E+02 -0.56043239714E+03  0.57107747169E+03  0.00000000000E+00 0. -1.
          1    1    1    2  502    0  0.37750315008E+02 -0.14950198391E+02  0.74478040809E+02  0.84826725021E+02  0.00000000000E+00 0. -1.
<mgrwt>
<rscale>  0 0.67164672E+02</rscale>
<asrwt>0</asrwt>
<pdfrwt beam="1">  1        2 0.36124335E-01 0.40602890E+02</pdfrwt>
<pdfrwt beam="2">  1        1 0.97582716E-01 0.11110276E+03</pdfrwt>
<totfact> 0.63336942E+02</totfact>
</mgrwt>
</event>
<event>
 5    1  0.8274494E-003  0.9099303E+02  0.7546771E-02  0.1321857E+00
         -1   -1    0    0    0  501 -0.00000000000E+00  0.00000000000E+00  0.38591200319E+03  0.38591200319E+03  0.00000000000E+00 0.  1.
          1   -1    0    0  502    0  0.00000000000E+00 -0.00000000000E+00 -0.29861054311E+03  0.29861054311E+03  0.00000000000E+00 0. -1.
         25    1    1    2    0    0 -0.23374087722E+02 -0.34057011280E+01 -0.66743880715E+02  0.14365824860E+03  0.12500000000E+03 0.  0.
          2    1    1    2  502    0  0.19206643429E+02  0.94303250497E+02 -0.17486519863E+03  0.19959918812E+03  0.00000000000E+00 0. -1.
         -2    1    1    2    0  501  0.41674442922E+01 -0.90897549369E+02  0.32891053942E+03  0.34126510958E+03  0.00000000000E+00 0.  1.
<mgrwt>
<rscale>  0 0.82590512E+02</rscale>
<asrwt>0</asrwt>
<pdfrwt beam="2">  1        1 0.45940083E-01 0.74963900E+02</pdfrwt>
<pdfrwt beam="1">  1       -1 0.59371077E-01 0.90993033E+02</pdfrwt>
<totfact> 0.26857421E+02</totfact>
</mgrwt>
</event>
<event>
 5    1  0.8274494E-003  0.1153014E+03  0.7546771E-02  0.1437645E+00
          2   -1    0    0  502    0  0.00000000000E+00  0.00000000000E+00  0.13937355465E+04  0.13937355465E+04  0.00000000000E+00 0. -1.
          1   -1    0    0  501    0 -0.00000000000E+00 -0.00000000000E+00 -0.13021974513E+03  0.13021974513E+03  0.00000000000E+00 0. -1.
         25    1    1    2    0    0 -0.11919552258E+03 -0.45545236121E+02  0.65363827265E+02  0.19020875650E+03  0.12500000000E+03 0.  0.
          2    1    1    2  501    0  0.67979567974E+01  0.21933856108E+02 -0.63165962178E+02  0.67210453341E+02  0.00000000000E+00 0. -1.
          1    1    1    2  502    0  0.11239756578E+03  0.23611380013E+02  0.12613179362E+04  0.12665360817E+04  0.00000000000E+00 0. -1.
<mgrwt>
<rscale>  0 0.51455655E+02</rscale>
<asrwt>0</asrwt>
<pdfrwt beam="1">  1        2 0.21442084E+00 0.11530145E+03</pdfrwt>
<pdfrwt beam="2">  1        1 0.20033808E-01 0.22963150E+02</pdfrwt>
<totfact> 0.52217567E+02</totfact>
</mgrwt>
</event>
<event>
 5    1  0.8274494E-003  0.1023097E+03  0.7546771E-02  0.1321831E+00
          1   -1    0    0  501    0 -0.00000000000E+00  0.00000000000E+00  0.21187303606E+04  0.21187303606E+04  0.00000000000E+00 0. -1.
          2   -1    0    0  502    0  0.00000000000E+00 -0.00000000000E+00 -0.16404932692E+02  0.16404932692E+02  0.00000000000E+00 0. -1.
         25    1    1    2    0    0 -0.49385907926E+02 -0.10082589273E+02  0.10883752822E+04  0.10966888261E+04  0.12500000000E+03 0.  0.
          2    1    1    2  501    0  0.54848809369E+02 -0.92081184370E+02  0.70233406511E+03  0.71046497128E+03  0.00000000000E+00 0. -1.
          1    1    1    2  502    0 -0.54629014429E+01  0.10216377364E+03  0.31161608062E+03  0.32798149588E+03  0.00000000000E+00 0. -1.
<mgrwt>
<rscale>  0 0.82599861E+02</rscale>
<asrwt>0</asrwt>
<pdfrwt beam="2">  1        2 0.25238375E-02 0.10230973E+03</pdfrwt>
<pdfrwt beam="1">  1        1 0.32595830E+00 0.66687082E+02</pdfrwt>
<totfact> 0.16360648E+03</totfact>
</mgrwt>
</event>
<event>
 5    1  0.8274494E-003  0.1774893E+03  0.7546771E-02  0.1385500E+00
         -2   -1    0    0    0  501 -0.00000000000E+00  0.00000000000E+00  0.87917382759E+03  0.87917382759E+03  0.00000000000E+00 0.  1.
          2   -1    0    0  502    0  0.00000000000E+00 -0.00000000000E+00 -0.19681083124E+04  0.19681083124E+04  0.00000000000E+00 0. -1.
         25    1    1    2    0    0 -0.64584614152E+02 -0.18407272385E+03 -0.56226829015E+03  0.60813203349E+03  0.12500000000E+03 0.  0.
          1    1    1    2  502    0  0.52581787434E+02  0.16517155750E+03 -0.13773285070E+04  0.13881931796E+04  0.00000000000E+00 0. -1.
         -1    1    1    2    0  501  0.12002826718E+02  0.18901166354E+02  0.85066231228E+03  0.85095692692E+03  0.00000000000E+00 0.  1.
<mgrwt>
<rscale>  0 0.63039866E+02</rscale>
<asrwt>0</asrwt>
<pdfrwt beam="2">  1        2 0.30278589E+00 0.17748931E+03</pdfrwt>
<pdfrwt beam="1">  1       -2 0.13525751E+00 0.22390220E+02</pdfrwt>
<totfact> 0.37410451E+00</totfact>
</mgrwt>
</event>
<event>
 5    1  0.8274494E-003  0.5445831E+02  0.7546771E-02  0.1429564E+00
          1   -1    0    0  501    0 -0.00000000000E+00  0.00000000000E+00  0.33073080229E+03  0.33073080229E+03  0.00000000000E+00 0. -1.
          2   -1    0    0  502    0  0.00000000000E+00 -0.00000000000E+00 -0.91441295812E+03  0.91441295812E+03  0.00000000000E+00 0. -1.
         25    1    1    2    0    0  0.22657547211E+02 -0.90979695266E+01  0.17822253812E+03  0.21905344232E+03  0.12500000000E+03 0.  0.
          2    1    1    2  501    0 -0.38477029890E+02  0.58290525266E+02  0.12205259126E+03  0.14062397448E+03  0.00000000000E+00 0. -1.
          1    1    1    2  502    0  0.15819482679E+02 -0.49192555740E+02 -0.88395728522E+03  0.88546634361E+03  0.00000000000E+00 0. -1.
<mgrwt>
<rscale>  0 0.53047697E+02</rscale>
<asrwt>0</asrwt>
<pdfrwt beam="2">  1        2 0.14067892E+00 0.51673626E+02</pdfrwt>
<pdfrwt beam="1">  1        1 0.50881662E-01 0.54458307E+02</pdfrwt>
<totfact> 0.34116065E+02</totfact>
</mgrwt>
</event>
<event>
 5    1  0.1086549E-002  0.1252531E+03  0.7546771E-02  0.1295336E+00
         -2   -1    0    0    0  501 -0.00000000000E+00  0.00000000000E+00  0.13991313022E+03  0.13991313022E+03  0.00000000000E+00 0. -1.
          2   -1    0    0  502    0  0.00000000000E+00 -0.00000000000E+00 -0.25843282679E+03  0.25843282679E+03  0.00000000000E+00 0.  1.
         25    1    1    2    0    0  0.10886840735E+02  0.15109438338E+03 -0.93315464195E+02  0.21744151363E+03  0.12500000000E+03 0.  0.
          3    1    1    2  502    0 -0.52832068553E+02 -0.95911798412E+02 -0.10115102029E+02  0.10996643047E+03  0.00000000000E+00 0. -1.
         -3    1    1    2    0  501  0.41945227818E+02 -0.55182584973E+02 -0.15089130349E+02  0.70938012910E+02  0.00000000000E+00 0.  1.
<mgrwt>
<rscale>  0 0.93176585E+02</rscale>
<asrwt>0</asrwt>
<pdfrwt beam="2">  1        2 0.39758896E-01 0.12525313E+03</pdfrwt>
<pdfrwt beam="1">  1       -2 0.21525097E-01 0.69314644E+02</pdfrwt>
<totfact> 0.22585084E+03</totfact>
</mgrwt>
</event>
<event>
 5    1  0.8274494E-003  0.6520738E+02  0.7546771E-02  0.1474520E+00
         -2   -1    0    0    0  501 -0.00000000000E+00  0.00000000000E+00  0.15213298520E+02  0.15213298520E+02  0.00000000000E+00 0.  1.
          2   -1    0    0  502    0  0.00000000000E+00 -0.00000000000E+00 -0.94642978765E+03  0.94642978765E+03  0.00000000000E+00 0. -1.
         25    1    1    2    0    0 -0.67753841639E+02 -0.30604721747E+01 -0.56475987620E+03  0.58239047667E+03  0.12500000000E+03 0.  0.
          3    1    1    2  502    0  0.99777878248E+01 -0.29366554566E+02 -0.13368319139E+03  0.13723391140E+03  0.00000000000E+00 0. -1.
         -3    1    1    2    0  501  0.57776053814E+02  0.32427026741E+02 -0.23277342154E+03  0.24201869810E+03  0.00000000000E+00 0.  1.
<mgrwt>
<rscale>  0 0.44971420E+02</rscale>
<asrwt>0</asrwt>
<pdfrwt beam="2">  1        2 0.14560459E+00 0.31015331E+02</pdfrwt>
<pdfrwt beam="1">  1       -2 0.23405074E-02 0.65207385E+02</pdfrwt>
<totfact> 0.16246210E+04</totfact>
</mgrwt>
</event>
<event>
 5    1  0.8274494E-003  0.5670790E+02  0.7546771E-02  0.1433832E+00
          2   -1    0    0  502    0  0.00000000000E+00  0.00000000000E+00  0.13216480099E+03  0.13216480099E+03  0.00000000000E+00 0. -1.
          1   -1    0    0  501    0 -0.00000000000E+00 -0.00000000000E+00 -0.14481565434E+04  0.14481565434E+04  0.00000000000E+00 0. -1.
         25    1    1    2    0    0  0.38924418193E+02  0.32352103716E+02 -0.29251664616E+03  0.32210674818E+03  0.12500000000E+03 0.  0.
          2    1    1    2  501    0 -0.41093303939E+02  0.24898195868E+02 -0.11333139985E+04  0.11343320497E+04  0.00000000000E+00 0. -1.
          1    1    1    2  502    0  0.21688857465E+01 -0.57250299584E+02  0.10983890228E+03  0.12388254648E+03  0.00000000000E+00 0. -1.
<mgrwt>
<rscale>  0 0.52198499E+02</rscale>
<asrwt>0</asrwt>
<pdfrwt beam="1">  1        2 0.20333045E-01 0.56707903E+02</pdfrwt>
<pdfrwt beam="2">  1        1 0.22279333E+00 0.48047682E+02</pdfrwt>
<totfact> 0.31939081E+02</totfact>
</mgrwt>
</event>
<event>
 5    1  0.8274494E-003  0.4567620E+02  0.7546771E-02  0.1521782E+00
          2   -1    0    0  502    0  0.00000000000E+00  0.00000000000E+00  0.66270235924E+03  0.66270235924E+03  0.00000000000E+00 0. -1.
          1   -1    0    0  501    0 -0.00000000000E+00 -0.00000000000E+00 -0.11080272131E+03  0.11080272131E+03  0.00000000000E+00 0. -1.
         25    1    1    2    0    0  0.41498655943E+02  0.62200076757E+02  0.31334919964E+03  0.34554841760E+03  0.12500000000E+03 0.  0.
          2    1    1    2  501    0 -0.20603397001E+02 -0.24446392083E+02 -0.90555768080E+02  0.96033708594E+02  0.00000000000E+00 0. -1.
          1    1    1    2  502    0 -0.20895258942E+02 -0.37753684674E+02  0.32910620637E+03  0.33192295435E+03  0.00000000000E+00 0. -1.
<mgrwt>
<rscale>  0 0.38213877E+02</rscale>
<asrwt>0</asrwt>
<pdfrwt beam="1">  1        2 0.10195421E+00 0.45676201E+02</pdfrwt>
<pdfrwt beam="2">  1        1 0.17046573E-01 0.31970706E+02</pdfrwt>
<totfact> 0.18310602E+03</totfact>
</mgrwt>
</event>
<event>
 5    1  0.8274494E-003  0.6446313E+02  0.7546771E-02  0.1470262E+00
          2   -1    0    0  502    0  0.00000000000E+00  0.00000000000E+00  0.35935232148E+04  0.35935232148E+04  0.00000000000E+00 0. -1.
          1   -1    0    0  501    0 -0.00000000000E+00 -0.00000000000E+00 -0.51435463574E+03  0.51435463574E+03  0.00000000000E+00 0. -1.
         25    1    1    2    0    0 -0.26836263542E+02  0.91443910504E+02  0.82344004056E+03  0.83830822148E+03  0.12500000000E+03 0.  0.
          2    1    1    2  501    0  0.98970952665E+01 -0.30790299273E+02 -0.50604537900E+03  0.50707782503E+03  0.00000000000E+00 0. -1.
          1    1    1    2  502    0  0.16939168275E+02 -0.60653611231E+02  0.27617739175E+04  0.27624918041E+04  0.00000000000E+00 0. -1.
<mgrwt>
<rscale>  0 0.45660230E+02</rscale>
<asrwt>0</asrwt>
<pdfrwt beam="1">  1        2 0.55284971E+00 0.64463128E+02</pdfrwt>
<pdfrwt beam="2">  1        1 0.79131485E-01 0.32341846E+02</pdfrwt>
<totfact> 0.72306960E+00</totfact>
</mgrwt>
</event>
<event>
 5    1  0.8274494E-003  0.5617799E+02  0.7546771E-02  0.1509280E+00
          2   -1    0    0  502    0  0.00000000000E+00  0.00000000000E+00  0.24591816389E+03  0.24591816389E+03  0.00000000000E+00 0. -1.
          1   -1    0    0  501    0 -0.00000000000E+00 -0.00000000000E+00 -0.43216807217E+03  0.43216807217E+03  0.00000000000E+00 0. -1.
         25    1    1    2    0    0 -0.52975048042E+02  0.83967562017E+01  0.42940281494E+02  0.14263845556E+03  0.12500000000E+03 0.  0.
          2    1    1    2  501    0  0.52770326703E+02  0.19877560160E+02 -0.37890919240E+03  0.38308223773E+03  0.00000000000E+00 0. -1.
          1    1    1    2  502    0  0.20472133873E+00 -0.28274316362E+02  0.14971900262E+03  0.15236554277E+03  0.00000000000E+00 0. -1.
<mgrwt>
<rscale>  0 0.39855186E+02</rscale>
<asrwt>0</asrwt>
<pdfrwt beam="1">  1        2 0.37833564E-01 0.28275057E+02</pdfrwt>
<pdfrwt beam="2">  1        1 0.66487395E-01 0.56177989E+02</pdfrwt>
<totfact> 0.10006386E+03</totfact>
</mgrwt>
</event>
<event>
 5    1  0.8274494E-003  0.8848482E+02  0.7546771E-02  0.1351774E+00
          2   -1    0    0  502    0  0.00000000000E+00  0.00000000000E+00  0.20240188010E+04  0.20240188010E+04  0.00000000000E+00 0. -1.
          1   -1    0    0  501    0 -0.00000000000E+00 -0.00000000000E+00 -0.12441338753E+03  0.12441338753E+03  0.00000000000E+00 0. -1.
         25    1    1    2    0    0  0.18920015960E+02 -0.88848953520E+02  0.73873253531E+03  0.75472038682E+03  0.12500000000E+03 0.  0.
          2    1    1    2  501    0 -0.59024676423E+02  0.67747965002E+01 -0.10708786618E+03  0.12246477607E+03  0.00000000000E+00 0. -1.
          1    1    1    2  502    0  0.40104660463E+02  0.82074157020E+02  0.12679607443E+04  0.12712470256E+04  0.00000000000E+00 0. -1.
<mgrwt>
<rscale>  0 0.72505713E+02</rscale>
<asrwt>0</asrwt>
<pdfrwt beam="1">  1        2 0.31138748E+00 0.88484820E+02</pdfrwt>
<pdfrwt beam="2">  1        1 0.19140523E-01 0.59412207E+02</pdfrwt>
<totfact> 0.28381829E+02</totfact>
</mgrwt>
</event>
<event>
 5    1  0.8274494E-003  0.8948785E+02  0.7546771E-02  0.1385879E+00
          2   -1    0    0  502    0  0.00000000000E+00  0.00000000000E+00  0.17561978033E+04  0.17561978033E+04  0.00000000000E+00 0. -1.
         -2   -1    0    0    0  501 -0.00000000000E+00 -0.00000000000E+00 -0.40477958747E+03  0.40477958747E+03  0.00000000000E+00 0.  1.
         25    1    1    2    0    0 -0.75605028506E+02  0.32313367033E+02  0.66703881495E+03  0.68361250331E+03  0.12500000000E+03 0.  0.
          1    1    1    2  502    0 -0.13472664828E+02 -0.42173124357E+02  0.10753463883E+04  0.10762573762E+04  0.00000000000E+00 0. -1.
         -1    1    1    2    0  501  0.89077693334E+02  0.98597573238E+01 -0.39096698744E+03  0.40110751119E+03  0.00000000000E+00 0.  1.
<mgrwt>
<rscale>  0 0.62943483E+02</rscale>
<asrwt>0</asrwt>
<pdfrwt beam="1">  1        2 0.27018427E+00 0.44272849E+02</pdfrwt>
<pdfrwt beam="2">  1       -2 0.62273784E-01 0.89487851E+02</pdfrwt>
<totfact> 0.29810164E+01</totfact>
</mgrwt>
</event>
<event>
 5    1  0.8274494E-003  0.6599699E+02  0.7546771E-02  0.1459309E+00
          2   -1    0    0  502    0  0.00000000000E+00  0.00000000000E+00  0.24024971126E+04  0.24024971126E+04  0.00000000000E+00 0. -1.
          1   -1    0    0  501    0 -0.00000000000E+00 -0.00000000000E+00 -0.27689358230E+03  0.27689358230E+03  0.00000000000E+00 0. -1.
         25    1    1    2    0    0 -0.33641520228E+02 -0.17514014990E+01  0.31005581680E+03  0.33599766193E+03  0.12500000000E+03 0.  0.
          2    1    1    2  501    0 -0.33554726652E+02  0.65498864922E+01 -0.26226729650E+03  0.26448621043E+03  0.00000000000E+00 0. -1.
          1    1    1    2  502    0  0.67196246880E+02 -0.47984849932E+01  0.20778150100E+04  0.20789068226E+04  0.00000000000E+00 0. -1.
<mgrwt>
<rscale>  0 0.47500594E+02</rscale>
<asrwt>0</asrwt>
<pdfrwt beam="1">  1        2 0.36961493E+00 0.65996991E+02</pdfrwt>
<pdfrwt beam="2">  1        1 0.42599014E-01 0.34188020E+02</pdfrwt>
<totfact> 0.71261536E+01</totfact>
</mgrwt>
</event>
<event>
 5    1  0.8274494E-003  0.9456434E+02  0.7546771E-02  0.1427768E+00
         -2   -1    0    0    0  501 -0.00000000000E+00  0.00000000000E+00  0.79361753138E+03  0.79361753138E+03  0.00000000000E+00 0.  1.
          2   -1    0    0  502    0  0.00000000000E+00 -0.00000000000E+00 -0.63421323216E+03  0.63421323216E+03  0.00000000000E+00 0. -1.
         25    1    1    2    0    0 -0.92003024049E+02  0.45708782007E+02 -0.95337334049E+02  0.18779791386E+03  0.12500000000E+03 0.  0.
          1    1    1    2  502    0  0.68493981632E+02 -0.64612836376E+02 -0.48783725681E+03  0.49684145688E+03  0.00000000000E+00 0. -1.
         -1    1    1    2    0  501  0.23509042418E+02  0.18904054369E+02  0.74257889008E+03  0.74319139280E+03  0.00000000000E+00 0.  1.
<mgrwt>
<rscale>  0 0.53410742E+02</rscale>
<asrwt>0</asrwt>
<pdfrwt beam="2">  1        2 0.97571266E-01 0.94564337E+02</pdfrwt>
<pdfrwt beam="1">  1       -2 0.12209501E+00 0.30166842E+02</pdfrwt>
<totfact> 0.28310903E+01</totfact>
</mgrwt>
</event>
<event>
 5    1  0.8274494E-003  0.7449596E+02  0.7546771E-02  0.1386253E+00
          1   -1    0    0  501    0 -0.00000000000E+00  0.00000000000E+00  0.13803357994E+03  0.13803357994E+03  0.00000000000E+00 0. -1.
          2   -1    0    0  502    0  0.00000000000E+00 -0.00000000000E+00 -0.69089731632E+03  0.69089731632E+03  0.00000000000E+00 0. -1.
         25    1    1    2    0    0 -0.90241248458E+02 -0.86014506903E+02 -0.49410130271E+03  0.52469331582E+03  0.12500000000E+03 0.  0.
          2    1    1    2  501    0  0.59753324288E+02  0.42634707176E+02  0.10724951442E+03  0.12996398102E+03  0.00000000000E+00 0. -1.
          1    1    1    2  502    0  0.30487924171E+02  0.43379799727E+02 -0.16601194810E+03  0.17427359942E+03  0.00000000000E+00 0. -1.
<mgrwt>
<rscale>  0 0.62848362E+02</rscale>
<asrwt>0</asrwt>
<pdfrwt beam="2">  1        2 0.10629190E+00 0.53021887E+02</pdfrwt>
<pdfrwt beam="1">  1        1 0.21235935E-01 0.74495964E+02</pdfrwt>
<totfact> 0.13807324E+03</totfact>
</mgrwt>
</event>
<event>
 5    1  0.8274494E-003  0.4221443E+02  0.7546771E-02  0.1546435E+00
         -1   -1    0    0    0  501 -0.00000000000E+00  0.00000000000E+00  0.87333086289E+03  0.87333086289E+03  0.00000000000E+00 0.  1.
          1   -1    0    0  502    0  0.00000000000E+00 -0.00000000000E+00 -0.48906400321E+02  0.48906400321E+02  0.00000000000E+00 0. -1.
         25    1    1    2    0    0  0.22664361446E+02  0.16928065373E+02  0.12468964468E+03  0.17880922842E+03  0.12500000000E+03 0.  0.
          2    1    1    2  502    0 -0.11030722844E+02 -0.43956960641E+02  0.23057847972E+01  0.45378495775E+02  0.00000000000E+00 0. -1.
         -2    1    1    2    0  501 -0.11633638602E+02  0.27028895268E+02  0.69742903309E+03  0.69804953902E+03  0.00000000000E+00 0.  1.
<mgrwt>
<rscale>  0 0.35245017E+02</rscale>
<asrwt>0</asrwt>
<pdfrwt beam="2">  1        1 0.75240622E-02 0.42214426E+02</pdfrwt>
<pdfrwt beam="1">  1       -1 0.13435858E+00 0.29426225E+02</pdfrwt>
<totfact> 0.47231795E+02</totfact>
</mgrwt>
</event>
<event>
 5    1  0.8274494E-003  0.4362910E+02  0.7546771E-02  0.1530237E+00
          1   -1    0    0  502    0  0.00000000000E+00  0.00000000000E+00  0.11405370600E+03  0.11405370600E+03  0.00000000000E+00 0. -1.
         -1   -1    0    0    0  501 -0.00000000000E+00 -0.00000000000E+00 -0.89649331177E+03  0.89649331177E+03  0.00000000000E+00 0.  1.
         25    1    1    2    0    0 -0.49410209061E+02  0.48587003086E+02 -0.22147055286E+03  0.26358351886E+03  0.12500000000E+03 0.  0.
          2    1    1    2  502    0  0.10909476376E+02 -0.29705630109E+02  0.89578631966E+02  0.95004065386E+02  0.00000000000E+00 0. -1.
         -2    1    1    2    0  501  0.38500732684E+02 -0.18881372977E+02 -0.65054768488E+03  0.65195943353E+03  0.00000000000E+00 0.  1.
<mgrwt>
<rscale>  0 0.37157330E+02</rscale>
<asrwt>0</asrwt>
<pdfrwt beam="1">  1        1 0.17546723E-01 0.31645555E+02</pdfrwt>
<pdfrwt beam="2">  1       -1 0.13792205E+00 0.43629104E+02</pdfrwt>
<totfact> 0.14607557E+02</totfact>
</mgrwt>
</event>
<event>
 5    1  0.8274494E-003  0.6596635E+02  0.7546771E-02  0.1425969E+00
          2   -1    0    0  502    0  0.00000000000E+00  0.00000000000E+00  0.44650184455E+02  0.44650184455E+02  0.00000000000E+00 0. -1.
          1   -1    0    0  501    0 -0.00000000000E+00 -0.00000000000E+00 -0.14659067097E+04  0.14659067097E+04  0.00000000000E+00 0. -1.
         25    1    1    2    0    0  0.61028664170E+01 -0.23970787053E+02 -0.24423235446E+03  0.27547465686E+03  0.12500000000E+03 0.  0.
          2    1    1    2  501    0 -0.16718441066E+02  0.66507264481E+02 -0.11879278270E+04  0.11899055612E+04  0.00000000000E+00 0. -1.
          1    1    1    2  502    0  0.10615574649E+02 -0.42536477428E+02  0.10903656243E+02  0.45176676024E+02  0.00000000000E+00 0. -1.
<mgrwt>
<rscale>  0 0.53777668E+02</rscale>
<asrwt>0</asrwt>
<pdfrwt beam="1">  1        2 0.68692591E-02 0.43841103E+02</pdfrwt>
<pdfrwt beam="2">  1        1 0.22552411E+00 0.65966350E+02</pdfrwt>
<totfact> 0.10479788E+03</totfact>
</mgrwt>
</event>
<event>
 5    1  0.8274494E-003  0.5584080E+02  0.7546771E-02  0.1431423E+00
          1   -1    0    0  501    0 -0.00000000000E+00  0.00000000000E+00  0.26044457992E+04  0.26044457992E+04  0.00000000000E+00 0. -1.
          2   -1    0    0  502    0  0.00000000000E+00 -0.00000000000E+00 -0.88771770781E+03  0.88771770781E+03  0.00000000000E+00 0. -1.
         25    1    1    2    0    0  0.17214768688E+02 -0.17743643342E+02 -0.63385389950E+02  0.14231617195E+03  0.12500000000E+03 0.  0.
          2    1    1    2  501    0 -0.53612236216E+02 -0.16083502645E+02  0.25638881947E+04  0.25644990984E+04  0.00000000000E+00 0. -1.
          1    1    1    2  502    0  0.36397467529E+02  0.33827145987E+02 -0.78377471337E+03  0.78534823662E+03  0.00000000000E+00 0. -1.
<mgrwt>
<rscale>  0 0.52675460E+02</rscale>
<asrwt>0</asrwt>
<pdfrwt beam="2">  1        2 0.13657196E+00 0.49689551E+02</pdfrwt>
<pdfrwt beam="1">  1        1 0.40068396E+00 0.55840796E+02</pdfrwt>
<totfact> 0.78450943E+00</totfact>
</mgrwt>
</event>
<event>
 5    1  0.8274494E-003  0.1424022E+03  0.7546771E-02  0.1378766E+00
          2   -1    0    0  502    0  0.00000000000E+00  0.00000000000E+00  0.57769471913E+03  0.57769471913E+03  0.00000000000E+00 0. -1.
         -2   -1    0    0    0  501 -0.00000000000E+00 -0.00000000000E+00 -0.14077664492E+03  0.14077664492E+03  0.00000000000E+00 0.  1.
         25    1    1    2    0    0  0.12239629255E+03 -0.11430990451E+03  0.33603547830E+02  0.21166436905E+03  0.12500000000E+03 0.  0.
          1    1    1    2  502    0 -0.10727335134E+03  0.89007498241E+02  0.43895524644E+03  0.46055576755E+03  0.00000000000E+00 0. -1.
         -1    1    1    2    0  501 -0.15122941213E+02  0.25302406264E+02 -0.35640720059E+02  0.46251227443E+02  0.00000000000E+00 0.  1.
<mgrwt>
<rscale>  0 0.64789209E+02</rscale>
<asrwt>0</asrwt>
<pdfrwt beam="1">  1        2 0.88876110E-01 0.14240219E+03</pdfrwt>
<pdfrwt beam="2">  1       -2 0.21657946E-01 0.29477366E+02</pdfrwt>
<totfact> 0.90231125E+02</totfact>
</mgrwt>
</event>
<event>
 5    1  0.8274494E-003  0.9359775E+02  0.7546771E-02  0.1311995E+00
          2   -1    0    0  502    0  0.00000000000E+00  0.00000000000E+00  0.33778142684E+04  0.33778142684E+04  0.00000000000E+00 0. -1.
          1   -1    0    0  501    0 -0.00000000000E+00 -0.00000000000E+00 -0.27534557779E+03  0.27534557779E+03  0.00000000000E+00 0. -1.
         25    1    1    2    0    0 -0.51873491914E+02  0.14797968695E+03  0.20208683481E+03  0.28469797280E+03  0.12500000000E+03 0.  0.
          2    1    1    2  501    0 -0.10094967132E+02 -0.78981164497E+02 -0.22656028980E+03  0.24014474306E+03  0.00000000000E+00 0. -1.
          1    1    1    2  502    0  0.61968459046E+02 -0.68998522448E+02  0.31269421456E+04  0.31283171304E+04  0.00000000000E+00 0. -1.
<mgrwt>
<rscale>  0 0.86328434E+02</rscale>
<asrwt>0</asrwt>
<pdfrwt beam="1">  1        2 0.51966370E+00 0.93597749E+02</pdfrwt>
<pdfrwt beam="2">  1        1 0.42360860E-01 0.79623694E+02</pdfrwt>
<totfact> 0.19512704E+01</totfact>
</mgrwt>
</event>
<event>
 5    1  0.8274494E-003  0.8424137E+02  0.7546771E-02  0.1477420E+00
          1   -1    0    0  501    0 -0.00000000000E+00  0.00000000000E+00  0.52592351490E+03  0.52592351490E+03  0.00000000000E+00 0. -1.
          2   -1    0    0  502    0  0.00000000000E+00 -0.00000000000E+00 -0.26373410108E+03  0.26373410108E+03  0.00000000000E+00 0. -1.
         25    1    1    2    0    0 -0.60435163315E+02  0.45316762754E+02 -0.20524548399E+02  0.14748652494E+03  0.12500000000E+03 0.  0.
          2    1    1    2  501    0  0.78961998660E+02 -0.30830339467E+02  0.45776498914E+03  0.46554730409E+03  0.00000000000E+00 0. -1.
          1    1    1    2  502    0 -0.18526835345E+02 -0.14486423287E+02 -0.17505102693E+03  0.17662378695E+03  0.00000000000E+00 0. -1.
<mgrwt>
<rscale>  0 0.44510621E+02</rscale>
<asrwt>0</asrwt>
<pdfrwt beam="2">  1        2 0.40574477E-01 0.23518080E+02</pdfrwt>
<pdfrwt beam="1">  1        1 0.80911310E-01 0.84241373E+02</pdfrwt>
<totfact> 0.71920902E+02</totfact>
</mgrwt>
</event>
<event>
 5    1  0.8274494E-003  0.8559025E+02  0.7546771E-02  0.1396360E+00
          1   -1    0    0  501    0 -0.00000000000E+00  0.00000000000E+00  0.85068350018E+02  0.85068350018E+02  0.00000000000E+00 0. -1.
          2   -1    0    0  502    0  0.00000000000E+00 -0.00000000000E+00 -0.29408506420E+04  0.29408506420E+04  0.00000000000E+00 0. -1.
         25    1    1    2    0    0  0.28222923632E+02 -0.40044798949E+02 -0.61777241099E+03  0.63219290657E+03  0.12500000000E+03 0.  0.
          2    1    1    2  501    0  0.10959723430E+02 -0.41120375465E+02  0.71097498921E+02  0.82860456002E+02  0.00000000000E+00 0. -1.
          1    1    1    2  502    0 -0.39182647063E+02  0.81165174414E+02 -0.23091073799E+04  0.23108656294E+04  0.00000000000E+00 0. -1.
<mgrwt>
<rscale>  0 0.60352021E+02</rscale>
<asrwt>0</asrwt>
<pdfrwt beam="2">  1        2 0.45243858E+00 0.85590252E+02</pdfrwt>
<pdfrwt beam="1">  1        1 0.13087438E-01 0.42555855E+02</pdfrwt>
<totfact> 0.14833526E+02</totfact>
</mgrwt>
</event>
<event>
 5    1  0.8274494E-003  0.1183533E+03  0.7546771E-02  0.1319711E+00
          1   -1    0    0  501    0 -0.00000000000E+00  0.00000000000E+00  0.30479465264E+03  0.30479465264E+03  0.00000000000E+00 0. -1.
          2   -1    0    0  502    0  0.00000000000E+00 -0.00000000000E+00 -0.26124958339E+03  0.26124958339E+03  0.00000000000E+00 0. -1.
         25    1    1    2    0    0 -0.56002745900E+02 -0.12751773258E+03 -0.43265211166E+02  0.19207800022E+03  0.12500000000E+03 0.  0.
          2    1    1    2  501    0  0.57307367059E+02  0.12932512957E+02  0.20266777332E+03  0.21101092520E+03  0.00000000000E+00 0. -1.
          1    1    1    2  502    0 -0.13046211590E+01  0.11458521962E+03 -0.11585749291E+03  0.16295531061E+03  0.00000000000E+00 0. -1.
<mgrwt>
<rscale>  0 0.83385101E+02</rscale>
<asrwt>0</asrwt>
<pdfrwt beam="2">  1        2 0.40192244E-01 0.11835327E+03</pdfrwt>
<pdfrwt beam="1">  1        1 0.46891485E-01 0.58748483E+02</pdfrwt>
<totfact> 0.14721712E+03</totfact>
</mgrwt>
</event>
<event>
 5    1  0.8274494E-003  0.4303838E+02  0.7546771E-02  0.1505214E+00
          2   -1    0    0  502    0  0.00000000000E+00  0.00000000000E+00  0.29114340076E+03  0.29114340076E+03  0.00000000000E+00 0. -1.
          1   -1    0    0  501    0 -0.00000000000E+00 -0.00000000000E+00 -0.13622468169E+04  0.13622468169E+04  0.00000000000E+00 0. -1.
         25    1    1    2    0    0 -0.14038048669E+02  0.79331383827E+02 -0.33454730957E+01  0.14875055449E+03  0.12500000000E+03 0.  0.
          2    1    1    2  501    0  0.44311129678E+01 -0.42625198203E+02 -0.12841910450E+04  0.12849059041E+04  0.00000000000E+00 0. -1.
          1    1    1    2  502    0  0.96069357010E+01 -0.36706185624E+02  0.21643310194E+03  0.21973375911E+03  0.00000000000E+00 0. -1.
<mgrwt>
<rscale>  0 0.40410222E+02</rscale>
<asrwt>0</asrwt>
<pdfrwt beam="1">  1        2 0.44791293E-01 0.37942552E+02</pdfrwt>
<pdfrwt beam="2">  1        1 0.20957643E+00 0.43038381E+02</pdfrwt>
<totfact> 0.15801107E+02</totfact>
</mgrwt>
</event>
<event>
 5    1  0.8274494E-003  0.5611614E+02  0.7546771E-02  0.1420962E+00
          2   -1    0    0  502    0  0.00000000000E+00  0.00000000000E+00  0.76065346809E+03  0.76065346809E+03  0.00000000000E+00 0. -1.
         -2   -1    0    0    0  501 -0.00000000000E+00 -0.00000000000E+00 -0.22324097178E+03  0.22324097178E+03  0.00000000000E+00 0.  1.
         25    1    1    2    0    0 -0.37726845617E+01 -0.22592966178E+02 -0.13235980488E+02  0.12776880077E+03  0.12500000000E+03 0.  0.
          1    1    1    2  502    0  0.56049799172E+02 -0.27277684659E+01  0.69669523823E+03  0.69895155461E+03  0.00000000000E+00 0. -1.
         -1    1    1    2    0  501 -0.52277114610E+02  0.25320734643E+02 -0.14604676143E+03  0.15717408450E+03  0.00000000000E+00 0.  1.
<mgrwt>
<rscale>  0 0.54817881E+02</rscale>
<asrwt>0</asrwt>
<pdfrwt beam="1">  1        2 0.11702361E+00 0.56116136E+02</pdfrwt>
<pdfrwt beam="2">  1       -2 0.34344765E-01 0.53549662E+02</pdfrwt>
<totfact> 0.31286363E+02</totfact>
</mgrwt>
</event>
<event>
 5    1  0.8287676E-003  0.1879501E+03  0.7546771E-02  0.1197316E+00
          2   -1    0    0  502    0  0.00000000000E+00  0.00000000000E+00  0.29676685688E+04  0.29676685688E+04  0.00000000000E+00 0. -1.
          1   -1    0    0  501    0 -0.00000000000E+00 -0.00000000000E+00 -0.11450193174E+04  0.11450193174E+04  0.00000000000E+00 0. -1.
         25    1    1    2    0    0 -0.10151309643E+03 -0.75531399644E+02 -0.23108445916E+03  0.29160749020E+03  0.12500000000E+03 0.  0.
          2    1    1    2  501    0  0.59394108855E+02 -0.10873225577E+03 -0.87627033589E+03  0.88498591242E+03  0.00000000000E+00 0. -1.
          1    1    1    2  502    0  0.42118987573E+02  0.18426365541E+03  0.29300040465E+04  0.29360944835E+04  0.00000000000E+00 0. -1.
<mgrwt>
<rscale>  0 0.15259874E+03</rscale>
<asrwt>0</asrwt>
<pdfrwt beam="1">  1        2 0.45656439E+00 0.18795009E+03</pdfrwt>
<pdfrwt beam="2">  1        1 0.17615682E+00 0.12389658E+03</pdfrwt>
<totfact> 0.41965727E+00</totfact>
</mgrwt>
</event>
<event>
 5    1  0.8274494E-003  0.1161633E+03  0.7546771E-02  0.1300679E+00
          2   -1    0    0  502    0  0.00000000000E+00  0.00000000000E+00  0.53032652950E+03  0.53032652950E+03  0.00000000000E+00 0. -1.
         -2   -1    0    0    0  501 -0.00000000000E+00 -0.00000000000E+00 -0.43853430289E+03  0.43853430289E+03  0.00000000000E+00 0.  1.
         25    1    1    2    0    0 -0.14416634873E+03  0.98337057320E+02 -0.15296061923E+03  0.26358312538E+03  0.12500000000E+03 0.  0.
          1    1    1    2  502    0  0.55509480513E+02 -0.44486609523E+02  0.46046158050E+03  0.46592405816E+03  0.00000000000E+00 0. -1.
         -1    1    1    2    0  501  0.88656868217E+02 -0.53850447796E+02 -0.21570873466E+03  0.23935364885E+03  0.00000000000E+00 0.  1.
<mgrwt>
<rscale>  0 0.90903336E+02</rscale>
<asrwt>0</asrwt>
<pdfrwt beam="1">  1        2 0.81588697E-01 0.71136213E+02</pdfrwt>
<pdfrwt beam="2">  1       -2 0.67466816E-01 0.11616329E+03</pdfrwt>
<totfact> 0.12580868E+02</totfact>
</mgrwt>
</event>
<event>
 5    1  0.8274494E-003  0.1665404E+03  0.7546771E-02  0.1293128E+00
          1   -1    0    0  501    0 -0.00000000000E+00  0.00000000000E+00  0.32867560538E+03  0.32867560538E+03  0.00000000000E+00 0. -1.
          2   -1    0    0  502    0  0.00000000000E+00 -0.00000000000E+00 -0.27505735607E+04  0.27505735607E+04  0.00000000000E+00 0. -1.
         25    1    1    2    0    0 -0.17970066114E+03  0.96454440955E+02 -0.21140045043E+04  0.21274952011E+04  0.12500000000E+03 0.  0.
          2    1    1    2  501    0  0.12747334689E+03 -0.10664894747E+03  0.29923725048E+03  0.34229575550E+03  0.00000000000E+00 0. -1.
          1    1    1    2  502    0  0.52227314249E+02  0.10194506512E+02 -0.60713070153E+03  0.60945820944E+03  0.00000000000E+00 0. -1.
<mgrwt>
<rscale>  0 0.94138773E+02</rscale>
<asrwt>0</asrwt>
<pdfrwt beam="2">  1        2 0.42316516E+00 0.53212971E+02</pdfrwt>
<pdfrwt beam="1">  1        1 0.50565478E-01 0.16654038E+03</pdfrwt>
<totfact> 0.39500086E+01</totfact>
</mgrwt>
</event>
<event>
 5    1  0.8274494E-003  0.1488466E+03  0.7546771E-02  0.1326554E+00
         -2   -1    0    0    0  501 -0.00000000000E+00  0.00000000000E+00  0.19245047653E+04  0.19245047653E+04  0.00000000000E+00 0.  1.
          2   -1    0    0  502    0  0.00000000000E+00 -0.00000000000E+00 -0.57539772857E+03  0.57539772857E+03  0.00000000000E+00 0. -1.
         25    1    1    2    0    0 -0.68743081644E+02  0.16562190917E+03  0.30607821932E+03  0.37611847124E+03  0.12500000000E+03 0.  0.
          1    1    1    2  502    0  0.29939384114E+02 -0.14497355149E+03 -0.52992667996E+03  0.55021448862E+03  0.00000000000E+00 0. -1.
         -3    1    1    2    0  501  0.38803697531E+02 -0.20648357677E+02  0.15729554973E+04  0.15735695340E+04  0.00000000000E+00 0.  1.
<mgrwt>
<rscale>  0 0.80886464E+02</rscale>
<asrwt>0</asrwt>
<pdfrwt beam="2">  1        2 0.88522729E-01 0.14884662E+03</pdfrwt>
<pdfrwt beam="1">  1       -2 0.29607765E+00 0.43955450E+02</pdfrwt>
<totfact> 0.25680202E+00</totfact>
</mgrwt>
</event>
<event>
 5    1  0.8274494E-003  0.4758344E+02  0.7546771E-02  0.1496930E+00
          1   -1    0    0  502    0  0.00000000000E+00  0.00000000000E+00  0.41272441228E+03  0.41272441228E+03  0.00000000000E+00 0. -1.
         -1   -1    0    0    0  501 -0.00000000000E+00 -0.00000000000E+00 -0.15214150484E+03  0.15214150484E+03  0.00000000000E+00 0.  1.
         25    1    1    2    0    0 -0.33933516333E+01 -0.39844298170E+02  0.17251054088E+03  0.21675785948E+03  0.12500000000E+03 0.  0.
          2    1    1    2  502    0  0.38779467596E+02  0.31636770055E+02  0.21258919121E+03  0.21840077048E+03  0.00000000000E+00 0. -1.
         -2    1    1    2    0  501 -0.35386115963E+02  0.82075281154E+01 -0.12451682465E+03  0.12970728716E+03  0.00000000000E+00 0.  1.
<mgrwt>
<rscale>  0 0.41575131E+02</rscale>
<asrwt>0</asrwt>
<pdfrwt beam="1">  1        1 0.63496063E-01 0.47583443E+02</pdfrwt>
<pdfrwt beam="2">  1       -1 0.23406386E-01 0.36325483E+02</pdfrwt>
<totfact> 0.87496054E+02</totfact>
</mgrwt>
</event>
<event>
 5    1  0.8274494E-003  0.6357906E+02  0.7546771E-02  0.1475363E+00
          1   -1    0    0  501    0 -0.00000000000E+00  0.00000000000E+00  0.88119418173E+02  0.88119418173E+02  0.00000000000E+00 0. -1.
          2   -1    0    0  502    0  0.00000000000E+00 -0.00000000000E+00 -0.68391598143E+03  0.68391598143E+03  0.00000000000E+00 0. -1.
         25    1    1    2    0    0 -0.15606944145E+02  0.52172770391E+02 -0.61202443782E+03  0.62702829853E+03  0.12500000000E+03 0.  0.
          2    1    1    2  501    0  0.46201472312E+02 -0.44187026075E+02  0.62209753844E+02  0.89202706184E+02  0.00000000000E+00 0. -1.
          1    1    1    2  502    0 -0.30594528167E+02 -0.79857443155E+01 -0.45981879279E+02  0.55804394881E+02  0.00000000000E+00 0. -1.
<mgrwt>
<rscale>  0 0.44836843E+02</rscale>
<asrwt>0</asrwt>
<pdfrwt beam="2">  1        2 0.10521784E+00 0.31619571E+02</pdfrwt>
<pdfrwt beam="1">  1        1 0.13556834E-01 0.63579056E+02</pdfrwt>
<totfact> 0.24734660E+03</totfact>
</mgrwt>
</event>
<event>
 5    1  0.8274494E-003  0.4632720E+02  0.7546771E-02  0.1588910E+00
          1   -1    0    0  501    0 -0.00000000000E+00  0.00000000000E+00  0.97734304135E+03  0.97734304135E+03  0.00000000000E+00 0. -1.
          2   -1    0    0  502    0  0.00000000000E+00 -0.00000000000E+00 -0.24466507101E+03  0.24466507101E+03  0.00000000000E+00 0. -1.
         25    1    1    2    0    0 -0.26385744120E+02 -0.24127892409E+02 -0.67360369124E+02  0.14642671209E+03  0.12500000000E+03 0.  0.
          2    1    1    2  501    0  0.17874390063E+02  0.42820961855E+02  0.93646668389E+03  0.93761558148E+03  0.00000000000E+00 0. -1.
          1    1    1    2  502    0  0.85113540567E+01 -0.18693069447E+02 -0.13642834443E+03  0.13796581880E+03  0.00000000000E+00 0. -1.
<mgrwt>
<rscale>  0 0.30847056E+02</rscale>
<asrwt>0</asrwt>
<pdfrwt beam="2">  1        2 0.37640781E-01 0.20539571E+02</pdfrwt>
<pdfrwt beam="1">  1        1 0.15036047E+00 0.46327203E+02</pdfrwt>
<totfact> 0.33065415E+02</totfact>
</mgrwt>
</event>
<event>
 5    1  0.8274494E-003  0.1814406E+03  0.7546771E-02  0.1295685E+00
         -1   -1    0    0    0  501 -0.00000000000E+00  0.00000000000E+00  0.14904875149E+03  0.14904875149E+03  0.00000000000E+00 0.  1.
          1   -1    0    0  502    0  0.00000000000E+00 -0.00000000000E+00 -0.16085013780E+04  0.16085013780E+04  0.00000000000E+00 0. -1.
         25    1    1    2    0    0  0.53319769643E+02 -0.12747201026E+03 -0.61452006539E+03  0.64214641789E+03  0.12500000000E+03 0.  0.
          2    1    1    2  502    0  0.19494715857E+02 -0.43529007472E+02 -0.91539514048E+03  0.91663683193E+03  0.00000000000E+00 0. -1.
         -2    1    1    2    0  501 -0.72814485500E+02  0.17100101773E+03  0.70462579364E+02  0.19876687967E+03  0.00000000000E+00 0.  1.
<mgrwt>
<rscale>  0 0.93025898E+02</rscale>
<asrwt>0</asrwt>
<pdfrwt beam="2">  1        1 0.24746176E+00 0.47695057E+02</pdfrwt>
<pdfrwt beam="1">  1       -1 0.22930576E-01 0.18144056E+03</pdfrwt>
<totfact> 0.11634470E+02</totfact>
</mgrwt>
</event>
<event>
 5    1  0.8274494E-003  0.4352390E+02  0.7546771E-02  0.1560101E+00
          2   -1    0    0  502    0  0.00000000000E+00  0.00000000000E+00  0.18827880619E+03  0.18827880619E+03  0.00000000000E+00 0. -1.
         -2   -1    0    0    0  501 -0.00000000000E+00 -0.00000000000E+00 -0.25661197602E+03  0.25661197602E+03  0.00000000000E+00 0.  1.
         25    1    1    2    0    0  0.15592480417E+02  0.16309488579E+02  0.76737698953E+02  0.14840080628E+03  0.12500000000E+03 0.  0.
          1    1    1    2  502    0 -0.26854308263E+02 -0.39912954249E+02  0.67183437646E+02  0.82630575957E+02  0.00000000000E+00 0. -1.
         -1    1    1    2    0  501  0.11261827846E+02  0.23603465670E+02 -0.21225430643E+03  0.21385939997E+03  0.00000000000E+00 0.  1.
<mgrwt>
<rscale>  0 0.33738079E+02</rscale>
<asrwt>0</asrwt>
<pdfrwt beam="1">  1        2 0.28965970E-01 0.43523897E+02</pdfrwt>
<pdfrwt beam="2">  1       -2 0.39478765E-01 0.26152483E+02</pdfrwt>
<totfact> 0.10356816E+03</totfact>
</mgrwt>
</event>
<event>
 5    1  0.8274494E-003  0.1210855E+03  0.7546771E-02  0.1321780E+00
         -2   -1    0    0    0  501 -0.00000000000E+00  0.00000000000E+00  0.93460706479E+02  0.93460706479E+02  0.00000000000E+00 0.  1.
          2   -1    0    0  502    0  0.00000000000E+00 -0.00000000000E+00 -0.13209489968E+04  0.13209489968E+04  0.00000000000E+00 0. -1.
         25    1    1    2    0    0  0.65130364950E+02  0.14016193229E+03 -0.17430855367E+03  0.26437814506E+03  0.12500000000E+03 0.  0.
          1    1    1    2  502    0 -0.48269560365E+02 -0.29118445059E+02 -0.10346649424E+04  0.10361994872E+04  0.00000000000E+00 0. -1.
         -1    1    1    2    0  501 -0.16860804585E+02 -0.11104348724E+03 -0.18514794299E+02  0.11383207104E+03  0.00000000000E+00 0.  1.
<mgrwt>
<rscale>  0 0.82618797E+02</rscale>
<asrwt>0</asrwt>
<pdfrwt beam="2">  1        2 0.20322292E+00 0.56372283E+02</pdfrwt>
<pdfrwt beam="1">  1       -2 0.14378570E-01 0.12108549E+03</pdfrwt>
<totfact> 0.67841143E+02</totfact>
</mgrwt>
</event>
<event>
 5    1  0.8274494E-003  0.1278454E+03  0.7546771E-02  0.1332987E+00
          1   -1    0    0  502    0  0.00000000000E+00  0.00000000000E+00  0.15540773827E+04  0.15540773827E+04  0.00000000000E+00 0. -1.
         -1   -1    0    0    0  501 -0.00000000000E+00 -0.00000000000E+00 -0.19809533590E+03  0.19809533590E+03  0.00000000000E+00 0.  1.
         25    1    1    2    0    0 -0.15525753528E+03  0.38410566591E+02  0.12671481572E+03  0.23929462679E+03  0.12500000000E+03 0.  0.
          2    1    1    2  502    0  0.45048961881E+02  0.17585742454E+02  0.13436137657E+04  0.13444837741E+04  0.00000000000E+00 0. -1.
         -2    1    1    2    0  501  0.11020857340E+03 -0.55996309045E+02 -0.11434653461E+03  0.16839431777E+03  0.00000000000E+00 0.  1.
<mgrwt>
<rscale>  0 0.78629339E+02</rscale>
<asrwt>0</asrwt>
<pdfrwt beam="1">  1        1 0.23908882E+00 0.48359769E+02</pdfrwt>
<pdfrwt beam="2">  1       -1 0.30476207E-01 0.12784538E+03</pdfrwt>
<totfact> 0.77768217E+01</totfact>
</mgrwt>
</event>
<event>
 5    1  0.8274494E-003  0.3025382E+03  0.7546771E-02  0.1138604E+00
          2   -1    0    0  502    0  0.00000000000E+00  0.00000000000E+00  0.22041991225E+03  0.22041991225E+03  0.00000000000E+00 0. -1.
          1   -1    0    0  501    0 -0.00000000000E+00 -0.00000000000E+00 -0.19381755509E+04  0.19381755509E+04  0.00000000000E+00 0. -1.
         25    1    1    2    0    0  0.11056495365E+03  0.29059495423E+03 -0.10555862209E+04  0.11075004768E+04  0.12500000000E+03 0.  0.
          2    1    1    2  501    0 -0.23556032842E+03 -0.20575787697E+03 -0.79224153790E+03  0.85174622196E+03  0.00000000000E+00 0. -1.
          3    1    1    2  502    0  0.12499537477E+03 -0.84837077261E+02  0.13007212019E+03  0.19934876433E+03  0.00000000000E+00 0. -1.
<mgrwt>
<rscale>  0 0.21378370E+03</rscale>
<asrwt>0</asrwt>
<pdfrwt beam="1">  1        2 0.33910757E-01 0.15106678E+03</pdfrwt>
<pdfrwt beam="2">  1        1 0.29818084E+00 0.30253818E+03</pdfrwt>
<totfact> 0.75914457E+01</totfact>
</mgrwt>
</event>
<event>
 5    1  0.8274494E-003  0.6652228E+02  0.7546771E-02  0.1401133E+00
          2   -1    0    0  502    0  0.00000000000E+00  0.00000000000E+00  0.13043314385E+04  0.13043314385E+04  0.00000000000E+00 0. -1.
         -2   -1    0    0    0  501 -0.00000000000E+00 -0.00000000000E+00 -0.36881237568E+03  0.36881237568E+03  0.00000000000E+00 0.  1.
         25    1    1    2    0    0  0.41459998963E+02 -0.10044578137E+03  0.96238929665E+02  0.19155995952E+03  0.12500000000E+03 0.  0.
          1    1    1    2  502    0 -0.39624582221E+02  0.34774859535E+02  0.11564653609E+04  0.11576664154E+04  0.00000000000E+00 0. -1.
         -1    1    1    2    0  501 -0.18354167422E+01  0.65670921837E+02 -0.31718522777E+03  0.32391743924E+03  0.00000000000E+00 0.  1.
<mgrwt>
<rscale>  0 0.59220392E+02</rscale>
<asrwt>0</asrwt>
<pdfrwt beam="1">  1        2 0.20066637E+00 0.52720000E+02</pdfrwt>
<pdfrwt beam="2">  1       -2 0.56740366E-01 0.66522284E+02</pdfrwt>
<totfact> 0.59347805E+01</totfact>
</mgrwt>
</event>
<event>
 5    1  0.8274494E-003  0.9559379E+02  0.7546771E-02  0.1293703E+00
          2   -1    0    0  502    0  0.00000000000E+00  0.00000000000E+00  0.99839579053E+03  0.99839579053E+03  0.00000000000E+00 0. -1.
         -2   -1    0    0    0  501 -0.00000000000E+00 -0.00000000000E+00 -0.43587323916E+03  0.43587323916E+03  0.00000000000E+00 0.  1.
         25    1    1    2    0    0  0.13735497270E+02 -0.89438615253E+02  0.67969639908E+03  0.69699363319E+03  0.12500000000E+03 0.  0.
          1    1    1    2  502    0 -0.10379270108E+03  0.69626354403E+02  0.29211419201E+03  0.31772858731E+03  0.00000000000E+00 0. -1.
         -1    1    1    2    0  501  0.90057203806E+02  0.19812260850E+02 -0.40928803972E+03  0.41954680918E+03  0.00000000000E+00 0.  1.
<mgrwt>
<rscale>  0 0.93887044E+02</rscale>
<asrwt>0</asrwt>
<pdfrwt beam="1">  1        2 0.15359935E+00 0.95593793E+02</pdfrwt>
<pdfrwt beam="2">  1       -2 0.67057422E-01 0.92210767E+02</pdfrwt>
<totfact> 0.59633504E+01</totfact>
</mgrwt>
</event>
<event>
 5    1  0.8274494E-003  0.5881058E+03  0.7546771E-02  0.1143759E+00
          2   -1    0    0  502    0  0.00000000000E+00  0.00000000000E+00  0.35234176665E+04  0.35234176665E+04  0.00000000000E+00 0. -1.
         -2   -1    0    0    0  501 -0.00000000000E+00 -0.00000000000E+00 -0.58709880804E+03  0.58709880804E+03  0.00000000000E+00 0.  1.
         25    1    1    2    0    0 -0.26484820370E+03 -0.58291801177E+03  0.53206198761E+03  0.84181526365E+03  0.12500000000E+03 0.  0.
          1    1    1    2  502    0  0.27229734024E+03  0.51026051054E+03  0.28036498461E+04  0.28626847695E+04  0.00000000000E+00 0. -1.
         -1    1    1    2    0  501 -0.74491365400E+01  0.72657501236E+02 -0.39939297516E+03  0.40601644145E+03  0.00000000000E+00 0.  1.
<mgrwt>
<rscale>  0 0.20725416E+03</rscale>
<asrwt>0</asrwt>
<pdfrwt beam="1">  1        2 0.54206424E+00 0.58810584E+03</pdfrwt>
<pdfrwt beam="2">  1       -2 0.90322896E-01 0.73038361E+02</pdfrwt>
<totfact> 0.98507036E-01</totfact>
</mgrwt>
</event>
<event>
 5    1  0.8274494E-003  0.1230531E+03  0.7546771E-02  0.1439384E+00
          2   -1    0    0  502    0  0.00000000000E+00  0.00000000000E+00  0.31490241013E+03  0.31490241013E+03  0.00000000000E+00 0. -1.
          1   -1    0    0  501    0 -0.00000000000E+00 -0.00000000000E+00 -0.32202256729E+04  0.32202256729E+04  0.00000000000E+00 0. -1.
         25    1    1    2    0    0  0.10529335533E+03 -0.24936561221E+02 -0.26795999783E+04  0.26846954327E+04  0.12500000000E+03 0.  0.
          2    1    1    2  501    0  0.17197540085E+02  0.12462031876E+02 -0.52572187726E+03  0.52615069120E+03  0.00000000000E+00 0. -1.
          1    1    1    2  502    0 -0.12249089541E+03  0.12474529345E+02  0.29999859278E+03  0.32428195912E+03  0.00000000000E+00 0. -1.
<mgrwt>
<rscale>  0 0.51121576E+02</rscale>
<asrwt>0</asrwt>
<pdfrwt beam="1">  1        2 0.48446525E-01 0.12305307E+03</pdfrwt>
<pdfrwt beam="2">  1        1 0.49541933E+00 0.21238117E+02</pdfrwt>
<totfact> 0.11670319E+01</totfact>
</mgrwt>
</event>
<event>
 5    1  0.8274494E-003  0.6266372E+02  0.7546771E-02  0.1390944E+00
          2   -1    0    0  502    0  0.00000000000E+00  0.00000000000E+00  0.21802513393E+03  0.21802513393E+03  0.00000000000E+00 0. -1.
          1   -1    0    0  501    0 -0.00000000000E+00 -0.00000000000E+00 -0.25031388305E+03  0.25031388305E+03  0.00000000000E+00 0. -1.
         25    1    1    2    0    0 -0.30873259309E+02 -0.59245542729E+01  0.72055045688E+02  0.14766579866E+03  0.12500000000E+03 0.  0.
          2    1    1    2  501    0  0.35359974780E+02 -0.54606453887E+02 -0.19836594602E+03  0.20876120608E+03  0.00000000000E+00 0. -1.
          1    1    1    2  502    0 -0.44867154700E+01  0.60531008160E+02  0.94022151218E+02  0.11191201224E+03  0.00000000000E+00 0. -1.
<mgrwt>
<rscale>  0 0.61672556E+02</rscale>
<asrwt>0</asrwt>
<pdfrwt beam="1">  1        2 0.33542328E-01 0.60697064E+02</pdfrwt>
<pdfrwt beam="2">  1        1 0.38509828E-01 0.62663725E+02</pdfrwt>
<totfact> 0.22327142E+03</totfact>
</mgrwt>
</event>
<event>
 5    1  0.8274494E-003  0.7264786E+02  0.7546771E-02  0.1477553E+00
          1   -1    0    0  501    0 -0.00000000000E+00  0.00000000000E+00  0.22289621608E+04  0.22289621608E+04  0.00000000000E+00 0. -1.
          2   -1    0    0  502    0  0.00000000000E+00 -0.00000000000E+00 -0.57394894139E+03  0.57394894139E+03  0.00000000000E+00 0. -1.
         25    1    1    2    0    0  0.55855329443E+02 -0.60079992466E+02  0.30910691230E+02  0.15267578116E+03  0.12500000000E+03 0.  0.
          2    1    1    2  501    0 -0.64086819192E+02  0.34107630271E+02  0.21361901543E+04  0.21374234082E+04  0.00000000000E+00 0. -1.
          1    1    1    2  502    0  0.82314897493E+01  0.25972362194E+02 -0.51208762614E+03  0.51281191275E+03  0.00000000000E+00 0. -1.
<mgrwt>
<rscale>  0 0.44489686E+02</rscale>
<asrwt>0</asrwt>
<pdfrwt beam="2">  1        2 0.88299838E-01 0.27245569E+02</pdfrwt>
<pdfrwt beam="1">  1        1 0.34291725E+00 0.72647856E+02</pdfrwt>
<totfact> 0.21676571E+01</totfact>
</mgrwt>
</event>
<event>
 5    1  0.8274494E-003  0.4688658E+02  0.7546771E-02  0.1505468E+00
         -1   -1    0    0    0  501 -0.00000000000E+00  0.00000000000E+00  0.22729878674E+03  0.22729878674E+03  0.00000000000E+00 0.  1.
          1   -1    0    0  502    0  0.00000000000E+00 -0.00000000000E+00 -0.43456077825E+03  0.43456077825E+03  0.00000000000E+00 0. -1.
         25    1    1    2    0    0 -0.53889527242E+02 -0.37629413728E+02  0.81751542104E+02  0.16318201053E+03  0.12500000000E+03 0.  0.
          2    1    1    2  502    0  0.34583600228E+02 -0.35774173895E+01 -0.38809333499E+03  0.38964761001E+03  0.00000000000E+00 0. -1.
         -2    1    1    2    0  501  0.19305927015E+02  0.41206831118E+02  0.99079801368E+02  0.10902994445E+03  0.00000000000E+00 0.  1.
<mgrwt>
<rscale>  0 0.40375229E+02</rscale>
<asrwt>0</asrwt>
<pdfrwt beam="2">  1        1 0.66855503E-01 0.34768137E+02</pdfrwt>
<pdfrwt beam="1">  1       -1 0.34969045E-01 0.46886583E+02</pdfrwt>
<totfact> 0.43514117E+02</totfact>
</mgrwt>
</event>
<event>
 5    1  0.8274494E-003  0.5882893E+02  0.7546771E-02  0.1414668E+00
          1   -1    0    0  501    0 -0.00000000000E+00  0.00000000000E+00  0.99227123586E+03  0.99227123586E+03  0.00000000000E+00 0. -1.
          2   -1    0    0  502    0  0.00000000000E+00 -0.00000000000E+00 -0.22725469752E+03  0.22725469752E+03  0.00000000000E+00 0. -1.
         25    1    1    2    0    0 -0.17406676602E+02  0.29817091477E+02  0.69061403234E+03  0.70268399227E+03  0.12500000000E+03 0.  0.
          2    1    1    2  501    0 -0.22496488493E+02 -0.73044171081E+02  0.28661271504E+03  0.29662837246E+03  0.00000000000E+00 0. -1.
          1    1    1    2  502    0  0.39903165095E+02  0.43227079604E+02 -0.21221020904E+03  0.22021356865E+03  0.00000000000E+00 0. -1.
<mgrwt>
<rscale>  0 0.56165110E+02</rscale>
<asrwt>0</asrwt>
<pdfrwt beam="2">  1        2 0.34962262E-01 0.58828930E+02</pdfrwt>
<pdfrwt beam="1">  1        1 0.15265711E+00 0.53621910E+02</pdfrwt>
<totfact> 0.35412665E+02</totfact>
</mgrwt>
</event>
<event>
 5    1  0.8274494E-003  0.6046895E+02  0.7546771E-02  0.1495801E+00
          2   -1    0    0  502    0  0.00000000000E+00  0.00000000000E+00  0.20539947265E+04  0.20539947265E+04  0.00000000000E+00 0. -1.
          1   -1    0    0  501    0 -0.00000000000E+00 -0.00000000000E+00 -0.64792535342E+02  0.64792535342E+02  0.00000000000E+00 0. -1.
         25    1    1    2    0    0  0.90225605711E+01 -0.55941733860E+02  0.50453816585E+03  0.52287153775E+03  0.12500000000E+03 0.  0.
          2    1    1    2  501    0 -0.28743991117E+02 -0.19266998980E+01 -0.51246515352E+02  0.58788898047E+02  0.00000000000E+00 0. -1.
          1    1    1    2  502    0  0.19721430546E+02  0.57868433758E+02  0.15359105406E+04  0.15371268260E+04  0.00000000000E+00 0. -1.
<mgrwt>
<rscale>  0 0.41737502E+02</rscale>
<asrwt>0</asrwt>
<pdfrwt beam="1">  1        2 0.31599914E+00 0.60468945E+02</pdfrwt>
<pdfrwt beam="2">  1        1 0.99680839E-02 0.28808492E+02</pdfrwt>
<totfact> 0.61765193E+02</totfact>
</mgrwt>
</event>
<event>
 5    1  0.8274494E-003  0.7574828E+02  0.7546771E-02  0.1459247E+00
          2   -1    0    0  502    0  0.00000000000E+00  0.00000000000E+00  0.74799192592E+03  0.74799192592E+03  0.00000000000E+00 0. -1.
          1   -1    0    0  501    0 -0.00000000000E+00 -0.00000000000E+00 -0.16207950373E+04  0.16207950373E+04  0.00000000000E+00 0. -1.
         25    1    1    2    0    0  0.87270689957E+01  0.10023341568E+03 -0.14336212850E+03  0.21517574036E+03  0.12500000000E+03 0.  0.
          2    1    1    2  501    0  0.11481991966E+02 -0.27499307057E+02 -0.14393707499E+04  0.14396792017E+04  0.00000000000E+00 0. -1.
          1    1    1    2  502    0 -0.20209060962E+02 -0.72734108626E+02  0.70992976705E+03  0.71393202117E+03  0.00000000000E+00 0. -1.
<mgrwt>
<rscale>  0 0.47511147E+02</rscale>
<asrwt>0</asrwt>
<pdfrwt beam="1">  1        2 0.11507568E+00 0.75748285E+02</pdfrwt>
<pdfrwt beam="2">  1        1 0.24935308E+00 0.29800135E+02</pdfrwt>
<totfact> 0.41627097E+01</totfact>
</mgrwt>
</event>
<event>
 5    1  0.8274494E-003  0.6922455E+02  0.7546771E-02  0.1420255E+00
          2   -1    0    0  502    0  0.00000000000E+00  0.00000000000E+00  0.50069496319E+03  0.50069496319E+03  0.00000000000E+00 0. -1.
          1   -1    0    0  501    0 -0.00000000000E+00 -0.00000000000E+00 -0.97793199328E+02  0.97793199328E+02  0.00000000000E+00 0. -1.
         25    1    1    2    0    0 -0.21598995113E+02 -0.34282343950E+02  0.10711828283E+03  0.16953206839E+03  0.12500000000E+03 0.  0.
          2    1    1    2  501    0 -0.43639771507E+02  0.73966732388E+00 -0.55210255123E+02  0.70378612061E+02  0.00000000000E+00 0. -1.
          1    1    1    2  502    0  0.65238766620E+02  0.33542676626E+02  0.35099373615E+03  0.35857748206E+03  0.00000000000E+00 0. -1.
<mgrwt>
<rscale>  0 0.54967058E+02</rscale>
<asrwt>0</asrwt>
<pdfrwt beam="1">  1        2 0.77029993E-01 0.69224552E+02</pdfrwt>
<pdfrwt beam="2">  1        1 0.15045108E-01 0.43646040E+02</pdfrwt>
<totfact> 0.29269342E+03</totfact>
</mgrwt>
</event>
<event>
 5    1  0.8274494E-003  0.1543160E+03  0.7546771E-02  0.1302988E+00
          1   -1    0    0  501    0 -0.00000000000E+00  0.00000000000E+00  0.30292692910E+03  0.30292692910E+03  0.00000000000E+00 0. -1.
          2   -1    0    0  502    0  0.00000000000E+00 -0.00000000000E+00 -0.19926540971E+04  0.19926540971E+04  0.00000000000E+00 0. -1.
         25    1    1    2    0    0  0.11576584351E+03  0.13274069559E+01 -0.52204584307E+03  0.54914511269E+03  0.12500000000E+03 0.  0.
          2    1    1    2  501    0  0.52307163886E+02  0.34998406760E+01  0.28210354062E+03  0.28693326037E+03  0.00000000000E+00 0. -1.
          1    1    1    2  502    0 -0.16807300740E+03 -0.48272476318E+01 -0.14497848655E+04  0.14595026531E+04  0.00000000000E+00 0. -1.
<mgrwt>
<rscale>  0 0.89943767E+02</rscale>
<asrwt>0</asrwt>
<pdfrwt beam="2">  1        2 0.30656217E+00 0.15431602E+03</pdfrwt>
<pdfrwt beam="1">  1        1 0.46604142E-01 0.52424119E+02</pdfrwt>
<totfact> 0.94131418E+01</totfact>
</mgrwt>
</event>
<event>
 5    1  0.8274494E-003  0.7655527E+02  0.7546771E-02  0.1358874E+00
          2   -1    0    0  502    0  0.00000000000E+00  0.00000000000E+00  0.58411565210E+03  0.58411565210E+03  0.00000000000E+00 0. -1.
          1   -1    0    0  501    0 -0.00000000000E+00 -0.00000000000E+00 -0.19415588786E+04  0.19415588786E+04  0.00000000000E+00 0. -1.
         25    1    1    2    0    0 -0.15808316915E+02 -0.19221782523E+02  0.16348605822E+03  0.20729705989E+03  0.12500000000E+03 0.  0.
          2    1    1    2  501    0 -0.19897335262E+02 -0.61528563497E+02 -0.19142129114E+04  0.19153048682E+04  0.00000000000E+00 0. -1.
          1    1    1    2  502    0  0.35705652177E+02  0.80750346021E+02  0.39328362665E+03  0.40307260260E+03  0.00000000000E+00 0. -1.
<mgrwt>
<rscale>  0 0.70359854E+02</rscale>
<asrwt>0</asrwt>
<pdfrwt beam="1">  1        2 0.89863949E-01 0.76555267E+02</pdfrwt>
<pdfrwt beam="2">  1        1 0.29870136E+00 0.64665818E+02</pdfrwt>
<totfact> 0.31975963E+01</totfact>
</mgrwt>
</event>
<event>
 5    1  0.8274494E-003  0.2470123E+03  0.7546771E-02  0.1224186E+00
         -2   -1    0    0    0  501 -0.00000000000E+00  0.00000000000E+00  0.18785889186E+04  0.18785889186E+04  0.00000000000E+00 0.  1.
          2   -1    0    0  502    0  0.00000000000E+00 -0.00000000000E+00 -0.19729642911E+04  0.19729642911E+04  0.00000000000E+00 0. -1.
         25    1    1    2    0    0 -0.85503713365E+02 -0.30135627589E+03  0.26358505380E+03  0.42805206530E+03  0.12500000000E+03 0.  0.
          1    1    1    2  502    0  0.84283794982E+02  0.23058318423E+03 -0.18819363951E+04  0.18978822298E+04  0.00000000000E+00 0. -1.
         -1    1    1    2    0  501  0.12199183838E+01  0.70773091659E+02  0.15239759689E+04  0.15256189146E+04  0.00000000000E+00 0.  1.
<mgrwt>
<rscale>  0 0.13222866E+03</rscale>
<asrwt>0</asrwt>
<pdfrwt beam="2">  1        2 0.30353297E+00 0.24701227E+03</pdfrwt>
<pdfrwt beam="1">  1       -2 0.28901368E+00 0.70783605E+02</pdfrwt>
<totfact> 0.38625442E-01</totfact>
</mgrwt>
</event>
<event>
 5    1  0.8274494E-003  0.6889417E+02  0.7546771E-02  0.1381127E+00
          1   -1    0    0  501    0 -0.00000000000E+00  0.00000000000E+00  0.14752494245E+03  0.14752494245E+03  0.00000000000E+00 0. -1.
          2   -1    0    0  502    0  0.00000000000E+00 -0.00000000000E+00 -0.10091265526E+04  0.10091265526E+04  0.00000000000E+00 0. -1.
         25    1    1    2    0    0 -0.63013940769E+02  0.36905995143E+02 -0.60634080688E+03  0.62338349617E+03  0.12500000000E+03 0.  0.
          2    1    1    2  501    0  0.65327167703E+02  0.22816196390E+02  0.12792948237E+03  0.14544473218E+03  0.00000000000E+00 0. -1.
          1    1    1    2  502    0 -0.23132269343E+01 -0.59722191533E+02 -0.38319028561E+03  0.38782326667E+03  0.00000000000E+00 0. -1.
<mgrwt>
<rscale>  0 0.64168496E+02</rscale>
<asrwt>0</asrwt>
<pdfrwt beam="2">  1        2 0.15525025E+00 0.59766974E+02</pdfrwt>
<pdfrwt beam="1">  1        1 0.22696144E-01 0.68894167E+02</pdfrwt>
<totfact> 0.79528266E+02</totfact>
</mgrwt>
</event>
<event>
 5    1  0.8274494E-003  0.6247782E+02  0.7546771E-02  0.1496520E+00
          1   -1    0    0  502    0  0.00000000000E+00  0.00000000000E+00  0.10286136619E+04  0.10286136619E+04  0.00000000000E+00 0. -1.
         -1   -1    0    0    0  501 -0.00000000000E+00 -0.00000000000E+00 -0.26889032326E+03  0.26889032326E+03  0.00000000000E+00 0.  1.
         25    1    1    2    0    0 -0.17243059649E+00 -0.48395001665E+02  0.19202041960E+02  0.13540983839E+03  0.12500000000E+03 0.  0.
          2    1    1    2  502    0 -0.26047324870E+02 -0.95535019073E+01  0.94630167162E+03  0.94670828994E+03  0.00000000000E+00 0. -1.
         -2    1    1    2    0  501  0.26219755467E+02  0.57948503572E+02 -0.20578037490E+03  0.21538585686E+03  0.00000000000E+00 0.  1.
<mgrwt>
<rscale>  0 0.41633978E+02</rscale>
<asrwt>0</asrwt>
<pdfrwt beam="1">  1        1 0.15824825E+00 0.27744054E+02</pdfrwt>
<pdfrwt beam="2">  1       -1 0.41367743E-01 0.62477825E+02</pdfrwt>
<totfact> 0.10424697E+02</totfact>
</mgrwt>
</event>
<event>
 5    1  0.8274494E-003  0.8742556E+02  0.7546771E-02  0.1386004E+00
         -2   -1    0    0    0  501 -0.00000000000E+00  0.00000000000E+00  0.41142935413E+02  0.41142935413E+02  0.00000000000E+00 0.  1.
          2   -1    0    0  502    0  0.00000000000E+00 -0.00000000000E+00 -0.14125167932E+04  0.14125167932E+04  0.00000000000E+00 0. -1.
         25    1    1    2    0    0 -0.37730114692E+02  0.10666125410E+03 -0.27892778610E+03  0.32592314207E+03  0.12500000000E+03 0.  0.
          1    1    1    2  502    0  0.56080035217E+02 -0.65275602322E+02 -0.10762048912E+04  0.10796401449E+04  0.00000000000E+00 0. -1.
         -1    1    1    2    0  501 -0.18349920526E+02 -0.41385651782E+02 -0.16241180501E+02  0.48096441665E+02  0.00000000000E+00 0.  1.
<mgrwt>
<rscale>  0 0.62911603E+02</rscale>
<asrwt>0</asrwt>
<pdfrwt beam="2">  1        2 0.21731029E+00 0.87425558E+02</pdfrwt>
<pdfrwt beam="1">  1       -2 0.63296819E-02 0.45271313E+02</pdfrwt>
<totfact> 0.19382447E+03</totfact>
</mgrwt>
</event>
<event>
 5    1  0.8274494E-003  0.6271038E+02  0.7546771E-02  0.1439236E+00
          1   -1    0    0  501    0 -0.00000000000E+00  0.00000000000E+00  0.11639836858E+04  0.11639836858E+04  0.00000000000E+00 0. -1.
          2   -1    0    0  502    0  0.00000000000E+00 -0.00000000000E+00 -0.15111617141E+04  0.15111617141E+04  0.00000000000E+00 0. -1.
         25    1    1    2    0    0  0.24741135181E+02 -0.88455804885E+02  0.85360904422E+01  0.15535256042E+03  0.12500000000E+03 0.  0.
          2    1    1    2  501    0  0.13933304547E+02  0.39325065511E+02  0.10809569600E+04  0.10817617793E+04  0.00000000000E+00 0. -1.
          1    1    1    2  502    0 -0.38674439729E+02  0.49130739375E+02 -0.14366710787E+04  0.14380310602E+04  0.00000000000E+00 0. -1.
<mgrwt>
<rscale>  0 0.51149845E+02</rscale>
<asrwt>0</asrwt>
<pdfrwt beam="2">  1        2 0.23248642E+00 0.62710379E+02</pdfrwt>
<pdfrwt beam="1">  1        1 0.17907441E+00 0.41720472E+02</pdfrwt>
<totfact> 0.29168559E+01</totfact>
</mgrwt>
</event>
<event>
 5    1  0.8274494E-003  0.4057258E+02  0.7546771E-02  0.1530051E+00
         -2   -1    0    0    0  501 -0.00000000000E+00  0.00000000000E+00  0.53890111360E+02  0.53890111360E+02  0.00000000000E+00 0.  1.
          2   -1    0    0  502    0  0.00000000000E+00 -0.00000000000E+00 -0.31848029094E+03  0.31848029094E+03  0.00000000000E+00 0. -1.
         25    1    1    2    0    0 -0.54712054425E+02 -0.39443417749E+02 -0.16670080539E+03  0.21900536665E+03  0.12500000000E+03 0.  0.
          1    1    1    2  502    0  0.36117124102E+02  0.10893710150E+02 -0.11071046812E+03  0.11696122147E+03  0.00000000000E+00 0. -1.
         -1    1    1    2    0  501  0.18594930323E+02  0.28549707599E+02  0.12821093933E+02  0.36403814187E+02  0.00000000000E+00 0.  1.
<mgrwt>
<rscale>  0 0.37180138E+02</rscale>
<asrwt>0</asrwt>
<pdfrwt beam="2">  1        2 0.48996967E-01 0.40572576E+02</pdfrwt>
<pdfrwt beam="1">  1       -2 0.82907865E-02 0.34071355E+02</pdfrwt>
<totfact> 0.76852012E+03</totfact>
</mgrwt>
</event>
<event>
 5    1  0.8274494E-003  0.8589505E+02  0.7546771E-02  0.1397985E+00
         -2   -1    0    0    0  501 -0.00000000000E+00  0.00000000000E+00  0.76860020615E+01  0.76860020615E+01  0.00000000000E+00 0.  1.
          2   -1    0    0  502    0  0.00000000000E+00 -0.00000000000E+00 -0.30098803605E+04  0.30098803605E+04  0.00000000000E+00 0. -1.
         25    1    1    2    0    0  0.84811177090E+02  0.28399120987E+02 -0.21073567779E+04  0.21129545748E+04  0.12500000000E+03 0.  0.
          3    1    1    2  502    0 -0.60845196250E+02 -0.62720454543E+02 -0.69232907542E+03  0.69782199879E+03  0.00000000000E+00 0. -1.
         -3    1    1    2    0  501 -0.23965980840E+02  0.34321333556E+02 -0.20250850512E+03  0.20678978896E+03  0.00000000000E+00 0.  1.
<mgrwt>
<rscale>  0 0.59963581E+02</rscale>
<asrwt>0</asrwt>
<pdfrwt beam="2">  1        2 0.46305766E+00 0.85895051E+02</pdfrwt>
<pdfrwt beam="1">  1       -2 0.11824641E-02 0.41860747E+02</pdfrwt>
<totfact> 0.30899944E+03</totfact>
</mgrwt>
</event>
<event>
 5    1  0.8274494E-003  0.1249199E+03  0.7546771E-02  0.1409075E+00
          1   -1    0    0  502    0  0.00000000000E+00  0.00000000000E+00  0.52543133042E+03  0.52543133042E+03  0.00000000000E+00 0. -1.
         -1   -1    0    0    0  501 -0.00000000000E+00 -0.00000000000E+00 -0.19299942649E+03  0.19299942649E+03  0.00000000000E+00 0.  1.
         25    1    1    2    0    0 -0.12071823776E+03 -0.70907776297E+01 -0.68594052021E+02  0.18695805954E+03  0.12500000000E+03 0.  0.
          2    1    1    2  502    0 -0.86896342980E+01  0.24903049631E+02  0.39997173586E+03  0.40084044345E+03  0.00000000000E+00 0. -1.
         -2    1    1    2    0  501  0.12940787205E+03 -0.17812272001E+02  0.10542201017E+01  0.13063225392E+03  0.00000000000E+00 0.  1.
<mgrwt>
<rscale>  0 0.57400663E+02</rscale>
<asrwt>0</asrwt>
<pdfrwt beam="1">  1        1 0.80835589E-01 0.26375588E+02</pdfrwt>
<pdfrwt beam="2">  1       -1 0.29692220E-01 0.12491991E+03</pdfrwt>
<totfact> 0.46415277E+02</totfact>
</mgrwt>
</event>
<event>
 5    1  0.8274494E-003  0.1335107E+03  0.7546771E-02  0.1326465E+00
          2   -1    0    0  502    0  0.00000000000E+00  0.00000000000E+00  0.10487015776E+03  0.10487015776E+03  0.00000000000E+00 0. -1.
          1   -1    0    0  501    0 -0.00000000000E+00 -0.00000000000E+00 -0.10658530555E+04  0.10658530555E+04  0.00000000000E+00 0. -1.
         25    1    1    2    0    0 -0.67325666574E+02 -0.10576196841E+03 -0.38008401118E+03  0.41929368573E+03  0.12500000000E+03 0.  0.
          2    1    1    2  501    0  0.28575973460E+02  0.13582364946E+03 -0.65113584971E+03  0.66576463167E+03  0.00000000000E+00 0. -1.
          1    1    1    2  502    0  0.38749693114E+02 -0.30061681048E+02  0.70236963164E+02  0.85664895835E+02  0.00000000000E+00 0. -1.
<mgrwt>
<rscale>  0 0.80918480E+02</rscale>
<asrwt>0</asrwt>
<pdfrwt beam="1">  1        2 0.16133871E-01 0.49043281E+02</pdfrwt>
<pdfrwt beam="2">  1        1 0.16397738E+00 0.13351065E+03</pdfrwt>
<totfact> 0.67493170E+02</totfact>
</mgrwt>
</event>
<event>
 5    1  0.8274494E-003  0.6325758E+02  0.7546771E-02  0.1401795E+00
          1   -1    0    0  501    0 -0.00000000000E+00  0.00000000000E+00  0.41544471092E+03  0.41544471092E+03  0.00000000000E+00 0. -1.
          2   -1    0    0  502    0  0.00000000000E+00 -0.00000000000E+00 -0.34525923656E+03  0.34525923656E+03  0.00000000000E+00 0. -1.
         25    1    1    2    0    0 -0.22728838058E+02 -0.42203420213E+02  0.18666937536E+03  0.22971326573E+03  0.12500000000E+03 0.  0.
          2    1    1    2  501    0 -0.40882966868E+02  0.37017397906E+02  0.20034491112E+03  0.20779746904E+03  0.00000000000E+00 0. -1.
          1    1    1    2  502    0  0.63611804926E+02  0.51860223068E+01 -0.31682881212E+03  0.32319321271E+03  0.00000000000E+00 0. -1.
<mgrwt>
<rscale>  0 0.59065727E+02</rscale>
<asrwt>0</asrwt>
<pdfrwt beam="2">  1        2 0.53116806E-01 0.63257582E+02</pdfrwt>
<pdfrwt beam="1">  1        1 0.63914571E-01 0.55151652E+02</pdfrwt>
<totfact> 0.75333772E+02</totfact>
</mgrwt>
</event>
<event>
 5    1  0.8274494E-003  0.7498820E+02  0.7546771E-02  0.1390692E+00
         -2   -1    0    0    0  501 -0.00000000000E+00  0.00000000000E+00  0.19599587987E+02  0.19599587987E+02  0.00000000000E+00 0.  1.
          2   -1    0    0  502    0  0.00000000000E+00 -0.00000000000E+00 -0.12836652473E+04  0.12836652473E+04  0.00000000000E+00 0. -1.
         25    1    1    2    0    0 -0.72320514257E+02 -0.90860983237E+02 -0.52829855159E+03  0.55516694306E+03  0.12500000000E+03 0.  0.
          1    1    1    2  502    0  0.53547751681E+02  0.43631273167E+02 -0.58346920290E+03  0.58754349664E+03  0.00000000000E+00 0. -1.
         -1    1    1    2    0  501  0.18772762576E+02  0.47229710069E+02 -0.15229790479E+03  0.16055439555E+03  0.00000000000E+00 0.  1.
<mgrwt>
<rscale>  0 0.61734819E+02</rscale>
<asrwt>0</asrwt>
<pdfrwt beam="2">  1        2 0.19748707E+00 0.74988200E+02</pdfrwt>
<pdfrwt beam="1">  1       -2 0.30153195E-02 0.50823834E+02</pdfrwt>
<totfact> 0.67962192E+03</totfact>
</mgrwt>
</event>
<event>
 5    1  0.8274494E-003  0.9033209E+02  0.7546771E-02  0.1454655E+00
          2   -1    0    0  502    0  0.00000000000E+00  0.00000000000E+00  0.26217147163E+04  0.26217147163E+04  0.00000000000E+00 0. -1.
         -2   -1    0    0    0  501 -0.00000000000E+00 -0.00000000000E+00 -0.52066937295E+02  0.52066937295E+02  0.00000000000E+00 0.  1.
         25    1    1    2    0    0  0.29809486694E+02 -0.79956390456E+02  0.11044792145E+04  0.11148008635E+04  0.12500000000E+03 0.  0.
          1    1    1    2  502    0 -0.70372308304E+01  0.92169088080E+02  0.15069888684E+04  0.15098212189E+04  0.00000000000E+00 0. -1.
         -3    1    1    2    0  501 -0.22772255864E+02 -0.12212697624E+02 -0.41820303962E+02  0.49159571233E+02  0.00000000000E+00 0.  1.
<mgrwt>
<rscale>  0 0.48313726E+02</rscale>
<asrwt>0</asrwt>
<pdfrwt beam="1">  1        2 0.40334062E+00 0.90332087E+02</pdfrwt>
<pdfrwt beam="2">  1       -2 0.80103001E-02 0.25840387E+02</pdfrwt>
<totfact> 0.31056557E+02</totfact>
</mgrwt>
</event>
<event>
 5    1  0.8274494E-003  0.7494374E+02  0.7546771E-02  0.1344163E+00
          2   -1    0    0  502    0  0.00000000000E+00  0.00000000000E+00  0.20208491984E+03  0.20208491984E+03  0.00000000000E+00 0. -1.
         -2   -1    0    0    0  501 -0.00000000000E+00 -0.00000000000E+00 -0.82397286651E+03  0.82397286651E+03  0.00000000000E+00 0.  1.
         25    1    1    2    0    0  0.10400108030E+02  0.15543202728E+02  0.56063050959E+02  0.13826720175E+03  0.12500000000E+03 0.  0.
          1    1    1    2  502    0 -0.64069335977E+02  0.38733433198E+02  0.89425051299E+02  0.11662760591E+03  0.00000000000E+00 0. -1.
         -1    1    1    2    0  501  0.53669227947E+02 -0.54276635926E+02 -0.76737604893E+03  0.77116297869E+03  0.00000000000E+00 0.  1.
<mgrwt>
<rscale>  0 0.74905664E+02</rscale>
<asrwt>0</asrwt>
<pdfrwt beam="1">  1        2 0.31089988E-01 0.74867608E+02</pdfrwt>
<pdfrwt beam="2">  1       -2 0.12676506E+00 0.74943740E+02</pdfrwt>
<totfact> 0.84630183E+01</totfact>
</mgrwt>
</event>
<event>
 5    1  0.8274494E-003  0.9632447E+02  0.7546771E-02  0.1312303E+00
          2   -1    0    0  502    0  0.00000000000E+00  0.00000000000E+00  0.14943810809E+04  0.14943810809E+04  0.00000000000E+00 0. -1.
          1   -1    0    0  501    0 -0.00000000000E+00 -0.00000000000E+00 -0.93617206070E+02  0.93617206070E+02  0.00000000000E+00 0. -1.
         25    1    1    2    0    0 -0.89184969808E+02  0.83473619745E+02  0.71081397785E+03  0.73198587086E+03  0.12500000000E+03 0.  0.
          2    1    1    2  501    0  0.96112885217E+02 -0.66312690341E+01 -0.52396128864E+02  0.10966774710E+03  0.00000000000E+00 0. -1.
          1    1    1    2  502    0 -0.69279154092E+01 -0.76842350710E+02  0.74234602588E+03  0.74634466905E+03  0.00000000000E+00 0. -1.
<mgrwt>
<rscale>  0 0.86208003E+02</rscale>
<asrwt>0</asrwt>
<pdfrwt beam="1">  1        2 0.22990476E+00 0.77154020E+02</pdfrwt>
<pdfrwt beam="2">  1        1 0.14402648E-01 0.96324466E+02</pdfrwt>
<totfact> 0.77575718E+02</totfact>
</mgrwt>
</event>
<event>
 5    1  0.8274494E-003  0.1194573E+03  0.7546771E-02  0.1298450E+00
          1   -1    0    0  501    0 -0.00000000000E+00  0.00000000000E+00  0.13613744525E+04  0.13613744525E+04  0.00000000000E+00 0. -1.
          2   -1    0    0  502    0  0.00000000000E+00 -0.00000000000E+00 -0.81600723312E+03  0.81600723312E+03  0.00000000000E+00 0. -1.
         25    1    1    2    0    0 -0.14869038976E+03  0.35281940950E+02  0.21352730486E+02  0.19858143534E+03  0.12500000000E+03 0.  0.
          2    1    1    2  501    0  0.57631114345E+02  0.40799710003E+02  0.12455614925E+04  0.12475613785E+04  0.00000000000E+00 0. -1.
          1    1    1    2  502    0  0.91059275413E+02 -0.76081650953E+02 -0.72154700356E+03  0.73123887177E+03  0.00000000000E+00 0. -1.
<mgrwt>
<rscale>  0 0.91842487E+02</rscale>
<asrwt>0</asrwt>
<pdfrwt beam="2">  1        2 0.12553957E+00 0.11945733E+03</pdfrwt>
<pdfrwt beam="1">  1        1 0.20944222E+00 0.70611342E+02</pdfrwt>
<totfact> 0.48782157E+01</totfact>
</mgrwt>
</event>
<event>
 5    1  0.8274494E-003  0.3101111E+02  0.7546771E-02  0.1597749E+00
          2   -1    0    0  502    0  0.00000000000E+00  0.00000000000E+00  0.18894944704E+03  0.18894944704E+03  0.00000000000E+00 0. -1.
          1   -1    0    0  501    0 -0.00000000000E+00 -0.00000000000E+00 -0.26912191616E+03  0.26912191616E+03  0.00000000000E+00 0. -1.
         25    1    1    2    0    0  0.26679404551E+01 -0.24112599148E+01  0.73905839923E+02  0.14525840855E+03  0.12500000000E+03 0.  0.
          2    1    1    2  501    0  0.87174048103E+00  0.31276502133E+02 -0.22968489906E+03  0.23180623886E+03  0.00000000000E+00 0. -1.
          1    1    1    2  502    0 -0.35396809361E+01 -0.28865242219E+02  0.75606590013E+02  0.81006715789E+02  0.00000000000E+00 0. -1.
<mgrwt>
<rscale>  0 0.30030791E+02</rscale>
<asrwt>0</asrwt>
<pdfrwt beam="1">  1        2 0.29069146E-01 0.29081464E+02</pdfrwt>
<pdfrwt beam="2">  1        1 0.41403372E-01 0.31011107E+02</pdfrwt>
<totfact> 0.23030024E+03</totfact>
</mgrwt>
</event>
<event>
 5    1  0.8274494E-003  0.1262621E+03  0.7546771E-02  0.1294847E+00
          1   -1    0    0  501    0 -0.00000000000E+00  0.00000000000E+00  0.19217753578E+04  0.19217753578E+04  0.00000000000E+00 0. -1.
          2   -1    0    0  502    0  0.00000000000E+00 -0.00000000000E+00 -0.20803346062E+04  0.20803346062E+04  0.00000000000E+00 0. -1.
         25    1    1    2    0    0  0.48735072504E+02  0.12097700921E+03 -0.24064009668E+03  0.30090397169E+03  0.12500000000E+03 0.  0.
          2    1    1    2  501    0  0.20235941727E+02 -0.12474458923E+03  0.18888720575E+04  0.18930949146E+04  0.00000000000E+00 0. -1.
          1    1    1    2  502    0 -0.68971014230E+02  0.37675800242E+01 -0.18067912093E+04  0.18081110777E+04  0.00000000000E+00 0. -1.
<mgrwt>
<rscale>  0 0.93388483E+02</rscale>
<asrwt>0</asrwt>
<pdfrwt beam="2">  1        2 0.32005148E+00 0.69073841E+02</pdfrwt>
<pdfrwt beam="1">  1        1 0.29565775E+00 0.12626211E+03</pdfrwt>
<totfact> 0.44614682E+00</totfact>
</mgrwt>
</event>
<event>
 5    1  0.8274494E-003  0.5463760E+02  0.7546771E-02  0.1433917E+00
          1   -1    0    0  501    0 -0.00000000000E+00  0.00000000000E+00  0.87311572111E+02  0.87311572111E+02  0.00000000000E+00 0. -1.
          2   -1    0    0  502    0  0.00000000000E+00 -0.00000000000E+00 -0.11719448400E+04  0.11719448400E+04  0.00000000000E+00 0. -1.
         25    1    1    2    0    0  0.80327700486E+02  0.52057860383E+02 -0.18291413232E+03  0.24134029936E+03  0.12500000000E+03 0.  0.
          2    1    1    2  501    0 -0.51333518289E+02 -0.11523991457E+02  0.45397001935E+02  0.69489713366E+02  0.00000000000E+00 0. -1.
          1    1    1    2  502    0 -0.28994182197E+02 -0.40533868926E+02 -0.94711613752E+03  0.94842639940E+03  0.00000000000E+00 0. -1.
<mgrwt>
<rscale>  0 0.52181759E+02</rscale>
<asrwt>0</asrwt>
<pdfrwt beam="2">  1        2 0.18029920E+00 0.49836303E+02</pdfrwt>
<pdfrwt beam="1">  1        1 0.13432550E-01 0.54637599E+02</pdfrwt>
<totfact> 0.12466200E+03</totfact>
</mgrwt>
</event>
<event>
 5    1  0.8274494E-003  0.5351970E+02  0.7546771E-02  0.1524460E+00
          2   -1    0    0  502    0  0.00000000000E+00  0.00000000000E+00  0.72840589489E+03  0.72840589489E+03  0.00000000000E+00 0. -1.
         -2   -1    0    0    0  501 -0.00000000000E+00 -0.00000000000E+00 -0.13419967725E+04  0.13419967725E+04  0.00000000000E+00 0.  1.
         25    1    1    2    0    0  0.36981225530E+02  0.48633940788E+02  0.61296304831E+03  0.62855514462E+03  0.12500000000E+03 0.  0.
          1    1    1    2  502    0  0.10801933445E+02 -0.24530060679E+02  0.10543262661E+03  0.10878623257E+03  0.00000000000E+00 0. -1.
         -1    1    1    2    0  501 -0.47783158976E+02 -0.24103880109E+02 -0.13319865525E+04  0.13330612902E+04  0.00000000000E+00 0.  1.
<mgrwt>
<rscale>  0 0.37874704E+02</rscale>
<asrwt>0</asrwt>
<pdfrwt beam="1">  1        2 0.11206245E+00 0.26803090E+02</pdfrwt>
<pdfrwt beam="2">  1       -2 0.20646104E+00 0.53519695E+02</pdfrwt>
<totfact> 0.64273657E+00</totfact>
</mgrwt>
</event>
<event>
 5    1  0.8274494E-003  0.2885850E+02  0.7546771E-02  0.1612255E+00
         -2   -1    0    0    0  501 -0.00000000000E+00  0.00000000000E+00  0.29601288426E+03  0.29601288426E+03  0.00000000000E+00 0.  1.
          2   -1    0    0  502    0  0.00000000000E+00 -0.00000000000E+00 -0.53755922588E+02  0.53755922588E+02  0.00000000000E+00 0. -1.
         25    1    1    2    0    0  0.17005209083E+01 -0.69399479284E+01  0.53072094388E+02  0.13598787391E+03  0.12500000000E+03 0.  0.
          1    1    1    2  502    0  0.67703309972E+01  0.34527221464E+02  0.16786734453E+02  0.38984110319E+02  0.00000000000E+00 0. -1.
         -1    1    1    2    0  501 -0.84708519055E+01 -0.27587273535E+02  0.17239813284E+03  0.17479682262E+03  0.00000000000E+00 0.  1.
<mgrwt>
<rscale>  0 0.28756499E+02</rscale>
<asrwt>0</asrwt>
<pdfrwt beam="2">  1        2 0.82701421E-02 0.28654859E+02</pdfrwt>
<pdfrwt beam="1">  1       -2 0.45540443E-01 0.28858499E+02</pdfrwt>
<totfact> 0.31364762E+03</totfact>
</mgrwt>
</event>
<event>
 5    1  0.8274494E-003  0.3604754E+02  0.7546771E-02  0.1568931E+00
         -1   -1    0    0    0  501 -0.00000000000E+00  0.00000000000E+00  0.29406736709E+03  0.29406736709E+03  0.00000000000E+00 0.  1.
          1   -1    0    0  502    0  0.00000000000E+00 -0.00000000000E+00 -0.74956302011E+03  0.74956302011E+03  0.00000000000E+00 0. -1.
         25    1    1    2    0    0 -0.77134858542E+01  0.45686910488E+00 -0.15545557107E+03  0.19962750604E+03  0.12500000000E+03 0.  0.
          2    1    1    2  502    0 -0.22296138029E+02  0.19873614133E+02 -0.57042132149E+03  0.57120273312E+03  0.00000000000E+00 0. -1.
         -2    1    1    2    0  501  0.30009623883E+02 -0.20330483238E+02  0.27038123954E+03  0.27280014804E+03  0.00000000000E+00 0.  1.
<mgrwt>
<rscale>  0 0.32812441E+02</rscale>
<asrwt>0</asrwt>
<pdfrwt beam="2">  1        1 0.11531739E+00 0.29867680E+02</pdfrwt>
<pdfrwt beam="1">  1       -1 0.45241133E-01 0.36047537E+02</pdfrwt>
<totfact> 0.14095931E+02</totfact>
</mgrwt>
</event>
<event>
 5    1  0.8274494E-003  0.6783477E+02  0.7546771E-02  0.1391708E+00
         -1   -1    0    0    0  501 -0.00000000000E+00  0.00000000000E+00  0.15333588578E+04  0.15333588578E+04  0.00000000000E+00 0.  1.
          1   -1    0    0  502    0  0.00000000000E+00 -0.00000000000E+00 -0.14648877723E+04  0.14648877723E+04  0.00000000000E+00 0. -1.
         25    1    1    2    0    0 -0.27169870294E+02  0.24219952888E+02 -0.29749067282E+03  0.32473144040E+03  0.12500000000E+03 0.  0.
          2    1    1    2  502    0  0.35127643267E+02  0.43261891961E+02 -0.11523435012E+04  0.11536902042E+04  0.00000000000E+00 0. -1.
         -2    1    1    2    0  501 -0.79577729732E+01 -0.67481844849E+02  0.15183052595E+04  0.15198249855E+04  0.00000000000E+00 0.  1.
<mgrwt>
<rscale>  0 0.61483778E+02</rscale>
<asrwt>0</asrwt>
<pdfrwt beam="2">  1        1 0.22536735E+00 0.55727396E+02</pdfrwt>
<pdfrwt beam="1">  1       -1 0.23590136E+00 0.67834768E+02</pdfrwt>
<totfact> 0.99657645E-01</totfact>
</mgrwt>
</event>
<event>
 5    1  0.8274494E-003  0.2095939E+03  0.7546771E-02  0.1210220E+00
          1   -1    0    0  501    0 -0.00000000000E+00  0.00000000000E+00  0.90592328430E+03  0.90592328430E+03  0.00000000000E+00 0. -1.
          2   -1    0    0  502    0  0.00000000000E+00 -0.00000000000E+00 -0.60234079250E+03  0.60234079250E+03  0.00000000000E+00 0. -1.
         25    1    1    2    0    0 -0.15372890462E+03 -0.18048639728E+03  0.23304739377E+02  0.26902792903E+03  0.12500000000E+03 0.  0.
          2    1    1    2  501    0  0.59049528702E+02  0.19995971078E+03  0.74033513605E+03  0.76913382870E+03  0.00000000000E+00 0. -1.
          1    1    1    2  502    0  0.94679375918E+02 -0.19473313498E+02 -0.46005738363E+03  0.47010231907E+03  0.00000000000E+00 0. -1.
<mgrwt>
<rscale>  0 0.14233622E+03</rscale>
<asrwt>0</asrwt>
<pdfrwt beam="2">  1        2 0.92667814E-01 0.96661234E+02</pdfrwt>
<pdfrwt beam="1">  1        1 0.13937281E+00 0.20959385E+03</pdfrwt>
<totfact> 0.13525688E+02</totfact>
</mgrwt>
</event>
<event>
 5    1  0.8274494E-003  0.1100280E+03  0.7546771E-02  0.1394855E+00
          2   -1    0    0  502    0  0.00000000000E+00  0.00000000000E+00  0.59189395655E+03  0.59189395655E+03  0.00000000000E+00 0. -1.
         -2   -1    0    0    0  501 -0.00000000000E+00 -0.00000000000E+00 -0.11562137259E+04  0.11562137259E+04  0.00000000000E+00 0.  1.
         25    1    1    2    0    0 -0.49449673473E+02 -0.73037450013E+02  0.13628240731E+03  0.20488444024E+03  0.12500000000E+03 0.  0.
          1    1    1    2  502    0  0.12588337362E+02 -0.31048817809E+02  0.41792156187E+03  0.41926236082E+03  0.00000000000E+00 0. -1.
         -1    1    1    2    0  501  0.36861336111E+02  0.10408626782E+03 -0.11185237385E+04  0.11239608814E+04  0.00000000000E+00 0.  1.
<mgrwt>
<rscale>  0 0.60715232E+02</rscale>
<asrwt>0</asrwt>
<pdfrwt beam="1">  1        2 0.91060609E-01 0.33503661E+02</pdfrwt>
<pdfrwt beam="2">  1       -2 0.17787903E+00 0.11002796E+03</pdfrwt>
<totfact> 0.11528814E+01</totfact>
</mgrwt>
</event>
<event>
 5    1  0.8274494E-003  0.9135925E+02  0.7546771E-02  0.1380337E+00
          2   -1    0    0  502    0  0.00000000000E+00  0.00000000000E+00  0.63453935490E+03  0.63453935490E+03  0.00000000000E+00 0. -1.
          1   -1    0    0  501    0 -0.00000000000E+00 -0.00000000000E+00 -0.37106505057E+03  0.37106505057E+03  0.00000000000E+00 0. -1.
         25    1    1    2    0    0 -0.56063031002E+02  0.62420669784E+02 -0.13043046565E+02  0.15111096759E+03  0.12500000000E+03 0.  0.
          2    1    1    2  501    0  0.36032650498E+02  0.27555061178E+02 -0.28341616686E+03  0.28702326898E+03  0.00000000000E+00 0. -1.
          1    1    1    2  502    0  0.20030380504E+02 -0.89975730962E+02  0.55993351774E+03  0.56747016891E+03  0.00000000000E+00 0. -1.
<mgrwt>
<rscale>  0 0.64375151E+02</rscale>
<asrwt>0</asrwt>
<pdfrwt beam="1">  1        2 0.97621439E-01 0.91359252E+02</pdfrwt>
<pdfrwt beam="2">  1        1 0.57086931E-01 0.45361143E+02</pdfrwt>
<totfact> 0.44967255E+02</totfact>
</mgrwt>
</event>
<event>
 5    1  0.8274494E-003  0.4929476E+02  0.7546771E-02  0.1578915E+00
          2   -1    0    0  502    0  0.00000000000E+00  0.00000000000E+00  0.11269060113E+04  0.11269060113E+04  0.00000000000E+00 0. -1.
         -2   -1    0    0    0  501 -0.00000000000E+00 -0.00000000000E+00 -0.61636840087E+02  0.61636840087E+02  0.00000000000E+00 0.  1.
         25    1    1    2    0    0  0.59084780350E+02 -0.26936157898E+01  0.10316681840E+03  0.17253016911E+03  0.12500000000E+03 0.  0.
          1    1    1    2  502    0 -0.47142331259E+02 -0.13999792478E+02  0.98444536584E+03  0.98567290310E+03  0.00000000000E+00 0. -1.
         -1    1    1    2    0  501 -0.11942449091E+02  0.16693408268E+02 -0.22343013019E+02  0.30339779180E+02  0.00000000000E+00 0.  1.
<mgrwt>
<rscale>  0 0.31808719E+02</rscale>
<asrwt>0</asrwt>
<pdfrwt beam="1">  1        2 0.17337014E+00 0.49294760E+02</pdfrwt>
<pdfrwt beam="2">  1       -2 0.94825916E-02 0.20525398E+02</pdfrwt>
<totfact> 0.14398597E+03</totfact>
</mgrwt>
</event>
<event>
 5    1  0.8274494E-003  0.8744188E+02  0.7546771E-02  0.1452709E+00
          2   -1    0    0  502    0  0.00000000000E+00  0.00000000000E+00  0.65536235279E+03  0.65536235279E+03  0.00000000000E+00 0. -1.
          1   -1    0    0  501    0 -0.00000000000E+00 -0.00000000000E+00 -0.14180750753E+03  0.14180750753E+03  0.00000000000E+00 0. -1.
         25    1    1    2    0    0 -0.68519667350E+02 -0.28474071116E+01  0.24473879011E+03  0.28324040659E+03  0.12500000000E+03 0.  0.
          2    1    1    2  501    0  0.85383391319E+02  0.24032865640E+02 -0.10595449240E+03  0.13818196917E+03  0.00000000000E+00 0. -1.
          1    1    1    2  502    0 -0.16863723970E+02 -0.21185458528E+02  0.37477054755E+03  0.37574748456E+03  0.00000000000E+00 0. -1.
<mgrwt>
<rscale>  0 0.48659390E+02</rscale>
<asrwt>0</asrwt>
<pdfrwt beam="1">  1        2 0.10082498E+00 0.27077829E+02</pdfrwt>
<pdfrwt beam="2">  1        1 0.21816540E-01 0.87441877E+02</pdfrwt>
<totfact> 0.14489597E+03</totfact>
</mgrwt>
</event>
<event>
 5    1  0.8274494E-003  0.5002458E+02  0.7546771E-02  0.1530632E+00
          1   -1    0    0  501    0 -0.00000000000E+00  0.00000000000E+00  0.88378652297E+02  0.88378652297E+02  0.00000000000E+00 0. -1.
          2   -1    0    0  502    0  0.00000000000E+00 -0.00000000000E+00 -0.19356630959E+03  0.19356630959E+03  0.00000000000E+00 0. -1.
         25    1    1    2    0    0 -0.30620708885E+02  0.23403374320E+02 -0.14588685810E+02  0.13161753491E+03  0.12500000000E+03 0.  0.
          2    1    1    2  501    0 -0.20823467437E+02 -0.18004896800E+02  0.16000767012E+02  0.31840503292E+02  0.00000000000E+00 0. -1.
          1    1    1    2  502    0  0.51444176322E+02 -0.53984775196E+01 -0.10659973849E+03  0.11848692368E+03  0.00000000000E+00 0. -1.
<mgrwt>
<rscale>  0 0.37109012E+02</rscale>
<asrwt>0</asrwt>
<pdfrwt beam="2">  1        2 0.29779432E-01 0.50024580E+02</pdfrwt>
<pdfrwt beam="1">  1        1 0.13596716E-01 0.27528042E+02</pdfrwt>
<totfact> 0.85989588E+03</totfact>
</mgrwt>
</event>
<event>
 5    1  0.8274494E-003  0.6009164E+02  0.7546771E-02  0.1545317E+00
          1   -1    0    0  501    0 -0.00000000000E+00  0.00000000000E+00  0.26232769740E+02  0.26232769740E+02  0.00000000000E+00 0. -1.
          2   -1    0    0  502    0  0.00000000000E+00 -0.00000000000E+00 -0.23198769376E+04  0.23198769376E+04  0.00000000000E+00 0. -1.
         25    1    1    2    0    0  0.27410148500E+02  0.30052957657E+02 -0.14898821639E+04  0.14956698696E+04  0.12500000000E+03 0.  0.
          2    1    1    2  501    0 -0.35147323445E+02 -0.49383797536E+02 -0.16388048923E+02  0.62790619935E+02  0.00000000000E+00 0. -1.
          1    1    1    2  502    0  0.77371749451E+01  0.19330839879E+02 -0.78737395499E+03  0.78764921776E+03  0.00000000000E+00 0. -1.
<mgrwt>
<rscale>  0 0.35372490E+02</rscale>
<asrwt>0</asrwt>
<pdfrwt beam="2">  1        2 0.35690422E+00 0.20821749E+02</pdfrwt>
<pdfrwt beam="1">  1        1 0.40358098E-02 0.60091640E+02</pdfrwt>
<totfact> 0.18565384E+03</totfact>
</mgrwt>
</event>
<event>
 5    1  0.8274494E-003  0.4900508E+02  0.7546771E-02  0.1552359E+00
          2   -1    0    0  502    0  0.00000000000E+00  0.00000000000E+00  0.27270347507E+03  0.27270347507E+03  0.00000000000E+00 0. -1.
         -2   -1    0    0    0  501 -0.00000000000E+00 -0.00000000000E+00 -0.16056951610E+03  0.16056951610E+03  0.00000000000E+00 0.  1.
         25    1    1    2    0    0 -0.67185483916E+02  0.21778210629E+02  0.14410604644E+03  0.20342008831E+03  0.12500000000E+03 0.  0.
          1    1    1    2  502    0  0.24382755215E+02  0.95928940279E+00  0.92822855530E+02  0.95976671628E+02  0.00000000000E+00 0. -1.
         -1    1    1    2    0  501  0.42802728701E+02 -0.22737500032E+02 -0.12479494300E+03  0.13387623123E+03  0.00000000000E+00 0.  1.
<mgrwt>
<rscale>  0 0.34580387E+02</rscale>
<asrwt>0</asrwt>
<pdfrwt beam="1">  1        2 0.41954381E-01 0.24401619E+02</pdfrwt>
<pdfrwt beam="2">  1       -2 0.24703003E-01 0.49005075E+02</pdfrwt>
<totfact> 0.16260607E+03</totfact>
</mgrwt>
</event>
<event>
 5    1  0.8274494E-003  0.7635962E+02  0.7546771E-02  0.1379210E+00
          1   -1    0    0  501    0 -0.00000000000E+00  0.00000000000E+00  0.12642936939E+03  0.12642936939E+03  0.00000000000E+00 0. -1.
          2   -1    0    0  502    0  0.00000000000E+00 -0.00000000000E+00 -0.19157426291E+04  0.19157426291E+04  0.00000000000E+00 0. -1.
         25    1    1    2    0    0 -0.54650722433E+02  0.29263321576E+01 -0.60524558507E+03  0.62043733216E+03  0.12500000000E+03 0.  0.
          2    1    1    2  501    0  0.51301966232E+02 -0.57597131987E+02  0.10567461512E+03  0.13082983464E+03  0.00000000000E+00 0. -1.
          1    1    1    2  502    0  0.33487562006E+01  0.54670799830E+02 -0.12897422897E+04  0.12909048317E+04  0.00000000000E+00 0. -1.
<mgrwt>
<rscale>  0 0.64671987E+02</rscale>
<asrwt>0</asrwt>
<pdfrwt beam="2">  1        2 0.29472964E+00 0.54773265E+02</pdfrwt>
<pdfrwt beam="1">  1        1 0.19450672E-01 0.76359625E+02</pdfrwt>
<totfact> 0.33551767E+02</totfact>
</mgrwt>
</event>
<event>
 5    1  0.8274494E-003  0.6303977E+02  0.7546771E-02  0.1431647E+00
         -1   -1    0    0    0  501 -0.00000000000E+00  0.00000000000E+00  0.29172515799E+03  0.29172515799E+03  0.00000000000E+00 0.  1.
          1   -1    0    0  502    0  0.00000000000E+00 -0.00000000000E+00 -0.59923754196E+03  0.59923754196E+03  0.00000000000E+00 0. -1.
         25    1    1    2    0    0 -0.89977253895E+02  0.43533085256E+02 -0.43047532316E+03  0.45926576138E+03  0.12500000000E+03 0.  0.
          2    1    1    2  502    0  0.43932081015E+02 -0.86321298517E+00 -0.14757153851E+03  0.15397445196E+03  0.00000000000E+00 0. -1.
         -2    1    1    2    0  501  0.46045172880E+02 -0.42669872271E+02  0.27053447769E+03  0.27772248660E+03  0.00000000000E+00 0.  1.
<mgrwt>
<rscale>  0 0.52630817E+02</rscale>
<asrwt>0</asrwt>
<pdfrwt beam="2">  1        1 0.92190391E-01 0.43940561E+02</pdfrwt>
<pdfrwt beam="1">  1       -1 0.44880794E-01 0.63039772E+02</pdfrwt>
<totfact> 0.19008808E+02</totfact>
</mgrwt>
</event>
<event>
 5    1  0.8274494E-003  0.5343283E+02  0.7546771E-02  0.1431610E+00
          1   -1    0    0  501    0 -0.00000000000E+00  0.00000000000E+00  0.38997779846E+03  0.38997779846E+03  0.00000000000E+00 0. -1.
          2   -1    0    0  502    0  0.00000000000E+00 -0.00000000000E+00 -0.22595236485E+03  0.22595236485E+03  0.00000000000E+00 0. -1.
         25    1    1    2    0    0  0.21334459423E+02 -0.35876032773E+02 -0.99057754867E+02  0.16486263278E+03  0.12500000000E+03 0.  0.
          2    1    1    2  501    0 -0.50746260513E+02 -0.16729758528E+02  0.34514201986E+03  0.34925360649E+03  0.00000000000E+00 0. -1.
          1    1    1    2  502    0  0.29411801090E+02  0.52605791301E+02 -0.82058831381E+02  0.10181392404E+03  0.00000000000E+00 0. -1.
<mgrwt>
<rscale>  0 0.52638257E+02</rscale>
<asrwt>0</asrwt>
<pdfrwt beam="2">  1        2 0.34761902E-01 0.51855496E+02</pdfrwt>
<pdfrwt beam="1">  1        1 0.59996584E-01 0.53432834E+02</pdfrwt>
<totfact> 0.12563656E+03</totfact>
</mgrwt>
</event>
<event>
 5    1  0.8274494E-003  0.7341293E+02  0.7546771E-02  0.1401547E+00
          2   -1    0    0  502    0  0.00000000000E+00  0.00000000000E+00  0.11446735955E+04  0.11446735955E+04  0.00000000000E+00 0. -1.
         -2   -1    0    0    0  501 -0.00000000000E+00 -0.00000000000E+00 -0.16699943911E+03  0.16699943911E+03  0.00000000000E+00 0.  1.
         25    1    1    2    0    0 -0.66467425526E+02  0.20329519726E+02  0.10378929887E+03  0.17671566594E+03  0.12500000000E+03 0.  0.
          1    1    1    2  502    0  0.68932732530E+02  0.27222071058E+02  0.99865965659E+03  0.10014059479E+04  0.00000000000E+00 0. -1.
         -1    1    1    2    0  501 -0.24653070038E+01 -0.47551590784E+02 -0.12477479904E+03  0.13355142081E+03  0.00000000000E+00 0.  1.
<mgrwt>
<rscale>  0 0.59123515E+02</rscale>
<asrwt>0</asrwt>
<pdfrwt beam="1">  1        2 0.17610362E+00 0.73412929E+02</pdfrwt>
<pdfrwt beam="2">  1       -2 0.25692222E-01 0.47615455E+02</pdfrwt>
<totfact> 0.30222510E+02</totfact>
</mgrwt>
</event>
<event>
 5    1  0.8274494E-003  0.3114611E+02  0.7546771E-02  0.1603402E+00
          1   -1    0    0  501    0 -0.00000000000E+00  0.00000000000E+00  0.62705341306E+03  0.62705341306E+03  0.00000000000E+00 0. -1.
          2   -1    0    0  502    0  0.00000000000E+00 -0.00000000000E+00 -0.56141837063E+02  0.56141837063E+02  0.00000000000E+00 0. -1.
         25    1    1    2    0    0 -0.44052092106E+02  0.97070152252E+00  0.19390850461E+03  0.23487664260E+03  0.12500000000E+03 0.  0.
          2    1    1    2  501    0  0.24507622500E+02  0.19062613205E+02  0.40648415485E+03  0.40766821672E+03  0.00000000000E+00 0. -1.
          1    1    1    2  502    0  0.19544469606E+02 -0.20033314727E+02 -0.29481083453E+02  0.40650390806E+02  0.00000000000E+00 0. -1.
<mgrwt>
<rscale>  0 0.29524782E+02</rscale>
<asrwt>0</asrwt>
<pdfrwt beam="2">  1        2 0.86372062E-02 0.27987854E+02</pdfrwt>
<pdfrwt beam="1">  1        1 0.96469751E-01 0.31146108E+02</pdfrwt>
<totfact> 0.31565013E+03</totfact>
</mgrwt>
</event>
<event>
 5    1  0.8274494E-003  0.3601210E+02  0.7546771E-02  0.1624580E+00
          1   -1    0    0  501    0 -0.00000000000E+00  0.00000000000E+00  0.37429846729E+02  0.37429846729E+02  0.00000000000E+00 0. -1.
          2   -1    0    0  502    0  0.00000000000E+00 -0.00000000000E+00 -0.17082246392E+04  0.17082246392E+04  0.00000000000E+00 0. -1.
         25    1    1    2    0    0 -0.55145400958E+02 -0.13330427032E+02 -0.41494768316E+03  0.43706440634E+03  0.12500000000E+03 0.  0.
          2    1    1    2  501    0  0.34708578327E+02  0.71239463332E+01  0.14339594767E+02  0.38223814552E+02  0.00000000000E+00 0. -1.
          1    1    1    2  502    0  0.20436822631E+02  0.62064806984E+01 -0.12701867040E+04  0.12703662650E+04  0.00000000000E+00 0. -1.
<mgrwt>
<rscale>  0 0.27733792E+02</rscale>
<asrwt>0</asrwt>
<pdfrwt beam="2">  1        2 0.26280383E+00 0.21358467E+02</pdfrwt>
<pdfrwt beam="1">  1        1 0.57584371E-02 0.36012098E+02</pdfrwt>
<totfact> 0.21022863E+03</totfact>
</mgrwt>
</event>
<event>
 5    1  0.8274494E-003  0.8972875E+02  0.7546771E-02  0.1310864E+00
          1   -1    0    0  501    0 -0.00000000000E+00  0.00000000000E+00  0.28000696988E+03  0.28000696988E+03  0.00000000000E+00 0. -1.
          2   -1    0    0  502    0  0.00000000000E+00 -0.00000000000E+00 -0.45824940817E+03  0.45824940817E+03  0.00000000000E+00 0. -1.
         25    1    1    2    0    0  0.18037893490E+02  0.36333743323E+02  0.13068148362E+02  0.13206544971E+03  0.12500000000E+03 0.  0.
          2    1    1    2  501    0 -0.96794344954E+02  0.66624119253E+01  0.19060409112E+03  0.21387719022E+03  0.00000000000E+00 0. -1.
          1    1    1    2  502    0  0.78756451464E+02 -0.42996155248E+02 -0.38191467777E+03  0.39231373811E+03  0.00000000000E+00 0. -1.
<mgrwt>
<rscale>  0 0.86771597E+02</rscale>
<asrwt>0</asrwt>
<pdfrwt beam="2">  1        2 0.70499908E-01 0.89728747E+02</pdfrwt>
<pdfrwt beam="1">  1        1 0.43077996E-01 0.83911904E+02</pdfrwt>
<totfact> 0.90270082E+02</totfact>
</mgrwt>
</event>
<event>
 5    1  0.8330363E-003  0.6842525E+02  0.7546771E-02  0.1386637E+00
          2   -1    0    0  502    0  0.00000000000E+00  0.00000000000E+00  0.26903912021E+04  0.26903912021E+04  0.00000000000E+00 0. -1.
          1   -1    0    0  501    0 -0.00000000000E+00 -0.00000000000E+00 -0.47939204227E+03  0.47939204227E+03  0.00000000000E+00 0. -1.
         25    1    1    2    0    0  0.40140354268E+02  0.54858722396E+02 -0.22617850021E+03  0.26721235267E+03  0.12500000000E+03 0.  0.
          2    1    1    2  501    0 -0.56352790783E+02  0.11663237439E+02 -0.22869239737E+03  0.23582171391E+03  0.00000000000E+00 0. -1.
          1    1    1    2  502    0  0.16212436515E+02 -0.66521959835E+02  0.26658700574E+04  0.26667491778E+04  0.00000000000E+00 0. -1.
<mgrwt>
<rscale>  0 0.62750891E+02</rscale>
<asrwt>0</asrwt>
<pdfrwt beam="1">  1        2 0.41390633E+00 0.68425250E+02</pdfrwt>
<pdfrwt beam="2">  1        1 0.73752624E-01 0.57547095E+02</pdfrwt>
<totfact> 0.25873877E+01</totfact>
</mgrwt>
</event>
<event>
 5    1  0.1408555E-002  0.5990497E+02  0.7546771E-02  0.1436074E+00
          1   -1    0    0  501    0 -0.00000000000E+00  0.00000000000E+00  0.17392513532E+04  0.17392513532E+04  0.00000000000E+00 0. -1.
          2   -1    0    0  502    0  0.00000000000E+00 -0.00000000000E+00 -0.27297433445E+04  0.27297433445E+04  0.00000000000E+00 0. -1.
         25    1    1    2    0    0  0.43004360316E+02  0.92558596791E+00  0.72031546835E+03  0.73234527763E+03  0.12500000000E+03 0.  0.
          2    1    1    2  501    0 -0.45872864348E+02 -0.45555797344E+02  0.10117055605E+04  0.10137691016E+04  0.00000000000E+00 0. -1.
          1    1    1    2  502    0  0.28685040323E+01  0.44630211376E+02 -0.27225130201E+04  0.27228803185E+04  0.00000000000E+00 0. -1.
<mgrwt>
<rscale>  0 0.51759909E+02</rscale>
<asrwt>0</asrwt>
<pdfrwt beam="2">  1        2 0.41996051E+00 0.44722300E+02</pdfrwt>
<pdfrwt beam="1">  1        1 0.26757713E+00 0.59904974E+02</pdfrwt>
<totfact> 0.31436368E+00</totfact>
</mgrwt>
</event>
<event>
 5    1  0.8274494E-003  0.6348461E+02  0.7546771E-02  0.1446179E+00
          1   -1    0    0  501    0 -0.00000000000E+00  0.00000000000E+00  0.15072112623E+04  0.15072112623E+04  0.00000000000E+00 0. -1.
          2   -1    0    0  502    0  0.00000000000E+00 -0.00000000000E+00 -0.20762436912E+03  0.20762436912E+03  0.00000000000E+00 0. -1.
         25    1    1    2    0    0 -0.41544086091E+02  0.85073773590E+02  0.32998619568E+03  0.36534825493E+03  0.12500000000E+03 0.  0.
          2    1    1    2  501    0  0.41903981456E+02 -0.45939505121E+02  0.11566841862E+04  0.11583543018E+04  0.00000000000E+00 0. -1.
          1    1    1    2  502    0 -0.35989536527E+00 -0.39134268469E+02 -0.18708348872E+03  0.19113307470E+03  0.00000000000E+00 0. -1.
<mgrwt>
<rscale>  0 0.49845048E+02</rscale>
<asrwt>0</asrwt>
<pdfrwt beam="2">  1        2 0.31942212E-01 0.39135923E+02</pdfrwt>
<pdfrwt beam="1">  1        1 0.23187865E+00 0.63484609E+02</pdfrwt>
<totfact> 0.17409124E+02</totfact>
</mgrwt>
</event>
<event>
 5    1  0.8274494E-003  0.8337258E+02  0.7546771E-02  0.1379340E+00
          1   -1    0    0  501    0 -0.00000000000E+00  0.00000000000E+00  0.31127507949E+03  0.31127507949E+03  0.00000000000E+00 0. -1.
          2   -1    0    0  502    0  0.00000000000E+00 -0.00000000000E+00 -0.14919861911E+04  0.14919861911E+04  0.00000000000E+00 0. -1.
         25    1    1    2    0    0 -0.94155248170E+02 -0.82862108551E+02 -0.71356315928E+03  0.73520658463E+03  0.12500000000E+03 0.  0.
          2    1    1    2  501    0  0.45936697093E+02  0.69215738095E+02  0.29387134873E+03  0.30538724293E+03  0.00000000000E+00 0. -1.
          1    1    1    2  502    0  0.48218551076E+02  0.13646370456E+02 -0.76101930110E+03  0.76266744309E+03  0.00000000000E+00 0. -1.
<mgrwt>
<rscale>  0 0.64637448E+02</rscale>
<asrwt>0</asrwt>
<pdfrwt beam="2">  1        2 0.22953634E+00 0.50112395E+02</pdfrwt>
<pdfrwt beam="1">  1        1 0.47888474E-01 0.83372582E+02</pdfrwt>
<totfact> 0.18113162E+02</totfact>
</mgrwt>
</event>
<event>
 5    1  0.8274494E-003  0.9003456E+02  0.7546771E-02  0.1309908E+00
          2   -1    0    0  502    0  0.00000000000E+00  0.00000000000E+00  0.14202314770E+04  0.14202314770E+04  0.00000000000E+00 0. -1.
         -2   -1    0    0    0  501 -0.00000000000E+00 -0.00000000000E+00 -0.51604633026E+02  0.51604633026E+02  0.00000000000E+00 0.  1.
         25    1    1    2    0    0 -0.22325485257E+02 -0.31982372600E+02  0.45059652997E+03  0.46923718126E+03  0.12500000000E+03 0.  0.
          1    1    1    2  502    0 -0.68353219492E+01  0.11113645659E+03  0.91118923836E+03  0.91796724435E+03  0.00000000000E+00 0. -1.
         -1    1    1    2    0  501  0.29160807206E+02 -0.79154083988E+02  0.68410756293E+01  0.84631684401E+02  0.00000000000E+00 0.  1.
<mgrwt>
<rscale>  0 0.87148387E+02</rscale>
<asrwt>0</asrwt>
<pdfrwt beam="1">  1        2 0.21849712E+00 0.90034556E+02</pdfrwt>
<pdfrwt beam="2">  1       -2 0.79391754E-02 0.84354737E+02</pdfrwt>
<totfact> 0.14450489E+03</totfact>
</mgrwt>
</event>
<event>
 5    1  0.8274494E-003  0.8098219E+02  0.7546771E-02  0.1389066E+00
          1   -1    0    0  501    0 -0.00000000000E+00  0.00000000000E+00  0.25160421945E+03  0.25160421945E+03  0.00000000000E+00 0. -1.
          2   -1    0    0  502    0  0.00000000000E+00 -0.00000000000E+00 -0.58596457388E+03  0.58596457388E+03  0.00000000000E+00 0. -1.
         25    1    1    2    0    0  0.21545866565E+02 -0.41110531576E+02  0.51917686641E+02  0.14308999392E+03  0.12500000000E+03 0.  0.
          2    1    1    2  501    0 -0.24102241307E+02 -0.41141099528E+02  0.14718002150E+03  0.15471091376E+03  0.00000000000E+00 0. -1.
          1    1    1    2  502    0  0.25563747420E+01  0.82251631105E+02 -0.53345806257E+03  0.53976788566E+03  0.00000000000E+00 0. -1.
<mgrwt>
<rscale>  0 0.62139661E+02</rscale>
<asrwt>0</asrwt>
<pdfrwt beam="2">  1        2 0.90148394E-01 0.80982188E+02</pdfrwt>
<pdfrwt beam="1">  1        1 0.38708342E-01 0.47681318E+02</pdfrwt>
<totfact> 0.78375428E+02</totfact>
</mgrwt>
</event>
<event>
 5    1  0.8274494E-003  0.4682149E+02  0.7546771E-02  0.1578520E+00
          2   -1    0    0  502    0  0.00000000000E+00  0.00000000000E+00  0.43686588149E+03  0.43686588149E+03  0.00000000000E+00 0. -1.
          1   -1    0    0  501    0 -0.00000000000E+00 -0.00000000000E+00 -0.16653993288E+03  0.16653993288E+03  0.00000000000E+00 0. -1.
         25    1    1    2    0    0 -0.48980527241E+02  0.11947900964E+02  0.14049653602E+03  0.19469494349E+03  0.12500000000E+03 0.  0.
          2    1    1    2  501    0  0.45877379427E+02  0.94911907529E+01 -0.13505101265E+03  0.14294611804E+03  0.00000000000E+00 0. -1.
          1    1    1    2  502    0  0.31031478143E+01 -0.21439091717E+02  0.26488042524E+03  0.26576475284E+03  0.00000000000E+00 0. -1.
<mgrwt>
<rscale>  0 0.31847620E+02</rscale>
<asrwt>0</asrwt>
<pdfrwt beam="1">  1        2 0.67210135E-01 0.21662506E+02</pdfrwt>
<pdfrwt beam="2">  1        1 0.25621528E-01 0.46821493E+02</pdfrwt>
<totfact> 0.17722752E+03</totfact>
</mgrwt>
</event>
<event>
 5    1  0.8274494E-003  0.9345435E+02  0.7546771E-02  0.1456199E+00
          2   -1    0    0  502    0  0.00000000000E+00  0.00000000000E+00  0.48960616568E+03  0.48960616568E+03  0.00000000000E+00 0. -1.
          1   -1    0    0  501    0 -0.00000000000E+00 -0.00000000000E+00 -0.23332784273E+04  0.23332784273E+04  0.00000000000E+00 0. -1.
         25    1    1    2    0    0  0.75784298792E+02  0.86266433654E+02  0.80485035907E+02  0.18785100086E+03  0.12500000000E+03 0.  0.
          2    1    1    2  501    0 -0.69353148035E+02 -0.62421802909E+02 -0.22782103009E+04  0.22801202854E+04  0.00000000000E+00 0. -1.
          1    1    1    2  502    0 -0.64311507571E+01 -0.23844630745E+02  0.35405300338E+03  0.35491330676E+03  0.00000000000E+00 0. -1.
<mgrwt>
<rscale>  0 0.48041776E+02</rscale>
<asrwt>0</asrwt>
<pdfrwt beam="1">  1        2 0.75324027E-01 0.24696682E+02</pdfrwt>
<pdfrwt beam="2">  1        1 0.35896590E+00 0.93454346E+02</pdfrwt>
<totfact> 0.21185965E+01</totfact>
</mgrwt>
</event>
<event>
 5    1  0.8274494E-003  0.8858842E+02  0.7546771E-02  0.1390779E+00
         -1   -1    0    0    0  501 -0.00000000000E+00  0.00000000000E+00  0.20707382036E+02  0.20707382036E+02  0.00000000000E+00 0.  1.
          1   -1    0    0  502    0  0.00000000000E+00 -0.00000000000E+00 -0.30304696285E+04  0.30304696285E+04  0.00000000000E+00 0. -1.
         25    1    1    2    0    0 -0.89180922271E+02  0.12556989326E+02 -0.19240938278E+04  0.19302520491E+04  0.12500000000E+03 0.  0.
          2    1    1    2  502    0  0.74730992843E+02 -0.53047371259E+02 -0.10718594096E+04  0.10757701143E+04  0.00000000000E+00 0. -1.
         -2    1    1    2    0  501  0.14449929428E+02  0.40490381933E+02 -0.13809009089E+02  0.45154847155E+02  0.00000000000E+00 0.  1.
<mgrwt>
<rscale>  0 0.61713463E+02</rscale>
<asrwt>0</asrwt>
<pdfrwt beam="2">  1        1 0.46622604E+00 0.88588418E+02</pdfrwt>
<pdfrwt beam="1">  1       -1 0.31857514E-02 0.42991528E+02</pdfrwt>
<totfact> 0.23260111E+02</totfact>
</mgrwt>
</event>
<event>
 5    1  0.8274494E-003  0.1324734E+03  0.7546771E-02  0.1315859E+00
         -1   -1    0    0    0  501 -0.00000000000E+00  0.00000000000E+00  0.35886970355E+03  0.35886970355E+03  0.00000000000E+00 0.  1.
          1   -1    0    0  502    0  0.00000000000E+00 -0.00000000000E+00 -0.67147057094E+03  0.67147057094E+03  0.00000000000E+00 0. -1.
         25    1    1    2    0    0 -0.14828718697E+03  0.31244456823E+02 -0.19054538909E+03  0.27367471788E+03  0.12500000000E+03 0.  0.
          2    1    1    2  502    0  0.37103766923E+02  0.39687435371E+02 -0.42384749101E+03  0.42731543113E+03  0.00000000000E+00 0. -1.
         -2    1    1    2    0  501  0.11118342005E+03 -0.70931892194E+02  0.30179201271E+03  0.32935012549E+03  0.00000000000E+00 0.  1.
<mgrwt>
<rscale>  0 0.84837018E+02</rscale>
<asrwt>0</asrwt>
<pdfrwt beam="2">  1        1 0.10330316E+00 0.54330305E+02</pdfrwt>
<pdfrwt beam="1">  1       -1 0.55210724E-01 0.13247339E+03</pdfrwt>
<totfact> 0.11118457E+02</totfact>
</mgrwt>
</event>
<event>
 5    1  0.8274494E-003  0.2972060E+02  0.7546771E-02  0.1609973E+00
          2   -1    0    0  502    0  0.00000000000E+00  0.00000000000E+00  0.15167493568E+03  0.15167493568E+03  0.00000000000E+00 0. -1.
         -2   -1    0    0    0  501 -0.00000000000E+00 -0.00000000000E+00 -0.17419441752E+04  0.17419441752E+04  0.00000000000E+00 0.  1.
         25    1    1    2    0    0  0.34971221634E+02 -0.45204219576E+02 -0.21636379019E+02  0.13913856657E+03  0.12500000000E+03 0.  0.
          3    1    1    2  502    0 -0.17611260336E+02  0.22977293497E+02  0.90546252621E+02  0.95061750303E+02  0.00000000000E+00 0. -1.
         -1    1    1    2    0  501 -0.17359961299E+02  0.22226926079E+02 -0.16591791131E+04  0.16594187940E+04  0.00000000000E+00 0.  1.
<mgrwt>
<rscale>  0 0.28951818E+02</rscale>
<asrwt>0</asrwt>
<pdfrwt beam="1">  1        2 0.23334607E-01 0.29720605E+02</pdfrwt>
<pdfrwt beam="2">  1       -2 0.26799139E+00 0.28202917E+02</pdfrwt>
<totfact> 0.15289649E+01</totfact>
</mgrwt>
</event>
<event>
 5    1  0.8274494E-003  0.6497250E+02  0.7546771E-02  0.1413229E+00
          3   -1    0    0  502    0  0.00000000000E+00  0.00000000000E+00  0.46196952858E+02  0.46196952858E+02  0.00000000000E+00 0. -1.
         -3   -1    0    0    0  501 -0.00000000000E+00 -0.00000000000E+00 -0.54906822804E+03  0.54906822804E+03  0.00000000000E+00 0.  1.
         25    1    1    2    0    0 -0.89945040486E+02 -0.54053791313E+02 -0.31772164789E+03  0.35718898108E+03  0.12500000000E+03 0.  0.
          2    1    1    2  502    0  0.44458284356E+02  0.20831279420E+02 -0.50289347869E+01  0.49353535185E+02  0.00000000000E+00 0. -1.
         -2    1    1    2    0  501  0.45486756129E+02  0.33222511892E+02 -0.18012069250E+03  0.18872266463E+03  0.00000000000E+00 0.  1.
<mgrwt>
<rscale>  0 0.56479487E+02</rscale>
<asrwt>0</asrwt>
<pdfrwt beam="1">  1        3 0.71072237E-02 0.49096652E+02</pdfrwt>
<pdfrwt beam="2">  1       -3 0.84472032E-01 0.64972505E+02</pdfrwt>
<totfact> 0.33776034E+02</totfact>
</mgrwt>
</event>
<event>
 5    1  0.9661178E-003  0.4733214E+02  0.7546771E-02  0.1548705E+00
          2   -1    0    0  502    0  0.00000000000E+00  0.00000000000E+00  0.43693813032E+04  0.43693813032E+04  0.00000000000E+00 0. -1.
         -2   -1    0    0    0  501 -0.00000000000E+00 -0.00000000000E+00 -0.47249680049E+01  0.47249680049E+01  0.00000000000E+00 0.  1.
         25    1    1    2    0    0 -0.49362666713E+02 -0.39660370150E+02  0.34401306678E+04  0.34429832456E+04  0.12500000000E+03 0.  0.
          3    1    1    2  502    0  0.23973508018E+02  0.34729513326E+02  0.86727801623E+03  0.86830410895E+03  0.00000000000E+00 0. -1.
         -3    1    1    2    0  501  0.25389158694E+02  0.49308568242E+01  0.57247651184E+02  0.62818916692E+02  0.00000000000E+00 0.  1.
<mgrwt>
<rscale>  0 0.34988236E+02</rscale>
<asrwt>0</asrwt>
<pdfrwt beam="1">  1        2 0.67220928E+00 0.47332139E+02</pdfrwt>
<pdfrwt beam="2">  1       -2 0.72692165E-03 0.25863541E+02</pdfrwt>
<totfact> 0.74674305E+02</totfact>
</mgrwt>
</event>
<event>
 5    1  0.8274494E-003  0.6501125E+02  0.7546771E-02  0.1412672E+00
          2   -1    0    0  502    0  0.00000000000E+00  0.00000000000E+00  0.13884628327E+03  0.13884628327E+03  0.00000000000E+00 0. -1.
          1   -1    0    0  501    0 -0.00000000000E+00 -0.00000000000E+00 -0.27408699143E+04  0.27408699143E+04  0.00000000000E+00 0. -1.
         25    1    1    2    0    0  0.92437576644E+02 -0.36667727742E+02 -0.11342877556E+04  0.11454793496E+04  0.12500000000E+03 0.  0.
          2    1    1    2  501    0 -0.43715151809E+02  0.44060063362E+02 -0.15958060548E+04  0.15970126074E+04  0.00000000000E+00 0. -1.
          1    1    1    2  502    0 -0.48722424835E+02 -0.73923356198E+01  0.12807017946E+03  0.13722424048E+03  0.00000000000E+00 0. -1.
<mgrwt>
<rscale>  0 0.56601735E+02</rscale>
<asrwt>0</asrwt>
<pdfrwt beam="1">  1        2 0.21360969E-01 0.49280030E+02</pdfrwt>
<pdfrwt beam="2">  1        1 0.42167226E+00 0.65011252E+02</pdfrwt>
<totfact> 0.45101965E+01</totfact>
</mgrwt>
</event>
<event>
 5    1  0.8274494E-003  0.8154925E+02  0.7546771E-02  0.1361255E+00
          1   -1    0    0  501    0 -0.00000000000E+00  0.00000000000E+00  0.13492427312E+02  0.13492427312E+02  0.00000000000E+00 0. -1.
          2   -1    0    0  502    0  0.00000000000E+00 -0.00000000000E+00 -0.33718015549E+04  0.33718015549E+04  0.00000000000E+00 0. -1.
         25    1    1    2    0    0  0.68151803513E+02 -0.11983673099E+02 -0.23266225345E+04  0.23310052970E+04  0.12500000000E+03 0.  0.
          2    1    1    2  501    0  0.11150834651E+02 -0.58448743783E+02 -0.98381507350E+02  0.11497616167E+03  0.00000000000E+00 0. -1.
          3    1    1    2  502    0 -0.79302638164E+02  0.70432416881E+02 -0.93330508575E+03  0.93931252353E+03  0.00000000000E+00 0. -1.
<mgrwt>
<rscale>  0 0.69659298E+02</rscale>
<asrwt>0</asrwt>
<pdfrwt beam="2">  1        2 0.51873906E+00 0.81549247E+02</pdfrwt>
<pdfrwt beam="1">  1        1 0.20757566E-02 0.59502914E+02</pdfrwt>
<totfact> 0.97869876E+02</totfact>
</mgrwt>
</event>
<event>
 5    1  0.8274494E-003  0.6281860E+02  0.7546771E-02  0.1467806E+00
          2   -1    0    0  502    0  0.00000000000E+00  0.00000000000E+00  0.60535716471E+03  0.60535716471E+03  0.00000000000E+00 0. -1.
         -2   -1    0    0    0  501 -0.00000000000E+00 -0.00000000000E+00 -0.30978997866E+02  0.30978997866E+02  0.00000000000E+00 0.  1.
         25    1    1    2    0    0 -0.26200230250E+02 -0.72580787865E+02  0.39592204163E+03  0.42229573273E+03  0.12500000000E+03 0.  0.
          1    1    1    2  502    0 -0.17340945783E+02  0.28987259723E+02  0.13366364319E+03  0.13786565612E+03  0.00000000000E+00 0. -1.
         -1    1    1    2    0  501  0.43541176033E+02  0.43593528142E+02  0.44792482019E+02  0.76174773722E+02  0.00000000000E+00 0.  1.
<mgrwt>
<rscale>  0 0.46064106E+02</rscale>
<asrwt>0</asrwt>
<pdfrwt beam="1">  1        2 0.93131863E-01 0.33778242E+02</pdfrwt>
<pdfrwt beam="2">  1       -2 0.47660001E-02 0.62818600E+02</pdfrwt>
<totfact> 0.96022596E+03</totfact>
</mgrwt>
</event>
<event>
 5    1  0.8274494E-003  0.7179241E+02  0.7546771E-02  0.1400267E+00
         -2   -1    0    0    0  501 -0.00000000000E+00  0.00000000000E+00  0.84708269262E+02  0.84708269262E+02  0.00000000000E+00 0.  1.
          2   -1    0    0  502    0  0.00000000000E+00 -0.00000000000E+00 -0.18160922054E+04  0.18160922054E+04  0.00000000000E+00 0. -1.
         25    1    1    2    0    0  0.63925883488E+02 -0.20427139343E+02 -0.53369263058E+03  0.55222876649E+03  0.12500000000E+03 0.  0.
          1    1    1    2  502    0 -0.68320460615E+02 -0.28561662468E+02 -0.12639139813E+04  0.12660813584E+04  0.00000000000E+00 0. -1.
         -1    1    1    2    0  501  0.43945771270E+01  0.48988801810E+02  0.66222675798E+02  0.82490349743E+02  0.00000000000E+00 0.  1.
<mgrwt>
<rscale>  0 0.59423452E+02</rscale>
<asrwt>0</asrwt>
<pdfrwt beam="2">  1        2 0.27939880E+00 0.71792408E+02</pdfrwt>
<pdfrwt beam="1">  1       -2 0.13032041E-01 0.49185516E+02</pdfrwt>
<totfact> 0.41655933E+02</totfact>
</mgrwt>
</event>
<event>
 5    1  0.8274494E-003  0.1026939E+03  0.7546771E-02  0.1388879E+00
          2   -1    0    0  502    0  0.00000000000E+00  0.00000000000E+00  0.20648270530E+03  0.20648270530E+03  0.00000000000E+00 0. -1.
          1   -1    0    0  501    0 -0.00000000000E+00 -0.00000000000E+00 -0.96865666674E+03  0.96865666674E+03  0.00000000000E+00 0. -1.
         25    1    1    2    0    0 -0.46713650292E+02 -0.51414128180E+02 -0.96998946138E+02  0.17279864945E+03  0.12500000000E+03 0.  0.
          2    1    1    2  501    0 -0.21214928692E+02 -0.31112482766E+02 -0.81633748182E+03  0.81720557023E+03  0.00000000000E+00 0. -1.
          1    1    1    2  502    0  0.67928578984E+02  0.82526610945E+02  0.15116246652E+03  0.18513515237E+03  0.00000000000E+00 0. -1.
<mgrwt>
<rscale>  0 0.62186464E+02</rscale>
<asrwt>0</asrwt>
<pdfrwt beam="1">  1        2 0.31766570E-01 0.10269386E+03</pdfrwt>
<pdfrwt beam="2">  1        1 0.14902410E+00 0.37657135E+02</pdfrwt>
<totfact> 0.42163384E+02</totfact>
</mgrwt>
</event>
<event>
 5    1  0.8274494E-003  0.5038083E+02  0.7546771E-02  0.1510500E+00
          2   -1    0    0  502    0  0.00000000000E+00  0.00000000000E+00  0.10198975550E+04  0.10198975550E+04  0.00000000000E+00 0. -1.
          1   -1    0    0  501    0 -0.00000000000E+00 -0.00000000000E+00 -0.31568066023E+03  0.31568066023E+03  0.00000000000E+00 0. -1.
         25    1    1    2    0    0  0.20654674825E+02  0.52372450558E+02 -0.20730812450E+02  0.13865156239E+03  0.12500000000E+03 0.  0.
          2    1    1    2  501    0 -0.31118524466E+02 -0.30617402541E+01 -0.23428897686E+03  0.23636637134E+03  0.00000000000E+00 0. -1.
          1    1    1    2  502    0  0.10463849640E+02 -0.49310710304E+02  0.95923668405E+03  0.96056028146E+03  0.00000000000E+00 0. -1.
<mgrwt>
<rscale>  0 0.39690644E+02</rscale>
<asrwt>0</asrwt>
<pdfrwt beam="1">  1        2 0.15690732E+00 0.50380828E+02</pdfrwt>
<pdfrwt beam="2">  1        1 0.48566256E-01 0.31268783E+02</pdfrwt>
<totfact> 0.31322891E+02</totfact>
</mgrwt>
</event>
<event>
 5    1  0.8274494E-003  0.2018084E+03  0.7546771E-02  0.1249941E+00
          1   -1    0    0  502    0  0.00000000000E+00  0.00000000000E+00  0.15772029288E+04  0.15772029288E+04  0.00000000000E+00 0. -1.
         -1   -1    0    0    0  501 -0.00000000000E+00 -0.00000000000E+00 -0.16563102547E+03  0.16563102547E+03  0.00000000000E+00 0.  1.
         25    1    1    2    0    0  0.12180210500E+03  0.17889836906E+03  0.34188691737E+03  0.42349975620E+03  0.12500000000E+03 0.  0.
          2    1    1    2  502    0 -0.65237106819E+02  0.13473050692E+02  0.11123394831E+04  0.11143323242E+04  0.00000000000E+00 0. -1.
         -2    1    1    2    0  501 -0.56564998179E+02 -0.19237141975E+03 -0.42654497112E+02  0.20500187384E+03  0.00000000000E+00 0.  1.
<mgrwt>
<rscale>  0 0.11594496E+03</rscale>
<asrwt>0</asrwt>
<pdfrwt beam="1">  1        1 0.24264659E+00 0.66613836E+02</pdfrwt>
<pdfrwt beam="2">  1       -1 0.25481697E-01 0.20180843E+03</pdfrwt>
<totfact> 0.98808738E+01</totfact>
</mgrwt>
</event>
<event>
 5    1  0.8274494E-003  0.4060147E+02  0.7546771E-02  0.1509851E+00
         -2   -1    0    0    0  501 -0.00000000000E+00  0.00000000000E+00  0.21119041001E+02  0.21119041001E+02  0.00000000000E+00 0.  1.
          2   -1    0    0  502    0  0.00000000000E+00 -0.00000000000E+00 -0.30542946349E+04  0.30542946349E+04  0.00000000000E+00 0. -1.
         25    1    1    2    0    0 -0.41787893890E+02 -0.14145491488E+02 -0.79385139471E+03  0.80484244414E+03  0.12500000000E+03 0.  0.
          1    1    1    2  502    0  0.33418381694E+02 -0.23916618050E+02 -0.22301576773E+04  0.22305362715E+04  0.00000000000E+00 0. -1.
         -3    1    1    2    0  501  0.83695121967E+01  0.38062109538E+02 -0.91665218449E+01  0.40034960218E+02  0.00000000000E+00 0.  1.
<mgrwt>
<rscale>  0 0.39778104E+02</rscale>
<asrwt>0</asrwt>
<pdfrwt beam="2">  1        2 0.46989163E+00 0.40601467E+02</pdfrwt>
<pdfrwt beam="1">  1       -2 0.32490822E-02 0.38971437E+02</pdfrwt>
<totfact> 0.79759085E+02</totfact>
</mgrwt>
</event>
<event>
 5    1  0.8274494E-003  0.1057878E+03  0.7546771E-02  0.1412245E+00
          2   -1    0    0  502    0  0.00000000000E+00  0.00000000000E+00  0.64093425109E+03  0.64093425109E+03  0.00000000000E+00 0. -1.
          1   -1    0    0  501    0 -0.00000000000E+00 -0.00000000000E+00 -0.39461083386E+03  0.39461083386E+03  0.00000000000E+00 0. -1.
         25    1    1    2    0    0 -0.34133664907E+02  0.68390352999E+02 -0.15034337335E+03  0.20992969627E+03  0.12500000000E+03 0.  0.
          2    1    1    2  501    0 -0.17691745836E+02  0.24704076512E+02 -0.20872188346E+03  0.21092205646E+03  0.00000000000E+00 0. -1.
          1    1    1    2  502    0  0.51825410744E+02 -0.93094429511E+02  0.60538867405E+03  0.61469333221E+03  0.00000000000E+00 0. -1.
<mgrwt>
<rscale>  0 0.56695980E+02</rscale>
<asrwt>0</asrwt>
<pdfrwt beam="1">  1        2 0.98605269E-01 0.10578781E+03</pdfrwt>
<pdfrwt beam="2">  1        1 0.60709359E-01 0.30385675E+02</pdfrwt>
<totfact> 0.41254916E+02</totfact>
</mgrwt>
</event>
<event>
 5    1  0.8274494E-003  0.5228334E+02  0.7546771E-02  0.1539967E+00
          2   -1    0    0  502    0  0.00000000000E+00  0.00000000000E+00  0.37897591942E+03  0.37897591942E+03  0.00000000000E+00 0. -1.
          1   -1    0    0  501    0 -0.00000000000E+00 -0.00000000000E+00 -0.15888073197E+03  0.15888073197E+03  0.00000000000E+00 0. -1.
         25    1    1    2    0    0  0.30625740663E+02 -0.89726275534E+01  0.13049162002E+03  0.18349797528E+03  0.12500000000E+03 0.  0.
          2    1    1    2  501    0 -0.53002807756E+02 -0.16641896682E+01 -0.12632988882E+03  0.13700842297E+03  0.00000000000E+00 0. -1.
          1    1    1    2  502    0  0.22377067093E+02  0.10636817222E+02  0.21593345624E+03  0.21735025313E+03  0.00000000000E+00 0. -1.
<mgrwt>
<rscale>  0 0.35991640E+02</rscale>
<asrwt>0</asrwt>
<pdfrwt beam="1">  1        2 0.58303987E-01 0.24776501E+02</pdfrwt>
<pdfrwt beam="2">  1        1 0.24443190E-01 0.52283335E+02</pdfrwt>
<totfact> 0.21693287E+03</totfact>
</mgrwt>
</event>
<event>
 5    1  0.8274494E-003  0.4032696E+02  0.7546771E-02  0.1527815E+00
         -2   -1    0    0    0  501 -0.00000000000E+00  0.00000000000E+00  0.19511927976E+02  0.19511927976E+02  0.00000000000E+00 0.  1.
          2   -1    0    0  502    0  0.00000000000E+00 -0.00000000000E+00 -0.23872416249E+04  0.23872416249E+04  0.00000000000E+00 0. -1.
         25    1    1    2    0    0  0.71354935999E+02 -0.19299870669E+02 -0.48043192622E+03  0.50190023673E+03  0.12500000000E+03 0.  0.
          1    1    1    2  502    0 -0.36882205026E+02  0.14619885402E+02 -0.18605433240E+04  0.18609662809E+04  0.00000000000E+00 0. -1.
         -1    1    1    2    0  501 -0.34472730974E+02  0.46799852671E+01 -0.26754446618E+02  0.43887035178E+02  0.00000000000E+00 0.  1.
<mgrwt>
<rscale>  0 0.37455746E+02</rscale>
<asrwt>0</asrwt>
<pdfrwt beam="2">  1        2 0.36726812E+00 0.40326962E+02</pdfrwt>
<pdfrwt beam="1">  1       -2 0.30018336E-02 0.34788956E+02</pdfrwt>
<totfact> 0.19624673E+03</totfact>
</mgrwt>
</event>
<event>
 5    1  0.8274494E-003  0.1011277E+03  0.7546771E-02  0.1473273E+00
          1   -1    0    0  501    0 -0.00000000000E+00  0.00000000000E+00  0.10443142268E+04  0.10443142268E+04  0.00000000000E+00 0. -1.
          2   -1    0    0  502    0  0.00000000000E+00 -0.00000000000E+00 -0.19927222828E+03  0.19927222828E+03  0.00000000000E+00 0. -1.
         25    1    1    2    0    0  0.75332638273E+01  0.11274927975E+03  0.82369102347E+02  0.18756017480E+03  0.12500000000E+03 0.  0.
          2    1    1    2  501    0  0.13287938635E+02 -0.15183977626E+02  0.89225898380E+03  0.89248709607E+03  0.00000000000E+00 0. -1.
          1    1    1    2  502    0 -0.20821202462E+02 -0.97565302126E+02 -0.12958608765E+03  0.16353918418E+03  0.00000000000E+00 0. -1.
<mgrwt>
<rscale>  0 0.45171689E+02</rscale>
<asrwt>0</asrwt>
<pdfrwt beam="2">  1        2 0.30657267E-01 0.10112770E+03</pdfrwt>
<pdfrwt beam="1">  1        1 0.16066372E+00 0.20177277E+02</pdfrwt>
<totfact> 0.40709757E+02</totfact>
</mgrwt>
</event>
<event>
 5    1  0.8274494E-003  0.1040011E+03  0.7546771E-02  0.1367001E+00
          2   -1    0    0  502    0  0.00000000000E+00  0.00000000000E+00  0.36519326436E+02  0.36519326436E+02  0.00000000000E+00 0. -1.
         -2   -1    0    0    0  501 -0.00000000000E+00 -0.00000000000E+00 -0.10622105526E+04  0.10622105526E+04  0.00000000000E+00 0.  1.
         25    1    1    2    0    0 -0.46462277280E+02 -0.89418566413E+02 -0.27933805973E+03  0.32219431225E+03  0.12500000000E+03 0.  0.
          1    1    1    2  502    0 -0.37233513047E+02  0.24318064226E+02 -0.33083504139E+02  0.55427619357E+02  0.00000000000E+00 0. -1.
         -1    1    1    2    0  501  0.83695790327E+02  0.65100502187E+02 -0.71326966234E+03  0.72110794748E+03  0.00000000000E+00 0.  1.
<mgrwt>
<rscale>  0 0.68007879E+02</rscale>
<asrwt>0</asrwt>
<pdfrwt beam="1">  1        2 0.56183583E-02 0.44471370E+02</pdfrwt>
<pdfrwt beam="2">  1       -2 0.16341700E+00 0.10400111E+03</pdfrwt>
<totfact> 0.30846132E+02</totfact>
</mgrwt>
</event>
<event>
 5    1  0.8274494E-003  0.9190892E+02  0.7546771E-02  0.1412960E+00
          1   -1    0    0  502    0  0.00000000000E+00  0.00000000000E+00  0.39806879246E+03  0.39806879246E+03  0.00000000000E+00 0. -1.
         -1   -1    0    0    0  501 -0.00000000000E+00 -0.00000000000E+00 -0.21206235615E+03  0.21206235615E+03  0.00000000000E+00 0.  1.
         25    1    1    2    0    0 -0.10023839974E+03  0.89908081598E+01  0.13016954395E+03  0.20663417332E+03  0.12500000000E+03 0.  0.
          2    1    1    2  502    0  0.82310230192E+02 -0.38794210686E+02  0.21874563645E+03  0.23691690155E+03  0.00000000000E+00 0. -1.
         -2    1    1    2    0  501  0.17928169545E+02  0.29803402526E+02 -0.16290874409E+03  0.16658007373E+03  0.00000000000E+00 0.  1.
<mgrwt>
<rscale>  0 0.56538572E+02</rscale>
<asrwt>0</asrwt>
<pdfrwt beam="1">  1        1 0.61241353E-01 0.91908916E+02</pdfrwt>
<pdfrwt beam="2">  1       -1 0.32624978E-01 0.34780196E+02</pdfrwt>
<totfact> 0.53296166E+02</totfact>
</mgrwt>
</event>
<event>
 5    1  0.1964353E-002  0.6145891E+02  0.7546771E-02  0.1397045E+00
         -2   -1    0    0    0  501 -0.00000000000E+00  0.00000000000E+00  0.24098496680E+02  0.24098496680E+02  0.00000000000E+00 0.  1.
          2   -1    0    0  502    0  0.00000000000E+00 -0.00000000000E+00 -0.87967059418E+03  0.87967059418E+03  0.00000000000E+00 0. -1.
         25    1    1    2    0    0 -0.46816464559E+02  0.65834747534E+02 -0.29812804869E+03  0.33321363831E+03  0.12500000000E+03 0.  0.
          1    1    1    2  502    0  0.61155581383E+02 -0.86623141149E+01 -0.31984467837E+03  0.32575398555E+03  0.00000000000E+00 0. -1.
         -1    1    1    2    0  501 -0.14339116824E+02 -0.57172433419E+02 -0.23759937044E+03  0.24480146700E+03  0.00000000000E+00 0.  1.
<mgrwt>
<rscale>  0 0.60187897E+02</rscale>
<asrwt>0</asrwt>
<pdfrwt beam="2">  1        2 0.13533391E+00 0.61458909E+02</pdfrwt>
<pdfrwt beam="1">  1       -2 0.37074616E-02 0.58943171E+02</pdfrwt>
<totfact> 0.87780434E+03</totfact>
</mgrwt>
</event>
<event>
 5    1  0.8274494E-003  0.6362082E+02  0.7546771E-02  0.1452148E+00
          2   -1    0    0  502    0  0.00000000000E+00  0.00000000000E+00  0.98233850646E+03  0.98233850646E+03  0.00000000000E+00 0. -1.
          1   -1    0    0  501    0 -0.00000000000E+00 -0.00000000000E+00 -0.17401309594E+04  0.17401309594E+04  0.00000000000E+00 0. -1.
         25    1    1    2    0    0 -0.65204003580E+02  0.39929220696E+02 -0.45915053467E+02  0.15355486604E+03  0.12500000000E+03 0.  0.
          2    1    1    2  501    0  0.34013195344E+02  0.15480086411E+02 -0.16390941967E+04  0.16395201481E+04  0.00000000000E+00 0. -1.
          1    1    1    2  502    0  0.31190808236E+02 -0.55409307106E+02  0.92721679720E+03  0.92939445170E+03  0.00000000000E+00 0. -1.
<mgrwt>
<rscale>  0 0.48759836E+02</rscale>
<asrwt>0</asrwt>
<pdfrwt beam="1">  1        2 0.15112900E+00 0.63620819E+02</pdfrwt>
<pdfrwt beam="2">  1        1 0.26771245E+00 0.37370182E+02</pdfrwt>
<totfact> 0.24642667E+01</totfact>
</mgrwt>
</event>
<event>
 5    1  0.8274494E-003  0.2920697E+03  0.7546771E-02  0.1138602E+00
          2   -1    0    0  502    0  0.00000000000E+00  0.00000000000E+00  0.48260050499E+04  0.48260050499E+04  0.00000000000E+00 0. -1.
          1   -1    0    0  501    0 -0.00000000000E+00 -0.00000000000E+00 -0.17443551795E+04  0.17443551795E+04  0.00000000000E+00 0. -1.
         25    1    1    2    0    0 -0.27768049201E+03  0.34194079778E+03  0.13415672866E+03  0.47712995365E+03  0.12500000000E+03 0.  0.
          2    1    1    2  501    0  0.11938845695E+03 -0.10116374498E+03 -0.15643689893E+04  0.15721762120E+04  0.00000000000E+00 0. -1.
          1    1    1    2  502    0  0.15829203506E+03 -0.24077705281E+03  0.45118621311E+04  0.45210540637E+04  0.00000000000E+00 0. -1.
<mgrwt>
<rscale>  0 0.21378651E+03</rscale>
<asrwt>0</asrwt>
<pdfrwt beam="1">  1        2 0.74246231E+00 0.29206971E+03</pdfrwt>
<pdfrwt beam="2">  1        1 0.26836234E+00 0.15648548E+03</pdfrwt>
<totfact> 0.56827761E-02</totfact>
</mgrwt>
</event>
<event>
 5    1  0.1257902E-002  0.5192647E+02  0.7546771E-02  0.1467801E+00
          1   -1    0    0  501    0 -0.00000000000E+00  0.00000000000E+00  0.10034070729E+04  0.10034070729E+04  0.00000000000E+00 0. -1.
          2   -1    0    0  502    0  0.00000000000E+00 -0.00000000000E+00 -0.10476931761E+04  0.10476931761E+04  0.00000000000E+00 0. -1.
         25    1    1    2    0    0 -0.26918367521E+02  0.12744657765E+02  0.35139567813E+03  0.37415364146E+03  0.12500000000E+03 0.  0.
          2    1    1    2  501    0 -0.19665387740E+02 -0.35821998774E+02  0.63932768405E+03  0.64063236780E+03  0.00000000000E+00 0. -1.
          1    1    1    2  502    0  0.46583755261E+02  0.23077341009E+02 -0.10350094655E+04  0.10363142398E+04  0.00000000000E+00 0. -1.
<mgrwt>
<rscale>  0 0.46064867E+02</rscale>
<asrwt>0</asrwt>
<pdfrwt beam="2">  1        2 0.16118357E+00 0.51926471E+02</pdfrwt>
<pdfrwt beam="1">  1        1 0.15437032E+00 0.40864937E+02</pdfrwt>
<totfact> 0.66293906E+01</totfact>
</mgrwt>
</event>
<event>
 5    1  0.8274494E-003  0.6050234E+02  0.7546771E-02  0.1508258E+00
          1   -1    0    0  501    0 -0.00000000000E+00  0.00000000000E+00  0.46396354557E+03  0.46396354557E+03  0.00000000000E+00 0. -1.
          2   -1    0    0  502    0  0.00000000000E+00 -0.00000000000E+00 -0.75524969619E+02  0.75524969619E+02  0.00000000000E+00 0. -1.
         25    1    1    2    0    0 -0.33540380368E+02 -0.11209354426E+02  0.35973087972E+03  0.38246818503E+03  0.12500000000E+03 0.  0.
          2    1    1    2  501    0 -0.26186104319E+02 -0.36324738855E+01  0.75315395143E+02  0.79820521619E+02  0.00000000000E+00 0. -1.
          1    1    1    2  502    0  0.59726484687E+02  0.14841828312E+02 -0.46607698908E+02  0.77199808537E+02  0.00000000000E+00 0. -1.
<mgrwt>
<rscale>  0 0.39993638E+02</rscale>
<asrwt>0</asrwt>
<pdfrwt beam="2">  1        2 0.11619226E-01 0.60502337E+02</pdfrwt>
<pdfrwt beam="1">  1        1 0.71379006E-01 0.26436848E+02</pdfrwt>
<totfact> 0.34545022E+03</totfact>
</mgrwt>
</event>
<event>
 5    1  0.8274494E-003  0.9836796E+02  0.7546771E-02  0.1384494E+00
         -2   -1    0    0    0  501 -0.00000000000E+00  0.00000000000E+00  0.91925258843E+02  0.91925258843E+02  0.00000000000E+00 0.  1.
          2   -1    0    0  502    0  0.00000000000E+00 -0.00000000000E+00 -0.18858506957E+04  0.18858506957E+04  0.00000000000E+00 0. -1.
         25    1    1    2    0    0 -0.75713439265E+02  0.10729272117E+03 -0.51484230961E+03  0.54583134453E+03  0.12500000000E+03 0.  0.
          1    1    1    2  502    0  0.61708126027E+01 -0.40259698201E+02 -0.13245588079E+04  0.13251848769E+04  0.00000000000E+00 0. -1.
         -1    1    1    2    0  501  0.69542626663E+02 -0.67033022973E+02  0.45475680667E+02  0.10675973316E+03  0.00000000000E+00 0.  1.
<mgrwt>
<rscale>  0 0.63297031E+02</rscale>
<asrwt>0</asrwt>
<pdfrwt beam="2">  1        2 0.29013088E+00 0.40729869E+02</pdfrwt>
<pdfrwt beam="1">  1       -2 0.14142347E-01 0.98367961E+02</pdfrwt>
<totfact> 0.37510203E+02</totfact>
</mgrwt>
</event>
<event>
 5    1  0.8274494E-003  0.1454967E+03  0.7546771E-02  0.1395105E+00
          2   -1    0    0  502    0  0.00000000000E+00  0.00000000000E+00  0.26282137330E+03  0.26282137330E+03  0.00000000000E+00 0. -1.
          1   -1    0    0  501    0 -0.00000000000E+00 -0.00000000000E+00 -0.87901983535E+03  0.87901983535E+03  0.00000000000E+00 0. -1.
         25    1    1    2    0    0  0.22420350518E+01  0.14249906916E+03 -0.11103170304E+03  0.21969080662E+03  0.12500000000E+03 0.  0.
          2    1    1    2  501    0  0.22975813387E+02 -0.14435116812E+03 -0.70537061831E+03  0.72035606259E+03  0.00000000000E+00 0. -1.
          1    1    1    2  502    0 -0.25217848439E+02  0.18520989642E+01  0.20020385930E+03  0.20179433944E+03  0.00000000000E+00 0. -1.
<mgrwt>
<rscale>  0 0.60654729E+02</rscale>
<asrwt>0</asrwt>
<pdfrwt beam="1">  1        2 0.40434057E-01 0.25285770E+02</pdfrwt>
<pdfrwt beam="2">  1        1 0.13523382E+00 0.14549670E+03</pdfrwt>
<totfact> 0.34221100E+02</totfact>
</mgrwt>
</event>
<event>
 5    1  0.8274494E-003  0.8365224E+02  0.7546771E-02  0.1326743E+00
          2   -1    0    0  502    0  0.00000000000E+00  0.00000000000E+00  0.44928230524E+03  0.44928230524E+03  0.00000000000E+00 0. -1.
          1   -1    0    0  501    0 -0.00000000000E+00 -0.00000000000E+00 -0.51786750400E+03  0.51786750400E+03  0.00000000000E+00 0. -1.
         25    1    1    2    0    0  0.74461452716E+02 -0.61123173649E+02  0.56717652379E+02  0.16769747282E+03  0.12500000000E+03 0.  0.
          2    1    1    2  501    0  0.95160588805E+01  0.77499552596E+02 -0.45355798862E+03  0.46022992630E+03  0.00000000000E+00 0. -1.
          1    1    1    2  502    0 -0.83977511596E+02 -0.16376378947E+02  0.32825513748E+03  0.33922241011E+03  0.00000000000E+00 0. -1.
<mgrwt>
<rscale>  0 0.80818936E+02</rscale>
<asrwt>0</asrwt>
<pdfrwt beam="1">  1        2 0.69120355E-01 0.83652238E+02</pdfrwt>
<pdfrwt beam="2">  1        1 0.79671924E-01 0.78081599E+02</pdfrwt>
<totfact> 0.43112435E+02</totfact>
</mgrwt>
</event>
<event>
 5    1  0.8274494E-003  0.8938940E+02  0.7546771E-02  0.1459856E+00
          2   -1    0    0  502    0  0.00000000000E+00  0.00000000000E+00  0.19677286084E+04  0.19677286084E+04  0.00000000000E+00 0. -1.
         -2   -1    0    0    0  501 -0.00000000000E+00 -0.00000000000E+00 -0.96210281275E+01  0.96210281275E+01  0.00000000000E+00 0.  1.
         25    1    1    2    0    0  0.76213222385E+02 -0.34265319720E+02  0.96045382507E+03  0.97215179756E+03  0.12500000000E+03 0.  0.
          1    1    1    2  502    0  0.17141838947E+02  0.18391002695E+02  0.31591748214E+03  0.31691627782E+03  0.00000000000E+00 0. -1.
         -1    1    1    2    0  501 -0.93355061332E+02  0.15874317025E+02  0.68173627308E+03  0.68828156117E+03  0.00000000000E+00 0.  1.
<mgrwt>
<rscale>  0 0.47406140E+02</rscale>
<asrwt>0</asrwt>
<pdfrwt beam="1">  1        2 0.30272716E+00 0.25141035E+02</pdfrwt>
<pdfrwt beam="2">  1       -2 0.14801597E-02 0.89389403E+02</pdfrwt>
<totfact> 0.10460940E+04</totfact>
</mgrwt>
</event>
<event>
 5    1  0.8274494E-003  0.5032204E+02  0.7546771E-02  0.1523183E+00
          2   -1    0    0  502    0  0.00000000000E+00  0.00000000000E+00  0.46510313888E+03  0.46510313888E+03  0.00000000000E+00 0. -1.
          1   -1    0    0  501    0 -0.00000000000E+00 -0.00000000000E+00 -0.11185044555E+04  0.11185044555E+04  0.00000000000E+00 0. -1.
         25    1    1    2    0    0  0.28621918191E+02 -0.68231703377E+02 -0.39734058556E+02  0.15059407344E+03  0.12500000000E+03 0.  0.
          2    1    1    2  501    0 -0.30722731888E+02  0.39558986286E+02 -0.10222220472E+04  0.10234484420E+04  0.00000000000E+00 0. -1.
          1    1    1    2  502    0  0.21008136974E+01  0.28672717092E+02  0.40855478915E+03  0.40956507891E+03  0.00000000000E+00 0. -1.
<mgrwt>
<rscale>  0 0.38035999E+02</rscale>
<asrwt>0</asrwt>
<pdfrwt beam="1">  1        2 0.71554329E-01 0.28749576E+02</pdfrwt>
<pdfrwt beam="2">  1        1 0.17207761E+00 0.50322036E+02</pdfrwt>
<totfact> 0.13971720E+02</totfact>
</mgrwt>
</event>
<event>
 5    1  0.8274494E-003  0.1125669E+03  0.7546771E-02  0.1325861E+00
          1   -1    0    0  501    0 -0.00000000000E+00  0.00000000000E+00  0.28074799237E+04  0.28074799237E+04  0.00000000000E+00 0. -1.
          2   -1    0    0  502    0  0.00000000000E+00 -0.00000000000E+00 -0.19275078451E+02  0.19275078451E+02  0.00000000000E+00 0. -1.
         25    1    1    2    0    0  0.56450796719E+02 -0.59295915705E+02  0.74287338194E+03  0.75775230760E+03  0.12500000000E+03 0.  0.
          2    1    1    2  501    0 -0.11323699088E+03  0.45324143701E+02  0.19693438209E+04  0.19731173252E+04  0.00000000000E+00 0. -1.
          1    1    1    2  502    0  0.56786194157E+02  0.13971772003E+02  0.75987642485E+02  0.95885369427E+02  0.00000000000E+00 0. -1.
<mgrwt>
<rscale>  0 0.81134982E+02</rscale>
<asrwt>0</asrwt>
<pdfrwt beam="2">  1        2 0.29653989E-02 0.58479759E+02</pdfrwt>
<pdfrwt beam="1">  1        1 0.43191966E+00 0.11256690E+03</pdfrwt>
<totfact> 0.41243033E+02</totfact>
</mgrwt>
</event>
<event>
 5    1  0.8274494E-003  0.2619327E+03  0.7546771E-02  0.1253158E+00
          2   -1    0    0  502    0  0.00000000000E+00  0.00000000000E+00  0.13180469520E+04  0.13180469520E+04  0.00000000000E+00 0. -1.
          1   -1    0    0  501    0 -0.00000000000E+00 -0.00000000000E+00 -0.14646611630E+03  0.14646611630E+03  0.00000000000E+00 0. -1.
         25    1    1    2    0    0  0.11210593872E+03 -0.22227426472E+03  0.55397442119E+03  0.62006955221E+03  0.12500000000E+03 0.  0.
          2    1    1    2  501    0  0.49679157111E+02  0.15692605805E+01 -0.80505674174E+02  0.94613132303E+02  0.00000000000E+00 0. -1.
          1    1    1    2  502    0 -0.16178509583E+03  0.22070500414E+03  0.69811208864E+03  0.74983038375E+03  0.00000000000E+00 0. -1.
<mgrwt>
<rscale>  0 0.11410121E+03</rscale>
<asrwt>0</asrwt>
<pdfrwt beam="1">  1        2 0.20277645E+00 0.26193268E+03</pdfrwt>
<pdfrwt beam="2">  1        1 0.22533249E-01 0.49703936E+02</pdfrwt>
<totfact> 0.48794191E+02</totfact>
</mgrwt>
</event>
<event>
 5    1  0.8274494E-003  0.4759593E+02  0.7546771E-02  0.1588426E+00
          2   -1    0    0  502    0  0.00000000000E+00  0.00000000000E+00  0.86132962095E+02  0.86132962095E+02  0.00000000000E+00 0. -1.
         -2   -1    0    0    0  501 -0.00000000000E+00 -0.00000000000E+00 -0.17258189250E+03  0.17258189250E+03  0.00000000000E+00 0.  1.
         25    1    1    2    0    0  0.93177505901E+00 -0.41073751654E+02  0.33019289849E+01  0.13161999854E+03  0.12500000000E+03 0.  0.
          1    1    1    2  502    0  0.17048309220E+02  0.49948896561E+02 -0.23314116516E+02  0.57698224789E+02  0.00000000000E+00 0. -1.
         -1    1    1    2    0  501 -0.17980084279E+02 -0.88751449070E+01 -0.66436742871E+02  0.69396631266E+02  0.00000000000E+00 0.  1.
<mgrwt>
<rscale>  0 0.30892663E+02</rscale>
<asrwt>0</asrwt>
<pdfrwt beam="1">  1        2 0.13251225E-01 0.47595928E+02</pdfrwt>
<pdfrwt beam="2">  1       -2 0.26551060E-01 0.20051225E+02</pdfrwt>
<totfact> 0.48297565E+03</totfact>
</mgrwt>
</event>
<event>
 5    1  0.8274494E-003  0.1407729E+03  0.7546771E-02  0.1364890E+00
          1   -1    0    0  502    0  0.00000000000E+00  0.00000000000E+00  0.11651177275E+04  0.11651177275E+04  0.00000000000E+00 0. -1.
         -1   -1    0    0    0  501 -0.00000000000E+00 -0.00000000000E+00 -0.79339384563E+03  0.79339384563E+03  0.00000000000E+00 0.  1.
         25    1    1    2    0    0  0.43858776095E+02 -0.10532013635E+03 -0.30340511635E+02  0.17193449336E+03  0.12500000000E+03 0.  0.
          2    1    1    2  502    0 -0.51639861474E+01 -0.33036545597E+02  0.10866069512E+04  0.10871213118E+04  0.00000000000E+00 0. -1.
         -2    1    1    2    0  501 -0.38694789948E+02  0.13835668195E+03 -0.68454255765E+03  0.69945576804E+03  0.00000000000E+00 0.  1.
<mgrwt>
<rscale>  0 0.68608469E+02</rscale>
<asrwt>0</asrwt>
<pdfrwt beam="1">  1        1 0.17924888E+00 0.33437705E+02</pdfrwt>
<pdfrwt beam="2">  1       -1 0.12206059E+00 0.14077288E+03</pdfrwt>
<totfact> 0.95154654E+00</totfact>
</mgrwt>
</event>
<event>
 5    1  0.8274494E-003  0.4995180E+02  0.7546771E-02  0.1517085E+00
         -1   -1    0    0    0  502 -0.00000000000E+00  0.00000000000E+00  0.68531715284E+03  0.68531715284E+03  0.00000000000E+00 0.  1.
         -2   -1    0    0    0  501  0.00000000000E+00 -0.00000000000E+00 -0.20545740336E+02  0.20545740336E+02  0.00000000000E+00 0.  1.
         25    1    1    2    0    0  0.13740165106E+02  0.29214858559E+02  0.41889627136E+03  0.43833935057E+03  0.12500000000E+03 0.  0.
         -2    1    1    2    0  502 -0.27204808104E+01 -0.57297873532E+02  0.22129861880E+03  0.22861217380E+03  0.00000000000E+00 0.  1.
         -1    1    1    2    0  501 -0.11019684295E+02  0.28083014973E+02  0.24576522343E+02  0.38911368807E+02  0.00000000000E+00 0.  1.
<mgrwt>
<rscale>  0 0.38819198E+02</rscale>
<asrwt>0</asrwt>
<pdfrwt beam="2">  1       -2 0.31608836E-02 0.30167684E+02</pdfrwt>
<pdfrwt beam="1">  1       -1 0.10543339E+00 0.49951800E+02</pdfrwt>
<totfact> 0.21501512E+03</totfact>
</mgrwt>
</event>
<event>
 5    1  0.8274494E-003  0.8151508E+02  0.7546771E-02  0.1327273E+00
         -2   -1    0    0    0  501 -0.00000000000E+00  0.00000000000E+00  0.27834956002E+03  0.27834956002E+03  0.00000000000E+00 0.  1.
          2   -1    0    0  502    0  0.00000000000E+00 -0.00000000000E+00 -0.17775097413E+04  0.17775097413E+04  0.00000000000E+00 0. -1.
         25    1    1    2    0    0  0.75097982966E+02  0.13791525472E+03  0.13833552535E+03  0.24376636787E+03  0.12500000000E+03 0.  0.
          1    1    1    2  502    0 -0.22488044084E+02 -0.77974183614E+02 -0.17054104194E+04  0.17073401489E+04  0.00000000000E+00 0. -1.
         -1    1    1    2    0  501 -0.52609938882E+02 -0.59941071111E+02  0.67914712725E+02  0.10475278459E+03  0.00000000000E+00 0.  1.
<mgrwt>
<rscale>  0 0.80629847E+02</rscale>
<asrwt>0</asrwt>
<pdfrwt beam="2">  1        2 0.27346305E+00 0.81515075E+02</pdfrwt>
<pdfrwt beam="1">  1       -2 0.42823008E-01 0.79754233E+02</pdfrwt>
<totfact> 0.57246590E+01</totfact>
</mgrwt>
</event>
<event>
 5    1  0.8274494E-003  0.4464409E+02  0.7546771E-02  0.1569723E+00
         -2   -1    0    0    0  501 -0.00000000000E+00  0.00000000000E+00  0.54471101012E+03  0.54471101012E+03  0.00000000000E+00 0.  1.
          2   -1    0    0  502    0  0.00000000000E+00 -0.00000000000E+00 -0.42548761397E+02  0.42548761397E+02  0.00000000000E+00 0. -1.
         25    1    1    2    0    0 -0.14678960165E+02  0.52805011918E+02  0.26769399771E+03  0.30048114344E+03  0.12500000000E+03 0.  0.
          1    1    1    2  502    0  0.22065746231E+02 -0.94323092665E+01 -0.18319543484E+02  0.30190582775E+02  0.00000000000E+00 0. -1.
         -1    1    1    2    0  501 -0.73867860664E+01 -0.43372702651E+02  0.25278779450E+03  0.25658804530E+03  0.00000000000E+00 0.  1.
<mgrwt>
<rscale>  0 0.32731225E+02</rscale>
<asrwt>0</asrwt>
<pdfrwt beam="2">  1        2 0.65459637E-02 0.23997200E+02</pdfrwt>
<pdfrwt beam="1">  1       -2 0.83801689E-01 0.44644086E+02</pdfrwt>
<totfact> 0.11922187E+03</totfact>
</mgrwt>
</event>
<event>
 5    1  0.8274494E-003  0.1751235E+03  0.7546771E-02  0.1331375E+00
          1   -1    0    0  501    0 -0.00000000000E+00  0.00000000000E+00  0.96667387404E+03  0.96667387404E+03  0.00000000000E+00 0. -1.
          2   -1    0    0  502    0  0.00000000000E+00 -0.00000000000E+00 -0.38074171180E+03  0.38074171180E+03  0.00000000000E+00 0. -1.
         25    1    1    2    0    0  0.13939449106E+03  0.15258597002E+03 -0.11953596987E+02  0.24182884622E+03  0.12500000000E+03 0.  0.
          2    1    1    2  501    0 -0.10826773033E+03 -0.13488741319E+03  0.84163372425E+03  0.85922281247E+03  0.00000000000E+00 0. -1.
          1    1    1    2  502    0 -0.31126760740E+02 -0.17698556827E+02 -0.24374796502E+03  0.24636392715E+03  0.00000000000E+00 0. -1.
<mgrwt>
<rscale>  0 0.79186994E+02</rscale>
<asrwt>0</asrwt>
<pdfrwt beam="2">  1        2 0.58575648E-01 0.35806622E+02</pdfrwt>
<pdfrwt beam="1">  1        1 0.14871906E+00 0.17512347E+03</pdfrwt>
<totfact> 0.20145475E+02</totfact>
</mgrwt>
</event>
<event>
 5    1  0.8274494E-003  0.3746878E+02  0.7546771E-02  0.1571335E+00
         -2   -1    0    0    0  501  0.00000000000E+00  0.00000000000E+00  0.51635325364E+02  0.51635325364E+02  0.00000000000E+00 0.  1.
         -1   -1    0    0    0  502 -0.00000000000E+00 -0.00000000000E+00 -0.64226615252E+03  0.64226615252E+03  0.00000000000E+00 0.  1.
         25    1    1    2    0    0 -0.54639953404E+02 -0.34569966939E+02 -0.24624214906E+03  0.28362087916E+03  0.12500000000E+03 0.  0.
         -2    1    1    2    0  502  0.24678533495E+02  0.13863554278E+02 -0.36655419641E+03  0.36764549101E+03  0.00000000000E+00 0.  1.
         -1    1    1    2    0  501  0.29961419909E+02  0.20706412662E+02  0.22165518310E+02  0.42635107719E+02  0.00000000000E+00 0.  1.
<mgrwt>
<rscale>  0 0.32566706E+02</rscale>
<asrwt>0</asrwt>
<pdfrwt beam="1">  1       -2 0.79438959E-02 0.37468781E+02</pdfrwt>
<pdfrwt beam="2">  1       -1 0.98810181E-01 0.28305974E+02</pdfrwt>
<totfact> 0.68836870E+02</totfact>
</mgrwt>
</event>
<event>
 5    1  0.8274494E-003  0.9440600E+02  0.7546771E-02  0.1430867E+00
         -2   -1    0    0    0  501 -0.00000000000E+00  0.00000000000E+00  0.69050296524E+02  0.69050296524E+02  0.00000000000E+00 0.  1.
          2   -1    0    0  502    0  0.00000000000E+00 -0.00000000000E+00 -0.14231925716E+04  0.14231925716E+04  0.00000000000E+00 0. -1.
         25    1    1    2    0    0 -0.33480112579E+02 -0.60699545131E+02 -0.28016944285E+03  0.31452387735E+03  0.12500000000E+03 0.  0.
          3    1    1    2  502    0 -0.85264483581E+01 -0.28256727605E+02 -0.10788203052E+04  0.10792239776E+04  0.00000000000E+00 0. -1.
         -1    1    1    2    0  501  0.42006560938E+02  0.88956272736E+02  0.48474729693E+01  0.98495013148E+02  0.00000000000E+00 0.  1.
<mgrwt>
<rscale>  0 0.52786414E+02</rscale>
<asrwt>0</asrwt>
<pdfrwt beam="2">  1        2 0.21895272E+00 0.29515131E+02</pdfrwt>
<pdfrwt beam="1">  1       -2 0.10623122E-01 0.94405999E+02</pdfrwt>
<totfact> 0.10145893E+03</totfact>
</mgrwt>
</event>
<event>
 5    1  0.8274494E-003  0.5999488E+02  0.7546771E-02  0.1417526E+00
          2   -1    0    0  502    0  0.00000000000E+00  0.00000000000E+00  0.13454670091E+04  0.13454670091E+04  0.00000000000E+00 0. -1.
          1   -1    0    0  501    0 -0.00000000000E+00 -0.00000000000E+00 -0.76022396082E+03  0.76022396082E+03  0.00000000000E+00 0. -1.
         25    1    1    2    0    0 -0.24448655327E+02 -0.22351179329E+02  0.35918230563E+03  0.38175154308E+03  0.12500000000E+03 0.  0.
          2    1    1    2  501    0  0.31093924130E+02 -0.40966470901E+02 -0.74701492378E+03  0.74878326651E+03  0.00000000000E+00 0. -1.
          1    1    1    2  502    0 -0.66452688026E+01  0.63317650231E+02  0.97307566642E+03  0.97515616032E+03  0.00000000000E+00 0. -1.
<mgrwt>
<rscale>  0 0.55547811E+02</rscale>
<asrwt>0</asrwt>
<pdfrwt beam="1">  1        2 0.20699492E+00 0.59994878E+02</pdfrwt>
<pdfrwt beam="2">  1        1 0.11695753E+00 0.51430379E+02</pdfrwt>
<totfact> 0.68228218E+01</totfact>
</mgrwt>
</event>
<event>
 5    1  0.8274494E-003  0.7759224E+02  0.7546771E-02  0.1392892E+00
         -2   -1    0    0    0  501 -0.00000000000E+00  0.00000000000E+00  0.24599090851E+02  0.24599090851E+02  0.00000000000E+00 0.  1.
          2   -1    0    0  502    0  0.00000000000E+00 -0.00000000000E+00 -0.12760546852E+04  0.12760546852E+04  0.00000000000E+00 0. -1.
         25    1    1    2    0    0  0.28238076196E+02 -0.28802206331E+02 -0.45324310335E+03  0.47189115988E+03  0.12500000000E+03 0.  0.
          1    1    1    2  502    0  0.31532612137E+02 -0.36533821648E+02 -0.67664164650E+03  0.67836048200E+03  0.00000000000E+00 0. -1.
         -1    1    1    2    0  501 -0.59770688333E+02  0.65336027979E+02 -0.12157084454E+03  0.15040213422E+03  0.00000000000E+00 0.  1.
<mgrwt>
<rscale>  0 0.61193138E+02</rscale>
<asrwt>0</asrwt>
<pdfrwt beam="2">  1        2 0.19631611E+00 0.48259981E+02</pdfrwt>
<pdfrwt beam="1">  1       -2 0.37844755E-02 0.77592242E+02</pdfrwt>
<totfact> 0.53733031E+03</totfact>
</mgrwt>
</event>
<event>
 5    1  0.8274494E-003  0.5555495E+02  0.7546771E-02  0.1469814E+00
         -2   -1    0    0    0  501 -0.00000000000E+00  0.00000000000E+00  0.10564721438E+03  0.10564721438E+03  0.00000000000E+00 0.  1.
          2   -1    0    0  502    0  0.00000000000E+00 -0.00000000000E+00 -0.12786976451E+04  0.12786976451E+04  0.00000000000E+00 0. -1.
         25    1    1    2    0    0 -0.49007889463E+02  0.57298117833E+02  0.17228593372E+02  0.14699208131E+03  0.12500000000E+03 0.  0.
          1    1    1    2  502    0  0.11481594720E+02 -0.54269749484E+02 -0.11976968125E+04  0.11989806868E+04  0.00000000000E+00 0. -1.
         -1    1    1    2    0  501  0.37526294743E+02 -0.30283683494E+01  0.74177883834E+01  0.38372091376E+02  0.00000000000E+00 0.  1.
<mgrwt>
<rscale>  0 0.45733455E+02</rscale>
<asrwt>0</asrwt>
<pdfrwt beam="2">  1        2 0.19672272E+00 0.55554950E+02</pdfrwt>
<pdfrwt beam="1">  1       -2 0.16253417E-01 0.37648291E+02</pdfrwt>
<totfact> 0.54895514E+02</totfact>
</mgrwt>
</event>
<event>
 5    1  0.8274494E-003  0.8465084E+02  0.7546771E-02  0.1475390E+00
          2   -1    0    0  502    0  0.00000000000E+00  0.00000000000E+00  0.74169138858E+03  0.74169138858E+03  0.00000000000E+00 0. -1.
          1   -1    0    0  501    0 -0.00000000000E+00 -0.00000000000E+00 -0.39049936926E+03  0.39049936926E+03  0.00000000000E+00 0. -1.
         25    1    1    2    0    0 -0.93374875936E+02  0.28329567433E+02  0.34694352211E+03  0.38146590854E+03  0.12500000000E+03 0.  0.
          2    1    1    2  501    0  0.21383069425E+02  0.10321958604E+02 -0.36842968441E+03  0.36919400163E+03  0.00000000000E+00 0. -1.
          1    1    1    2  502    0  0.71991806511E+02 -0.38651526037E+02  0.37267818161E+03  0.38153084766E+03  0.00000000000E+00 0. -1.
<mgrwt>
<rscale>  0 0.44832481E+02</rscale>
<asrwt>0</asrwt>
<pdfrwt beam="1">  1        2 0.11410637E+00 0.84650845E+02</pdfrwt>
<pdfrwt beam="2">  1        1 0.60076826E-01 0.23744020E+02</pdfrwt>
<totfact> 0.35513537E+02</totfact>
</mgrwt>
</event>
<event>
 5    1  0.8274494E-003  0.9955301E+02  0.7546771E-02  0.1435955E+00
          1   -1    0    0  501    0 -0.00000000000E+00  0.00000000000E+00  0.14053291959E+04  0.14053291959E+04  0.00000000000E+00 0. -1.
          2   -1    0    0  502    0  0.00000000000E+00 -0.00000000000E+00 -0.18258249857E+03  0.18258249857E+03  0.00000000000E+00 0. -1.
         25    1    1    2    0    0 -0.73833879609E+02 -0.21142202093E+02  0.79891834083E+02  0.16705130841E+03  0.12500000000E+03 0.  0.
          2    1    1    2  501    0  0.91788519648E+02  0.41220502585E+02  0.12785573889E+04  0.12825105298E+04  0.00000000000E+00 0. -1.
          1    1    1    2  502    0 -0.17954640039E+02 -0.20078300492E+02 -0.13570252571E+03  0.13834985628E+03  0.00000000000E+00 0. -1.
<mgrwt>
<rscale>  0 0.51783052E+02</rscale>
<asrwt>0</asrwt>
<pdfrwt beam="2">  1        2 0.28089616E-01 0.26935242E+02</pdfrwt>
<pdfrwt beam="1">  1        1 0.21620448E+00 0.99553012E+02</pdfrwt>
<totfact> 0.21815824E+02</totfact>
</mgrwt>
</event>
<event>
 5    1  0.8274494E-003  0.7267849E+02  0.7546771E-02  0.1407122E+00
          1   -1    0    0  501    0 -0.00000000000E+00  0.00000000000E+00  0.18817421375E+04  0.18817421375E+04  0.00000000000E+00 0. -1.
          2   -1    0    0  502    0  0.00000000000E+00 -0.00000000000E+00 -0.89416337169E+03  0.89416337169E+03  0.00000000000E+00 0. -1.
         25    1    1    2    0    0  0.49754291279E+02 -0.95349879666E+02  0.95945586682E+02  0.19078166751E+03  0.12500000000E+03 0.  0.
          2    1    1    2  501    0 -0.10402138779E+02  0.71466870135E+02  0.17370019735E+04  0.17385026817E+04  0.00000000000E+00 0. -1.
          1    1    1    2  502    0 -0.39352152500E+02  0.23883009531E+02 -0.84536879442E+03  0.84662116004E+03  0.00000000000E+00 0. -1.
<mgrwt>
<rscale>  0 0.57840919E+02</rscale>
<asrwt>0</asrwt>
<pdfrwt beam="2">  1        2 0.13756360E+00 0.46032489E+02</pdfrwt>
<pdfrwt beam="1">  1        1 0.28949879E+00 0.72678491E+02</pdfrwt>
<totfact> 0.21293958E+01</totfact>
</mgrwt>
</event>
<event>
 5    1  0.8274494E-003  0.9806419E+02  0.7546771E-02  0.1441223E+00
          2   -1    0    0  502    0  0.00000000000E+00  0.00000000000E+00  0.24622431194E+04  0.24622431194E+04  0.00000000000E+00 0. -1.
          1   -1    0    0  501    0 -0.00000000000E+00 -0.00000000000E+00 -0.73176836102E+02  0.73176836102E+02  0.00000000000E+00 0. -1.
         25    1    1    2    0    0 -0.96178384352E+02  0.93400342190E+01  0.29327033963E+03  0.33312161437E+03  0.12500000000E+03 0.  0.
          2    1    1    2  501    0  0.43841495251E+01  0.25918432128E+02 -0.48810515794E+02  0.55438726024E+02  0.00000000000E+00 0. -1.
          1    1    1    2  502    0  0.91794234827E+02 -0.35258466347E+02  0.21446064595E+04  0.21468596151E+04  0.00000000000E+00 0. -1.
<mgrwt>
<rscale>  0 0.50771795E+02</rscale>
<asrwt>0</asrwt>
<pdfrwt beam="1">  1        2 0.37880657E+00 0.98064192E+02</pdfrwt>
<pdfrwt beam="2">  1        1 0.11257977E-01 0.26286610E+02</pdfrwt>
<totfact> 0.30716111E+02</totfact>
</mgrwt>
</event>
<event>
 5    1  0.8274494E-003  0.6947107E+02  0.7546771E-02  0.1436139E+00
          2   -1    0    0  502    0  0.00000000000E+00  0.00000000000E+00  0.21371653774E+03  0.21371653774E+03  0.00000000000E+00 0. -1.
          1   -1    0    0  501    0 -0.00000000000E+00 -0.00000000000E+00 -0.35160157635E+03  0.35160157635E+03  0.00000000000E+00 0. -1.
         25    1    1    2    0    0  0.27071743678E+02  0.68719417262E+02 -0.22912711839E+02  0.14698717624E+03  0.12500000000E+03 0.  0.
          2    1    1    2  501    0 -0.38543980247E+02  0.30455038007E+00 -0.25706808329E+03  0.25994178312E+03  0.00000000000E+00 0. -1.
          1    1    1    2  502    0  0.11472236568E+02 -0.69023967642E+02  0.14209575651E+03  0.15838915474E+03  0.00000000000E+00 0. -1.
<mgrwt>
<rscale>  0 0.51747222E+02</rscale>
<asrwt>0</asrwt>
<pdfrwt beam="1">  1        2 0.32879468E-01 0.69471065E+02</pdfrwt>
<pdfrwt beam="2">  1        1 0.54092549E-01 0.38545183E+02</pdfrwt>
<totfact> 0.15204486E+03</totfact>
</mgrwt>
</event>
<event>
 5    1  0.8274494E-003  0.2257834E+03  0.7546771E-02  0.1287049E+00
          2   -1    0    0  502    0  0.00000000000E+00  0.00000000000E+00  0.14699579404E+04  0.14699579404E+04  0.00000000000E+00 0. -1.
          1   -1    0    0  501    0 -0.00000000000E+00 -0.00000000000E+00 -0.30948637657E+03  0.30948637657E+03  0.00000000000E+00 0. -1.
         25    1    1    2    0    0  0.45660052445E+02 -0.20443598478E+03 -0.72822776836E+02  0.25457232585E+03  0.12500000000E+03 0.  0.
          2    1    1    2  501    0 -0.30130873767E+02  0.24297432792E+03 -0.42418382532E+02  0.24848282186E+03  0.00000000000E+00 0. -1.
          1    1    1    2  502    0 -0.15529178679E+02 -0.38538343144E+02  0.12757127232E+04  0.12763891693E+04  0.00000000000E+00 0. -1.
<mgrwt>
<rscale>  0 0.96856499E+02</rscale>
<asrwt>0</asrwt>
<pdfrwt beam="1">  1        2 0.22614737E+00 0.41549480E+02</pdfrwt>
<pdfrwt beam="2">  1        1 0.47613289E-01 0.22578337E+03</pdfrwt>
<totfact> 0.18956346E+02</totfact>
</mgrwt>
</event>
<event>
 5    1  0.8274494E-003  0.1020628E+03  0.7546771E-02  0.1291715E+00
          2   -1    0    0  502    0  0.00000000000E+00  0.00000000000E+00  0.46524345083E+03  0.46524345083E+03  0.00000000000E+00 0. -1.
          1   -1    0    0  501    0 -0.00000000000E+00 -0.00000000000E+00 -0.53037860213E+03  0.53037860213E+03  0.00000000000E+00 0. -1.
         25    1    1    2    0    0  0.10588143146E+03 -0.15301875006E+03 -0.15921218292E+03  0.27495296795E+03  0.12500000000E+03 0.  0.
          2    1    1    2  501    0 -0.59626672417E+02  0.64694775158E+02 -0.30079823544E+03  0.31340123235E+03  0.00000000000E+00 0. -1.
          1    1    1    2  502    0 -0.46254759041E+02  0.88323974900E+02  0.39487526705E+03  0.40726785265E+03  0.00000000000E+00 0. -1.
<mgrwt>
<rscale>  0 0.94760981E+02</rscale>
<asrwt>0</asrwt>
<pdfrwt beam="1">  1        2 0.71575915E-01 0.10206280E+03</pdfrwt>
<pdfrwt beam="2">  1        1 0.81596708E-01 0.87981555E+02</pdfrwt>
<totfact> 0.40071912E+02</totfact>
</mgrwt>
</event>
<event>
 5    1  0.8274494E-003  0.3654496E+02  0.7546771E-02  0.1542931E+00
          2   -1    0    0  502    0  0.00000000000E+00  0.00000000000E+00  0.21033037148E+04  0.21033037148E+04  0.00000000000E+00 0. -1.
          1   -1    0    0  501    0 -0.00000000000E+00 -0.00000000000E+00 -0.50775336235E+03  0.50775336235E+03  0.00000000000E+00 0. -1.
         25    1    1    2    0    0  0.11996875244E+01  0.26289209895E+01  0.52376239465E+03  0.53847970855E+03  0.12500000000E+03 0.  0.
          2    1    1    2  501    0  0.15291456013E+02 -0.33240018154E+02 -0.49953328245E+03  0.50087146826E+03  0.00000000000E+00 0. -1.
          1    1    1    2  502    0 -0.16491143537E+02  0.30611097164E+02  0.15713212403E+04  0.15717059004E+04  0.00000000000E+00 0. -1.
<mgrwt>
<rscale>  0 0.35646761E+02</rscale>
<asrwt>0</asrwt>
<pdfrwt beam="1">  1        2 0.32358518E+00 0.34770635E+02</pdfrwt>
<pdfrwt beam="2">  1        1 0.78115903E-01 0.36544963E+02</pdfrwt>
<totfact> 0.52940841E+01</totfact>
</mgrwt>
</event>
<event>
 5    1  0.8274494E-003  0.8059033E+02  0.7546771E-02  0.1334581E+00
          2   -1    0    0  502    0  0.00000000000E+00  0.00000000000E+00  0.31678761076E+03  0.31678761076E+03  0.00000000000E+00 0. -1.
          1   -1    0    0  501    0 -0.00000000000E+00 -0.00000000000E+00 -0.51162119688E+03  0.51162119688E+03  0.00000000000E+00 0. -1.
         25    1    1    2    0    0  0.21900505510E+02 -0.45491813494E+01 -0.13220550176E+03  0.18331290704E+03  0.12500000000E+03 0.  0.
          2    1    1    2  501    0 -0.31008004727E+02  0.84623235084E+02 -0.34234051951E+03  0.35400511235E+03  0.00000000000E+00 0. -1.
          1    1    1    2  502    0  0.91074992176E+01 -0.80074053735E+02  0.27971243515E+03  0.29109078824E+03  0.00000000000E+00 0. -1.
<mgrwt>
<rscale>  0 0.78083272E+02</rscale>
<asrwt>0</asrwt>
<pdfrwt beam="1">  1        2 0.48736556E-01 0.80590326E+02</pdfrwt>
<pdfrwt beam="2">  1        1 0.78710952E-01 0.75654209E+02</pdfrwt>
<totfact> 0.63190480E+02</totfact>
</mgrwt>
</event>
<event>
 5    1  0.8274494E-003  0.5324870E+02  0.7546771E-02  0.1467368E+00
         -2   -1    0    0    0  501 -0.00000000000E+00  0.00000000000E+00  0.30141959629E+03  0.30141959629E+03  0.00000000000E+00 0.  1.
          2   -1    0    0  502    0  0.00000000000E+00 -0.00000000000E+00 -0.47284739015E+03  0.47284739015E+03  0.00000000000E+00 0. -1.
         25    1    1    2    0    0 -0.79210722494E+02 -0.40826696176E+02 -0.15511300371E+03  0.21823428145E+03  0.12500000000E+03 0.  0.
          1    1    1    2  502    0  0.48364250855E+02  0.15401388130E+02 -0.28241842520E+03  0.28694332264E+03  0.00000000000E+00 0. -1.
         -1    1    1    2    0  501  0.30846471639E+02  0.25425308047E+02  0.26610363506E+03  0.26908938235E+03  0.00000000000E+00 0.  1.
<mgrwt>
<rscale>  0 0.46136577E+02</rscale>
<asrwt>0</asrwt>
<pdfrwt beam="2">  1        2 0.72745752E-01 0.53248699E+02</pdfrwt>
<pdfrwt beam="1">  1       -2 0.46372246E-01 0.39974381E+02</pdfrwt>
<totfact> 0.30154075E+02</totfact>
</mgrwt>
</event>
<event>
 5    1  0.8274494E-003  0.1039172E+03  0.7546771E-02  0.1370857E+00
          2   -1    0    0  502    0  0.00000000000E+00  0.00000000000E+00  0.10849353453E+04  0.10849353453E+04  0.00000000000E+00 0. -1.
          1   -1    0    0  501    0 -0.00000000000E+00 -0.00000000000E+00 -0.87179521429E+03  0.87179521429E+03  0.00000000000E+00 0. -1.
         25    1    1    2    0    0 -0.11853897162E+02 -0.64863666084E+02 -0.32999958830E+02  0.14512686636E+03  0.12500000000E+03 0.  0.
          2    1    1    2  501    0  0.15621066252E+02 -0.40176969212E+02 -0.77945027576E+03  0.78064136385E+03  0.00000000000E+00 0. -1.
          1    1    1    2  502    0 -0.37671690894E+01  0.10504063530E+03  0.10255903656E+04  0.10309623294E+04  0.00000000000E+00 0. -1.
<mgrwt>
<rscale>  0 0.66929434E+02</rscale>
<asrwt>0</asrwt>
<pdfrwt beam="1">  1        2 0.16691313E+00 0.10391717E+03</pdfrwt>
<pdfrwt beam="2">  1        1 0.13412234E+00 0.43106920E+02</pdfrwt>
<totfact> 0.75211372E+01</totfact>
</mgrwt>
</event>
<event>
 5    1  0.8274494E-003  0.5127258E+02  0.7546771E-02  0.1494720E+00
          1   -1    0    0  501    0 -0.00000000000E+00  0.00000000000E+00  0.19827937644E+03  0.19827937644E+03  0.00000000000E+00 0. -1.
          2   -1    0    0  502    0  0.00000000000E+00 -0.00000000000E+00 -0.12685163799E+04  0.12685163799E+04  0.00000000000E+00 0. -1.
         25    1    1    2    0    0 -0.97186822212E+00 -0.73829539264E+02 -0.14871502855E+03  0.20782902856E+03  0.12500000000E+03 0.  0.
          2    1    1    2  501    0  0.21267419529E+02  0.46264483557E+02  0.16460491346E+03  0.17230056038E+03  0.00000000000E+00 0. -1.
          1    1    1    2  502    0 -0.20295551307E+02  0.27565055707E+02 -0.10861268884E+04  0.10866661674E+04  0.00000000000E+00 0. -1.
<mgrwt>
<rscale>  0 0.41893879E+02</rscale>
<asrwt>0</asrwt>
<pdfrwt beam="2">  1        2 0.19515637E+00 0.34230713E+02</pdfrwt>
<pdfrwt beam="1">  1        1 0.30504518E-01 0.51272583E+02</pdfrwt>
<totfact> 0.41403701E+02</totfact>
</mgrwt>
</event>
<event>
 5    1  0.8274494E-003  0.2001541E+03  0.7546771E-02  0.1194393E+00
         -2   -1    0    0    0  501 -0.00000000000E+00  0.00000000000E+00  0.10488709462E+04  0.10488709462E+04  0.00000000000E+00 0.  1.
          2   -1    0    0  502    0  0.00000000000E+00 -0.00000000000E+00 -0.54738560750E+03  0.54738560750E+03  0.00000000000E+00 0. -1.
         25    1    1    2    0    0  0.19692634284E+02  0.95620723839E+02  0.12552776623E+02  0.15910278085E+03  0.12500000000E+03 0.  0.
          1    1    1    2  502    0  0.12803790220E+02  0.11943676826E+03 -0.45391738287E+03  0.46954240397E+03  0.00000000000E+00 0. -1.
         -1    1    1    2    0  501 -0.32496424504E+02 -0.21505749210E+03  0.94284994498E+03  0.96761136892E+03  0.00000000000E+00 0.  1.
<mgrwt>
<rscale>  0 0.15505717E+03</rscale>
<asrwt>0</asrwt>
<pdfrwt beam="2">  1        2 0.84213171E-01 0.12012110E+03</pdfrwt>
<pdfrwt beam="1">  1       -2 0.16136476E+00 0.20015407E+03</pdfrwt>
<totfact> 0.15372780E+01</totfact>
</mgrwt>
</event>
<event>
 5    1  0.8274494E-003  0.7552149E+02  0.7546771E-02  0.1460059E+00
          2   -1    0    0  502    0  0.00000000000E+00  0.00000000000E+00  0.48728661016E+02  0.48728661016E+02  0.00000000000E+00 0. -1.
          1   -1    0    0  501    0 -0.00000000000E+00 -0.00000000000E+00 -0.16571062471E+04  0.16571062471E+04  0.00000000000E+00 0. -1.
         25    1    1    2    0    0  0.46489339976E+02 -0.45122854664E+02 -0.20180933673E+03  0.24606775314E+03  0.12500000000E+03 0.  0.
          2    1    1    2  501    0  0.26341697449E+02  0.13748684396E+02 -0.13735422833E+04  0.13738636452E+04  0.00000000000E+00 0. -1.
          1    1    1    2  502    0 -0.72831037425E+02  0.31374170269E+02 -0.33025966049E+02  0.85903509858E+02  0.00000000000E+00 0. -1.
<mgrwt>
<rscale>  0 0.47371217E+02</rscale>
<asrwt>0</asrwt>
<pdfrwt beam="1">  1        2 0.74967164E-02 0.75521489E+02</pdfrwt>
<pdfrwt beam="2">  1        1 0.25493945E+00 0.29713824E+02</pdfrwt>
<totfact> 0.82102045E+02</totfact>
</mgrwt>
</event>
<event>
 5    1  0.1009256E-002  0.9620737E+02  0.7546771E-02  0.1337169E+00
          2   -1    0    0  502    0  0.00000000000E+00  0.00000000000E+00  0.75528173388E+03  0.75528173388E+03  0.00000000000E+00 0. -1.
          1   -1    0    0  501    0 -0.00000000000E+00 -0.00000000000E+00 -0.14425626748E+04  0.14425626748E+04  0.00000000000E+00 0. -1.
         25    1    1    2    0    0 -0.37598269698E+02  0.22717844445E+02 -0.12416664565E+03  0.18158217488E+03  0.12500000000E+03 0.  0.
          2    1    1    2  501    0 -0.59650892579E+02 -0.16756335622E+02 -0.12856725068E+04  0.12871646353E+04  0.00000000000E+00 0. -1.
          1    1    1    2  502    0  0.97249162276E+02 -0.59615088230E+01  0.72255821149E+03  0.72909759850E+03  0.00000000000E+00 0. -1.
<mgrwt>
<rscale>  0 0.77207377E+02</rscale>
<asrwt>0</asrwt>
<pdfrwt beam="1">  1        2 0.11619719E+00 0.96207368E+02</pdfrwt>
<pdfrwt beam="2">  1        1 0.22193272E+00 0.61959695E+02</pdfrwt>
<totfact> 0.48557082E+01</totfact>
</mgrwt>
</event>
<event>
 5    1  0.8274494E-003  0.3599761E+02  0.7546771E-02  0.1552846E+00
         -2   -1    0    0    0  501  0.00000000000E+00  0.00000000000E+00  0.76615351368E+02  0.76615351368E+02  0.00000000000E+00 0.  1.
         -1   -1    0    0    0  502 -0.00000000000E+00 -0.00000000000E+00 -0.53370172027E+03  0.53370172027E+03  0.00000000000E+00 0.  1.
         25    1    1    2    0    0 -0.20431303023E+02  0.38564340916E+02 -0.33761262517E+03  0.36264573789E+03  0.12500000000E+03 0.  0.
         -2    1    1    2    0  502  0.32787478464E+02 -0.46502204824E+01 -0.17682924401E+03  0.17990337637E+03  0.00000000000E+00 0.  1.
         -1    1    1    2    0  501 -0.12356175442E+02 -0.33914120434E+02  0.57355500271E+02  0.67767957382E+02  0.00000000000E+00 0.  1.
<mgrwt>
<rscale>  0 0.34526549E+02</rscale>
<asrwt>0</asrwt>
<pdfrwt beam="1">  1       -2 0.11786977E-01 0.35997609E+02</pdfrwt>
<pdfrwt beam="2">  1       -1 0.82107955E-01 0.33115605E+02</pdfrwt>
<totfact> 0.54813980E+02</totfact>
</mgrwt>
</event>
<event>
 5    1  0.8274494E-003  0.1116048E+03  0.7546771E-02  0.1317755E+00
          2   -1    0    0  502    0  0.00000000000E+00  0.00000000000E+00  0.21268517328E+03  0.21268517328E+03  0.00000000000E+00 0. -1.
         -2   -1    0    0    0  501 -0.00000000000E+00 -0.00000000000E+00 -0.34534958754E+03  0.34534958754E+03  0.00000000000E+00 0.  1.
         25    1    1    2    0    0  0.10509970959E+03 -0.27657247312E+02 -0.44247681324E+02  0.17144599612E+03  0.12500000000E+03 0.  0.
          1    1    1    2  502    0 -0.10970352152E+03 -0.35576508844E+02  0.12137332634E+03  0.16742770070E+03  0.00000000000E+00 0. -1.
         -1    1    1    2    0  501  0.46038119376E+01  0.63233756156E+02 -0.20979005928E+03  0.21916106400E+03  0.00000000000E+00 0.  1.
<mgrwt>
<rscale>  0 0.84118175E+02</rscale>
<asrwt>0</asrwt>
<pdfrwt beam="1">  1        2 0.32720796E-01 0.11160476E+03</pdfrwt>
<pdfrwt beam="2">  1       -2 0.53130706E-01 0.63401128E+02</pdfrwt>
<totfact> 0.53830880E+02</totfact>
</mgrwt>
</event>
<event>
 5    1  0.8274494E-003  0.5562935E+02  0.7546771E-02  0.1524774E+00
          2   -1    0    0  502    0  0.00000000000E+00  0.00000000000E+00  0.29487823792E+04  0.29487823792E+04  0.00000000000E+00 0. -1.
          1   -1    0    0  501    0 -0.00000000000E+00 -0.00000000000E+00 -0.99581804310E+03  0.99581804310E+03  0.00000000000E+00 0. -1.
         25    1    1    2    0    0  0.12137298667E+02  0.74472284869E+02 -0.76647935217E+03  0.78026215629E+03  0.12500000000E+03 0.  0.
          2    1    1    2  501    0 -0.17260813572E+02 -0.19085323493E+02 -0.22143921347E+03  0.22292938460E+03  0.00000000000E+00 0. -1.
          1    1    1    2  502    0  0.51235149056E+01 -0.55386961376E+02  0.29408829018E+04  0.29414088814E+04  0.00000000000E+00 0. -1.
<mgrwt>
<rscale>  0 0.37835273E+02</rscale>
<asrwt>0</asrwt>
<pdfrwt beam="1">  1        2 0.45365882E+00 0.55629350E+02</pdfrwt>
<pdfrwt beam="2">  1        1 0.15320278E+00 0.25732961E+02</pdfrwt>
<totfact> 0.74017766E+00</totfact>
</mgrwt>
</event>
<event>
 5    1  0.8274494E-003  0.2278087E+03  0.7546771E-02  0.1257993E+00
          1   -1    0    0  502    0  0.00000000000E+00  0.00000000000E+00  0.67690024734E+03  0.67690024734E+03  0.00000000000E+00 0. -1.
         -1   -1    0    0    0  501 -0.00000000000E+00 -0.00000000000E+00 -0.36016697727E+03  0.36016697727E+03  0.00000000000E+00 0.  1.
         25    1    1    2    0    0 -0.12328038590E+03  0.19709886475E+03  0.21844404364E+02  0.26485504344E+03  0.12500000000E+03 0.  0.
          2    1    1    2  502    0  0.72258312124E+02 -0.21619478478E+03  0.50557971381E+03  0.55459200828E+03  0.00000000000E+00 0. -1.
         -2    1    1    2    0  501  0.51022073779E+02  0.19095920033E+02 -0.21069084810E+03  0.21762017289E+03  0.00000000000E+00 0.  1.
<mgrwt>
<rscale>  0 0.11140320E+03</rscale>
<asrwt>0</asrwt>
<pdfrwt beam="1">  1        1 0.10413850E+00 0.22780868E+03</pdfrwt>
<pdfrwt beam="2">  1       -1 0.55410304E-01 0.54478493E+02</pdfrwt>
<totfact> 0.10419413E+02</totfact>
</mgrwt>
</event>
<event>
 5    1  0.8274494E-003  0.1297054E+03  0.7546771E-02  0.1281943E+00
         -1   -1    0    0    0  501 -0.00000000000E+00  0.00000000000E+00  0.75366845345E+03  0.75366845345E+03  0.00000000000E+00 0.  1.
          1   -1    0    0  502    0  0.00000000000E+00 -0.00000000000E+00 -0.83407553631E+03  0.83407553631E+03  0.00000000000E+00 0. -1.
         25    1    1    2    0    0 -0.18025571323E+03  0.92227153316E+02  0.25775657751E+02  0.23934776894E+03  0.12500000000E+03 0.  0.
          2    1    1    2  502    0  0.11139482498E+03 -0.60302980586E+02 -0.71941657273E+03  0.73048303308E+03  0.00000000000E+00 0. -1.
         -2    1    1    2    0  501  0.68860888254E+02 -0.31924172731E+02  0.61323383212E+03  0.61791318775E+03  0.00000000000E+00 0.  1.
<mgrwt>
<rscale>  0 0.99220861E+02</rscale>
<asrwt>0</asrwt>
<pdfrwt beam="2">  1        1 0.12831931E+00 0.12970538E+03</pdfrwt>
<pdfrwt beam="1">  1       -1 0.11594899E+00 0.75901085E+02</pdfrwt>
<totfact> 0.17431005E+01</totfact>
</mgrwt>
</event>
<event>
 5    1  0.8274494E-003  0.7138806E+02  0.7546771E-02  0.1363317E+00
          2   -1    0    0  502    0  0.00000000000E+00  0.00000000000E+00  0.18002924322E+04  0.18002924322E+04  0.00000000000E+00 0. -1.
          1   -1    0    0  501    0 -0.00000000000E+00 -0.00000000000E+00 -0.18079743534E+03  0.18079743534E+03  0.00000000000E+00 0. -1.
         25    1    1    2    0    0 -0.58309342996E+01 -0.81661337285E+02  0.87111824984E+02  0.17296255044E+03  0.12500000000E+03 0.  0.
          2    1    1    2  501    0 -0.52917345930E+02  0.49847859084E+02 -0.12756992497E+03  0.14683031128E+03  0.00000000000E+00 0. -1.
          1    1    1    2  502    0  0.58748280230E+02  0.31813478202E+02  0.16599530969E+04  0.16612970059E+04  0.00000000000E+00 0. -1.
<mgrwt>
<rscale>  0 0.69060646E+02</rscale>
<asrwt>0</asrwt>
<pdfrwt beam="1">  1        2 0.27696805E+00 0.66809115E+02</pdfrwt>
<pdfrwt beam="2">  1        1 0.27814991E-01 0.71388057E+02</pdfrwt>
<totfact> 0.24001969E+02</totfact>
</mgrwt>
</event>
<event>
 5    1  0.8274494E-003  0.1618961E+03  0.7546771E-02  0.1211940E+00
          2   -1    0    0  502    0  0.00000000000E+00  0.00000000000E+00  0.96412586357E+03  0.96412586357E+03  0.00000000000E+00 0. -1.
         -2   -1    0    0    0  501 -0.00000000000E+00 -0.00000000000E+00 -0.30815602842E+03  0.30815602842E+03  0.00000000000E+00 0.  1.
         25    1    1    2    0    0 -0.93379756287E+02  0.19907800703E+03  0.28876646028E+02  0.25457944232E+03  0.12500000000E+03 0.  0.
          1    1    1    2  502    0 -0.22600013375E+02 -0.15852463618E+03  0.79425974264E+03  0.81024030982E+03  0.00000000000E+00 0. -1.
         -1    1    1    2    0  501  0.11597976966E+03 -0.40553370851E+02 -0.16716655352E+03  0.20746213985E+03  0.00000000000E+00 0.  1.
<mgrwt>
<rscale>  0 0.14103692E+03</rscale>
<asrwt>0</asrwt>
<pdfrwt beam="1">  1        2 0.14832705E+00 0.16189610E+03</pdfrwt>
<pdfrwt beam="2">  1       -2 0.47408620E-01 0.12286530E+03</pdfrwt>
<totfact> 0.12255692E+02</totfact>
</mgrwt>
</event>
<event>
 5    1  0.8274494E-003  0.6088240E+02  0.7546771E-02  0.1459903E+00
         -2   -1    0    0    0  501 -0.00000000000E+00  0.00000000000E+00  0.56890152831E+03  0.56890152831E+03  0.00000000000E+00 0.  1.
          2   -1    0    0  502    0  0.00000000000E+00 -0.00000000000E+00 -0.13924163505E+03  0.13924163505E+03  0.00000000000E+00 0. -1.
         25    1    1    2    0    0 -0.49633623964E+02 -0.80813645767E+02 -0.16542207687E+02  0.15777511402E+03  0.12500000000E+03 0.  0.
          1    1    1    2  502    0  0.27167097895E+02  0.24971756236E+02 -0.43464494610E+02  0.57015805784E+02  0.00000000000E+00 0. -1.
         -1    1    1    2    0  501  0.22466526069E+02  0.55841889531E+02  0.48966659555E+03  0.49335224356E+03  0.00000000000E+00 0.  1.
<mgrwt>
<rscale>  0 0.47398157E+02</rscale>
<asrwt>0</asrwt>
<pdfrwt beam="2">  1        2 0.21421790E-01 0.36900404E+02</pdfrwt>
<pdfrwt beam="1">  1       -2 0.87523311E-01 0.60882403E+02</pdfrwt>
<totfact> 0.28933992E+02</totfact>
</mgrwt>
</event>
<event>
 5    1  0.8274494E-003  0.8456903E+02  0.7546771E-02  0.1469417E+00
         -1   -1    0    0    0  501 -0.00000000000E+00  0.00000000000E+00  0.66652882548E+02  0.66652882548E+02  0.00000000000E+00 0.  1.
          1   -1    0    0  502    0  0.00000000000E+00 -0.00000000000E+00 -0.49000923535E+03  0.49000923535E+03  0.00000000000E+00 0. -1.
         25    1    1    2    0    0  0.71666472258E+02  0.33522778335E+01 -0.25181439577E+03  0.29014274233E+03  0.12500000000E+03 0.  0.
          2    1    1    2  502    0 -0.89092775742E+02 -0.21001018115E+02 -0.20521166833E+03  0.22470067705E+03  0.00000000000E+00 0. -1.
         -2    1    1    2    0  501  0.17426303484E+02  0.17648740281E+02  0.33669711292E+02  0.41818698511E+02  0.00000000000E+00 0.  1.
<mgrwt>
<rscale>  0 0.45798542E+02</rscale>
<asrwt>0</asrwt>
<pdfrwt beam="2">  1        1 0.75386037E-01 0.84569031E+02</pdfrwt>
<pdfrwt beam="1">  1       -1 0.10254290E-01 0.24802300E+02</pdfrwt>
<totfact> 0.23547694E+03</totfact>
</mgrwt>
</event>
<event>
 5    1  0.8274494E-003  0.2493107E+03  0.7546771E-02  0.1298695E+00
          2   -1    0    0  502    0  0.00000000000E+00  0.00000000000E+00  0.19129036091E+04  0.19129036091E+04  0.00000000000E+00 0. -1.
          1   -1    0    0  501    0 -0.00000000000E+00 -0.00000000000E+00 -0.21093056796E+04  0.21093056796E+04  0.00000000000E+00 0. -1.
         25    1    1    2    0    0  0.26454632480E+03  0.39736397407E+02  0.56111691770E+03  0.63406697957E+03  0.12500000000E+03 0.  0.
          2    1    1    2  501    0 -0.27813066548E+02  0.19130227953E+02 -0.20613806582E+04  0.20616570399E+04  0.00000000000E+00 0. -1.
          1    1    1    2  502    0 -0.23673325826E+03 -0.58866625361E+02  0.13038616699E+04  0.13264852692E+04  0.00000000000E+00 0. -1.
<mgrwt>
<rscale>  0 0.91738594E+02</rscale>
<asrwt>0</asrwt>
<pdfrwt beam="1">  1        2 0.29429286E+00 0.24931066E+03</pdfrwt>
<pdfrwt beam="2">  1        1 0.32450857E+00 0.33756959E+02</pdfrwt>
<totfact> 0.43199408E+00</totfact>
</mgrwt>
</event>
<event>
 5    1  0.8274494E-003  0.2073218E+03  0.7546771E-02  0.1207981E+00
          2   -1    0    0  502    0  0.00000000000E+00  0.00000000000E+00  0.13756380094E+04  0.13756380094E+04  0.00000000000E+00 0. -1.
          1   -1    0    0  501    0 -0.00000000000E+00 -0.00000000000E+00 -0.58434880455E+03  0.58434880455E+03  0.00000000000E+00 0. -1.
         25    1    1    2    0    0  0.10131426847E+03  0.59080147373E+02  0.33658225594E+03  0.37771372734E+03  0.12500000000E+03 0.  0.
          2    1    1    2  501    0 -0.15930742671E+03 -0.14065494866E+03 -0.54115845439E+03  0.58139069785E+03  0.00000000000E+00 0. -1.
          1    1    1    2  502    0  0.57993158235E+02  0.81574801282E+02  0.99586540329E+03  0.10008823887E+04  0.00000000000E+00 0. -1.
<mgrwt>
<rscale>  0 0.14405023E+03</rscale>
<asrwt>0</asrwt>
<pdfrwt beam="1">  1        2 0.21163662E+00 0.10008823E+03</pdfrwt>
<pdfrwt beam="2">  1        1 0.89899816E-01 0.20732176E+03</pdfrwt>
<totfact> 0.86546063E+01</totfact>
</mgrwt>
</event>
<event>
 5    1  0.8274494E-003  0.1409180E+03  0.7546771E-02  0.1409038E+00
          2   -1    0    0  502    0  0.00000000000E+00  0.00000000000E+00  0.27000880664E+03  0.27000880664E+03  0.00000000000E+00 0. -1.
         -2   -1    0    0    0  501 -0.00000000000E+00 -0.00000000000E+00 -0.31438450752E+03  0.31438450752E+03  0.00000000000E+00 0.  1.
         25    1    1    2    0    0 -0.14341332543E+03 -0.38055342205E+02  0.38959665000E+02  0.19788493242E+03  0.12500000000E+03 0.  0.
          1    1    1    2  502    0  0.12708168654E+03  0.54796851945E+02  0.11918597811E+03  0.18264103432E+03  0.00000000000E+00 0. -1.
         -1    1    1    2    0  501  0.16331638885E+02 -0.16741509740E+02 -0.20252134399E+03  0.20386734743E+03  0.00000000000E+00 0.  1.
<mgrwt>
<rscale>  0 0.57409029E+02</rscale>
<asrwt>0</asrwt>
<pdfrwt beam="1">  1        2 0.41539817E-01 0.14091801E+03</pdfrwt>
<pdfrwt beam="2">  1       -2 0.48366847E-01 0.23388043E+02</pdfrwt>
<totfact> 0.49653824E+02</totfact>
</mgrwt>
</event>
<event>
 5    1  0.8274494E-003  0.3205352E+02  0.7546771E-02  0.1583993E+00
          1   -1    0    0  502    0  0.00000000000E+00  0.00000000000E+00  0.44164007183E+03  0.44164007183E+03  0.00000000000E+00 0. -1.
         -1   -1    0    0    0  501 -0.00000000000E+00 -0.00000000000E+00 -0.23759849924E+03  0.23759849924E+03  0.00000000000E+00 0.  1.
         25    1    1    2    0    0 -0.31445358666E+02  0.15599226356E+02  0.84419859839E+02  0.15486723081E+03  0.12500000000E+03 0.  0.
          2    1    1    2  502    0  0.29063851784E+01 -0.30454952452E+02  0.31998354094E+03  0.32144271290E+03  0.00000000000E+00 0. -1.
         -2    1    1    2    0  501  0.28538973488E+02  0.14855726097E+02 -0.20036182819E+03  0.20292862736E+03  0.00000000000E+00 0.  1.
<mgrwt>
<rscale>  0 0.31314911E+02</rscale>
<asrwt>0</asrwt>
<pdfrwt beam="1">  1        1 0.67944626E-01 0.30593320E+02</pdfrwt>
<pdfrwt beam="2">  1       -1 0.36553615E-01 0.32053523E+02</pdfrwt>
<totfact> 0.39405934E+02</totfact>
</mgrwt>
</event>
<event>
 5    1  0.8274494E-003  0.1363857E+03  0.7546771E-02  0.1234671E+00
          1   -1    0    0  501    0 -0.00000000000E+00  0.00000000000E+00  0.14129514333E+04  0.14129514333E+04  0.00000000000E+00 0. -1.
          2   -1    0    0  502    0  0.00000000000E+00 -0.00000000000E+00 -0.43672875437E+03  0.43672875437E+03  0.00000000000E+00 0. -1.
         25    1    1    2    0    0 -0.26295496497E+01  0.22570718211E+03 -0.39915708006E+02  0.26109176612E+03  0.12500000000E+03 0.  0.
          2    1    1    2  501    0  0.44020164704E+02 -0.10627742040E+03  0.12857145621E+04  0.12908503400E+04  0.00000000000E+00 0. -1.
          1    1    1    2  502    0 -0.41390615054E+02 -0.11942976171E+03 -0.26957617517E+03  0.29773808157E+03  0.00000000000E+00 0. -1.
<mgrwt>
<rscale>  0 0.12525536E+03</rscale>
<asrwt>0</asrwt>
<pdfrwt beam="2">  1        2 0.67189040E-01 0.13638575E+03</pdfrwt>
<pdfrwt beam="1">  1        1 0.21737714E+00 0.11503332E+03</pdfrwt>
<totfact> 0.88080982E+01</totfact>
</mgrwt>
</event>
<event>
 5    1  0.8274494E-003  0.5624282E+02  0.7546771E-02  0.1436684E+00
         -2   -1    0    0    0  501  0.00000000000E+00  0.00000000000E+00  0.12135220743E+03  0.12135220743E+03  0.00000000000E+00 0.  1.
         -1   -1    0    0    0  502 -0.00000000000E+00 -0.00000000000E+00 -0.26147812313E+03  0.26147812313E+03  0.00000000000E+00 0.  1.
         25    1    1    2    0    0  0.20678250227E+02 -0.14188974978E+00  0.39427542011E+02  0.13269190342E+03  0.12500000000E+03 0.  0.
         -2    1    1    2    0  502  0.48374688577E+02 -0.28690488893E+02 -0.16444610980E+03  0.17379809457E+03  0.00000000000E+00 0.  1.
         -1    1    1    2    0  501 -0.69052938804E+02  0.28832378643E+02 -0.15107347919E+02  0.76340332570E+02  0.00000000000E+00 0.  1.
<mgrwt>
<rscale>  0 0.51641344E+02</rscale>
<asrwt>0</asrwt>
<pdfrwt beam="1">  1       -2 0.18669570E-01 0.47416337E+02</pdfrwt>
<pdfrwt beam="2">  1       -1 0.40227404E-01 0.56242819E+02</pdfrwt>
<totfact> 0.99133506E+02</totfact>
</mgrwt>
</event>
<event>
 5    1  0.8274494E-003  0.9675775E+02  0.7546771E-02  0.1473439E+00
          2   -1    0    0  502    0  0.00000000000E+00  0.00000000000E+00  0.18845900216E+04  0.18845900216E+04  0.00000000000E+00 0. -1.
          1   -1    0    0  501    0 -0.00000000000E+00 -0.00000000000E+00 -0.15112841753E+04  0.15112841753E+04  0.00000000000E+00 0. -1.
         25    1    1    2    0    0  0.76150759710E+02  0.10941393147E+02  0.11236245279E+03  0.18484851389E+03  0.12500000000E+03 0.  0.
          2    1    1    2  501    0  0.20958422480E+02 -0.21026253931E+01 -0.14735965207E+04  0.14737470550E+04  0.00000000000E+00 0. -1.
          1    1    1    2  502    0 -0.97109182191E+02 -0.88387677540E+01  0.17345399142E+04  0.17372786280E+04  0.00000000000E+00 0. -1.
<mgrwt>
<rscale>  0 0.45144983E+02</rscale>
<asrwt>0</asrwt>
<pdfrwt beam="1">  1        2 0.28993693E+00 0.96757754E+02</pdfrwt>
<pdfrwt beam="2">  1        1 0.23250526E+00 0.21063630E+02</pdfrwt>
<totfact> 0.11860516E+01</totfact>
</mgrwt>
</event>
<event>
 5    1  0.8274494E-003  0.6672676E+02  0.7546771E-02  0.1460867E+00
         -1   -1    0    0    0  501 -0.00000000000E+00  0.00000000000E+00  0.31730304262E+02  0.31730304262E+02  0.00000000000E+00 0.  1.
          1   -1    0    0  502    0  0.00000000000E+00 -0.00000000000E+00 -0.22933453299E+04  0.22933453299E+04  0.00000000000E+00 0. -1.
         25    1    1    2    0    0  0.25680079035E+02 -0.45682142875E+02 -0.77411421386E+03  0.78589066717E+03  0.12500000000E+03 0.  0.
          2    1    1    2  502    0 -0.21019529587E+01  0.69385945659E+02 -0.15013808393E+04  0.15029847811E+04  0.00000000000E+00 0. -1.
         -2    1    1    2    0  501 -0.23578126076E+02 -0.23703802785E+02  0.13880027501E+02  0.36200185899E+02  0.00000000000E+00 0.  1.
<mgrwt>
<rscale>  0 0.47232494E+02</rscale>
<asrwt>0</asrwt>
<pdfrwt beam="2">  1        1 0.35282240E+00 0.66726758E+02</pdfrwt>
<pdfrwt beam="1">  1       -1 0.48815847E-02 0.33433491E+02</pdfrwt>
<totfact> 0.38920606E+02</totfact>
</mgrwt>
</event>
<event>
 5    1  0.8274494E-003  0.6079066E+02  0.7546771E-02  0.1417081E+00
          2   -1    0    0  502    0  0.00000000000E+00  0.00000000000E+00  0.13680430631E+04  0.13680430631E+04  0.00000000000E+00 0. -1.
          1   -1    0    0  501    0 -0.00000000000E+00 -0.00000000000E+00 -0.15689872974E+03  0.15689872974E+03  0.00000000000E+00 0. -1.
         25    1    1    2    0    0 -0.63353648030E+02  0.41511275108E+02  0.60381276325E+03  0.62125012978E+03  0.12500000000E+03 0.  0.
          2    1    1    2  501    0  0.47817234152E+02  0.17537741345E+02 -0.14252564689E+03  0.15135263551E+03  0.00000000000E+00 0. -1.
          1    1    1    2  502    0  0.15536413878E+02 -0.59049016453E+02  0.74985721701E+03  0.75233902757E+03  0.00000000000E+00 0. -1.
<mgrwt>
<rscale>  0 0.55643371E+02</rscale>
<asrwt>0</asrwt>
<pdfrwt beam="1">  1        2 0.21046816E+00 0.60790657E+02</pdfrwt>
<pdfrwt beam="2">  1        1 0.24138267E-01 0.50931918E+02</pdfrwt>
<totfact> 0.46822501E+02</totfact>
</mgrwt>
</event>
<event>
 5    1  0.8274494E-003  0.2617406E+03  0.7546771E-02  0.1240133E+00
          2   -1    0    0  502    0  0.00000000000E+00  0.00000000000E+00  0.80229226230E+03  0.80229226230E+03  0.00000000000E+00 0. -1.
          1   -1    0    0  501    0 -0.00000000000E+00 -0.00000000000E+00 -0.16321594752E+04  0.16321594752E+04  0.00000000000E+00 0. -1.
         25    1    1    2    0    0  0.20745761163E+03 -0.17297088566E+03 -0.84504338324E+03  0.89592461037E+03  0.12500000000E+03 0.  0.
          2    1    1    2  501    0  0.24196612820E+02  0.51269927056E+02 -0.73852220816E+03  0.74069503404E+03  0.00000000000E+00 0. -1.
          1    1    1    2  502    0 -0.23165422445E+03  0.12170095861E+03  0.75369837850E+03  0.79783209310E+03  0.00000000000E+00 0. -1.
<mgrwt>
<rscale>  0 0.12181472E+03</rscale>
<asrwt>0</asrwt>
<pdfrwt beam="1">  1        2 0.12342958E+00 0.26174059E+03</pdfrwt>
<pdfrwt beam="2">  1        1 0.25110146E+00 0.56692870E+02</pdfrwt>
<totfact> 0.33419216E+01</totfact>
</mgrwt>
</event>
<event>
 5    1  0.8274494E-003  0.1090672E+03  0.7546771E-02  0.1281370E+00
         -1   -1    0    0    0  501 -0.00000000000E+00  0.00000000000E+00  0.39648426974E+03  0.39648426974E+03  0.00000000000E+00 0.  1.
          1   -1    0    0  502    0  0.00000000000E+00 -0.00000000000E+00 -0.47829046041E+04  0.47829046041E+04  0.00000000000E+00 0. -1.
         25    1    1    2    0    0 -0.57979759484E+02 -0.70818733343E+02 -0.78514472028E+03  0.80028381046E+03  0.12500000000E+03 0.  0.
          2    1    1    2  502    0 -0.22856720717E+02  0.11207367358E+03 -0.39840638106E+04  0.39857053811E+04  0.00000000000E+00 0. -1.
         -2    1    1    2    0  501  0.80836480201E+02 -0.41254940241E+02  0.38278819652E+03  0.39339968228E+03  0.00000000000E+00 0.  1.
<mgrwt>
<rscale>  0 0.99490789E+02</rscale>
<asrwt>0</asrwt>
<pdfrwt beam="2">  1        1 0.73583142E+00 0.10906722E+03</pdfrwt>
<pdfrwt beam="1">  1       -1 0.60997585E-01 0.90755202E+02</pdfrwt>
<totfact> 0.82244017E-02</totfact>
</mgrwt>
</event>
<event>
 5    1  0.8274494E-003  0.2768260E+03  0.7546771E-02  0.1208080E+00
          2   -1    0    0  502    0  0.00000000000E+00  0.00000000000E+00  0.22701181959E+03  0.22701181959E+03  0.00000000000E+00 0. -1.
          1   -1    0    0  501    0 -0.00000000000E+00 -0.00000000000E+00 -0.84968713729E+03  0.84968713729E+03  0.00000000000E+00 0. -1.
         25    1    1    2    0    0  0.24612036459E+03 -0.11700257117E+02 -0.94519788764E+02  0.29201219213E+03  0.12500000000E+03 0.  0.
          2    1    1    2  501    0  0.60436849140E+02  0.44207016631E+02 -0.46374825860E+03  0.46975453208E+03  0.00000000000E+00 0. -1.
          1    1    1    2  502    0 -0.30655721373E+03 -0.32506759514E+02 -0.64407270337E+02  0.31493223267E+03  0.00000000000E+00 0. -1.
<mgrwt>
<rscale>  0 0.14397385E+03</rscale>
<asrwt>0</asrwt>
<pdfrwt beam="1">  1        2 0.34924896E-01 0.27682601E+03</pdfrwt>
<pdfrwt beam="2">  1        1 0.13072110E+00 0.74879056E+02</pdfrwt>
<totfact> 0.45289920E+02</totfact>
</mgrwt>
</event>
<event>
 5    1  0.8274494E-003  0.6484177E+02  0.7546771E-02  0.1403090E+00
          1   -1    0    0  501    0 -0.00000000000E+00  0.00000000000E+00  0.73684789264E+03  0.73684789264E+03  0.00000000000E+00 0. -1.
          2   -1    0    0  502    0  0.00000000000E+00 -0.00000000000E+00 -0.84579333184E+03  0.84579333184E+03  0.00000000000E+00 0. -1.
         25    1    1    2    0    0 -0.38319904542E+02  0.60163562582E+02  0.36956520799E+02  0.14858954800E+03  0.12500000000E+03 0.  0.
          2    1    1    2  501    0 -0.25354600183E+02 -0.46834696665E+02  0.64163043860E+03  0.64383690816E+03  0.00000000000E+00 0. -1.
          1    1    1    2  502    0  0.63674504725E+02 -0.13328865916E+02 -0.78753239861E+03  0.79021476832E+03  0.00000000000E+00 0. -1.
<mgrwt>
<rscale>  0 0.58764790E+02</rscale>
<asrwt>0</asrwt>
<pdfrwt beam="2">  1        2 0.13012205E+00 0.64841774E+02</pdfrwt>
<pdfrwt beam="1">  1        1 0.11336121E+00 0.53257343E+02</pdfrwt>
<totfact> 0.13468458E+02</totfact>
</mgrwt>
</event>
<event>
 5    1  0.8274494E-003  0.6842043E+02  0.7546771E-02  0.1503742E+00
          1   -1    0    0  501    0 -0.00000000000E+00  0.00000000000E+00  0.26124572279E+04  0.26124572279E+04  0.00000000000E+00 0. -1.
          2   -1    0    0  502    0  0.00000000000E+00 -0.00000000000E+00 -0.26018647512E+03  0.26018647512E+03  0.00000000000E+00 0. -1.
         25    1    1    2    0    0 -0.10688214997E+02 -0.90252034362E+02  0.72772192301E+03  0.74395152052E+03  0.12500000000E+03 0.  0.
          2    1    1    2  501    0  0.76557238820E+01  0.66335359483E+02  0.18754485159E+04  0.18766369190E+04  0.00000000000E+00 0. -1.
          1    1    1    2  502    0  0.30324911147E+01  0.23916674879E+02 -0.25089968614E+03  0.25205526347E+03  0.00000000000E+00 0. -1.
<mgrwt>
<rscale>  0 0.40613922E+02</rscale>
<asrwt>0</asrwt>
<pdfrwt beam="2">  1        2 0.40028690E-01 0.24108159E+02</pdfrwt>
<pdfrwt beam="1">  1        1 0.40191648E+00 0.68420431E+02</pdfrwt>
<totfact> 0.27562535E+01</totfact>
</mgrwt>
</event>
<event>
 5    1  0.8274494E-003  0.1606794E+03  0.7546771E-02  0.1239509E+00
          2   -1    0    0  502    0  0.00000000000E+00  0.00000000000E+00  0.25119278571E+04  0.25119278571E+04  0.00000000000E+00 0. -1.
          1   -1    0    0  501    0 -0.00000000000E+00 -0.00000000000E+00 -0.17820517738E+03  0.17820517738E+03  0.00000000000E+00 0. -1.
         25    1    1    2    0    0 -0.68261518334E+01 -0.24912174215E+03  0.79230160201E+03  0.83992563201E+03  0.12500000000E+03 0.  0.
          2    1    1    2  501    0  0.13656038229E+01  0.15634461756E+03 -0.11316874050E+03  0.19300950272E+03  0.00000000000E+00 0. -1.
          1    1    1    2  502    0  0.54605480105E+01  0.92777124585E+02  0.16545898182E+04  0.16571978997E+04  0.00000000000E+00 0. -1.
<mgrwt>
<rscale>  0 0.12220134E+03</rscale>
<asrwt>0</asrwt>
<pdfrwt beam="1">  1        2 0.38645041E+00 0.92937680E+02</pdfrwt>
<pdfrwt beam="2">  1        1 0.27416183E-01 0.16067937E+03</pdfrwt>
<totfact> 0.10424611E+02</totfact>
</mgrwt>
</event>
<event>
 5    1  0.8274494E-003  0.5255298E+02  0.7546771E-02  0.1557657E+00
          1   -1    0    0  502    0  0.00000000000E+00  0.00000000000E+00  0.13734281845E+04  0.13734281845E+04  0.00000000000E+00 0. -1.
         -1   -1    0    0    0  501 -0.00000000000E+00 -0.00000000000E+00 -0.54358079672E+02  0.54358079672E+02  0.00000000000E+00 0.  1.
         25    1    1    2    0    0  0.44819638044E+02 -0.18318573503E+02  0.96943111518E+03  0.97865522895E+03  0.12500000000E+03 0.  0.
          2    1    1    2  502    0 -0.38969528015E+02  0.39524329922E+02  0.39491363191E+03  0.39879515222E+03  0.00000000000E+00 0. -1.
         -2    1    1    2    0  501 -0.58501100290E+01 -0.21205756419E+02 -0.45274642219E+02  0.50335883033E+02  0.00000000000E+00 0.  1.
<mgrwt>
<rscale>  0 0.34000816E+02</rscale>
<asrwt>0</asrwt>
<pdfrwt beam="1">  1        1 0.21129662E+00 0.52552976E+02</pdfrwt>
<pdfrwt beam="2">  1       -1 0.83627826E-02 0.21997907E+02</pdfrwt>
<totfact> 0.65964004E+02</totfact>
</mgrwt>
</event>
<event>
 5    1  0.8274494E-003  0.6088166E+02  0.7546771E-02  0.1422748E+00
          1   -1    0    0  502    0  0.00000000000E+00  0.00000000000E+00  0.40939881915E+03  0.40939881915E+03  0.00000000000E+00 0. -1.
         -3   -1    0    0    0  501 -0.00000000000E+00 -0.00000000000E+00 -0.40404773224E+02  0.40404773224E+02  0.00000000000E+00 0.  1.
         25    1    1    2    0    0  0.32188607621E+02 -0.11528806727E+02  0.15128283059E+03  0.19919968543E+03  0.12500000000E+03 0.  0.
          2    1    1    2  502    0 -0.67981017864E+02 -0.21475765890E+02  0.15955629803E+03  0.17475937614E+03  0.00000000000E+00 0. -1.
         -2    1    1    2    0  501  0.35792410243E+02  0.33004572617E+02  0.58154917307E+02  0.75844530795E+02  0.00000000000E+00 0.  1.
<mgrwt>
<rscale>  0 0.54443817E+02</rscale>
<asrwt>0</asrwt>
<pdfrwt beam="1">  1        1 0.62984431E-01 0.60881655E+02</pdfrwt>
<pdfrwt beam="2">  1       -3 0.62161193E-02 0.48686738E+02</pdfrwt>
<totfact> 0.42916036E+03</totfact>
</mgrwt>
</event>
<event>
 5    1  0.8274494E-003  0.9278207E+02  0.7546771E-02  0.1324848E+00
          2   -1    0    0  502    0  0.00000000000E+00  0.00000000000E+00  0.25304016410E+04  0.25304016410E+04  0.00000000000E+00 0. -1.
          1   -1    0    0  501    0 -0.00000000000E+00 -0.00000000000E+00 -0.87373383091E+03  0.87373383091E+03  0.00000000000E+00 0. -1.
         25    1    1    2    0    0  0.87448945051E+02 -0.72177316415E+02  0.11999591669E+03  0.20707704609E+03  0.12500000000E+03 0.  0.
          2    1    1    2  501    0 -0.92846867910E+02  0.79130964017E+00 -0.82705350468E+03  0.83224916140E+03  0.00000000000E+00 0. -1.
          1    1    1    2  502    0  0.53979228593E+01  0.71386006774E+02  0.23637253981E+04  0.23648092644E+04  0.00000000000E+00 0. -1.
<mgrwt>
<rscale>  0 0.81500000E+02</rscale>
<asrwt>0</asrwt>
<pdfrwt beam="1">  1        2 0.38929256E+00 0.71589800E+02</pdfrwt>
<pdfrwt beam="2">  1        1 0.13442059E+00 0.92782073E+02</pdfrwt>
<totfact> 0.13462007E+01</totfact>
</mgrwt>
</event>
<event>
 5    1  0.8274494E-003  0.3989728E+02  0.7546771E-02  0.1551644E+00
          2   -1    0    0  502    0  0.00000000000E+00  0.00000000000E+00  0.36948367624E+03  0.36948367624E+03  0.00000000000E+00 0. -1.
          1   -1    0    0  501    0 -0.00000000000E+00 -0.00000000000E+00 -0.69025184529E+03  0.69025184529E+03  0.00000000000E+00 0. -1.
         25    1    1    2    0    0  0.10874642711E+02  0.25750407326E+02 -0.65182728927E+02  0.14371892527E+03  0.12500000000E+03 0.  0.
          2    1    1    2  501    0  0.27179013918E+02 -0.12956970336E+02 -0.58419164917E+03  0.58496706304E+03  0.00000000000E+00 0. -1.
          1    1    1    2  502    0 -0.38053656630E+02 -0.12793436989E+02  0.32860620905E+03  0.33104953322E+03  0.00000000000E+00 0. -1.
<mgrwt>
<rscale>  0 0.34659588E+02</rscale>
<asrwt>0</asrwt>
<pdfrwt beam="1">  1        2 0.56843643E-01 0.39897279E+02</pdfrwt>
<pdfrwt beam="2">  1        1 0.10619259E+00 0.30109498E+02</pdfrwt>
<totfact> 0.37516724E+02</totfact>
</mgrwt>
</event>
<event>
 5    1  0.8274494E-003  0.5021297E+02  0.7546771E-02  0.1575878E+00
          2   -1    0    0  502    0  0.00000000000E+00  0.00000000000E+00  0.10040999222E+04  0.10040999222E+04  0.00000000000E+00 0. -1.
          1   -1    0    0  501    0 -0.00000000000E+00 -0.00000000000E+00 -0.66294948898E+02  0.66294948898E+02  0.00000000000E+00 0. -1.
         25    1    1    2    0    0 -0.31771296434E+02 -0.47028763118E+02  0.37497576931E+03  0.39931559875E+03  0.12500000000E+03 0.  0.
          2    1    1    2  501    0 -0.91520106404E+01  0.18380332491E+02 -0.51126054097E+02  0.55095093509E+02  0.00000000000E+00 0. -1.
          1    1    1    2  502    0  0.40923307074E+02  0.28648430627E+02  0.61395525808E+03  0.61598417882E+03  0.00000000000E+00 0. -1.
<mgrwt>
<rscale>  0 0.32109390E+02</rscale>
<asrwt>0</asrwt>
<pdfrwt beam="1">  1        2 0.15447690E+00 0.50212970E+02</pdfrwt>
<pdfrwt beam="2">  1        1 0.10199224E-01 0.20532801E+02</pdfrwt>
<totfact> 0.20130887E+03</totfact>
</mgrwt>
</event>
<event>
 5    1  0.8274494E-003  0.2292228E+03  0.7546771E-02  0.1132794E+00
          1   -1    0    0  501    0 -0.00000000000E+00  0.00000000000E+00  0.15156678844E+04  0.15156678844E+04  0.00000000000E+00 0. -1.
          2   -1    0    0  502    0  0.00000000000E+00 -0.00000000000E+00 -0.23359490905E+04  0.23359490905E+04  0.00000000000E+00 0. -1.
         25    1    1    2    0    0  0.41346335381E+03 -0.26189223640E+02 -0.53206548625E+03  0.68582541659E+03  0.12500000000E+03 0.  0.
          2    1    1    2  501    0 -0.21004769251E+03 -0.40798953476E+02  0.14241251467E+04  0.14401100726E+04  0.00000000000E+00 0. -1.
          1    1    1    2  502    0 -0.20341566131E+03  0.66988177116E+02 -0.17123408665E+04  0.17256814858E+04  0.00000000000E+00 0. -1.
<mgrwt>
<rscale>  0 0.22146683E+03</rscale>
<asrwt>0</asrwt>
<pdfrwt beam="2">  1        2 0.35937678E+00 0.22922275E+03</pdfrwt>
<pdfrwt beam="1">  1        1 0.23317968E+00 0.21397333E+03</pdfrwt>
<totfact> 0.49501830E+00</totfact>
</mgrwt>
</event>
<event>
 5    1  0.8274494E-003  0.1553750E+03  0.7546771E-02  0.1328749E+00
          2   -1    0    0  502    0  0.00000000000E+00  0.00000000000E+00  0.20553622060E+03  0.20553622060E+03  0.00000000000E+00 0. -1.
          1   -1    0    0  501    0 -0.00000000000E+00 -0.00000000000E+00 -0.13469390214E+04  0.13469390214E+04  0.00000000000E+00 0. -1.
         25    1    1    2    0    0  0.22961632123E+02  0.15810091422E+03 -0.48778437600E+03  0.52828186898E+03  0.12500000000E+03 0.  0.
          2    1    1    2  501    0 -0.61257353738E+02 -0.14263583168E+03 -0.82930959387E+03  0.84371313036E+03  0.00000000000E+00 0. -1.
          1    1    1    2  502    0  0.38295721615E+02 -0.15465082546E+02  0.17569116911E+03  0.18048024262E+03  0.00000000000E+00 0. -1.
<mgrwt>
<rscale>  0 0.80106575E+02</rscale>
<asrwt>0</asrwt>
<pdfrwt beam="1">  1        2 0.31620958E-01 0.41300497E+02</pdfrwt>
<pdfrwt beam="2">  1        1 0.20722138E+00 0.15537496E+03</pdfrwt>
<totfact> 0.20611250E+02</totfact>
</mgrwt>
</event>
<event>
 5    1  0.8274494E-003  0.8250264E+02  0.7546771E-02  0.1495589E+00
          2   -1    0    0  502    0  0.00000000000E+00  0.00000000000E+00  0.15620290104E+03  0.15620290104E+03  0.00000000000E+00 0. -1.
          1   -1    0    0  501    0 -0.00000000000E+00 -0.00000000000E+00 -0.19106169525E+03  0.19106169525E+03  0.00000000000E+00 0. -1.
         25    1    1    2    0    0  0.68698828207E+02  0.37613190643E+01  0.30149053103E+02  0.14583429611E+03  0.12500000000E+03 0.  0.
          2    1    1    2  501    0  0.20914575174E+02 -0.31179293406E+01 -0.10222838464E+03  0.10439244975E+03  0.00000000000E+00 0. -1.
          1    1    1    2  502    0 -0.89613403381E+02 -0.64338972374E+00  0.37220537331E+02  0.97037850425E+02  0.00000000000E+00 0. -1.
<mgrwt>
<rscale>  0 0.41768130E+02</rscale>
<asrwt>0</asrwt>
<pdfrwt beam="1">  1        2 0.24031216E-01 0.82502638E+02</pdfrwt>
<pdfrwt beam="2">  1        1 0.29394107E-01 0.21145707E+02</pdfrwt>
<totfact> 0.43078191E+03</totfact>
</mgrwt>
</event>
<event>
 5    1  0.8274494E-003  0.9862442E+02  0.7546771E-02  0.1333959E+00
          2   -1    0    0  502    0  0.00000000000E+00  0.00000000000E+00  0.34148172266E+04  0.34148172266E+04  0.00000000000E+00 0. -1.
          1   -1    0    0  501    0 -0.00000000000E+00 -0.00000000000E+00 -0.88286884644E+02  0.88286884644E+02  0.00000000000E+00 0. -1.
         25    1    1    2    0    0 -0.13424757149E+03  0.89472207687E+01  0.30820327796E+03  0.35877113005E+03  0.12500000000E+03 0.  0.
          2    1    1    2  501    0  0.84202955886E+02 -0.45812231711E+02 -0.26039032308E+02  0.99332419470E+02  0.00000000000E+00 0. -1.
          1    1    1    2  502    0  0.50044615608E+02  0.36865010942E+02  0.30443660963E+04  0.30450005617E+04  0.00000000000E+00 0. -1.
<mgrwt>
<rscale>  0 0.78295580E+02</rscale>
<asrwt>0</asrwt>
<pdfrwt beam="1">  1        2 0.52535639E+00 0.62156999E+02</pdfrwt>
<pdfrwt beam="2">  1        1 0.13582600E-01 0.98624417E+02</pdfrwt>
<totfact> 0.82880920E+01</totfact>
</mgrwt>
</event>
<event>
 5    1  0.1151093E-002  0.4206754E+02  0.7546771E-02  0.1501437E+00
          1   -1    0    0  501    0 -0.00000000000E+00  0.00000000000E+00  0.92588989485E+03  0.92588989485E+03  0.00000000000E+00 0. -1.
          2   -1    0    0  502    0  0.00000000000E+00 -0.00000000000E+00 -0.12183478885E+04  0.12183478885E+04  0.00000000000E+00 0. -1.
         25    1    1    2    0    0 -0.27133633887E+02 -0.32276128285E+02  0.20807097796E+03  0.24636662602E+03  0.12500000000E+03 0.  0.
          2    1    1    2  501    0 -0.14695740676E+02  0.37024244963E+02  0.69773337629E+03  0.69886953282E+03  0.00000000000E+00 0. -1.
          1    1    1    2  502    0  0.41829374563E+02 -0.47481166776E+01 -0.11982623479E+04  0.11990016245E+04  0.00000000000E+00 0. -1.
<mgrwt>
<rscale>  0 0.40935614E+02</rscale>
<asrwt>0</asrwt>
<pdfrwt beam="2">  1        2 0.18743814E+00 0.42067536E+02</pdfrwt>
<pdfrwt beam="1">  1        1 0.14244460E+00 0.39834150E+02</pdfrwt>
<totfact> 0.61808938E+01</totfact>
</mgrwt>
</event>
<event>
 5    1  0.8274494E-003  0.1059464E+03  0.7546771E-02  0.1381932E+00
          1   -1    0    0  501    0 -0.00000000000E+00  0.00000000000E+00  0.70953410395E+03  0.70953410395E+03  0.00000000000E+00 0. -1.
          2   -1    0    0  502    0  0.00000000000E+00 -0.00000000000E+00 -0.27059317875E+04  0.27059317875E+04  0.00000000000E+00 0. -1.
         25    1    1    2    0    0 -0.10009441758E+02 -0.14218937965E+03 -0.94590744893E+03  0.96471960204E+03  0.12500000000E+03 0.  0.
          2    1    1    2  501    0 -0.27838774228E+01  0.10575935973E+03  0.69591672841E+03  0.70391255495E+03  0.00000000000E+00 0. -1.
          1    1    1    2  502    0  0.12793319181E+02  0.36430019926E+02 -0.17464069630E+04  0.17468337345E+04  0.00000000000E+00 0. -1.
<mgrwt>
<rscale>  0 0.63958610E+02</rscale>
<asrwt>0</asrwt>
<pdfrwt beam="2">  1        2 0.41629719E+00 0.38611078E+02</pdfrwt>
<pdfrwt beam="1">  1        1 0.10915909E+00 0.10594637E+03</pdfrwt>
<totfact> 0.16221552E+01</totfact>
</mgrwt>
</event>
<event>
 5    1  0.8274494E-003  0.6801001E+02  0.7546771E-02  0.1391756E+00
          1   -1    0    0  501    0 -0.00000000000E+00  0.00000000000E+00  0.91017538653E+02  0.91017538653E+02  0.00000000000E+00 0. -1.
          2   -1    0    0  502    0  0.00000000000E+00 -0.00000000000E+00 -0.13176229941E+04  0.13176229941E+04  0.00000000000E+00 0. -1.
         25    1    1    2    0    0 -0.29835198251E+02  0.12317769926E+02 -0.11850508434E+04  0.11920622333E+04  0.12500000000E+03 0.  0.
          2    1    1    2  501    0  0.59032183319E+02  0.34955191999E+02  0.66203255100E+02  0.95339053388E+02  0.00000000000E+00 0. -1.
          1    1    1    2  502    0 -0.29196985067E+02 -0.47272961926E+02 -0.10775786718E+03  0.12123924615E+03  0.00000000000E+00 0. -1.
<mgrwt>
<rscale>  0 0.61472021E+02</rscale>
<asrwt>0</asrwt>
<pdfrwt beam="2">  1        2 0.20271123E+00 0.55562549E+02</pdfrwt>
<pdfrwt beam="1">  1        1 0.14002698E-01 0.68010006E+02</pdfrwt>
<totfact> 0.99772316E+02</totfact>
</mgrwt>
</event>
<event>
 5    1  0.8274494E-003  0.6279279E+02  0.7546771E-02  0.1507070E+00
          1   -1    0    0  501    0 -0.00000000000E+00  0.00000000000E+00  0.23215241718E+04  0.23215241718E+04  0.00000000000E+00 0. -1.
          2   -1    0    0  502    0  0.00000000000E+00 -0.00000000000E+00 -0.10302372142E+03  0.10302372142E+03  0.00000000000E+00 0. -1.
         25    1    1    2    0    0  0.37728205935E+02 -0.12903841219E+02  0.16273440814E+04  0.16326247841E+04  0.12500000000E+03 0.  0.
          2    1    1    2  501    0  0.24871659690E+02  0.63889836915E+01  0.68140892172E+03  0.68189261410E+03  0.00000000000E+00 0. -1.
          1    1    1    2  502    0 -0.62599865624E+02  0.65148575280E+01 -0.90252552726E+02  0.11003049495E+03  0.00000000000E+00 0. -1.
<mgrwt>
<rscale>  0 0.40155514E+02</rscale>
<asrwt>0</asrwt>
<pdfrwt beam="2">  1        2 0.15849805E-01 0.62792791E+02</pdfrwt>
<pdfrwt beam="1">  1        1 0.35715752E+00 0.25679147E+02</pdfrwt>
<totfact> 0.13637419E+02</totfact>
</mgrwt>
</event>
<event>
 5    1  0.8274494E-003  0.1396735E+03  0.7546771E-02  0.1297159E+00
          2   -1    0    0  502    0  0.00000000000E+00  0.00000000000E+00  0.14160060669E+04  0.14160060669E+04  0.00000000000E+00 0. -1.
         -2   -1    0    0    0  501 -0.00000000000E+00 -0.00000000000E+00 -0.19329873812E+04  0.19329873812E+04  0.00000000000E+00 0.  1.
         25    1    1    2    0    0 -0.82887762746E+02 -0.79401290644E+02  0.27979302494E+03  0.32723704402E+03  0.12500000000E+03 0.  0.
          1    1    1    2  502    0 -0.49938474062E+02  0.35233853247E+02  0.11090829753E+04  0.11107656466E+04  0.00000000000E+00 0. -1.
         -1    1    1    2    0  501  0.13282623681E+03  0.44167437397E+02 -0.19058573145E+04  0.19109907574E+04  0.00000000000E+00 0.  1.
<mgrwt>
<rscale>  0 0.92392702E+02</rscale>
<asrwt>0</asrwt>
<pdfrwt beam="1">  1        2 0.21784709E+00 0.61116901E+02</pdfrwt>
<pdfrwt beam="2">  1       -2 0.29738267E+00 0.13967350E+03</pdfrwt>
<totfact> 0.70164024E-01</totfact>
</mgrwt>
</event>
<event>
 5    1  0.8274494E-003  0.5912415E+02  0.7546771E-02  0.1494099E+00
          2   -1    0    0  502    0  0.00000000000E+00  0.00000000000E+00  0.13105490801E+04  0.13105490801E+04  0.00000000000E+00 0. -1.
          1   -1    0    0  501    0 -0.00000000000E+00 -0.00000000000E+00 -0.10962139736E+04  0.10962139736E+04  0.00000000000E+00 0. -1.
         25    1    1    2    0    0 -0.38926379717E+02  0.34818458159E+01  0.68172454950E+03  0.69419071419E+03  0.12500000000E+03 0.  0.
          2    1    1    2  501    0  0.50372596822E+02 -0.31009665203E+02 -0.10888207367E+04  0.10904263361E+04  0.00000000000E+00 0. -1.
          1    1    1    2  502    0 -0.11446217105E+02  0.27527819387E+02  0.62143129368E+03  0.62214600336E+03  0.00000000000E+00 0. -1.
<mgrwt>
<rscale>  0 0.41983928E+02</rscale>
<asrwt>0</asrwt>
<pdfrwt beam="1">  1        2 0.20162294E+00 0.29812694E+02</pdfrwt>
<pdfrwt beam="2">  1        1 0.16864830E+00 0.59124149E+02</pdfrwt>
<totfact> 0.42151122E+01</totfact>
</mgrwt>
</event>
<event>
 5    1  0.8274494E-003  0.6948116E+02  0.7546771E-02  0.1383992E+00
         -2   -1    0    0    0  501 -0.00000000000E+00  0.00000000000E+00  0.80634055231E+01  0.80634055231E+01  0.00000000000E+00 0.  1.
          2   -1    0    0  502    0  0.00000000000E+00 -0.00000000000E+00 -0.27828288088E+04  0.27828288088E+04  0.00000000000E+00 0. -1.
         25    1    1    2    0    0  0.18200120606E+01 -0.59797016408E+02 -0.10356953675E+04  0.10449253035E+04  0.12500000000E+03 0.  0.
          1    1    1    2  502    0 -0.58478502286E+02  0.47877622012E+02 -0.13960924358E+04  0.13981366497E+04  0.00000000000E+00 0. -1.
         -1    1    1    2    0  501  0.56658490225E+02  0.11919394396E+02 -0.34297759997E+03  0.34783026113E+03  0.00000000000E+00 0.  1.
<mgrwt>
<rscale>  0 0.63426076E+02</rscale>
<asrwt>0</asrwt>
<pdfrwt beam="2">  1        2 0.42812792E+00 0.69481161E+02</pdfrwt>
<pdfrwt beam="1">  1       -2 0.12405227E-02 0.57898674E+02</pdfrwt>
<totfact> 0.42371119E+03</totfact>
</mgrwt>
</event>
<event>
 5    1  0.8274494E-003  0.1127060E+03  0.7546771E-02  0.1397396E+00
          1   -1    0    0  501    0 -0.00000000000E+00  0.00000000000E+00  0.64275690819E+03  0.64275690819E+03  0.00000000000E+00 0. -1.
          2   -1    0    0  502    0  0.00000000000E+00 -0.00000000000E+00 -0.16546640233E+04  0.16546640233E+04  0.00000000000E+00 0. -1.
         25    1    1    2    0    0 -0.32211152481E+02 -0.98756154959E+02 -0.52343915426E+03  0.54809112810E+03  0.12500000000E+03 0.  0.
          2    1    1    2  501    0  0.63758080686E+02  0.93086841581E+02  0.62515025394E+03  0.63525041749E+03  0.00000000000E+00 0. -1.
          1    1    1    2  502    0 -0.31546928205E+02  0.56693133779E+01 -0.11136182147E+04  0.11140793859E+04  0.00000000000E+00 0. -1.
<mgrwt>
<rscale>  0 0.60103953E+02</rscale>
<asrwt>0</asrwt>
<pdfrwt beam="2">  1        2 0.25456369E+00 0.32052298E+02</pdfrwt>
<pdfrwt beam="1">  1        1 0.98885680E-01 0.11270596E+03</pdfrwt>
<totfact> 0.62135843E+01</totfact>
</mgrwt>
</event>
<event>
 5    1  0.8274494E-003  0.1428063E+03  0.7546771E-02  0.1278827E+00
          2   -1    0    0  502    0  0.00000000000E+00  0.00000000000E+00  0.19448809327E+04  0.19448809327E+04  0.00000000000E+00 0. -1.
          1   -1    0    0  501    0 -0.00000000000E+00 -0.00000000000E+00 -0.96733088619E+02  0.96733088619E+02  0.00000000000E+00 0. -1.
         25    1    1    2    0    0 -0.41690328034E+02 -0.67645115211E+02  0.60989749801E+03  0.62762560747E+03  0.12500000000E+03 0.  0.
          2    1    1    2  501    0  0.63819782669E+02  0.13512000573E+03 -0.22606203768E+02  0.15113378529E+03  0.00000000000E+00 0. -1.
          1    1    1    2  502    0 -0.22129454635E+02 -0.67474890519E+02  0.12608565498E+04  0.12628546286E+04  0.00000000000E+00 0. -1.
<mgrwt>
<rscale>  0 0.10070169E+03</rscale>
<asrwt>0</asrwt>
<pdfrwt beam="1">  1        2 0.29921242E+00 0.71011081E+02</pdfrwt>
<pdfrwt beam="2">  1        1 0.14882015E-01 0.14280630E+03</pdfrwt>
<totfact> 0.45471573E+02</totfact>
</mgrwt>
</event>
<event>
 5    1  0.8274494E-003  0.7174070E+02  0.7546771E-02  0.1390579E+00
          1   -1    0    0  502    0  0.00000000000E+00  0.00000000000E+00  0.41292401877E+04  0.41292401877E+04  0.00000000000E+00 0. -1.
         -3   -1    0    0    0  501 -0.00000000000E+00 -0.00000000000E+00 -0.25596636736E+02  0.25596636736E+02  0.00000000000E+00 0.  1.
         25    1    1    2    0    0 -0.21087010821E+02 -0.37117572998E+02  0.37896129186E+03  0.40132161290E+03  0.12500000000E+03 0.  0.
          2    1    1    2  502    0  0.70789031925E+02  0.18221313775E+02  0.36884433385E+04  0.36891675707E+04  0.00000000000E+00 0. -1.
         -2    1    1    2    0  501 -0.49702021104E+02  0.18896259223E+02  0.36238920574E+02  0.64347640818E+02  0.00000000000E+00 0.  1.
<mgrwt>
<rscale>  0 0.61762953E+02</rscale>
<asrwt>0</asrwt>
<pdfrwt beam="1">  1        1 0.63526719E+00 0.71740696E+02</pdfrwt>
<pdfrwt beam="2">  1       -3 0.39379474E-02 0.53172921E+02</pdfrwt>
<totfact> 0.19220695E+01</totfact>
</mgrwt>
</event>
<event>
 5    1  0.8274494E-003  0.8333923E+02  0.7546771E-02  0.1457785E+00
         -2   -1    0    0    0  501  0.00000000000E+00  0.00000000000E+00  0.36654896225E+03  0.36654896225E+03  0.00000000000E+00 0.  1.
         -1   -1    0    0    0  502 -0.00000000000E+00 -0.00000000000E+00 -0.10280013314E+03  0.10280013314E+03  0.00000000000E+00 0.  1.
         25    1    1    2    0    0 -0.10034347322E+02 -0.10377740815E+03  0.14256172631E+03  0.21637764297E+03  0.12500000000E+03 0.  0.
         -2    1    1    2    0  502  0.19611774592E+02  0.78131686441E+02 -0.39675522694E+02  0.89796042395E+02  0.00000000000E+00 0.  1.
         -1    1    1    2    0  501 -0.95774272705E+01  0.25645721709E+02  0.16086262550E+03  0.16317541002E+03  0.00000000000E+00 0.  1.
<mgrwt>
<rscale>  0 0.47764752E+02</rscale>
<asrwt>0</asrwt>
<pdfrwt beam="1">  1       -2 0.56392147E-01 0.27375722E+02</pdfrwt>
<pdfrwt beam="2">  1       -1 0.15815405E-01 0.83339226E+02</pdfrwt>
<totfact> 0.62836863E+02</totfact>
</mgrwt>
</event>
<event>
 5    1  0.8274494E-003  0.4347731E+02  0.7546771E-02  0.1561666E+00
          1   -1    0    0  501    0 -0.00000000000E+00  0.00000000000E+00  0.51418363799E+03  0.51418363799E+03  0.00000000000E+00 0. -1.
          2   -1    0    0  502    0  0.00000000000E+00 -0.00000000000E+00 -0.18739893775E+03  0.18739893775E+03  0.00000000000E+00 0. -1.
         25    1    1    2    0    0 -0.30090424012E+02  0.55930017927E+02 -0.91838281868E+00  0.14021213909E+03  0.12500000000E+03 0.  0.
          2    1    1    2  501    0 -0.80590137460E-02 -0.25922362972E+02  0.44027759952E+03  0.44104005896E+03  0.00000000000E+00 0. -1.
          1    1    1    2  502    0  0.30098483025E+02 -0.30007654956E+02 -0.11257451647E+03  0.12033037769E+03  0.00000000000E+00 0. -1.
<mgrwt>
<rscale>  0 0.33571336E+02</rscale>
<asrwt>0</asrwt>
<pdfrwt beam="2">  1        2 0.28830606E-01 0.43477308E+02</pdfrwt>
<pdfrwt beam="1">  1        1 0.79105175E-01 0.25922364E+02</pdfrwt>
<totfact> 0.10971724E+03</totfact>
</mgrwt>
</event>
<event>
 5    1  0.8274494E-003  0.2783358E+03  0.7546771E-02  0.1298170E+00
          1   -1    0    0  501    0 -0.00000000000E+00  0.00000000000E+00  0.84809258998E+03  0.84809258998E+03  0.00000000000E+00 0. -1.
          2   -1    0    0  502    0  0.00000000000E+00 -0.00000000000E+00 -0.48258358802E+03  0.48258358802E+03  0.00000000000E+00 0. -1.
         25    1    1    2    0    0  0.10836873726E+03 -0.23905713920E+03 -0.33033307398E+03  0.44004208752E+03  0.12500000000E+03 0.  0.
          2    1    1    2  501    0 -0.13853822264E+03  0.24266002483E+03  0.76535718257E+03  0.81476888974E+03  0.00000000000E+00 0. -1.
          1    1    1    2  502    0  0.30169485382E+02 -0.36028856241E+01 -0.69515106625E+02  0.75865200732E+02  0.00000000000E+00 0. -1.
<mgrwt>
<rscale>  0 0.91961492E+02</rscale>
<asrwt>0</asrwt>
<pdfrwt beam="2">  1        2 0.74243629E-01 0.30383855E+02</pdfrwt>
<pdfrwt beam="1">  1        1 0.13047578E+00 0.27833585E+03</pdfrwt>
<totfact> 0.19125076E+02</totfact>
</mgrwt>
</event>
<event>
 5    1  0.8274494E-003  0.4755633E+02  0.7546771E-02  0.1572227E+00
         -1   -1    0    0    0  501 -0.00000000000E+00  0.00000000000E+00  0.24022053303E+02  0.24022053303E+02  0.00000000000E+00 0.  1.
          1   -1    0    0  502    0  0.00000000000E+00 -0.00000000000E+00 -0.49797999159E+03  0.49797999159E+03  0.00000000000E+00 0. -1.
         25    1    1    2    0    0 -0.39781915196E+01 -0.30605121880E+02 -0.30248629019E+03  0.32874831596E+03  0.12500000000E+03 0.  0.
          2    1    1    2  502    0  0.82116239561E+01  0.52375341511E+02 -0.15943856758E+03  0.16802161765E+03  0.00000000000E+00 0. -1.
         -2    1    1    2    0  501 -0.42334324365E+01 -0.21770219630E+02 -0.12033080515E+02  0.25232111280E+02  0.00000000000E+00 0.  1.
<mgrwt>
<rscale>  0 0.32476223E+02</rscale>
<asrwt>0</asrwt>
<pdfrwt beam="2">  1        1 0.76612301E-01 0.47556330E+02</pdfrwt>
<pdfrwt beam="1">  1       -1 0.36957007E-02 0.22178016E+02</pdfrwt>
<totfact> 0.97248067E+03</totfact>
</mgrwt>
</event>
<event>
 5    1  0.8274494E-003  0.4632763E+02  0.7546771E-02  0.1538095E+00
          2   -1    0    0  502    0  0.00000000000E+00  0.00000000000E+00  0.30444711230E+04  0.30444711230E+04  0.00000000000E+00 0. -1.
          1   -1    0    0  501    0 -0.00000000000E+00 -0.00000000000E+00 -0.16822910096E+03  0.16822910096E+03  0.00000000000E+00 0. -1.
         25    1    1    2    0    0 -0.36314168489E+02 -0.38701449660E+01  0.18897244337E+04  0.18942062011E+04  0.12500000000E+03 0.  0.
          2    1    1    2  501    0 -0.79131633987E+01  0.27176312074E+02 -0.16423489141E+03  0.16665614195E+03  0.00000000000E+00 0. -1.
          1    1    1    2  502    0  0.44227331888E+02 -0.23306167108E+02  0.11507524798E+04  0.11518378810E+04  0.00000000000E+00 0. -1.
<mgrwt>
<rscale>  0 0.36211893E+02</rscale>
<asrwt>0</asrwt>
<pdfrwt beam="1">  1        2 0.46838013E+00 0.46327630E+02</pdfrwt>
<pdfrwt beam="2">  1        1 0.25881402E-01 0.28304948E+02</pdfrwt>
<totfact> 0.61430323E+01</totfact>
</mgrwt>
</event>
<event>
 5    1  0.8274494E-003  0.8230633E+02  0.7546771E-02  0.1388522E+00
          2   -1    0    0  502    0  0.00000000000E+00  0.00000000000E+00  0.11861283433E+04  0.11861283433E+04  0.00000000000E+00 0. -1.
          1   -1    0    0  501    0 -0.00000000000E+00 -0.00000000000E+00 -0.43089724325E+03  0.43089724325E+03  0.00000000000E+00 0. -1.
         25    1    1    2    0    0  0.23556076091E+02 -0.62269076424E+02  0.37596112013E+03  0.40175127934E+03  0.12500000000E+03 0.  0.
          2    1    1    2  501    0 -0.68062035030E+02  0.46793160107E+02 -0.41321537463E+03  0.42138935235E+03  0.00000000000E+00 0. -1.
          1    1    1    2  502    0  0.44505958938E+02  0.15475916318E+02  0.79248535457E+03  0.79388495488E+03  0.00000000000E+00 0. -1.
<mgrwt>
<rscale>  0 0.62275722E+02</rscale>
<asrwt>0</asrwt>
<pdfrwt beam="1">  1        2 0.18248128E+00 0.47119894E+02</pdfrwt>
<pdfrwt beam="2">  1        1 0.66291884E-01 0.82306331E+02</pdfrwt>
<totfact> 0.17451129E+02</totfact>
</mgrwt>
</event>
<event>
 5    1  0.8274494E-003  0.1047057E+03  0.7546771E-02  0.1358883E+00
          2   -1    0    0  502    0  0.00000000000E+00  0.00000000000E+00  0.15026188471E+03  0.15026188471E+03  0.00000000000E+00 0. -1.
          1   -1    0    0  501    0 -0.00000000000E+00 -0.00000000000E+00 -0.27050563165E+04  0.27050563165E+04  0.00000000000E+00 0. -1.
         25    1    1    2    0    0 -0.86202091781E+02 -0.18719691048E+02 -0.16563010838E+03  0.22547629646E+03  0.12500000000E+03 0.  0.
          2    1    1    2  501    0 -0.18632439559E+02  0.43450061866E+02 -0.24851306601E+04  0.24855803091E+04  0.00000000000E+00 0. -1.
          1    1    1    2  502    0  0.10483453134E+03 -0.24730370818E+02  0.95966336640E+02  0.14426159562E+03  0.00000000000E+00 0. -1.
<mgrwt>
<rscale>  0 0.70357139E+02</rscale>
<asrwt>0</asrwt>
<pdfrwt beam="1">  1        2 0.23117212E-01 0.10470568E+03</pdfrwt>
<pdfrwt beam="2">  1        1 0.41616253E+00 0.47276587E+02</pdfrwt>
<totfact> 0.47396639E+01</totfact>
</mgrwt>
</event>
<event>
 5    1  0.8274494E-003  0.9744396E+02  0.7546771E-02  0.1389385E+00
          2   -1    0    0  502    0  0.00000000000E+00  0.00000000000E+00  0.60133432431E+03  0.60133432431E+03  0.00000000000E+00 0. -1.
          1   -1    0    0  501    0 -0.00000000000E+00 -0.00000000000E+00 -0.33309629780E+03  0.33309629780E+03  0.00000000000E+00 0. -1.
         25    1    1    2    0    0  0.10604252368E+03 -0.58502259362E+02 -0.51711638426E+02  0.18156713560E+03  0.12500000000E+03 0.  0.
          2    1    1    2  501    0 -0.11548278363E+02  0.37799732023E+02 -0.21023907298E+03  0.21392206591E+03  0.00000000000E+00 0. -1.
          1    1    1    2  502    0 -0.94494245320E+02  0.20702527339E+02  0.53018873791E+03  0.53894142061E+03  0.00000000000E+00 0. -1.
<mgrwt>
<rscale>  0 0.62059805E+02</rscale>
<asrwt>0</asrwt>
<pdfrwt beam="1">  1        2 0.92512973E-01 0.97443962E+02</pdfrwt>
<pdfrwt beam="2">  1        1 0.51245584E-01 0.39524454E+02</pdfrwt>
<totfact> 0.54284364E+02</totfact>
</mgrwt>
</event>
<event>
 5    1  0.8274494E-003  0.7841937E+02  0.7546771E-02  0.1508508E+00
          2   -1    0    0  502    0  0.00000000000E+00  0.00000000000E+00  0.47492402086E+03  0.47492402086E+03  0.00000000000E+00 0. -1.
         -2   -1    0    0    0  501 -0.00000000000E+00 -0.00000000000E+00 -0.43573516896E+02  0.43573516896E+02  0.00000000000E+00 0.  1.
         25    1    1    2    0    0  0.72998410164E+02 -0.77535659836E+01  0.37057229154E+03  0.39791671104E+03  0.12500000000E+03 0.  0.
          1    1    1    2  502    0  0.13999979919E+01 -0.20313891665E+02  0.27887850798E+02  0.34530369403E+02  0.00000000000E+00 0. -1.
         -1    1    1    2    0  501 -0.74398408156E+02  0.28067457649E+02  0.32890361625E+02  0.86050457307E+02  0.00000000000E+00 0.  1.
<mgrwt>
<rscale>  0 0.39959746E+02</rscale>
<asrwt>0</asrwt>
<pdfrwt beam="1">  1        2 0.73065230E-01 0.20362077E+02</pdfrwt>
<pdfrwt beam="2">  1       -2 0.67036183E-02 0.78419373E+02</pdfrwt>
<totfact> 0.76410506E+03</totfact>
</mgrwt>
</event>
<event>
 5    1  0.8274494E-003  0.7342955E+02  0.7546771E-02  0.1348955E+00
          2   -1    0    0  502    0  0.00000000000E+00  0.00000000000E+00  0.44794042235E+02  0.44794042235E+02  0.00000000000E+00 0. -1.
          1   -1    0    0  501    0 -0.00000000000E+00 -0.00000000000E+00 -0.85965481934E+03  0.85965481934E+03  0.00000000000E+00 0. -1.
         25    1    1    2    0    0 -0.21207665726E+02 -0.77228974711E+02 -0.16007687188E+03  0.21832014230E+03  0.12500000000E+03 0.  0.
          2    1    1    2  501    0  0.71724242072E+02  0.23937571190E+02 -0.56547851337E+03  0.57051145764E+03  0.00000000000E+00 0. -1.
          1    1    1    2  502    0 -0.50516576346E+02  0.53291403520E+02 -0.89305391850E+02  0.11561726164E+03  0.00000000000E+00 0. -1.
<mgrwt>
<rscale>  0 0.73382297E+02</rscale>
<asrwt>0</asrwt>
<pdfrwt beam="1">  1        2 0.68913912E-02 0.73429546E+02</pdfrwt>
<pdfrwt beam="2">  1        1 0.13225459E+00 0.73335079E+02</pdfrwt>
<totfact> 0.28034842E+03</totfact>
</mgrwt>
</event>
<event>
 5    1  0.8274494E-003  0.4259476E+02  0.7546771E-02  0.1515142E+00
          2   -1    0    0  502    0  0.00000000000E+00  0.00000000000E+00  0.71738539127E+03  0.71738539127E+03  0.00000000000E+00 0. -1.
         -2   -1    0    0    0  501 -0.00000000000E+00 -0.00000000000E+00 -0.46828706200E+02  0.46828706200E+02  0.00000000000E+00 0.  1.
         25    1    1    2    0    0  0.26087935493E+02  0.18030064574E+02  0.11028670982E+03  0.16968742431E+03  0.12500000000E+03 0.  0.
          1    1    1    2  502    0 -0.40698610535E+02  0.14700447381E+02  0.55684066138E+03  0.55851947344E+03  0.00000000000E+00 0. -1.
         -1    1    1    2    0  501  0.14610675042E+02 -0.32730511955E+02  0.34293138791E+01  0.36007199720E+02  0.00000000000E+00 0.  1.
<mgrwt>
<rscale>  0 0.39073599E+02</rscale>
<asrwt>0</asrwt>
<pdfrwt beam="1">  1        2 0.11036698E+00 0.42594755E+02</pdfrwt>
<pdfrwt beam="2">  1       -2 0.72044169E-02 0.35843524E+02</pdfrwt>
<totfact> 0.40598725E+03</totfact>
</mgrwt>
</event>
<event>
 5    1  0.8274494E-003  0.1937090E+03  0.7546771E-02  0.1373108E+00
         -2   -1    0    0    0  501 -0.00000000000E+00  0.00000000000E+00  0.28249799856E+03  0.28249799856E+03  0.00000000000E+00 0.  1.
          2   -1    0    0  502    0  0.00000000000E+00 -0.00000000000E+00 -0.97330051348E+03  0.97330051348E+03  0.00000000000E+00 0. -1.
         25    1    1    2    0    0  0.18538661786E+03  0.36458114592E+02 -0.47807214568E+03  0.52903248358E+03  0.12500000000E+03 0.  0.
          1    1    1    2  502    0 -0.47517195081E+00  0.22694504779E+02 -0.43274612852E+03  0.43334106439E+03  0.00000000000E+00 0. -1.
         -1    1    1    2    0  501 -0.18491144591E+03 -0.59152619372E+02  0.22001575928E+03  0.29342496407E+03  0.00000000000E+00 0.  1.
<mgrwt>
<rscale>  0 0.66310586E+02</rscale>
<asrwt>0</asrwt>
<pdfrwt beam="2">  1        2 0.14973854E+00 0.22699479E+02</pdfrwt>
<pdfrwt beam="1">  1       -2 0.43461231E-01 0.19370902E+03</pdfrwt>
<totfact> 0.15832711E+02</totfact>
</mgrwt>
</event>
<event>
 5    1  0.8274494E-003  0.1103961E+03  0.7546771E-02  0.1276821E+00
         -1   -1    0    0    0  501 -0.00000000000E+00  0.00000000000E+00  0.93275160396E+03  0.93275160396E+03  0.00000000000E+00 0.  1.
          1   -1    0    0  502    0  0.00000000000E+00 -0.00000000000E+00 -0.13804347214E+04  0.13804347214E+04  0.00000000000E+00 0. -1.
         25    1    1    2    0    0  0.10819984106E+03 -0.38044271246E+01 -0.23332243636E+02  0.16700620607E+03  0.12500000000E+03 0.  0.
          2    1    1    2  502    0 -0.39767245108E+02 -0.84770747332E+02 -0.12799098542E+04  0.12833303348E+04  0.00000000000E+00 0. -1.
         -2    1    1    2    0  501 -0.68432595956E+02  0.88575174457E+02  0.85555898037E+03  0.86284978450E+03  0.00000000000E+00 0.  1.
<mgrwt>
<rscale>  0 0.10167074E+03</rscale>
<asrwt>0</asrwt>
<pdfrwt beam="2">  1        1 0.21237457E+00 0.93635001E+02</pdfrwt>
<pdfrwt beam="1">  1       -1 0.14350025E+00 0.11039611E+03</pdfrwt>
<totfact> 0.43090388E+00</totfact>
</mgrwt>
</event>
<event>
 5    1  0.8274494E-003  0.4915938E+02  0.7546771E-02  0.1524102E+00
          1   -1    0    0  501    0 -0.00000000000E+00  0.00000000000E+00  0.47382932581E+03  0.47382932581E+03  0.00000000000E+00 0. -1.
          2   -1    0    0  502    0  0.00000000000E+00 -0.00000000000E+00 -0.26728440331E+02  0.26728440331E+02  0.00000000000E+00 0. -1.
         25    1    1    2    0    0  0.23098334990E+02 -0.47463746297E+02  0.33843657948E+03  0.36462399623E+03  0.12500000000E+03 0.  0.
          2    1    1    2  501    0 -0.42929851979E+02  0.25963232985E+02  0.83181789041E+02  0.97140473985E+02  0.00000000000E+00 0. -1.
          1    1    1    2  502    0  0.19831516989E+02  0.21500513312E+02  0.25482516957E+02  0.38793295932E+02  0.00000000000E+00 0. -1.
<mgrwt>
<rscale>  0 0.37919793E+02</rscale>
<asrwt>0</asrwt>
<pdfrwt beam="2">  1        2 0.41120681E-02 0.29249977E+02</pdfrwt>
<pdfrwt beam="1">  1        1 0.72896813E-01 0.49159379E+02</pdfrwt>
<totfact> 0.11022459E+04</totfact>
</mgrwt>
</event>
<event>
 5    1  0.8274494E-003  0.8461502E+02  0.7546771E-02  0.1375885E+00
          2   -1    0    0  502    0  0.00000000000E+00  0.00000000000E+00  0.58207708559E+03  0.58207708559E+03  0.00000000000E+00 0. -1.
         -2   -1    0    0    0  501 -0.00000000000E+00 -0.00000000000E+00 -0.24449844235E+03  0.24449844235E+03  0.00000000000E+00 0.  1.
         25    1    1    2    0    0  0.50945114898E+02  0.41714614737E+02  0.41704679929E+02  0.14730849990E+03  0.12500000000E+03 0.  0.
          3    1    1    2  502    0 -0.86682220490E+02 -0.56203165634E+01  0.48023975639E+03  0.48803239536E+03  0.00000000000E+00 0. -1.
         -3    1    1    2    0  501  0.35737105592E+02 -0.36094298173E+02 -0.18436579308E+03  0.19123463267E+03  0.00000000000E+00 0.  1.
<mgrwt>
<rscale>  0 0.65558058E+02</rscale>
<asrwt>0</asrwt>
<pdfrwt beam="1">  1        2 0.89550321E-01 0.84615015E+02</pdfrwt>
<pdfrwt beam="2">  1       -2 0.37615145E-01 0.50793101E+02</pdfrwt>
<totfact> 0.35505288E+02</totfact>
</mgrwt>
</event>
<event>
 5    1  0.8274494E-003  0.5613669E+02  0.7546771E-02  0.1423612E+00
          1   -1    0    0  502    0  0.00000000000E+00  0.00000000000E+00  0.66354585084E+03  0.66354585084E+03  0.00000000000E+00 0. -1.
         -1   -1    0    0    0  501 -0.00000000000E+00 -0.00000000000E+00 -0.18176779501E+03  0.18176779501E+03  0.00000000000E+00 0.  1.
         25    1    1    2    0    0  0.54900840105E+01 -0.46728898000E+01  0.18276121245E+03  0.22153698946E+03  0.12500000000E+03 0.  0.
          2    1    1    2  502    0 -0.45111455740E+02 -0.35094874221E+02  0.45470189251E+03  0.45827994140E+03  0.00000000000E+00 0. -1.
         -2    1    1    2    0  501  0.39621371729E+02  0.39767764021E+02 -0.15568504913E+03  0.16549671500E+03  0.00000000000E+00 0.  1.
<mgrwt>
<rscale>  0 0.54263911E+02</rscale>
<asrwt>0</asrwt>
<pdfrwt beam="1">  1        1 0.10208398E+00 0.52453609E+02</pdfrwt>
<pdfrwt beam="2">  1       -1 0.27964276E-01 0.56136692E+02</pdfrwt>
<totfact> 0.36529139E+02</totfact>
</mgrwt>
</event>
<event>
 5    1  0.8274494E-003  0.6993032E+02  0.7546771E-02  0.1487857E+00
          1   -1    0    0  501    0 -0.00000000000E+00  0.00000000000E+00  0.30208323897E+03  0.30208323897E+03  0.00000000000E+00 0. -1.
          2   -1    0    0  502    0  0.00000000000E+00 -0.00000000000E+00 -0.16148974526E+04  0.16148974526E+04  0.00000000000E+00 0. -1.
         25    1    1    2    0    0 -0.53989803488E+02  0.12922109914E+02 -0.69678429565E+02  0.15349906629E+03  0.12500000000E+03 0.  0.
          2    1    1    2  501    0  0.70258548575E+02  0.77736053767E+01  0.25525385460E+03  0.26486076130E+03  0.00000000000E+00 0. -1.
          1    1    1    2  502    0 -0.16268745088E+02 -0.20695715291E+02 -0.14983896387E+04  0.14986208640E+04  0.00000000000E+00 0. -1.
<mgrwt>
<rscale>  0 0.42905571E+02</rscale>
<asrwt>0</asrwt>
<pdfrwt beam="2">  1        2 0.24844576E+00 0.26324603E+02</pdfrwt>
<pdfrwt beam="1">  1        1 0.46474345E-01 0.69930324E+02</pdfrwt>
<totfact> 0.17404427E+02</totfact>
</mgrwt>
</event>
<event>
 5    1  0.8274494E-003  0.5323552E+02  0.7546771E-02  0.1453615E+00
          2   -1    0    0  502    0  0.00000000000E+00  0.00000000000E+00  0.16166161767E+04  0.16166161767E+04  0.00000000000E+00 0. -1.
          1   -1    0    0  501    0 -0.00000000000E+00 -0.00000000000E+00 -0.49576596663E+02  0.49576596663E+02  0.00000000000E+00 0. -1.
         25    1    1    2    0    0  0.42227398846E+02  0.84924532409E+02  0.58701478979E+03  0.60762380866E+03  0.12500000000E+03 0.  0.
          2    1    1    2  501    0 -0.19550275524E+02 -0.39621506622E+02 -0.26003044918E+02  0.51266318427E+02  0.00000000000E+00 0. -1.
          1    1    1    2  502    0 -0.22677123321E+02 -0.45303025787E+02  0.10060278352E+04  0.10073026463E+04  0.00000000000E+00 0. -1.
<mgrwt>
<rscale>  0 0.48498129E+02</rscale>
<asrwt>0</asrwt>
<pdfrwt beam="1">  1        2 0.24871014E+00 0.53235518E+02</pdfrwt>
<pdfrwt beam="2">  1        1 0.76271700E-02 0.44182316E+02</pdfrwt>
<totfact> 0.15008966E+03</totfact>
</mgrwt>
</event>
<event>
 5    1  0.8274494E-003  0.6365584E+02  0.7546771E-02  0.1436546E+00
          1   -1    0    0  501    0 -0.00000000000E+00  0.00000000000E+00  0.10907576990E+04  0.10907576990E+04  0.00000000000E+00 0. -1.
          2   -1    0    0  502    0  0.00000000000E+00 -0.00000000000E+00 -0.31319645013E+03  0.31319645013E+03  0.00000000000E+00 0. -1.
         25    1    1    2    0    0 -0.14080662446E+02 -0.15607716370E-01 -0.19507096802E+03  0.23211192960E+03  0.12500000000E+03 0.  0.
          2    1    1    2  501    0  0.60087403746E+01 -0.63371605558E+02  0.10609359238E+04  0.10628438737E+04  0.00000000000E+00 0. -1.
          1    1    1    2  502    0  0.80719220713E+01  0.63387213274E+02 -0.88303706954E+02  0.10899834583E+03  0.00000000000E+00 0. -1.
<mgrwt>
<rscale>  0 0.51668261E+02</rscale>
<asrwt>0</asrwt>
<pdfrwt beam="2">  1        2 0.48184070E-01 0.41938169E+02</pdfrwt>
<pdfrwt beam="1">  1        1 0.16780888E+00 0.63655835E+02</pdfrwt>
<totfact> 0.21397168E+02</totfact>
</mgrwt>
</event>
<event>
 5    1  0.8274494E-003  0.2204537E+03  0.7546771E-02  0.1171542E+00
         -2   -1    0    0    0  501 -0.00000000000E+00  0.00000000000E+00  0.80494073307E+03  0.80494073307E+03  0.00000000000E+00 0.  1.
          2   -1    0    0  502    0  0.00000000000E+00 -0.00000000000E+00 -0.89701262628E+03  0.89701262628E+03  0.00000000000E+00 0. -1.
         25    1    1    2    0    0  0.31032268625E+03 -0.17308663147E+03  0.24807541633E+03  0.45102723176E+03  0.12500000000E+03 0.  0.
          1    1    1    2  502    0 -0.18418307433E+03  0.11049820799E+03 -0.76958254516E+03  0.79899346221E+03  0.00000000000E+00 0. -1.
         -3    1    1    2    0  501 -0.12613961193E+03  0.62588423482E+02  0.42943523561E+03  0.45193266538E+03  0.00000000000E+00 0.  1.
<mgrwt>
<rscale>  0 0.17619000E+03</rscale>
<asrwt>0</asrwt>
<pdfrwt beam="2">  1        2 0.13800194E+00 0.22045374E+03</pdfrwt>
<pdfrwt beam="1">  1       -2 0.12383704E+00 0.14081375E+03</pdfrwt>
<totfact> 0.16503777E+01</totfact>
</mgrwt>
</event>
<event>
 5    1  0.8274494E-003  0.7368260E+02  0.7546771E-02  0.1396375E+00
         -2   -1    0    0    0  501 -0.00000000000E+00  0.00000000000E+00  0.42437851352E+02  0.42437851352E+02  0.00000000000E+00 0.  1.
          2   -1    0    0  502    0  0.00000000000E+00 -0.00000000000E+00 -0.98016126355E+03  0.98016126355E+03  0.00000000000E+00 0. -1.
         25    1    1    2    0    0  0.70401355083E+02  0.97010883675E+02 -0.82757108501E+03  0.84549770141E+03  0.12500000000E+03 0.  0.
          1    1    1    2  502    0 -0.33954755619E+02 -0.35918822470E+02 -0.90794754167E+02  0.10337685728E+03  0.00000000000E+00 0. -1.
         -1    1    1    2    0  501 -0.36446599464E+02 -0.61092061205E+02 -0.19357573019E+02  0.73724556207E+02  0.00000000000E+00 0.  1.
<mgrwt>
<rscale>  0 0.60348601E+02</rscale>
<asrwt>0</asrwt>
<pdfrwt beam="2">  1        2 0.15079404E+00 0.49427596E+02</pdfrwt>
<pdfrwt beam="1">  1       -2 0.65289004E-02 0.73682597E+02</pdfrwt>
<totfact> 0.34433245E+03</totfact>
</mgrwt>
</event>
<event>
 5    1  0.8274494E-003  0.8065138E+02  0.7546771E-02  0.1476469E+00
          2   -1    0    0  502    0  0.00000000000E+00  0.00000000000E+00  0.73437320174E+03  0.73437320174E+03  0.00000000000E+00 0. -1.
          1   -1    0    0  501    0 -0.00000000000E+00 -0.00000000000E+00 -0.58244057401E+03  0.58244057401E+03  0.00000000000E+00 0. -1.
         25    1    1    2    0    0 -0.95537714135E+02  0.33083740756E+02 -0.27585264454E+03  0.31928305658E+03  0.12500000000E+03 0.  0.
          2    1    1    2  501    0  0.16356774531E+02 -0.18549592966E+02 -0.28205643324E+03  0.28313859328E+03  0.00000000000E+00 0. -1.
          1    1    1    2  502    0  0.79180939604E+02 -0.14534147789E+02  0.70984170551E+03  0.71439212589E+03  0.00000000000E+00 0. -1.
<mgrwt>
<rscale>  0 0.44660990E+02</rscale>
<asrwt>0</asrwt>
<pdfrwt beam="1">  1        2 0.11298049E+00 0.80651376E+02</pdfrwt>
<pdfrwt beam="2">  1        1 0.89606242E-01 0.24731184E+02</pdfrwt>
<totfact> 0.22240066E+02</totfact>
</mgrwt>
</event>
<event>
 5    1  0.8274494E-003  0.3097850E+02  0.7546771E-02  0.1599985E+00
         -2   -1    0    0    0  501 -0.00000000000E+00  0.00000000000E+00  0.13111721880E+02  0.13111721880E+02  0.00000000000E+00 0.  1.
          2   -1    0    0  502    0  0.00000000000E+00 -0.00000000000E+00 -0.96059236286E+03  0.96059236286E+03  0.00000000000E+00 0. -1.
         25    1    1    2    0    0 -0.15327832256E+02 -0.26240361006E+02 -0.50869620735E+03  0.52470975821E+03  0.12500000000E+03 0.  0.
          1    1    1    2  502    0  0.31879666777E+02  0.27667010094E+01 -0.39701501120E+03  0.39830250678E+03  0.00000000000E+00 0. -1.
         -1    1    1    2    0  501 -0.16551834520E+02  0.23473659996E+02 -0.41769422431E+02  0.50691819753E+02  0.00000000000E+00 0.  1.
<mgrwt>
<rscale>  0 0.29829125E+02</rscale>
<asrwt>0</asrwt>
<pdfrwt beam="2">  1        2 0.14778344E+00 0.30978499E+02</pdfrwt>
<pdfrwt beam="1">  1       -2 0.20171881E-02 0.28722394E+02</pdfrwt>
<totfact> 0.17255424E+04</totfact>
</mgrwt>
</event>
<event>
 5    1  0.8274494E-003  0.4650022E+02  0.7546771E-02  0.1539318E+00
          2   -1    0    0  502    0  0.00000000000E+00  0.00000000000E+00  0.56635109094E+01  0.56635109094E+01  0.00000000000E+00 0. -1.
          1   -1    0    0  501    0 -0.00000000000E+00 -0.00000000000E+00 -0.23060299993E+04  0.23060299993E+04  0.00000000000E+00 0. -1.
         25    1    1    2    0    0 -0.33037407654E+02  0.47742749608E+01 -0.98303448471E+03  0.99151200806E+03  0.12500000000E+03 0.  0.
          2    1    1    2  501    0 -0.24853094979E+02 -0.12844030618E+02 -0.47625484928E+03  0.47707580835E+03  0.00000000000E+00 0. -1.
          1    1    1    2  502    0  0.57890502632E+02  0.80697556574E+01 -0.84107715440E+03  0.84310569379E+03  0.00000000000E+00 0. -1.
<mgrwt>
<rscale>  0 0.36067728E+02</rscale>
<asrwt>0</asrwt>
<pdfrwt beam="1">  1        2 0.87130991E-03 0.46500223E+02</pdfrwt>
<pdfrwt beam="2">  1        1 0.35477363E+00 0.27975801E+02</pdfrwt>
<totfact> 0.53076275E+03</totfact>
</mgrwt>
</event>
<event>
 5    1  0.8274494E-003  0.9195390E+02  0.7546771E-02  0.1325688E+00
         -2   -1    0    0    0  501 -0.00000000000E+00  0.00000000000E+00  0.12826085004E+03  0.12826085004E+03  0.00000000000E+00 0.  1.
          2   -1    0    0  502    0  0.00000000000E+00 -0.00000000000E+00 -0.10879058218E+04  0.10879058218E+04  0.00000000000E+00 0. -1.
         25    1    1    2    0    0 -0.23970924056E+02  0.25551087361E+02 -0.28182563822E+03  0.31028721150E+03  0.12500000000E+03 0.  0.
          1    1    1    2  502    0  0.79455388841E+02 -0.70962396318E+02 -0.77657113942E+03  0.78384408851E+03  0.00000000000E+00 0. -1.
         -1    1    1    2    0  501 -0.55484464785E+02  0.45411308957E+02  0.98751805881E+02  0.12203537183E+03  0.00000000000E+00 0.  1.
<mgrwt>
<rscale>  0 0.81197172E+02</rscale>
<asrwt>0</asrwt>
<pdfrwt beam="2">  1        2 0.16737012E+00 0.91953895E+02</pdfrwt>
<pdfrwt beam="1">  1       -2 0.19732439E-01 0.71698764E+02</pdfrwt>
<totfact> 0.50886352E+02</totfact>
</mgrwt>
</event>
<event>
 5    1  0.8274494E-003  0.1101034E+03  0.7546771E-02  0.1455196E+00
          1   -1    0    0  501    0 -0.00000000000E+00  0.00000000000E+00  0.15515138356E+04  0.15515138356E+04  0.00000000000E+00 0. -1.
          2   -1    0    0  502    0  0.00000000000E+00 -0.00000000000E+00 -0.10780157201E+04  0.10780157201E+04  0.00000000000E+00 0. -1.
         25    1    1    2    0    0 -0.12523407545E+03 -0.32287529760E+02  0.13586930466E+03  0.22541412152E+03  0.12500000000E+03 0.  0.
          2    1    1    2  501    0  0.10412459117E+03  0.32832443766E+02  0.13685900530E+04  0.13729379567E+04  0.00000000000E+00 0. -1.
          1    1    1    2  502    0  0.21109484282E+02 -0.54491400544E+00 -0.10309612421E+04  0.10311774774E+04  0.00000000000E+00 0. -1.
<mgrwt>
<rscale>  0 0.48218264E+02</rscale>
<asrwt>0</asrwt>
<pdfrwt beam="2">  1        2 0.16584857E+00 0.21116516E+02</pdfrwt>
<pdfrwt beam="1">  1        1 0.23869444E+00 0.11010344E+03</pdfrwt>
<totfact> 0.27023756E+01</totfact>
</mgrwt>
</event>
<event>
 5    1  0.8274494E-003  0.5905298E+02  0.7546771E-02  0.1411308E+00
          1   -1    0    0  501    0 -0.00000000000E+00  0.00000000000E+00  0.44109913248E+03  0.44109913248E+03  0.00000000000E+00 0. -1.
          2   -1    0    0  502    0  0.00000000000E+00 -0.00000000000E+00 -0.59797998561E+03  0.59797998561E+03  0.00000000000E+00 0. -1.
         25    1    1    2    0    0  0.34871886035E+02  0.21160008897E+01  0.20312292000E+03  0.24104863934E+03  0.12500000000E+03 0.  0.
          2    1    1    2  501    0 -0.13315204364E+02  0.53190064656E+02  0.21402691797E+03  0.22093890391E+03  0.00000000000E+00 0. -1.
          1    1    1    2  502    0 -0.21556681671E+02 -0.55306065546E+02 -0.57403069111E+03  0.57709157484E+03  0.00000000000E+00 0. -1.
<mgrwt>
<rscale>  0 0.56903031E+02</rscale>
<asrwt>0</asrwt>
<pdfrwt beam="2">  1        2 0.91996921E-01 0.59052979E+02</pdfrwt>
<pdfrwt beam="1">  1        1 0.67861405E-01 0.54831356E+02</pdfrwt>
<totfact> 0.39261367E+02</totfact>
</mgrwt>
</event>
<event>
 5    1  0.8274494E-003  0.1383500E+03  0.7546771E-02  0.1259481E+00
          1   -1    0    0  501    0 -0.00000000000E+00  0.00000000000E+00  0.89594207209E+02  0.89594207209E+02  0.00000000000E+00 0. -1.
          2   -1    0    0  502    0  0.00000000000E+00 -0.00000000000E+00 -0.11659443563E+04  0.11659443563E+04  0.00000000000E+00 0. -1.
         25    1    1    2    0    0 -0.55297159721E+02 -0.71514806755E+02 -0.67574551283E+03  0.69312996009E+03  0.12500000000E+03 0.  0.
          2    1    1    2  501    0  0.13857749764E+03  0.41868064401E+02  0.73845355927E+01  0.14495236816E+03  0.00000000000E+00 0. -1.
          1    1    1    2  502    0 -0.83280337915E+02  0.29646742354E+02 -0.40798917188E+03  0.41745623529E+03  0.00000000000E+00 0. -1.
<mgrwt>
<rscale>  0 0.11058991E+03</rscale>
<asrwt>0</asrwt>
<pdfrwt beam="2">  1        2 0.17937604E+00 0.88399910E+02</pdfrwt>
<pdfrwt beam="1">  1        1 0.13783725E-01 0.13835002E+03</pdfrwt>
<totfact> 0.12290180E+03</totfact>
</mgrwt>
</event>
<event>
 5    1  0.8274494E-003  0.5263545E+02  0.7546771E-02  0.1528603E+00
         -1   -1    0    0    0  501 -0.00000000000E+00  0.00000000000E+00  0.37887639266E+03  0.37887639266E+03  0.00000000000E+00 0.  1.
          1   -1    0    0  502    0  0.00000000000E+00 -0.00000000000E+00 -0.12085515443E+03  0.12085515443E+03  0.00000000000E+00 0. -1.
         25    1    1    2    0    0  0.28476643621E+02 -0.28008255277E+02  0.89094695662E+02  0.15861351264E+03  0.12500000000E+03 0.  0.
          2    1    1    2  502    0 -0.51647408499E+02  0.15117436666E+02 -0.76903397487E+02  0.93862262071E+02  0.00000000000E+00 0. -1.
         -2    1    1    2    0  501  0.23170764878E+02  0.12890818611E+02  0.24582994005E+03  0.24725577238E+03  0.00000000000E+00 0.  1.
<mgrwt>
<rscale>  0 0.37358282E+02</rscale>
<asrwt>0</asrwt>
<pdfrwt beam="2">  1        1 0.18593101E-01 0.52635452E+02</pdfrwt>
<pdfrwt beam="1">  1       -1 0.58288675E-01 0.26515232E+02</pdfrwt>
<totfact> 0.83870322E+02</totfact>
</mgrwt>
</event>
<event>
 5    1  0.8274494E-003  0.1322237E+03  0.7546771E-02  0.1367840E+00
          1   -1    0    0  502    0  0.00000000000E+00  0.00000000000E+00  0.19389401507E+04  0.19389401507E+04  0.00000000000E+00 0. -1.
         -1   -1    0    0    0  501 -0.00000000000E+00 -0.00000000000E+00 -0.75726719097E+02  0.75726719097E+02  0.00000000000E+00 0.  1.
         25    1    1    2    0    0 -0.16850251539E+02  0.14249696666E+03  0.20185455205E+03  0.27741589116E+03  0.12500000000E+03 0.  0.
          2    1    1    2  502    0 -0.26924400365E+02 -0.21947483734E+02  0.15902038670E+04  0.15905832119E+04  0.00000000000E+00 0. -1.
         -2    1    1    2    0  501  0.43774651904E+02 -0.12054948292E+03  0.71155012525E+02  0.14666776670E+03  0.00000000000E+00 0.  1.
<mgrwt>
<rscale>  0 0.67771459E+02</rscale>
<asrwt>0</asrwt>
<pdfrwt beam="1">  1        1 0.29829845E+00 0.34736370E+02</pdfrwt>
<pdfrwt beam="2">  1       -1 0.11650266E-01 0.13222368E+03</pdfrwt>
<totfact> 0.22036738E+02</totfact>
</mgrwt>
</event>
<event>
 5    1  0.8274494E-003  0.1383105E+03  0.7546771E-02  0.1250955E+00
          1   -1    0    0  501    0 -0.00000000000E+00  0.00000000000E+00  0.30905464247E+03  0.30905464247E+03  0.00000000000E+00 0. -1.
          2   -1    0    0  502    0  0.00000000000E+00 -0.00000000000E+00 -0.21288124375E+04  0.21288124375E+04  0.00000000000E+00 0. -1.
         25    1    1    2    0    0 -0.88814792743E+01 -0.10512856906E+03 -0.57404491993E+03  0.59689485406E+03  0.12500000000E+03 0.  0.
          2    1    1    2  501    0 -0.95651831531E+02 -0.10411621397E+02  0.28579616581E+03  0.30155782717E+03  0.00000000000E+00 0. -1.
          1    1    1    2  502    0  0.10453331081E+03  0.11554019046E+03 -0.15315090409E+04  0.15394143988E+04  0.00000000000E+00 0. -1.
<mgrwt>
<rscale>  0 0.11535941E+03</rscale>
<asrwt>0</asrwt>
<pdfrwt beam="2">  1        2 0.32750960E+00 0.13831047E+03</pdfrwt>
<pdfrwt beam="1">  1        1 0.47546869E-01 0.96216811E+02</pdfrwt>
<totfact> 0.79157102E+01</totfact>
</mgrwt>
</event>
<event>
 5    1  0.8274494E-003  0.1006949E+03  0.7546771E-02  0.1324846E+00
          2   -1    0    0  502    0  0.00000000000E+00  0.00000000000E+00  0.29852490554E+03  0.29852490554E+03  0.00000000000E+00 0. -1.
         -2   -1    0    0    0  501 -0.00000000000E+00 -0.00000000000E+00 -0.34747824491E+03  0.34747824491E+03  0.00000000000E+00 0.  1.
         25    1    1    2    0    0  0.37078643646E+02 -0.31379039646E+02 -0.12971034783E+03  0.18657235668E+03  0.12500000000E+03 0.  0.
          1    1    1    2  502    0 -0.37949318283E+02  0.97338165175E+02  0.25368122796E+03  0.27435202674E+03  0.00000000000E+00 0. -1.
         -1    1    1    2    0  501  0.87067463777E+00 -0.65959125529E+02 -0.17292421950E+03  0.18507876702E+03  0.00000000000E+00 0.  1.
<mgrwt>
<rscale>  0 0.81500471E+02</rscale>
<asrwt>0</asrwt>
<pdfrwt beam="1">  1        2 0.45926909E-01 0.10069491E+03</pdfrwt>
<pdfrwt beam="2">  1       -2 0.53458191E-01 0.65964872E+02</pdfrwt>
<totfact> 0.37119207E+02</totfact>
</mgrwt>
</event>
<event>
 5    1  0.8274494E-003  0.7261687E+02  0.7546771E-02  0.1377934E+00
          2   -1    0    0  502    0  0.00000000000E+00  0.00000000000E+00  0.30142625008E+04  0.30142625008E+04  0.00000000000E+00 0. -1.
         -2   -1    0    0    0  501 -0.00000000000E+00 -0.00000000000E+00 -0.32311053043E+03  0.32311053043E+03  0.00000000000E+00 0.  1.
         25    1    1    2    0    0  0.44076126210E+02 -0.12240589770E+03  0.86843750167E+02  0.20023172984E+03  0.12500000000E+03 0.  0.
          1    1    1    2  502    0 -0.20568369245E+02  0.69164696772E+02  0.28670868727E+04  0.28679947609E+04  0.00000000000E+00 0. -1.
         -1    1    1    2    0  501 -0.23507756965E+02  0.53241200928E+02 -0.26277865242E+03  0.26914654053E+03  0.00000000000E+00 0.  1.
<mgrwt>
<rscale>  0 0.65010013E+02</rscale>
<asrwt>0</asrwt>
<pdfrwt beam="1">  1        2 0.46373267E+00 0.72616867E+02</pdfrwt>
<pdfrwt beam="2">  1       -2 0.49709314E-01 0.58200001E+02</pdfrwt>
<totfact> 0.99019805E+00</totfact>
</mgrwt>
</event>
<event>
 5    1  0.8274494E-003  0.1288656E+03  0.7546771E-02  0.1263352E+00
          2   -1    0    0  502    0  0.00000000000E+00  0.00000000000E+00  0.91133587630E+03  0.91133587630E+03  0.00000000000E+00 0. -1.
          1   -1    0    0  501    0 -0.00000000000E+00 -0.00000000000E+00 -0.19774239038E+04  0.19774239038E+04  0.00000000000E+00 0. -1.
         25    1    1    2    0    0 -0.44555466953E+02  0.16665423435E+03  0.13208552441E+02  0.21344387862E+03  0.12500000000E+03 0.  0.
          2    1    1    2  501    0 -0.35913212065E+02 -0.12337000812E+03 -0.18724818246E+04  0.18768852126E+04  0.00000000000E+00 0. -1.
          1    1    1    2  502    0  0.80468679017E+02 -0.43284226232E+02  0.79318524470E+03  0.79843068888E+03  0.00000000000E+00 0. -1.
<mgrwt>
<rscale>  0 0.10851096E+03</rscale>
<asrwt>0</asrwt>
<pdfrwt beam="1">  1        2 0.14020552E+00 0.91371399E+02</pdfrwt>
<pdfrwt beam="2">  1        1 0.30421906E+00 0.12886557E+03</pdfrwt>
<totfact> 0.16385732E+01</totfact>
</mgrwt>
</event>
<event>
 5    1  0.8274494E-003  0.1268687E+03  0.7546771E-02  0.1401978E+00
          2   -1    0    0  502    0  0.00000000000E+00  0.00000000000E+00  0.16511803931E+04  0.16511803931E+04  0.00000000000E+00 0. -1.
          1   -1    0    0  501    0 -0.00000000000E+00 -0.00000000000E+00 -0.66396416920E+03  0.66396416920E+03  0.00000000000E+00 0. -1.
         25    1    1    2    0    0 -0.13170431242E+03 -0.77791751024E+02  0.11435431016E+03  0.22825312854E+03  0.12500000000E+03 0.  0.
          2    1    1    2  501    0  0.10624271392E+03  0.67509984077E+02 -0.60035960836E+03  0.61341402948E+03  0.00000000000E+00 0. -1.
          1    1    1    2  502    0  0.25461598497E+02  0.10281766947E+02  0.14732215222E+04  0.14734774043E+04  0.00000000000E+00 0. -1.
<mgrwt>
<rscale>  0 0.59022984E+02</rscale>
<asrwt>0</asrwt>
<pdfrwt beam="1">  1        2 0.25402775E+00 0.27459201E+02</pdfrwt>
<pdfrwt beam="2">  1        1 0.10214833E+00 0.12686868E+03</pdfrwt>
<totfact> 0.60313289E+01</totfact>
</mgrwt>
</event>
<event>
 5    1  0.8274494E-003  0.6480785E+02  0.7546771E-02  0.1420332E+00
          1   -1    0    0  501    0 -0.00000000000E+00  0.00000000000E+00  0.12844801721E+04  0.12844801721E+04  0.00000000000E+00 0. -1.
          2   -1    0    0  502    0  0.00000000000E+00 -0.00000000000E+00 -0.53419427479E+03  0.53419427479E+03  0.00000000000E+00 0. -1.
         25    1    1    2    0    0 -0.67343625373E+00  0.74121126091E+02  0.55042771236E+03  0.56928908419E+03  0.12500000000E+03 0.  0.
          2    1    1    2  501    0  0.41121981400E+02 -0.50994943586E+02  0.72210189050E+03  0.72506733611E+03  0.00000000000E+00 0. -1.
          1    1    1    2  502    0 -0.40448545146E+02 -0.23126182504E+02 -0.52224370550E+03  0.52431802663E+03  0.00000000000E+00 0. -1.
<mgrwt>
<rscale>  0 0.54950798E+02</rscale>
<asrwt>0</asrwt>
<pdfrwt beam="2">  1        2 0.82183735E-01 0.46592973E+02</pdfrwt>
<pdfrwt beam="1">  1        1 0.19761233E+00 0.64807847E+02</pdfrwt>
<totfact> 0.91693195E+01</totfact>
</mgrwt>
</event>
<event>
 5    1  0.8274494E-003  0.7959829E+02  0.7546771E-02  0.1361202E+00
          1   -1    0    0  501    0 -0.00000000000E+00  0.00000000000E+00  0.57814279403E+03  0.57814279403E+03  0.00000000000E+00 0. -1.
          2   -1    0    0  502    0  0.00000000000E+00 -0.00000000000E+00 -0.35595233069E+03  0.35595233069E+03  0.00000000000E+00 0. -1.
         25    1    1    2    0    0 -0.26889769826E+02 -0.94626628650E+02  0.48166197438E+03  0.50724798288E+03  0.12500000000E+03 0.  0.
          2    1    1    2  501    0  0.54481667204E+02  0.40236413881E+02  0.66678768987E+02  0.95043565258E+02  0.00000000000E+00 0. -1.
          1    1    1    2  502    0 -0.27591897378E+02  0.54390214769E+02 -0.32615028004E+03  0.33180357658E+03  0.00000000000E+00 0. -1.
<mgrwt>
<rscale>  0 0.69674872E+02</rscale>
<asrwt>0</asrwt>
<pdfrwt beam="2">  1        2 0.54761897E-01 0.60988591E+02</pdfrwt>
<pdfrwt beam="1">  1        1 0.88945045E-01 0.79598293E+02</pdfrwt>
<totfact> 0.47655916E+02</totfact>
</mgrwt>
</event>
<event>
 5    1  0.8274494E-003  0.1957084E+03  0.7546771E-02  0.1223580E+00
          1   -1    0    0  501    0 -0.00000000000E+00  0.00000000000E+00  0.11533272453E+04  0.11533272453E+04  0.00000000000E+00 0. -1.
          2   -1    0    0  502    0  0.00000000000E+00 -0.00000000000E+00 -0.14411948267E+04  0.14411948267E+04  0.00000000000E+00 0. -1.
         25    1    1    2    0    0  0.11427190252E+03  0.19498167037E+03  0.36747051679E+02  0.26086637440E+03  0.12500000000E+03 0.  0.
          2    1    1    2  501    0  0.42685127133E+02 -0.79126721902E+02  0.99532508077E+03  0.99937734345E+03  0.00000000000E+00 0. -1.
          1    1    1    2  502    0 -0.15695702965E+03 -0.11585494847E+03 -0.13199397138E+04  0.13342783541E+04  0.00000000000E+00 0. -1.
<mgrwt>
<rscale>  0 0.13264738E+03</rscale>
<asrwt>0</asrwt>
<pdfrwt beam="2">  1        2 0.22172228E+00 0.19570843E+03</pdfrwt>
<pdfrwt beam="1">  1        1 0.17743496E+00 0.89905830E+02</pdfrwt>
<totfact> 0.27739518E+01</totfact>
</mgrwt>
</event>
<event>
 5    1  0.8274494E-003  0.4015932E+02  0.7546771E-02  0.1514350E+00
         -1   -1    0    0    0  501 -0.00000000000E+00  0.00000000000E+00  0.94086329296E+03  0.94086329296E+03  0.00000000000E+00 0.  1.
          1   -1    0    0  502    0  0.00000000000E+00 -0.00000000000E+00 -0.17684558075E+02  0.17684558075E+02  0.00000000000E+00 0. -1.
         25    1    1    2    0    0  0.38202997335E+01 -0.17609708846E+01  0.77302688994E+03  0.78307934993E+03  0.12500000000E+03 0.  0.
          2    1    1    2  502    0 -0.34448288328E+02  0.24624130178E+02  0.37686100858E+02  0.56685752651E+02  0.00000000000E+00 0.  1.
         -2    1    1    2    0  501  0.30627988594E+02 -0.22863159294E+02  0.11246574409E+03  0.11878274846E+03  0.00000000000E+00 0. -1.
<mgrwt>
<rscale>  0 0.39177859E+02</rscale>
<asrwt>0</asrwt>
<pdfrwt beam="2">  1        1 0.27207020E-02 0.40159320E+02</pdfrwt>
<pdfrwt beam="1">  1       -1 0.14474816E+00 0.38220384E+02</pdfrwt>
<totfact> 0.14729237E+03</totfact>
</mgrwt>
</event>
<event>
 5    1  0.8274494E-003  0.4264177E+02  0.7546771E-02  0.1506352E+00
          2   -1    0    0  502    0  0.00000000000E+00  0.00000000000E+00  0.97309142473E+02  0.97309142473E+02  0.00000000000E+00 0. -1.
          1   -1    0    0  501    0 -0.00000000000E+00 -0.00000000000E+00 -0.16272107126E+04  0.16272107126E+04  0.00000000000E+00 0. -1.
         25    1    1    2    0    0  0.11822480356E+02  0.47649424243E+02 -0.10063207744E+04  0.10152422074E+04  0.12500000000E+03 0.  0.
          2    1    1    2  501    0 -0.38706126660E+02 -0.20793598767E+02 -0.61172001415E+03  0.61329594301E+03  0.00000000000E+00 0. -1.
          1    1    1    2  502    0  0.26883646304E+02 -0.26855825476E+02  0.88139218448E+02  0.95981704659E+02  0.00000000000E+00 0. -1.
<mgrwt>
<rscale>  0 0.40253795E+02</rscale>
<asrwt>0</asrwt>
<pdfrwt beam="1">  1        2 0.14970638E-01 0.37999550E+02</pdfrwt>
<pdfrwt beam="2">  1        1 0.25034010E+00 0.42641769E+02</pdfrwt>
<totfact> 0.34483446E+02</totfact>
</mgrwt>
</event>
<event>
 5    1  0.8274494E-003  0.5638787E+02  0.7546771E-02  0.1432872E+00
          2   -1    0    0  502    0  0.00000000000E+00  0.00000000000E+00  0.35026987551E+03  0.35026987551E+03  0.00000000000E+00 0. -1.
          1   -1    0    0  501    0 -0.00000000000E+00 -0.00000000000E+00 -0.34794530430E+03  0.34794530430E+03  0.00000000000E+00 0. -1.
         25    1    1    2    0    0  0.17201247950E+02 -0.27901833184E+02  0.14073939490E+03  0.19106797875E+03  0.12500000000E+03 0.  0.
          2    1    1    2  501    0 -0.56987286725E+02 -0.13335472333E+00 -0.31698295709E+03  0.32206484396E+03  0.00000000000E+00 0. -1.
          1    1    1    2  502    0  0.39786038775E+02  0.28035187907E+02  0.17856813340E+03  0.18508235710E+03  0.00000000000E+00 0. -1.
<mgrwt>
<rscale>  0 0.52387726E+02</rscale>
<asrwt>0</asrwt>
<pdfrwt beam="1">  1        2 0.53887673E-01 0.48671353E+02</pdfrwt>
<pdfrwt beam="2">  1        1 0.53530047E-01 0.56387868E+02</pdfrwt>
<totfact> 0.91929883E+02</totfact>
</mgrwt>
</event>
<event>
 5    1  0.8274494E-003  0.1549585E+03  0.7546771E-02  0.1289470E+00
          1   -1    0    0  501    0 -0.00000000000E+00  0.00000000000E+00  0.33167087651E+03  0.33167087651E+03  0.00000000000E+00 0. -1.
          2   -1    0    0  502    0  0.00000000000E+00 -0.00000000000E+00 -0.98834883579E+03  0.98834883579E+03  0.00000000000E+00 0. -1.
         25    1    1    2    0    0  0.11958607555E+02  0.10668743302E+03 -0.47197804048E+02  0.17139967727E+03  0.12500000000E+03 0.  0.
          2    1    1    2  501    0 -0.10508951194E+02 -0.16584861904E+03  0.24283472537E+03  0.29425313310E+03  0.00000000000E+00 0. -1.
          1    1    1    2  502    0 -0.14496563612E+01  0.59161186019E+02 -0.85231488060E+03  0.85436690194E+03  0.00000000000E+00 0. -1.
<mgrwt>
<rscale>  0 0.95761576E+02</rscale>
<asrwt>0</asrwt>
<pdfrwt beam="2">  1        2 0.15205367E+00 0.59178944E+02</pdfrwt>
<pdfrwt beam="1">  1        1 0.51026289E-01 0.15495848E+03</pdfrwt>
<totfact> 0.30444467E+02</totfact>
</mgrwt>
</event>
<event>
 5    1  0.8274494E-003  0.8329917E+02  0.7546771E-02  0.1330124E+00
          1   -1    0    0  501    0 -0.00000000000E+00  0.00000000000E+00  0.75173972779E+03  0.75173972779E+03  0.00000000000E+00 0. -1.
          2   -1    0    0  502    0  0.00000000000E+00 -0.00000000000E+00 -0.20082215526E+04  0.20082215526E+04  0.00000000000E+00 0. -1.
         25    1    1    2    0    0 -0.13906355446E+03  0.30397464463E+02 -0.12006795143E+03  0.22428551221E+03  0.12500000000E+03 0.  0.
          2    1    1    2  501    0  0.65596194037E+02 -0.50277771929E+02  0.69639756551E+03  0.70128473837E+03  0.00000000000E+00 0. -1.
          1    1    1    2  502    0  0.73467360427E+02  0.19880307466E+02 -0.18328114389E+04  0.18343910298E+04  0.00000000000E+00 0. -1.
<mgrwt>
<rscale>  0 0.79623307E+02</rscale>
<asrwt>0</asrwt>
<pdfrwt beam="2">  1        2 0.30895716E+00 0.76109656E+02</pdfrwt>
<pdfrwt beam="1">  1        1 0.11565227E+00 0.83299167E+02</pdfrwt>
<totfact> 0.30941854E+01</totfact>
</mgrwt>
</event>
<event>
 5    1  0.8274494E-003  0.1494492E+03  0.7546771E-02  0.1328386E+00
          1   -1    0    0  501    0 -0.00000000000E+00  0.00000000000E+00  0.22906142254E+04  0.22906142254E+04  0.00000000000E+00 0. -1.
          2   -1    0    0  502    0  0.00000000000E+00 -0.00000000000E+00 -0.60124660887E+03  0.60124660887E+03  0.00000000000E+00 0. -1.
         25    1    1    2    0    0 -0.74294298956E+02  0.17654908662E+03  0.58866126908E+03  0.63153488625E+03  0.12500000000E+03 0.  0.
          2    1    1    2  501    0  0.12331421907E+02 -0.41273221457E+02  0.16706881751E+04  0.16712434057E+04  0.00000000000E+00 0. -1.
          1    1    1    2  502    0  0.61962877050E+02 -0.13527586516E+03 -0.56998182763E+03  0.58908254231E+03  0.00000000000E+00 0. -1.
<mgrwt>
<rscale>  0 0.80235120E+02</rscale>
<asrwt>0</asrwt>
<pdfrwt beam="2">  1        2 0.92499479E-01 0.14944918E+03</pdfrwt>
<pdfrwt beam="1">  1        1 0.35240218E+00 0.43076012E+02</pdfrwt>
<totfact> 0.19678574E+01</totfact>
</mgrwt>
</event>
<event>
 5    1  0.8274494E-003  0.1559334E+03  0.7546771E-02  0.1338798E+00
         -1   -1    0    0    0  501 -0.00000000000E+00  0.00000000000E+00  0.50548608687E+03  0.50548608687E+03  0.00000000000E+00 0.  1.
          1   -1    0    0  502    0  0.00000000000E+00 -0.00000000000E+00 -0.39423444272E+03  0.39423444272E+03  0.00000000000E+00 0. -1.
         25    1    1    2    0    0 -0.17521603541E+03  0.36548279107E+02  0.25742436033E+03  0.33753331252E+03  0.12500000000E+03 0.  0.
          2    1    1    2  502    0  0.37665304439E+02 -0.13688276478E+01 -0.32874988636E+03  0.33090336449E+03  0.00000000000E+00 0. -1.
         -2    1    1    2    0  501  0.13755073097E+03 -0.35179451459E+02  0.18257717017E+03  0.23128385258E+03  0.00000000000E+00 0.  1.
<mgrwt>
<rscale>  0 0.76662605E+02</rscale>
<asrwt>0</asrwt>
<pdfrwt beam="2">  1        1 0.60651453E-01 0.37690169E+02</pdfrwt>
<pdfrwt beam="1">  1       -1 0.77767090E-01 0.15593337E+03</pdfrwt>
<totfact> 0.11235234E+02</totfact>
</mgrwt>
</event>
<event>
 5    1  0.8274494E-003  0.6711086E+02  0.7546771E-02  0.1418007E+00
          1   -1    0    0  501    0 -0.00000000000E+00  0.00000000000E+00  0.57877800094E+03  0.57877800094E+03  0.00000000000E+00 0. -1.
          2   -1    0    0  502    0  0.00000000000E+00 -0.00000000000E+00 -0.15582900202E+04  0.15582900202E+04  0.00000000000E+00 0. -1.
         25    1    1    2    0    0 -0.10468680542E+03  0.10472622439E+02 -0.10177958469E+03  0.19249178400E+03  0.12500000000E+03 0.  0.
          2    1    1    2  501    0  0.65353756656E+02  0.13004544374E+02  0.53096715685E+03  0.53513208962E+03  0.00000000000E+00 0. -1.
          3    1    1    2  502    0  0.39333048762E+02 -0.23477166814E+02 -0.14086995914E+04  0.14094441475E+04  0.00000000000E+00 0. -1.
<mgrwt>
<rscale>  0 0.55444892E+02</rscale>
<asrwt>0</asrwt>
<pdfrwt beam="2">  1        2 0.23973693E+00 0.45806834E+02</pdfrwt>
<pdfrwt beam="1">  1        1 0.89042770E-01 0.67110859E+02</pdfrwt>
<totfact> 0.78269453E+01</totfact>
</mgrwt>
</event>
<event>
 5    1  0.8274494E-003  0.7805506E+02  0.7546771E-02  0.1401347E+00
          2   -1    0    0  502    0  0.00000000000E+00  0.00000000000E+00  0.15613945257E+04  0.15613945257E+04  0.00000000000E+00 0. -1.
         -2   -1    0    0    0  501 -0.00000000000E+00 -0.00000000000E+00 -0.29268683269E+02  0.29268683269E+02  0.00000000000E+00 0.  1.
         25    1    1    2    0    0  0.11775638069E+03 -0.43889251713E+00  0.11037862856E+04  0.11170657645E+04  0.12500000000E+03 0.  0.
          1    1    1    2  502    0 -0.43016751623E+02  0.12707647245E+02  0.38238442555E+03  0.38500620011E+03  0.00000000000E+00 0. -1.
         -1    1    1    2    0  501 -0.74739629065E+02 -0.12268754728E+02  0.45955131275E+02  0.88591244408E+02  0.00000000000E+00 0.  1.
<mgrwt>
<rscale>  0 0.59170261E+02</rscale>
<asrwt>0</asrwt>
<pdfrwt beam="1">  1        2 0.24021448E+00 0.44854489E+02</pdfrwt>
<pdfrwt beam="2">  1       -2 0.45028756E-02 0.78055059E+02</pdfrwt>
<totfact> 0.30193010E+03</totfact>
</mgrwt>
</event>
<event>
 5    1  0.8274494E-003  0.4339568E+02  0.7546771E-02  0.1558065E+00
          1   -1    0    0  501    0 -0.00000000000E+00  0.00000000000E+00  0.10933176164E+04  0.10933176164E+04  0.00000000000E+00 0. -1.
          2   -1    0    0  502    0  0.00000000000E+00 -0.00000000000E+00 -0.27341576125E+02  0.27341576125E+02  0.00000000000E+00 0. -1.
         25    1    1    2    0    0  0.83426877357E+01 -0.63257302294E+02  0.22794124954E+03  0.26768134035E+03  0.12500000000E+03 0.  0.
          2    1    1    2  501    0  0.44984804288E+01  0.26187205545E+02  0.79220277410E+03  0.79264824566E+03  0.00000000000E+00 0. -1.
          1    1    1    2  502    0 -0.12841168165E+02  0.37070096750E+02  0.45832016644E+02  0.60329606517E+02  0.00000000000E+00 0. -1.
<mgrwt>
<rscale>  0 0.33956692E+02</rscale>
<asrwt>0</asrwt>
<pdfrwt beam="2">  1        2 0.42063972E-02 0.43395684E+02</pdfrwt>
<pdfrwt beam="1">  1        1 0.16820268E+00 0.26570775E+02</pdfrwt>
<totfact> 0.36300527E+03</totfact>
</mgrwt>
</event>
<event>
 5    1  0.8274494E-003  0.9907976E+02  0.7546771E-02  0.1398458E+00
          1   -1    0    0  501    0 -0.00000000000E+00  0.00000000000E+00  0.20600313686E+04  0.20600313686E+04  0.00000000000E+00 0. -1.
          2   -1    0    0  502    0  0.00000000000E+00 -0.00000000000E+00 -0.97315401670E+02  0.97315401670E+02  0.00000000000E+00 0. -1.
         25    1    1    2    0    0  0.63259013630E+02  0.83177139272E+02  0.10184905709E+03  0.19214153568E+03  0.12500000000E+03 0.  0.
          2    1    1    2  501    0 -0.29011338732E+02 -0.94762437783E+02  0.19053258358E+04  0.19079014959E+04  0.00000000000E+00 0. -1.
          1    1    1    2  502    0 -0.34247674898E+02  0.11585298511E+02 -0.44458925940E+02  0.57303738737E+02  0.00000000000E+00 0. -1.
<mgrwt>
<rscale>  0 0.59851017E+02</rscale>
<asrwt>0</asrwt>
<pdfrwt beam="2">  1        2 0.14971602E-01 0.36154147E+02</pdfrwt>
<pdfrwt beam="1">  1        1 0.31692787E+00 0.99079758E+02</pdfrwt>
<totfact> 0.16755322E+02</totfact>
</mgrwt>
</event>
<event>
 5    1  0.8274494E-003  0.4481436E+02  0.7546771E-02  0.1580391E+00
         -1   -1    0    0    0  501 -0.00000000000E+00  0.00000000000E+00  0.32499518175E+03  0.32499518175E+03  0.00000000000E+00 0.  1.
          1   -1    0    0  502    0  0.00000000000E+00 -0.00000000000E+00 -0.13404068042E+04  0.13404068042E+04  0.00000000000E+00 0. -1.
         25    1    1    2    0    0 -0.35405150523E+02  0.39529106077E+02  0.54907262403E+02  0.14647826588E+03  0.12500000000E+03 0.  0.
          2    1    1    2  502    0 -0.55075894609E+01 -0.21684090620E+02 -0.12923029733E+04  0.12924966183E+04  0.00000000000E+00 0. -1.
         -2    1    1    2    0  501  0.40912739984E+02 -0.17845015457E+02  0.22198408851E+03  0.22642710178E+03  0.00000000000E+00 0.  1.
<mgrwt>
<rscale>  0 0.31664078E+02</rscale>
<asrwt>0</asrwt>
<pdfrwt beam="2">  1        1 0.20621643E+00 0.22372602E+02</pdfrwt>
<pdfrwt beam="1">  1       -1 0.49999259E-01 0.44814358E+02</pdfrwt>
<totfact> 0.48267146E+01</totfact>
</mgrwt>
</event>
<event>
 5    1  0.8274494E-003  0.7909729E+02  0.7546771E-02  0.1355879E+00
          2   -1    0    0  502    0  0.00000000000E+00  0.00000000000E+00  0.77461875296E+02  0.77461875296E+02  0.00000000000E+00 0. -1.
         -2   -1    0    0    0  501 -0.00000000000E+00 -0.00000000000E+00 -0.33373202260E+03  0.33373202260E+03  0.00000000000E+00 0.  1.
         25    1    1    2    0    0  0.52264860898E+02 -0.96728164236E+02 -0.77273262387E+02  0.18353231465E+03  0.12500000000E+03 0.  0.
          3    1    1    2  502    0  0.49470607232E+01  0.67624491968E+02 -0.52298986863E+02  0.85631357285E+02  0.00000000000E+00 0. -1.
         -3    1    1    2    0  501 -0.57211921621E+02  0.29103672268E+02 -0.12669789806E+03  0.14203022596E+03  0.00000000000E+00 0.  1.
<mgrwt>
<rscale>  0 0.71254305E+02</rscale>
<asrwt>0</asrwt>
<pdfrwt beam="1">  1        2 0.11917212E-01 0.79097290E+02</pdfrwt>
<pdfrwt beam="2">  1       -2 0.51343388E-01 0.64189000E+02</pdfrwt>
<totfact> 0.17647127E+03</totfact>
</mgrwt>
</event>
<event>
 5    1  0.8274494E-003  0.8804651E+02  0.7546771E-02  0.1346546E+00
          2   -1    0    0  502    0  0.00000000000E+00  0.00000000000E+00  0.29199425313E+04  0.29199425313E+04  0.00000000000E+00 0. -1.
          1   -1    0    0  501    0 -0.00000000000E+00 -0.00000000000E+00 -0.53135677921E+02  0.53135677921E+02  0.00000000000E+00 0. -1.
         25    1    1    2    0    0 -0.18078713439E+02 -0.42713028621E+02  0.61790923058E+02  0.14695019859E+03  0.12500000000E+03 0.  0.
          2    1    1    2  501    0  0.67163078493E+02  0.11580826040E+03  0.45061100673E+03  0.47007734648E+03  0.00000000000E+00 0. -1.
          1    1    1    2  502    0 -0.49084365054E+02 -0.73095231780E+02  0.23544049236E+04  0.23560506641E+04  0.00000000000E+00 0. -1.
<mgrwt>
<rscale>  0 0.74142937E+02</rscale>
<asrwt>0</asrwt>
<pdfrwt beam="1">  1        2 0.44922180E+00 0.88046509E+02</pdfrwt>
<pdfrwt beam="2">  1        1 0.81747220E-02 0.62434901E+02</pdfrwt>
<totfact> 0.28523134E+02</totfact>
</mgrwt>
</event>
<event>
 5    1  0.8274494E-003  0.1878836E+03  0.7546771E-02  0.1262654E+00
         -2   -1    0    0    0  501  0.00000000000E+00  0.00000000000E+00  0.71915137208E+03  0.71915137208E+03  0.00000000000E+00 0.  1.
         -1   -1    0    0    0  502 -0.00000000000E+00 -0.00000000000E+00 -0.35614977223E+03  0.35614977223E+03  0.00000000000E+00 0.  1.
         25    1    1    2    0    0  0.16230414428E+03  0.76459554712E+02 -0.16806919315E+03  0.27579150176E+03  0.12500000000E+03 0.  0.
         -2    1    1    2    0  502  0.25751934290E+02 -0.57604922901E+02 -0.11237632392E+03  0.12887950745E+03  0.00000000000E+00 0.  1.
         -1    1    1    2    0  501 -0.18805607857E+03 -0.18854631811E+02  0.64344711693E+03  0.67063013510E+03  0.00000000000E+00 0.  1.
<mgrwt>
<rscale>  0 0.10888195E+03</rscale>
<asrwt>0</asrwt>
<pdfrwt beam="1">  1       -2 0.11063867E+00 0.18788364E+03</pdfrwt>
<pdfrwt beam="2">  1       -1 0.54792273E-01 0.63099043E+02</pdfrwt>
<totfact> 0.18036546E+01</totfact>
</mgrwt>
</event>
<event>
 5    1  0.8274494E-003  0.1604142E+03  0.7546771E-02  0.1304091E+00
          1   -1    0    0  501    0 -0.00000000000E+00  0.00000000000E+00  0.15424989206E+04  0.15424989206E+04  0.00000000000E+00 0. -1.
          2   -1    0    0  502    0  0.00000000000E+00 -0.00000000000E+00 -0.17038655558E+04  0.17038655558E+04  0.00000000000E+00 0. -1.
         25    1    1    2    0    0  0.10327596827E+03 -0.54123831464E+02 -0.27030218432E+02  0.17306342035E+03  0.12500000000E+03 0.  0.
          2    1    1    2  501    0 -0.13157121203E+03  0.95254828450E+02  0.14646027966E+04  0.14735826472E+04  0.00000000000E+00 0. -1.
          1    1    1    2  502    0  0.28295243761E+02 -0.41130996987E+02 -0.15989392133E+04  0.15997184089E+04  0.00000000000E+00 0. -1.
<mgrwt>
<rscale>  0 0.89490089E+02</rscale>
<asrwt>0</asrwt>
<pdfrwt beam="2">  1        2 0.26213316E+00 0.49923739E+02</pdfrwt>
<pdfrwt beam="1">  1        1 0.23730753E+00 0.16041419E+03</pdfrwt>
<totfact> 0.12062901E+01</totfact>
</mgrwt>
</event>
<event>
 5    1  0.8274494E-003  0.4037177E+02  0.7546771E-02  0.1590846E+00
          2   -1    0    0  502    0  0.00000000000E+00  0.00000000000E+00  0.13171443634E+03  0.13171443634E+03  0.00000000000E+00 0. -1.
         -2   -1    0    0    0  501 -0.00000000000E+00 -0.00000000000E+00 -0.89990266026E+02  0.89990266026E+02  0.00000000000E+00 0.  1.
         25    1    1    2    0    0  0.24071752049E+02  0.14396574279E+02  0.53510668187E+02  0.13883480186E+03  0.12500000000E+03 0.  0.
          1    1    1    2  502    0 -0.26712853362E+02 -0.37539338487E+02  0.13968043257E+02  0.48144415057E+02  0.00000000000E+00 0. -1.
         -1    1    1    2    0  501  0.26411013132E+01  0.23142764208E+02 -0.25754541126E+02  0.34725485453E+02  0.00000000000E+00 0.  1.
<mgrwt>
<rscale>  0 0.30665597E+02</rscale>
<asrwt>0</asrwt>
<pdfrwt beam="1">  1        2 0.20263760E-01 0.40371768E+02</pdfrwt>
<pdfrwt beam="2">  1       -2 0.13844656E-01 0.23292981E+02</pdfrwt>
<totfact> 0.85400278E+03</totfact>
</mgrwt>
</event>
<event>
 5    1  0.8274494E-003  0.5100702E+02  0.7546771E-02  0.1454821E+00
          1   -1    0    0  501    0 -0.00000000000E+00  0.00000000000E+00  0.59819233406E+03  0.59819233406E+03  0.00000000000E+00 0. -1.
          2   -1    0    0  502    0  0.00000000000E+00 -0.00000000000E+00 -0.10142349201E+04  0.10142349201E+04  0.00000000000E+00 0. -1.
         25    1    1    2    0    0 -0.21984488694E+02  0.52022261840E+02 -0.35500736447E+02  0.14168604645E+03  0.12500000000E+03 0.  0.
          2    1    1    2  501    0 -0.23270440929E+02 -0.45609404286E+02  0.54333104847E+03  0.54573836168E+03  0.00000000000E+00 0. -1.
          1    1    1    2  502    0  0.45254929623E+02 -0.64128575537E+01 -0.92387289807E+03  0.92500284604E+03  0.00000000000E+00 0. -1.
<mgrwt>
<rscale>  0 0.48284362E+02</rscale>
<asrwt>0</asrwt>
<pdfrwt beam="2">  1        2 0.15603614E+00 0.45707039E+02</pdfrwt>
<pdfrwt beam="1">  1        1 0.92029590E-01 0.51007016E+02</pdfrwt>
<totfact> 0.14436825E+02</totfact>
</mgrwt>
</event>
<event>
 5    1  0.1421217E-002  0.4836054E+02  0.7546771E-02  0.1468934E+00
          2   -1    0    0  502    0  0.00000000000E+00  0.00000000000E+00  0.21004128147E+04  0.21004128147E+04  0.00000000000E+00 0. -1.
          1   -1    0    0  501    0 -0.00000000000E+00 -0.00000000000E+00 -0.61149592523E+03  0.61149592523E+03  0.00000000000E+00 0. -1.
         25    1    1    2    0    0 -0.17236513640E+02 -0.23038977591E+01 -0.34696876792E+02  0.13088651041E+03  0.12500000000E+03 0.  0.
          2    1    1    2  501    0 -0.10172749745E+02  0.42317159489E+02 -0.52752138212E+03  0.52931374006E+03  0.00000000000E+00 0. -1.
          1    1    1    2  502    0  0.27409263385E+02 -0.40013261730E+02  0.20511351484E+04  0.20517084895E+04  0.00000000000E+00 0. -1.
<mgrwt>
<rscale>  0 0.45877903E+02</rscale>
<asrwt>0</asrwt>
<pdfrwt beam="1">  1        2 0.32314043E+00 0.48360539E+02</pdfrwt>
<pdfrwt beam="2">  1        1 0.94076297E-01 0.43522716E+02</pdfrwt>
<totfact> 0.40028381E+01</totfact>
</mgrwt>
</event>
<event>
 5    1  0.8274494E-003  0.1086174E+03  0.7546771E-02  0.1317641E+00
         -2   -1    0    0    0  501 -0.00000000000E+00  0.00000000000E+00  0.57259244088E+03  0.57259244088E+03  0.00000000000E+00 0.  1.
          2   -1    0    0  502    0  0.00000000000E+00 -0.00000000000E+00 -0.57416913302E+03  0.57416913302E+03  0.00000000000E+00 0. -1.
         25    1    1    2    0    0 -0.12514079357E+03  0.53646250207E+02  0.29732259227E+03  0.35009121990E+03  0.12500000000E+03 0.  0.
          1    1    1    2  502    0  0.67763325740E+02 -0.84635283525E+02 -0.53801051261E+03  0.54882630332E+03  0.00000000000E+00 0. -1.
         -1    1    1    2    0  501  0.57377467827E+02  0.30989033318E+02  0.23911122821E+03  0.24784405067E+03  0.00000000000E+00 0.  1.
<mgrwt>
<rscale>  0 0.84160933E+02</rscale>
<asrwt>0</asrwt>
<pdfrwt beam="2">  1        2 0.88333713E-01 0.10861736E+03</pdfrwt>
<pdfrwt beam="1">  1       -2 0.88091145E-01 0.65211149E+02</pdfrwt>
<totfact> 0.65026030E+01</totfact>
</mgrwt>
</event>
<event>
 5    1  0.8274494E-003  0.1683125E+03  0.7546771E-02  0.1227734E+00
          1   -1    0    0  501    0 -0.00000000000E+00  0.00000000000E+00  0.11670192504E+04  0.11670192504E+04  0.00000000000E+00 0. -1.
          2   -1    0    0  502    0  0.00000000000E+00 -0.00000000000E+00 -0.20628429538E+04  0.20628429538E+04  0.00000000000E+00 0. -1.
         25    1    1    2    0    0 -0.11230558317E+03 -0.95224499034E+02 -0.81659384376E+02  0.20969860344E+03  0.12500000000E+03 0.  0.
          2    1    1    2  501    0  0.16995740463E+03  0.13370470178E+02  0.10950926145E+04  0.11082834128E+04  0.00000000000E+00 0. -1.
          1    1    1    2  502    0 -0.57651821458E+02  0.81854028856E+02 -0.19092569336E+04  0.19118801879E+04  0.00000000000E+00 0. -1.
<mgrwt>
<rscale>  0 0.12981250E+03</rscale>
<asrwt>0</asrwt>
<pdfrwt beam="2">  1        2 0.31736045E+00 0.10011900E+03</pdfrwt>
<pdfrwt beam="1">  1        1 0.17954142E+00 0.16831255E+03</pdfrwt>
<totfact> 0.13202515E+01</totfact>
</mgrwt>
</event>
<event>
 5    1  0.8274494E-003  0.4565570E+02  0.7546771E-02  0.1517489E+00
         -2   -1    0    0    0  501 -0.00000000000E+00  0.00000000000E+00  0.72557245397E+02  0.72557245397E+02  0.00000000000E+00 0.  1.
          2   -1    0    0  502    0  0.00000000000E+00 -0.00000000000E+00 -0.23058721267E+04  0.23058721267E+04  0.00000000000E+00 0. -1.
         25    1    1    2    0    0 -0.13649353764E+02 -0.10738714172E+02 -0.50864021561E+03  0.52406249034E+03  0.12500000000E+03 0.  0.
          1    1    1    2  502    0  0.46351113977E+02  0.69802075382E+01 -0.17850158724E+04  0.17856312088E+04  0.00000000000E+00 0. -1.
         -1    1    1    2    0  501 -0.32701760213E+02  0.37585066336E+01  0.60341206783E+02  0.68735672901E+02  0.00000000000E+00 0.  1.
<mgrwt>
<rscale>  0 0.38766615E+02</rscale>
<asrwt>0</asrwt>
<pdfrwt beam="2">  1        2 0.35474962E+00 0.45655698E+02</pdfrwt>
<pdfrwt beam="1">  1       -2 0.11162651E-01 0.32917040E+02</pdfrwt>
<totfact> 0.31012040E+02</totfact>
</mgrwt>
</event>
<event>
 5    1  0.8274494E-003  0.9520087E+02  0.7546771E-02  0.1336771E+00
          1   -1    0    0  502    0  0.00000000000E+00  0.00000000000E+00  0.18132497591E+04  0.18132497591E+04  0.00000000000E+00 0. -1.
         -3   -1    0    0    0  501 -0.00000000000E+00 -0.00000000000E+00 -0.50387864052E+02  0.50387864052E+02  0.00000000000E+00 0.  1.
         25    1    1    2    0    0  0.90147268778E+02 -0.74446974467E+02  0.62299732438E+03  0.64608014074E+03  0.12500000000E+03 0.  0.
          2    1    1    2  502    0 -0.93396087437E+02  0.11699085347E+02  0.11500585522E+04  0.11539039697E+04  0.00000000000E+00 0. -1.
         -2    1    1    2    0  501  0.32488186598E+01  0.62747889120E+02 -0.10193981615E+02  0.63653512652E+02  0.00000000000E+00 0.  1.
<mgrwt>
<rscale>  0 0.77341159E+02</rscale>
<asrwt>0</asrwt>
<pdfrwt beam="1">  1        1 0.27896145E+00 0.95200865E+02</pdfrwt>
<pdfrwt beam="2">  1       -3 0.77519805E-02 0.62831938E+02</pdfrwt>
<totfact> 0.26424840E+02</totfact>
</mgrwt>
</event>
<event>
 5    1  0.8274494E-003  0.1470724E+03  0.7546771E-02  0.1284681E+00
          1   -1    0    0  501    0 -0.00000000000E+00  0.00000000000E+00  0.18099688825E+04  0.18099688825E+04  0.00000000000E+00 0. -1.
          2   -1    0    0  502    0  0.00000000000E+00 -0.00000000000E+00 -0.29826566290E+03  0.29826566290E+03  0.00000000000E+00 0. -1.
         25    1    1    2    0    0 -0.12436491344E+03  0.15633051113E+02  0.21742202440E+03  0.28037182575E+03  0.12500000000E+03 0.  0.
          2    1    1    2  501    0 -0.17931595449E+02 -0.62712554306E+02  0.15392757227E+04  0.15406570537E+04  0.00000000000E+00 0. -1.
          1    1    1    2  502    0  0.14229650889E+03  0.47079503193E+02 -0.24499452749E+03  0.28720566596E+03  0.00000000000E+00 0. -1.
<mgrwt>
<rscale>  0 0.97943430E+02</rscale>
<asrwt>0</asrwt>
<pdfrwt beam="2">  1        2 0.45887026E-01 0.14707238E+03</pdfrwt>
<pdfrwt beam="1">  1        1 0.27845674E+00 0.65225812E+02</pdfrwt>
<totfact> 0.78709856E+01</totfact>
</mgrwt>
</event>
<event>
 5    1  0.8274494E-003  0.1448898E+03  0.7546771E-02  0.1224344E+00
          2   -1    0    0  502    0  0.00000000000E+00  0.00000000000E+00  0.20683532862E+04  0.20683532862E+04  0.00000000000E+00 0. -1.
          1   -1    0    0  501    0 -0.00000000000E+00 -0.00000000000E+00 -0.13744180906E+04  0.13744180906E+04  0.00000000000E+00 0. -1.
         25    1    1    2    0    0 -0.21452072556E+03  0.10663777627E+03  0.31876115780E+02  0.27208793391E+03  0.12500000000E+03 0.  0.
          2    1    1    2  501    0  0.71685965442E+02 -0.96826754256E+02 -0.12487349927E+04  0.12545331323E+04  0.00000000000E+00 0. -1.
          1    1    1    2  502    0  0.14283476012E+03 -0.98110220167E+01  0.19107940726E+04  0.19161503105E+04  0.00000000000E+00 0. -1.
<mgrwt>
<rscale>  0 0.13211978E+03</rscale>
<asrwt>0</asrwt>
<pdfrwt beam="1">  1        2 0.31820820E+00 0.14488975E+03</pdfrwt>
<pdfrwt beam="2">  1        1 0.21144894E+00 0.12047530E+03</pdfrwt>
<totfact> 0.93709189E+00</totfact>
</mgrwt>
</event>
<event>
 5    1  0.8274494E-003  0.8322948E+02  0.7546771E-02  0.1329056E+00
          2   -1    0    0  502    0  0.00000000000E+00  0.00000000000E+00  0.25539307294E+03  0.25539307294E+03  0.00000000000E+00 0. -1.
         -2   -1    0    0    0  501 -0.00000000000E+00 -0.00000000000E+00 -0.69310811606E+03  0.69310811606E+03  0.00000000000E+00 0.  1.
         25    1    1    2    0    0  0.82020655432E+02 -0.10527786997E+03 -0.11502625754E+03  0.21602513221E+03  0.12500000000E+03 0.  0.
          1    1    1    2  502    0 -0.60331012597E+01  0.76655415528E+02  0.19439795425E+03  0.20905266240E+03  0.00000000000E+00 0. -1.
         -1    1    1    2    0  501 -0.75987554173E+02  0.28622454444E+02 -0.51708673982E+03  0.52342339438E+03  0.00000000000E+00 0.  1.
<mgrwt>
<rscale>  0 0.79998248E+02</rscale>
<asrwt>0</asrwt>
<pdfrwt beam="1">  1        2 0.39291242E-01 0.76892464E+02</pdfrwt>
<pdfrwt beam="2">  1       -2 0.10663202E+00 0.83229479E+02</pdfrwt>
<totfact> 0.99212354E+01</totfact>
</mgrwt>
</event>
<event>
 5    1  0.8274494E-003  0.7223789E+02  0.7546771E-02  0.1431032E+00
          1   -1    0    0  501    0 -0.00000000000E+00  0.00000000000E+00  0.32147094304E+03  0.32147094304E+03  0.00000000000E+00 0. -1.
          2   -1    0    0  502    0  0.00000000000E+00 -0.00000000000E+00 -0.94309837121E+03  0.94309837121E+03  0.00000000000E+00 0. -1.
         25    1    1    2    0    0  0.10740744977E+02 -0.36598598575E+02 -0.17090894679E+03  0.21515038720E+03  0.12500000000E+03 0.  0.
          2    1    1    2  501    0  0.17332456478E+01  0.73047575668E+02  0.29438638675E+03  0.30331880449E+03  0.00000000000E+00 0. -1.
          1    1    1    2  502    0 -0.12473990625E+02 -0.36448977093E+02 -0.74510486814E+03  0.74610012257E+03  0.00000000000E+00 0. -1.
<mgrwt>
<rscale>  0 0.52753392E+02</rscale>
<asrwt>0</asrwt>
<pdfrwt beam="2">  1        2 0.14509205E+00 0.38524387E+02</pdfrwt>
<pdfrwt beam="1">  1        1 0.49457070E-01 0.72237889E+02</pdfrwt>
<totfact> 0.34439333E+02</totfact>
</mgrwt>
</event>
<event>
 5    1  0.8274494E-003  0.1065224E+03  0.7546771E-02  0.1396121E+00
          1   -1    0    0  501    0 -0.00000000000E+00  0.00000000000E+00  0.23143292422E+03  0.23143292422E+03  0.00000000000E+00 0. -1.
          2   -1    0    0  502    0  0.00000000000E+00 -0.00000000000E+00 -0.35900853782E+03  0.35900853782E+03  0.00000000000E+00 0. -1.
         25    1    1    2    0    0  0.66487373484E+02  0.91255426933E+02  0.69663458245E+02  0.18228033682E+03  0.12500000000E+03 0.  0.
          2    1    1    2  501    0 -0.33303956423E+02 -0.99770668889E+02  0.77905743589E+02  0.13089172918E+03  0.00000000000E+00 0. -1.
          3    1    1    2  502    0 -0.33183417061E+02  0.85152419561E+01 -0.27514481544E+03  0.27726939603E+03  0.00000000000E+00 0. -1.
<mgrwt>
<rscale>  0 0.60409478E+02</rscale>
<asrwt>0</asrwt>
<pdfrwt beam="2">  1        2 0.55232083E-01 0.34258554E+02</pdfrwt>
<pdfrwt beam="1">  1        1 0.35605065E-01 0.10652245E+03</pdfrwt>
<totfact> 0.14717211E+03</totfact>
</mgrwt>
</event>
<event>
 5    1  0.8274494E-003  0.3066069E+02  0.7546771E-02  0.1649719E+00
         -2   -1    0    0    0  501 -0.00000000000E+00  0.00000000000E+00  0.57519788916E+03  0.57519788916E+03  0.00000000000E+00 0.  1.
          2   -1    0    0  502    0  0.00000000000E+00 -0.00000000000E+00 -0.62436907206E+03  0.62436907206E+03  0.00000000000E+00 0. -1.
         25    1    1    2    0    0 -0.20503254015E+02 -0.16137969538E+02  0.12147239812E+02  0.12827070173E+03  0.12500000000E+03 0.  0.
          1    1    1    2  502    0  0.16315398160E+02 -0.14331795676E+02 -0.56563048812E+03  0.56604720799E+03  0.00000000000E+00 0. -1.
         -1    1    1    2    0  501  0.41878558551E+01  0.30469765214E+02  0.50431206541E+03  0.50524905151E+03  0.00000000000E+00 0.  1.
<mgrwt>
<rscale>  0 0.25803744E+02</rscale>
<asrwt>0</asrwt>
<pdfrwt beam="2">  1        2 0.96056781E-01 0.21716183E+02</pdfrwt>
<pdfrwt beam="1">  1       -2 0.88491983E-01 0.30660692E+02</pdfrwt>
<totfact> 0.61540858E+01</totfact>
</mgrwt>
</event>
<event>
 5    1  0.8274494E-003  0.1138075E+03  0.7546771E-02  0.1440788E+00
          2   -1    0    0  502    0  0.00000000000E+00  0.00000000000E+00  0.83126657449E+02  0.83126657449E+02  0.00000000000E+00 0. -1.
          1   -1    0    0  501    0 -0.00000000000E+00 -0.00000000000E+00 -0.13892272243E+04  0.13892272243E+04  0.00000000000E+00 0. -1.
         25    1    1    2    0    0 -0.46695971606E+02  0.10333197020E+03 -0.36576076263E+03  0.40281999120E+03  0.12500000000E+03 0.  0.
          2    1    1    2  501    0  0.25433747473E+02 -0.11135030592E+03 -0.99958021850E+03  0.10060846780E+04  0.00000000000E+00 0. -1.
          1    1    1    2  502    0  0.21262224133E+02  0.80183357292E+01  0.59240414293E+02  0.63449212513E+02  0.00000000000E+00 0. -1.
<mgrwt>
<rscale>  0 0.50854209E+02</rscale>
<asrwt>0</asrwt>
<pdfrwt beam="1">  1        2 0.12788717E-01 0.22723906E+02</pdfrwt>
<pdfrwt beam="2">  1        1 0.21372726E+00 0.11380749E+03</pdfrwt>
<totfact> 0.50735627E+02</totfact>
</mgrwt>
</event>
<event>
 5    1  0.8274494E-003  0.7610987E+02  0.7546771E-02  0.1404891E+00
          1   -1    0    0  501    0 -0.00000000000E+00  0.00000000000E+00  0.16028293932E+03  0.16028293932E+03  0.00000000000E+00 0. -1.
          2   -1    0    0  502    0  0.00000000000E+00 -0.00000000000E+00 -0.25700804483E+03  0.25700804483E+03  0.00000000000E+00 0. -1.
         25    1    1    2    0    0  0.35920119417E+02 -0.28284482174E+02 -0.85288874863E+02  0.15808054620E+03  0.12500000000E+03 0.  0.
          2    1    1    2  501    0 -0.32868253830E+02  0.72913917921E+02  0.10643513480E+03  0.13313601863E+03  0.00000000000E+00 0. -1.
          1    1    1    2  502    0 -0.30518655870E+01 -0.44629435747E+02 -0.11787136544E+03  0.12607441933E+03  0.00000000000E+00 0. -1.
<mgrwt>
<rscale>  0 0.58349576E+02</rscale>
<asrwt>0</asrwt>
<pdfrwt beam="2">  1        2 0.39539699E-01 0.44733661E+02</pdfrwt>
<pdfrwt beam="1">  1        1 0.24658914E-01 0.76109869E+02</pdfrwt>
<totfact> 0.32316513E+03</totfact>
</mgrwt>
</event>
<event>
 5    1  0.8274494E-003  0.6817744E+02  0.7546771E-02  0.1411285E+00
          2   -1    0    0  502    0  0.00000000000E+00  0.00000000000E+00  0.14224825536E+04  0.14224825536E+04  0.00000000000E+00 0. -1.
         -2   -1    0    0    0  501 -0.00000000000E+00 -0.00000000000E+00 -0.16541925567E+03  0.16541925567E+03  0.00000000000E+00 0.  1.
         25    1    1    2    0    0  0.80265538874E+02  0.68119117529E+02  0.12669364884E+03  0.20678261910E+03  0.12500000000E+03 0.  0.
          1    1    1    2  502    0 -0.63125520805E+02 -0.23817897471E+02  0.12503027311E+04  0.12521218163E+04  0.00000000000E+00 0. -1.
         -1    1    1    2    0  501 -0.17140018069E+02 -0.44301220059E+02 -0.11993308196E+03  0.12899737387E+03  0.00000000000E+00 0.  1.
<mgrwt>
<rscale>  0 0.56908000E+02</rscale>
<asrwt>0</asrwt>
<pdfrwt beam="1">  1        2 0.21884346E+00 0.68177439E+02</pdfrwt>
<pdfrwt beam="2">  1       -2 0.25449117E-01 0.47501351E+02</pdfrwt>
<totfact> 0.22061845E+02</totfact>
</mgrwt>
</event>
<event>
 5    1  0.8274494E-003  0.1147497E+03  0.7546771E-02  0.1333564E+00
          1   -1    0    0  501    0 -0.00000000000E+00  0.00000000000E+00  0.49476386061E+02  0.49476386061E+02  0.00000000000E+00 0. -1.
          2   -1    0    0  502    0  0.00000000000E+00 -0.00000000000E+00 -0.19049331839E+04  0.19049331839E+04  0.00000000000E+00 0. -1.
         25    1    1    2    0    0  0.10725340704E+03 -0.24926316155E+02 -0.26437764824E+03  0.31248224821E+03  0.12500000000E+03 0.  0.
          2    1    1    2  501    0 -0.93669555970E+02  0.76784167617E+02 -0.12214424541E+03  0.17201456566E+03  0.00000000000E+00 0. -1.
          1    1    1    2  502    0 -0.13583851068E+02 -0.51857851461E+02 -0.14689349042E+04  0.14699127561E+04  0.00000000000E+00 0. -1.
<mgrwt>
<rscale>  0 0.78431086E+02</rscale>
<asrwt>0</asrwt>
<pdfrwt beam="2">  1        2 0.29306657E+00 0.53607441E+02</pdfrwt>
<pdfrwt beam="1">  1        1 0.76117535E-02 0.11474965E+03</pdfrwt>
<totfact> 0.11736568E+03</totfact>
</mgrwt>
</event>
<event>
 5    1  0.8274494E-003  0.7149467E+02  0.7546771E-02  0.1359882E+00
          2   -1    0    0  502    0  0.00000000000E+00  0.00000000000E+00  0.83732764008E+03  0.83732764008E+03  0.00000000000E+00 0. -1.
          1   -1    0    0  501    0 -0.00000000000E+00 -0.00000000000E+00 -0.72775225984E+02  0.72775225984E+02  0.00000000000E+00 0. -1.
         25    1    1    2    0    0  0.23036454410E+02 -0.13177668088E+02  0.86990567194E+02  0.15458553603E+03  0.12500000000E+03 0.  0.
          2    1    1    2  501    0 -0.90799787884E+02  0.24225632040E+02  0.22191716912E+02  0.96560628762E+02  0.00000000000E+00 0. -1.
          1    1    1    2  502    0  0.67763333474E+02 -0.11047963953E+02  0.65537012999E+03  0.65895670127E+03  0.00000000000E+00 0. -1.
<mgrwt>
<rscale>  0 0.70062000E+02</rscale>
<asrwt>0</asrwt>
<pdfrwt beam="1">  1        2 0.12881963E+00 0.68658043E+02</pdfrwt>
<pdfrwt beam="2">  1        1 0.11196189E-01 0.71494666E+02</pdfrwt>
<totfact> 0.24509486E+03</totfact>
</mgrwt>
</event>
<event>
 5    1  0.8274494E-003  0.7643812E+02  0.7546771E-02  0.1355133E+00
          2   -1    0    0  502    0  0.00000000000E+00  0.00000000000E+00  0.19482677622E+04  0.19482677622E+04  0.00000000000E+00 0. -1.
          1   -1    0    0  501    0 -0.00000000000E+00 -0.00000000000E+00 -0.56269617551E+03  0.56269617551E+03  0.00000000000E+00 0. -1.
         25    1    1    2    0    0 -0.72180183634E+01 -0.12419609858E+03  0.96559662015E+03  0.98156945935E+03  0.12500000000E+03 0.  0.
          2    1    1    2  501    0  0.39211778481E+02  0.65507424911E+02 -0.55092824446E+03  0.55619305716E+03  0.00000000000E+00 0. -1.
          1    1    1    2  502    0 -0.31993760117E+02  0.58688673665E+02  0.97090321104E+03  0.97320142124E+03  0.00000000000E+00 0. -1.
<mgrwt>
<rscale>  0 0.71479640E+02</rscale>
<asrwt>0</asrwt>
<pdfrwt beam="1">  1        2 0.29973350E+00 0.66842809E+02</pdfrwt>
<pdfrwt beam="2">  1        1 0.86568643E-01 0.76438125E+02</pdfrwt>
<totfact> 0.50130930E+01</totfact>
</mgrwt>
</event>
<event>
 5    1  0.8274494E-003  0.1223306E+03  0.7546771E-02  0.1420191E+00
          1   -1    0    0  502    0  0.00000000000E+00  0.00000000000E+00  0.80986195305E+02  0.80986195305E+02  0.00000000000E+00 0. -1.
         -1   -1    0    0    0  501 -0.00000000000E+00 -0.00000000000E+00 -0.40562384647E+03  0.40562384647E+03  0.00000000000E+00 0.  1.
         25    1    1    2    0    0 -0.16561395343E+02 -0.13124564927E+03 -0.75213258320E+02  0.19693078605E+03  0.12500000000E+03 0.  0.
          2    1    1    2  502    0 -0.18601492899E+02  0.16266531903E+02 -0.25452672989E+02  0.35474697468E+02  0.00000000000E+00 0. -1.
         -2    1    1    2    0  501  0.35162888242E+02  0.11497911737E+03 -0.22397171986E+03  0.25420455825E+03  0.00000000000E+00 0.  1.
<mgrwt>
<rscale>  0 0.54980604E+02</rscale>
<asrwt>0</asrwt>
<pdfrwt beam="1">  1        1 0.12459415E-01 0.24710637E+02</pdfrwt>
<pdfrwt beam="2">  1       -1 0.62403667E-01 0.12233059E+03</pdfrwt>
<totfact> 0.11346140E+03</totfact>
</mgrwt>
</event>
<event>
 5    1  0.8274494E-003  0.9906521E+02  0.7546771E-02  0.1294076E+00
          2   -1    0    0  502    0  0.00000000000E+00  0.00000000000E+00  0.98733449524E+03  0.98733449524E+03  0.00000000000E+00 0. -1.
         -2   -1    0    0    0  501 -0.00000000000E+00 -0.00000000000E+00 -0.78293639321E+03  0.78293639321E+03  0.00000000000E+00 0.  1.
         25    1    1    2    0    0 -0.16964852858E+03 -0.75931163752E+02  0.13627904155E+03  0.26218913411E+03  0.12500000000E+03 0.  0.
          1    1    1    2  502    0  0.83307163517E+02  0.30370781403E+02  0.78227486587E+03  0.78728421401E+03  0.00000000000E+00 0. -1.
         -1    1    1    2    0  501  0.86341365065E+02  0.45560382348E+02 -0.71415580540E+03  0.72079754033E+03  0.00000000000E+00 0.  1.
<mgrwt>
<rscale>  0 0.93723892E+02</rscale>
<asrwt>0</asrwt>
<pdfrwt beam="1">  1        2 0.15189761E+00 0.88670558E+02</pdfrwt>
<pdfrwt beam="2">  1       -2 0.12045175E+00 0.99065214E+02</pdfrwt>
<totfact> 0.16398221E+01</totfact>
</mgrwt>
</event>
<event>
 5    1  0.8274494E-003  0.1561626E+03  0.7546771E-02  0.1249312E+00
         -3   -1    0    0    0  501 -0.00000000000E+00  0.00000000000E+00  0.20095032928E+03  0.20095032928E+03  0.00000000000E+00 0.  1.
          1   -1    0    0  502    0  0.00000000000E+00 -0.00000000000E+00 -0.18132259246E+04  0.18132259246E+04  0.00000000000E+00 0. -1.
         25    1    1    2    0    0 -0.23159503631E+01  0.76208329106E+02 -0.41146933394E+03  0.43674373015E+03  0.12500000000E+03 0.  0.
          2    1    1    2  502    0  0.31977151884E+00  0.86626573637E+02 -0.13522661929E+04  0.13550380518E+04  0.00000000000E+00 0. -1.
         -2    1    1    2    0  501  0.19961788443E+01 -0.16283490274E+03  0.15145993150E+03  0.22239447190E+03  0.00000000000E+00 0.  1.
<mgrwt>
<rscale>  0 0.11630961E+03</rscale>
<asrwt>0</asrwt>
<pdfrwt beam="2">  1        1 0.27895784E+00 0.86627164E+02</pdfrwt>
<pdfrwt beam="1">  1       -3 0.30915435E-01 0.15616264E+03</pdfrwt>
<totfact> 0.27495649E+01</totfact>
</mgrwt>
</event>
<event>
 5    1  0.8274494E-003  0.1074111E+03  0.7546771E-02  0.1333091E+00
          2   -1    0    0  502    0  0.00000000000E+00  0.00000000000E+00  0.14083592545E+03  0.14083592545E+03  0.00000000000E+00 0. -1.
          1   -1    0    0  501    0 -0.00000000000E+00 -0.00000000000E+00 -0.14243699694E+04  0.14243699694E+04  0.00000000000E+00 0. -1.
         25    1    1    2    0    0  0.71219705139E+02 -0.41011956187E+02 -0.69771228084E+02  0.16506741416E+03  0.12500000000E+03 0.  0.
          2    1    1    2  501    0 -0.52879674954E+02  0.95516508846E+02 -0.12955583524E+04  0.13001504175E+04  0.00000000000E+00 0. -1.
          1    1    1    2  502    0 -0.18340030186E+02 -0.54504552660E+02  0.81795536606E+02  0.99988063170E+02  0.00000000000E+00 0. -1.
<mgrwt>
<rscale>  0 0.78593493E+02</rscale>
<asrwt>0</asrwt>
<pdfrwt beam="1">  1        2 0.21667066E-01 0.57507417E+02</pdfrwt>
<pdfrwt beam="2">  1        1 0.21913384E+00 0.10741114E+03</pdfrwt>
<totfact> 0.28590639E+02</totfact>
</mgrwt>
</event>
<event>
 5    1  0.8274494E-003  0.1147795E+03  0.7546771E-02  0.1406582E+00
         -1   -1    0    0    0  501 -0.00000000000E+00  0.00000000000E+00  0.64396135062E+02  0.64396135062E+02  0.00000000000E+00 0.  1.
          1   -1    0    0  502    0  0.00000000000E+00 -0.00000000000E+00 -0.21048828153E+04  0.21048828153E+04  0.00000000000E+00 0. -1.
         25    1    1    2    0    0 -0.12929263066E+03  0.49023947693E+02 -0.81049074827E+03  0.83164907553E+03  0.12500000000E+03 0.  0.
          2    1    1    2  502    0  0.10420820683E+03 -0.33937535572E+02 -0.12773045936E+04  0.12819977112E+04  0.00000000000E+00 0. -1.
         -2    1    1    2    0  501  0.25084423832E+02 -0.15086412122E+02  0.47308661709E+02  0.55632163560E+02  0.00000000000E+00 0.  1.
<mgrwt>
<rscale>  0 0.57963644E+02</rscale>
<asrwt>0</asrwt>
<pdfrwt beam="2">  1        1 0.32382819E+00 0.11477955E+03</pdfrwt>
<pdfrwt beam="1">  1       -1 0.99070957E-02 0.29271627E+02</pdfrwt>
<totfact> 0.16974385E+02</totfact>
</mgrwt>
</event>
<event>
 5    1  0.8274494E-003  0.1713685E+03  0.7546771E-02  0.1387482E+00
          2   -1    0    0  502    0  0.00000000000E+00  0.00000000000E+00  0.12548773834E+04  0.12548773834E+04  0.00000000000E+00 0. -1.
          1   -1    0    0  501    0 -0.00000000000E+00 -0.00000000000E+00 -0.60814014849E+02  0.60814014849E+02  0.00000000000E+00 0. -1.
         25    1    1    2    0    0 -0.47673652224E+02 -0.15395458885E+03  0.59970323166E+03  0.63343804638E+03  0.12500000000E+03 0.  0.
          2    1    1    2  501    0  0.69694101632E+02  0.15994867620E+03  0.13061630297E+03  0.21794830906E+03  0.00000000000E+00 0. -1.
          1    1    1    2  502    0 -0.22020449408E+02 -0.59940873519E+01  0.46374383391E+03  0.46430504279E+03  0.00000000000E+00 0. -1.
<mgrwt>
<rscale>  0 0.62537334E+02</rscale>
<asrwt>0</asrwt>
<pdfrwt beam="1">  1        2 0.19305804E+00 0.22821684E+02</pdfrwt>
<pdfrwt beam="2">  1        1 0.93560032E-02 0.17136852E+03</pdfrwt>
<totfact> 0.20442877E+03</totfact>
</mgrwt>
</event>
<event>
 5    1  0.8274494E-003  0.1302198E+03  0.7546771E-02  0.1408453E+00
         -2   -1    0    0    0  501 -0.00000000000E+00  0.00000000000E+00  0.31210425967E+02  0.31210425967E+02  0.00000000000E+00 0.  1.
          2   -1    0    0  502    0  0.00000000000E+00 -0.00000000000E+00 -0.11004404286E+04  0.11004404286E+04  0.00000000000E+00 0. -1.
         25    1    1    2    0    0 -0.69964359786E+02  0.12045466993E+03 -0.73231262384E+03  0.75585125401E+03  0.12500000000E+03 0.  0.
          1    1    1    2  502    0  0.25358150574E+02 -0.18485277383E+01 -0.14259661637E+02  0.29151171595E+02  0.00000000000E+00 0.  1.
         -1    1    1    2    0  501  0.44606209211E+02 -0.11860614219E+03 -0.32265771717E+03  0.34664842898E+03  0.00000000000E+00 0. -1.
<mgrwt>
<rscale>  0 0.57540378E+02</rscale>
<asrwt>0</asrwt>
<pdfrwt beam="2">  1        2 0.16929852E+00 0.25425437E+02</pdfrwt>
<pdfrwt beam="1">  1       -2 0.48016043E-02 0.13021979E+03</pdfrwt>
<totfact> 0.51283840E+03</totfact>
</mgrwt>
</event>
<event>
 5    1  0.8274494E-003  0.1349452E+03  0.7546771E-02  0.1283967E+00
          1   -1    0    0  501    0 -0.00000000000E+00  0.00000000000E+00  0.54044268661E+03  0.54044268661E+03  0.00000000000E+00 0. -1.
          2   -1    0    0  502    0  0.00000000000E+00 -0.00000000000E+00 -0.19335116138E+04  0.19335116138E+04  0.00000000000E+00 0. -1.
         25    1    1    2    0    0 -0.16337308929E+03  0.43434295246E+02  0.50488875577E+02  0.21622079194E+03  0.12500000000E+03 0.  0.
          2    1    1    2  501    0  0.58620283693E+02  0.41058047438E+02  0.40147230609E+03  0.40780156139E+03  0.00000000000E+00 0. -1.
          1    1    1    2  502    0  0.10475280560E+03 -0.84492342683E+02 -0.18450301088E+04  0.18499319471E+04  0.00000000000E+00 0. -1.
<mgrwt>
<rscale>  0 0.98274474E+02</rscale>
<asrwt>0</asrwt>
<pdfrwt beam="2">  1        2 0.29746332E+00 0.13494518E+03</pdfrwt>
<pdfrwt beam="1">  1        1 0.83145029E-01 0.71568854E+02</pdfrwt>
<totfact> 0.49971072E+01</totfact>
</mgrwt>
</event>
<event>
 5    1  0.8274494E-003  0.5760180E+02  0.7546771E-02  0.1510575E+00
          2   -1    0    0  502    0  0.00000000000E+00  0.00000000000E+00  0.84103439441E+03  0.84103439441E+03  0.00000000000E+00 0. -1.
         -2   -1    0    0    0  501 -0.00000000000E+00 -0.00000000000E+00 -0.63046675142E+02  0.63046675142E+02  0.00000000000E+00 0.  1.
         25    1    1    2    0    0 -0.31867749794E+02  0.18906238549E+02  0.12198480383E+03  0.17854492907E+03  0.12500000000E+03 0.  0.
          1    1    1    2  502    0  0.57741796220E+02 -0.10088986145E+02  0.68394187259E+03  0.68644911520E+03  0.00000000000E+00 0. -1.
         -1    1    1    2    0  501 -0.25874046426E+02 -0.88172524035E+01 -0.27938957153E+02  0.39087025279E+02  0.00000000000E+00 0.  1.
<mgrwt>
<rscale>  0 0.39680646E+02</rscale>
<asrwt>0</asrwt>
<pdfrwt beam="1">  1        2 0.12938990E+00 0.57601802E+02</pdfrwt>
<pdfrwt beam="2">  1       -2 0.96994891E-02 0.27335146E+02</pdfrwt>
<totfact> 0.20830546E+03</totfact>
</mgrwt>
</event>
<event>
 5    1  0.8274494E-003  0.1710726E+03  0.7546771E-02  0.1397568E+00
         -2   -1    0    0    0  501 -0.00000000000E+00  0.00000000000E+00  0.26433440668E+03  0.26433440668E+03  0.00000000000E+00 0.  1.
          2   -1    0    0  502    0  0.00000000000E+00 -0.00000000000E+00 -0.82067948495E+03  0.82067948495E+03  0.00000000000E+00 0. -1.
         25    1    1    2    0    0  0.17154765387E+03  0.11507826215E+02  0.10632501856E+03  0.23767843231E+03  0.12500000000E+03 0.  0.
          1    1    1    2  502    0 -0.16801714375E+03 -0.32298056700E+02 -0.74394691233E+03  0.76336749566E+03  0.00000000000E+00 0. -1.
         -1    1    1    2    0  501 -0.35305101237E+01  0.20790230485E+02  0.81276815501E+02  0.83967963673E+02  0.00000000000E+00 0.  1.
<mgrwt>
<rscale>  0 0.60062933E+02</rscale>
<asrwt>0</asrwt>
<pdfrwt beam="2">  1        2 0.12625838E+00 0.17107258E+03</pdfrwt>
<pdfrwt beam="1">  1       -2 0.40666833E-01 0.21087868E+02</pdfrwt>
<totfact> 0.19664983E+02</totfact>
</mgrwt>
</event>
<event>
 5    1  0.8274494E-003  0.6144215E+02  0.7546771E-02  0.1439297E+00
         -2   -1    0    0    0  501 -0.00000000000E+00  0.00000000000E+00  0.36738339672E+03  0.36738339672E+03  0.00000000000E+00 0.  1.
          2   -1    0    0  502    0  0.00000000000E+00 -0.00000000000E+00 -0.11764746646E+04  0.11764746646E+04  0.00000000000E+00 0. -1.
         25    1    1    2    0    0  0.23588367702E+02  0.51085156011E+02 -0.22240336049E+03  0.26125535212E+03  0.12500000000E+03 0.  0.
          1    1    1    2  502    0  0.33081888737E+02 -0.26779317860E+02 -0.93142364555E+03  0.93239559775E+03  0.00000000000E+00 0. -1.
         -1    1    1    2    0  501 -0.56670256439E+02 -0.24305838151E+02  0.34473573816E+03  0.35020711143E+03  0.00000000000E+00 0.  1.
<mgrwt>
<rscale>  0 0.51138195E+02</rscale>
<asrwt>0</asrwt>
<pdfrwt beam="2">  1        2 0.18099610E+00 0.42562228E+02</pdfrwt>
<pdfrwt beam="1">  1       -2 0.56520522E-01 0.61442154E+02</pdfrwt>
<totfact> 0.70736874E+01</totfact>
</mgrwt>
</event>
<event>
 5    1  0.8274494E-003  0.8313735E+02  0.7546771E-02  0.1445647E+00
         -2   -1    0    0    0  501 -0.00000000000E+00  0.00000000000E+00  0.30991739753E+03  0.30991739753E+03  0.00000000000E+00 0.  1.
          2   -1    0    0  502    0  0.00000000000E+00 -0.00000000000E+00 -0.14230515355E+04  0.14230515355E+04  0.00000000000E+00 0. -1.
         25    1    1    2    0    0 -0.42051156294E+01 -0.11035151438E+03 -0.69074451360E+03  0.71059701856E+03  0.12500000000E+03 0.  0.
          1    1    1    2  502    0  0.11418594465E+02  0.27744966360E+02 -0.71633067767E+03  0.71695872073E+03  0.00000000000E+00 0. -1.
         -1    1    1    2    0  501 -0.72134788353E+01  0.82606548018E+02  0.29394105334E+03  0.30541319370E+03  0.00000000000E+00 0.  1.
<mgrwt>
<rscale>  0 0.49943493E+02</rscale>
<asrwt>0</asrwt>
<pdfrwt beam="2">  1        2 0.21893100E+00 0.30002791E+02</pdfrwt>
<pdfrwt beam="1">  1       -2 0.47679600E-01 0.83137349E+02</pdfrwt>
<totfact> 0.76348477E+01</totfact>
</mgrwt>
</event>
<event>
 5    1  0.8274494E-003  0.4844695E+02  0.7546771E-02  0.1568263E+00
          2   -1    0    0  502    0  0.00000000000E+00  0.00000000000E+00  0.12683924614E+03  0.12683924614E+03  0.00000000000E+00 0. -1.
         -2   -1    0    0    0  501 -0.00000000000E+00 -0.00000000000E+00 -0.10557698743E+03  0.10557698743E+03  0.00000000000E+00 0.  1.
         25    1    1    2    0    0  0.23833634466E+02 -0.21503567374E+02 -0.16966774180E+02  0.13016649710E+03  0.12500000000E+03 0.  0.
          3    1    1    2  502    0 -0.25975422172E+02  0.43717303384E+02  0.54569232385E+02  0.74590390100E+02  0.00000000000E+00 0. -1.
         -3    1    1    2    0  501  0.21417877060E+01 -0.22213736010E+02 -0.16340199499E+02  0.27659346373E+02  0.00000000000E+00 0.  1.
<mgrwt>
<rscale>  0 0.32881280E+02</rscale>
<asrwt>0</asrwt>
<pdfrwt beam="1">  1        2 0.19513730E-01 0.48446954E+02</pdfrwt>
<pdfrwt beam="2">  1       -2 0.16242614E-01 0.22316750E+02</pdfrwt>
<totfact> 0.69805900E+03</totfact>
</mgrwt>
</event>
<event>
 5    1  0.8274494E-003  0.1407747E+03  0.7546771E-02  0.1340083E+00
         -1   -1    0    0    0  501 -0.00000000000E+00  0.00000000000E+00  0.13195203210E+03  0.13195203210E+03  0.00000000000E+00 0.  1.
          1   -1    0    0  502    0  0.00000000000E+00 -0.00000000000E+00 -0.71102882049E+03  0.71102882049E+03  0.00000000000E+00 0. -1.
         25    1    1    2    0    0 -0.14765687232E+03  0.95224580658E+02 -0.31012754254E+03  0.37772260370E+03  0.12500000000E+03 0.  0.
          2    1    1    2  502    0  0.28312606670E+02 -0.30048988050E+02 -0.31802388012E+03  0.32069258442E+03  0.00000000000E+00 0. -1.
         -2    1    1    2    0  501  0.11934426565E+03 -0.65175592608E+02  0.49074634264E+02  0.14456566447E+03  0.00000000000E+00 0.  1.
<mgrwt>
<rscale>  0 0.76236772E+02</rscale>
<asrwt>0</asrwt>
<pdfrwt beam="2">  1        1 0.10938905E+00 0.41286140E+02</pdfrwt>
<pdfrwt beam="1">  1       -1 0.20300313E-01 0.14077473E+03</pdfrwt>
<totfact> 0.57919355E+02</totfact>
</mgrwt>
</event>
<event>
 5    1  0.8274494E-003  0.1165390E+03  0.7546771E-02  0.1330474E+00
          1   -1    0    0  501    0 -0.00000000000E+00  0.00000000000E+00  0.78249719420E+02  0.78249719420E+02  0.00000000000E+00 0. -1.
          2   -1    0    0  502    0  0.00000000000E+00 -0.00000000000E+00 -0.15024363003E+04  0.15024363003E+04  0.00000000000E+00 0. -1.
         25    1    1    2    0    0  0.99618989397E+02  0.78346407547E+02 -0.25556368878E+03  0.31144807215E+03  0.12500000000E+03 0.  0.
          2    1    1    2  501    0  0.14074195634E+02 -0.52376028428E+02  0.31995675916E+02  0.62968679627E+02  0.00000000000E+00 0. -1.
          1    1    1    2  502    0 -0.11369318503E+03 -0.25970379119E+02 -0.12006185681E+04  0.12062692680E+04  0.00000000000E+00 0. -1.
<mgrwt>
<rscale>  0 0.79500829E+02</rscale>
<asrwt>0</asrwt>
<pdfrwt beam="2">  1        2 0.23114407E+00 0.11653901E+03</pdfrwt>
<pdfrwt beam="1">  1        1 0.12038417E-01 0.54234042E+02</pdfrwt>
<totfact> 0.90513949E+02</totfact>
</mgrwt>
</event>
<event>
 5    1  0.8274494E-003  0.2790345E+03  0.7546771E-02  0.1257758E+00
          2   -1    0    0  502    0  0.00000000000E+00  0.00000000000E+00  0.21479114604E+04  0.21479114604E+04  0.00000000000E+00 0. -1.
         -2   -1    0    0    0  501 -0.00000000000E+00 -0.00000000000E+00 -0.21809465332E+03  0.21809465332E+03  0.00000000000E+00 0.  1.
         25    1    1    2    0    0 -0.22819796506E+03  0.87506236194E+02  0.38771675037E+03  0.47505887124E+03  0.12500000000E+03 0.  0.
          1    1    1    2  502    0 -0.43368133670E+02  0.10325622845E+02  0.15965783089E+04  0.15972005854E+04  0.00000000000E+00 0. -1.
         -1    1    1    2    0  501  0.27156609873E+03 -0.97831859039E+02 -0.54478252150E+02  0.29374665714E+03  0.00000000000E+00 0.  1.
<mgrwt>
<rscale>  0 0.11153238E+03</rscale>
<asrwt>0</asrwt>
<pdfrwt beam="1">  1        2 0.33044790E+00 0.44580416E+02</pdfrwt>
<pdfrwt beam="2">  1       -2 0.33553025E-01 0.27903447E+03</pdfrwt>
<totfact> 0.64348391E+01</totfact>
</mgrwt>
</event>
<event>
 5    1  0.8274494E-003  0.1096927E+03  0.7546771E-02  0.1264016E+00
          2   -1    0    0  502    0  0.00000000000E+00  0.00000000000E+00  0.17494081510E+04  0.17494081510E+04  0.00000000000E+00 0. -1.
          1   -1    0    0  501    0 -0.00000000000E+00 -0.00000000000E+00 -0.42081177605E+02  0.42081177605E+02  0.00000000000E+00 0. -1.
         25    1    1    2    0    0 -0.70351785759E+02 -0.10371883348E+03  0.88608289493E+03  0.90358998825E+03  0.12500000000E+03 0.  0.
          2    1    1    2  501    0  0.10960611303E+03 -0.43574757305E+01  0.75077588817E+02  0.13292528710E+03  0.00000000000E+00 0. -1.
          1    1    1    2  502    0 -0.39254327266E+02  0.10807630921E+03  0.74616648965E+03  0.75497405326E+03  0.00000000000E+00 0. -1.
<mgrwt>
<rscale>  0 0.10816004E+03</rscale>
<asrwt>0</asrwt>
<pdfrwt beam="1">  1        2 0.26913966E+00 0.10664880E+03</pdfrwt>
<pdfrwt beam="2">  1        1 0.64740287E-02 0.10969270E+03</pdfrwt>
<totfact> 0.16182682E+03</totfact>
</mgrwt>
</event>
<event>
 5    1  0.8274494E-003  0.5191694E+02  0.7546771E-02  0.1522220E+00
          2   -1    0    0  502    0  0.00000000000E+00  0.00000000000E+00  0.31024257722E+04  0.31024257722E+04  0.00000000000E+00 0. -1.
         -2   -1    0    0    0  501 -0.00000000000E+00 -0.00000000000E+00 -0.26229075536E+03  0.26229075536E+03  0.00000000000E+00 0.  1.
         25    1    1    2    0    0 -0.53132867389E+02 -0.59683882635E+02  0.14016182722E+04  0.14094481361E+04  0.12500000000E+03 0.  0.
          1    1    1    2  502    0  0.18888929923E+02  0.20730835066E+02  0.16941725527E+04  0.16944046735E+04  0.00000000000E+00 0. -1.
         -1    1    1    2    0  501  0.34243937466E+02  0.38953047569E+02 -0.25565580805E+03  0.26086371798E+03  0.00000000000E+00 0.  1.
<mgrwt>
<rscale>  0 0.38158158E+02</rscale>
<asrwt>0</asrwt>
<pdfrwt beam="1">  1        2 0.47729625E+00 0.28045663E+02</pdfrwt>
<pdfrwt beam="2">  1       -2 0.40352426E-01 0.51916941E+02</pdfrwt>
<totfact> 0.15628425E+01</totfact>
</mgrwt>
</event>
<event>
 5    1  0.8274494E-003  0.3929220E+02  0.7546771E-02  0.1514464E+00
          1   -1    0    0  501    0 -0.00000000000E+00  0.00000000000E+00  0.11734627479E+03  0.11734627479E+03  0.00000000000E+00 0. -1.
          2   -1    0    0  502    0  0.00000000000E+00 -0.00000000000E+00 -0.14152082039E+03  0.14152082039E+03  0.00000000000E+00 0. -1.
         25    1    1    2    0    0 -0.27094384942E+02 -0.48024214984E+01  0.57424542747E+02  0.14028452180E+03  0.12500000000E+03 0.  0.
          2    1    1    2  501    0  0.17294774177E+02 -0.34993420963E+02 -0.18149253517E+02  0.43046999056E+02  0.00000000000E+00 0. -1.
          3    1    1    2  502    0  0.97996107644E+01  0.39795842461E+02 -0.63449834830E+02  0.75535574323E+02  0.00000000000E+00 0. -1.
<mgrwt>
<rscale>  0 0.39162861E+02</rscale>
<asrwt>0</asrwt>
<pdfrwt beam="2">  1        2 0.21772434E-01 0.39292205E+02</pdfrwt>
<pdfrwt beam="1">  1        1 0.18053273E-01 0.39033943E+02</pdfrwt>
<totfact> 0.85687420E+03</totfact>
</mgrwt>
</event>
<event>
 5    1  0.8274494E-003  0.7489074E+02  0.7546771E-02  0.1491010E+00
         -1   -1    0    0    0  501 -0.00000000000E+00  0.00000000000E+00  0.14162974745E+03  0.14162974745E+03  0.00000000000E+00 0.  1.
          1   -1    0    0  502    0  0.00000000000E+00 -0.00000000000E+00 -0.71408970176E+03  0.71408970176E+03  0.00000000000E+00 0. -1.
         25    1    1    2    0    0 -0.89948672183E+02  0.29252642012E+02 -0.11576650581E+03  0.19486755646E+03  0.12500000000E+03 0.  0.
          2    1    1    2  502    0  0.66135590392E+02 -0.32595738685E+02 -0.55488323236E+03  0.55976048454E+03  0.00000000000E+00 0. -1.
         -2    1    1    2    0  501  0.23813081792E+02  0.33430966736E+01  0.98189783859E+02  0.10109140821E+03  0.00000000000E+00 0.  1.
<mgrwt>
<rscale>  0 0.42436635E+02</rscale>
<asrwt>0</asrwt>
<pdfrwt beam="2">  1        1 0.10985995E+00 0.74890741E+02</pdfrwt>
<pdfrwt beam="1">  1       -1 0.21789192E-01 0.24046604E+02</pdfrwt>
<totfact> 0.46558137E+02</totfact>
</mgrwt>
</event>
<event>
 5    1  0.8274494E-003  0.3665691E+02  0.7546771E-02  0.1621492E+00
          3   -1    0    0  501    0 -0.00000000000E+00  0.00000000000E+00  0.22122152863E+03  0.22122152863E+03  0.00000000000E+00 0. -1.
          2   -1    0    0  502    0  0.00000000000E+00 -0.00000000000E+00 -0.18895843493E+04  0.18895843493E+04  0.00000000000E+00 0. -1.
         25    1    1    2    0    0 -0.19051680088E+02  0.38121587693E+02  0.58760028731E+02  0.14454744183E+03  0.12500000000E+03 0.  0.
          2    1    1    2  501    0 -0.11564850351E+02 -0.17964027991E+02  0.11842995864E+03  0.12034162692E+03  0.00000000000E+00 0. -1.
          1    1    1    2  502    0  0.30616530439E+02 -0.20157559701E+02 -0.18455528081E+04  0.18459168092E+04  0.00000000000E+00 0. -1.
<mgrwt>
<rscale>  0 0.27985092E+02</rscale>
<asrwt>0</asrwt>
<pdfrwt beam="2">  1        2 0.29070529E+00 0.36656914E+02</pdfrwt>
<pdfrwt beam="1">  1        3 0.34034081E-01 0.21364739E+02</pdfrwt>
<totfact> 0.45178564E+01</totfact>
</mgrwt>
</event>
<event>
 5    1  0.8274494E-003  0.5590373E+02  0.7546771E-02  0.1537871E+00
         -2   -1    0    0    0  501  0.00000000000E+00  0.00000000000E+00  0.66465820980E+02  0.66465820980E+02  0.00000000000E+00 0.  1.
         -1   -1    0    0    0  502 -0.00000000000E+00 -0.00000000000E+00 -0.32720256695E+03  0.32720256695E+03  0.00000000000E+00 0.  1.
         25    1    1    2    0    0 -0.74506817886E+01  0.38089289947E+02 -0.93946403306E+02  0.16111248667E+03  0.12500000000E+03 0.  0.
         -2    1    1    2    0  502  0.89724205550E+01  0.21709639563E+02 -0.17098465602E+03  0.17259074534E+03  0.00000000000E+00 0.  1.
         -1    1    1    2    0  501 -0.15217387663E+01 -0.59798929510E+02  0.41943133649E+01  0.59965155916E+02  0.00000000000E+00 0.  1.
<mgrwt>
<rscale>  0 0.36238344E+02</rscale>
<asrwt>0</asrwt>
<pdfrwt beam="1">  1       -2 0.10225511E-01 0.55903732E+02</pdfrwt>
<pdfrwt beam="2">  1       -1 0.50338857E-01 0.23490696E+02</pdfrwt>
<totfact> 0.17509568E+03</totfact>
</mgrwt>
</event>
<event>
 5    1  0.8274494E-003  0.2670614E+03  0.7546771E-02  0.1196258E+00
          2   -1    0    0  502    0  0.00000000000E+00  0.00000000000E+00  0.19984751364E+04  0.19984751364E+04  0.00000000000E+00 0. -1.
         -2   -1    0    0    0  501 -0.00000000000E+00 -0.00000000000E+00 -0.12550280878E+03  0.12550280878E+03  0.00000000000E+00 0.  1.
         25    1    1    2    0    0  0.30774070106E+03  0.10213735159E+03  0.39179222134E+03  0.52370079471E+03  0.12500000000E+03 0.  0.
          1    1    1    2  502    0 -0.86497934580E+02 -0.17283666888E+02  0.12974243305E+04  0.13004193598E+04  0.00000000000E+00 0. -1.
         -1    1    1    2    0  501 -0.22124276648E+03 -0.84853684704E+02  0.18375577581E+03  0.29985779074E+03  0.00000000000E+00 0.  1.
<mgrwt>
<rscale>  0 0.15348258E+03</rscale>
<asrwt>0</asrwt>
<pdfrwt beam="1">  1        2 0.30745769E+00 0.88207810E+02</pdfrwt>
<pdfrwt beam="2">  1       -2 0.19308126E-01 0.26706139E+03</pdfrwt>
<totfact> 0.18787681E+02</totfact>
</mgrwt>
</event>
<event>
 5    1  0.8274494E-003  0.1459756E+03  0.7546771E-02  0.1279729E+00
          2   -1    0    0  502    0  0.00000000000E+00  0.00000000000E+00  0.13785285500E+04  0.13785285500E+04  0.00000000000E+00 0. -1.
          1   -1    0    0  501    0 -0.00000000000E+00 -0.00000000000E+00 -0.15118056166E+03  0.15118056166E+03  0.00000000000E+00 0. -1.
         25    1    1    2    0    0 -0.12721100601E+03  0.25301469198E+02  0.56088152364E+03  0.58909751990E+03  0.12500000000E+03 0.  0.
          2    1    1    2  501    0 -0.28318484990E+02 -0.62784270105E+02 -0.11982522418E+03  0.13820957099E+03  0.00000000000E+00 0. -1.
          1    1    1    2  502    0  0.15552949100E+03  0.37482800907E+02  0.78629168886E+03  0.80240202075E+03  0.00000000000E+00 0. -1.
<mgrwt>
<rscale>  0 0.10027017E+03</rscale>
<asrwt>0</asrwt>
<pdfrwt beam="1">  1        2 0.21208131E+00 0.14597558E+03</pdfrwt>
<pdfrwt beam="2">  1        1 0.23258549E-01 0.68875258E+02</pdfrwt>
<totfact> 0.45805818E+02</totfact>
</mgrwt>
</event>
<event>
 5    1  0.8274494E-003  0.1143314E+03  0.7546771E-02  0.1382724E+00
         -2   -1    0    0    0  501 -0.00000000000E+00  0.00000000000E+00  0.41773589402E+03  0.41773589402E+03  0.00000000000E+00 0.  1.
          2   -1    0    0  502    0  0.00000000000E+00 -0.00000000000E+00 -0.44769079960E+03  0.44769079960E+03  0.00000000000E+00 0. -1.
         25    1    1    2    0    0 -0.70020135481E+01 -0.11318604414E+03  0.66081388145E+02  0.18125081694E+03  0.12500000000E+03 0.  0.
          1    1    1    2  502    0  0.35524285354E+02  0.13465773807E+01 -0.37791449012E+03  0.37958286311E+03  0.00000000000E+00 0. -1.
         -1    1    1    2    0  501 -0.28522271806E+02  0.11183946676E+03  0.28187819640E+03  0.30459301357E+03  0.00000000000E+00 0.  1.
<mgrwt>
<rscale>  0 0.63753100E+02</rscale>
<asrwt>0</asrwt>
<pdfrwt beam="2">  1        2 0.68875508E-01 0.35549798E+02</pdfrwt>
<pdfrwt beam="1">  1       -2 0.64267060E-01 0.11433139E+03</pdfrwt>
<totfact> 0.16757039E+02</totfact>
</mgrwt>
</event>
<event>
 5    1  0.8274494E-003  0.8261627E+02  0.7546771E-02  0.1413258E+00
          2   -1    0    0  502    0  0.00000000000E+00  0.00000000000E+00  0.27134366756E+04  0.27134366756E+04  0.00000000000E+00 0. -1.
         -2   -1    0    0    0  501 -0.00000000000E+00 -0.00000000000E+00 -0.61057588947E+03  0.61057588947E+03  0.00000000000E+00 0.  1.
         25    1    1    2    0    0  0.13237550010E+02 -0.64737273833E+02 -0.20888920568E+02  0.14292478566E+03  0.12500000000E+03 0.  0.
          1    1    1    2  502    0 -0.51839921195E+02  0.64568937987E+02  0.26510667756E+04  0.26523596238E+04  0.00000000000E+00 0. -1.
         -1    1    1    2    0  501  0.38602371185E+02  0.16833584605E+00 -0.52731706890E+03  0.52872815562E+03  0.00000000000E+00 0.  1.
<mgrwt>
<rscale>  0 0.56473127E+02</rscale>
<asrwt>0</asrwt>
<pdfrwt beam="1">  1        2 0.41745179E+00 0.82616265E+02</pdfrwt>
<pdfrwt beam="2">  1       -2 0.93934754E-01 0.38602738E+02</pdfrwt>
<totfact> 0.38122480E+00</totfact>
</mgrwt>
</event>
<event>
 5    1  0.8274494E-003  0.3941236E+02  0.7546771E-02  0.1534853E+00
          2   -1    0    0  502    0  0.00000000000E+00  0.00000000000E+00  0.16049614585E+04  0.16049614585E+04  0.00000000000E+00 0. -1.
         -2   -1    0    0    0  501 -0.00000000000E+00 -0.00000000000E+00 -0.19263148395E+03  0.19263148395E+03  0.00000000000E+00 0.  1.
         25    1    1    2    0    0 -0.55682034011E+01 -0.20331559997E+00 -0.48876998057E+02  0.13433170573E+03  0.12500000000E+03 0.  0.
          1    1    1    2  502    0  0.39347205149E+02 -0.35263815972E+01  0.15591188318E+04  0.15596192387E+04  0.00000000000E+00 0. -1.
         -1    1    1    2    0  501 -0.33779001747E+02  0.37296971972E+01 -0.97911859171E+02  0.10364199808E+03  0.00000000000E+00 0.  1.
<mgrwt>
<rscale>  0 0.36597826E+02</rscale>
<asrwt>0</asrwt>
<pdfrwt beam="1">  1        2 0.24691714E+00 0.39412360E+02</pdfrwt>
<pdfrwt beam="2">  1       -2 0.29635614E-01 0.33984285E+02</pdfrwt>
<totfact> 0.14278502E+02</totfact>
</mgrwt>
</event>
<event>
 5    1  0.8274494E-003  0.9362233E+02  0.7546771E-02  0.1391748E+00
          1   -1    0    0  501    0 -0.00000000000E+00  0.00000000000E+00  0.55228060244E+03  0.55228060244E+03  0.00000000000E+00 0. -1.
          2   -1    0    0  502    0  0.00000000000E+00 -0.00000000000E+00 -0.80018423634E+03  0.80018423634E+03  0.00000000000E+00 0. -1.
         25    1    1    2    0    0  0.12236876335E+03  0.17883626456E+02 -0.59385582564E+02  0.18559522019E+03  0.12500000000E+03 0.  0.
          2    1    1    2  501    0 -0.30480543838E+02 -0.26462491041E+02  0.48519189290E+03  0.48686805186E+03  0.00000000000E+00 0. -1.
          1    1    1    2  502    0 -0.91888219515E+02  0.85788645850E+01 -0.67370994423E+03  0.68000156673E+03  0.00000000000E+00 0. -1.
<mgrwt>
<rscale>  0 0.61474043E+02</rscale>
<asrwt>0</asrwt>
<pdfrwt beam="2">  1        2 0.12310527E+00 0.93622326E+02</pdfrwt>
<pdfrwt beam="1">  1        1 0.84966247E-01 0.40364923E+02</pdfrwt>
<totfact> 0.21042408E+02</totfact>
</mgrwt>
</event>
<event>
 5    1  0.8274494E-003  0.2337927E+03  0.7546771E-02  0.1222061E+00
          2   -1    0    0  502    0  0.00000000000E+00  0.00000000000E+00  0.16485675653E+04  0.16485675653E+04  0.00000000000E+00 0. -1.
          1   -1    0    0  501    0 -0.00000000000E+00 -0.00000000000E+00 -0.12936694579E+04  0.12936694579E+04  0.00000000000E+00 0. -1.
         25    1    1    2    0    0 -0.16940954528E+03 -0.12124976956E+03 -0.47017456119E+03  0.52923550395E+03  0.12500000000E+03 0.  0.
          2    1    1    2  501    0  0.16104082596E+03  0.19725452128E+03 -0.77260889423E+03  0.81349123980E+03  0.00000000000E+00 0. -1.
          1    1    1    2  502    0  0.83687193214E+01 -0.76004751713E+02  0.15976815628E+04  0.15995102794E+04  0.00000000000E+00 0. -1.
<mgrwt>
<rscale>  0 0.13370396E+03</rscale>
<asrwt>0</asrwt>
<pdfrwt beam="1">  1        2 0.25362578E+00 0.76464094E+02</pdfrwt>
<pdfrwt beam="2">  1        1 0.19902607E+00 0.23379272E+03</pdfrwt>
<totfact> 0.17476090E+01</totfact>
</mgrwt>
</event>
<event>
 5    1  0.8274494E-003  0.7687053E+02  0.7546771E-02  0.1344072E+00
          2   -1    0    0  502    0  0.00000000000E+00  0.00000000000E+00  0.52404753722E+03  0.52404753722E+03  0.00000000000E+00 0. -1.
         -2   -1    0    0    0  501 -0.00000000000E+00 -0.00000000000E+00 -0.21293389081E+03  0.21293389081E+03  0.00000000000E+00 0.  1.
         25    1    1    2    0    0  0.81916677116E+02 -0.72334646209E+02  0.51463212055E+02  0.17382780338E+03  0.12500000000E+03 0.  0.
          1    1    1    2  502    0 -0.56856995896E+01  0.72827022621E+02  0.39829224023E+03  0.40493556404E+03  0.00000000000E+00 0. -1.
         -1    1    1    2    0  501 -0.76230977526E+02 -0.49237641172E+00 -0.13864180587E+03  0.15821806061E+03  0.00000000000E+00 0.  1.
<mgrwt>
<rscale>  0 0.74935217E+02</rscale>
<asrwt>0</asrwt>
<pdfrwt beam="1">  1        2 0.80622698E-01 0.73048630E+02</pdfrwt>
<pdfrwt beam="2">  1       -2 0.32759060E-01 0.76870527E+02</pdfrwt>
<totfact> 0.51759833E+02</totfact>
</mgrwt>
</event>
<event>
 5    1  0.8274494E-003  0.8204949E+02  0.7546771E-02  0.1323659E+00
          1   -1    0    0  501    0 -0.00000000000E+00  0.00000000000E+00  0.14233976258E+03  0.14233976258E+03  0.00000000000E+00 0. -1.
          2   -1    0    0  502    0  0.00000000000E+00 -0.00000000000E+00 -0.50495519740E+03  0.50495519740E+03  0.00000000000E+00 0. -1.
         25    1    1    2    0    0  0.41030277590E+02 -0.10197915488E+03 -0.13082900052E+03  0.21171787616E+03  0.12500000000E+03 0.  0.
          2    1    1    2  501    0 -0.76972979889E+02  0.27721137201E+02  0.79179415446E+02  0.11385376986E+03  0.00000000000E+00 0. -1.
          1    1    1    2  502    0  0.35942702299E+02  0.74258017683E+02 -0.31096584974E+03  0.32172331396E+03  0.00000000000E+00 0. -1.
<mgrwt>
<rscale>  0 0.81930956E+02</rscale>
<asrwt>0</asrwt>
<pdfrwt beam="2">  1        2 0.77685415E-01 0.82049486E+02</pdfrwt>
<pdfrwt beam="1">  1        1 0.21898425E-01 0.81812597E+02</pdfrwt>
<totfact> 0.18654101E+03</totfact>
</mgrwt>
</event>
<event>
 5    1  0.8274494E-003  0.4593667E+02  0.7546771E-02  0.1536618E+00
          1   -1    0    0  501    0 -0.00000000000E+00  0.00000000000E+00  0.18532848187E+03  0.18532848187E+03  0.00000000000E+00 0. -1.
          2   -1    0    0  502    0  0.00000000000E+00 -0.00000000000E+00 -0.24336291979E+03  0.24336291979E+03  0.00000000000E+00 0. -1.
         25    1    1    2    0    0  0.10848065198E+02  0.19570837039E+02  0.64910379758E+02  0.14261506085E+03  0.12500000000E+03 0.  0.
          2    1    1    2  501    0 -0.30372165967E+02 -0.40773412245E+02  0.72481863106E+02  0.88535643054E+02  0.00000000000E+00 0. -1.
          1    1    1    2  502    0  0.19524100769E+02  0.21202575206E+02 -0.19542668079E+03  0.19754069776E+03  0.00000000000E+00 0. -1.
<mgrwt>
<rscale>  0 0.36386980E+02</rscale>
<asrwt>0</asrwt>
<pdfrwt beam="2">  1        2 0.37440449E-01 0.28822556E+02</pdfrwt>
<pdfrwt beam="1">  1        1 0.28512074E-01 0.45936673E+02</pdfrwt>
<totfact> 0.27929427E+03</totfact>
</mgrwt>
</event>
<event>
 5    1  0.8274494E-003  0.6165407E+02  0.7546771E-02  0.1481920E+00
          1   -1    0    0  501    0 -0.00000000000E+00  0.00000000000E+00  0.29625602188E+04  0.29625602188E+04  0.00000000000E+00 0. -1.
          2   -1    0    0  502    0  0.00000000000E+00 -0.00000000000E+00 -0.13287860691E+03  0.13287860691E+03  0.00000000000E+00 0. -1.
         25    1    1    2    0    0 -0.35280126958E+01 -0.88512091676E+02  0.13956139501E+04  0.14039979114E+04  0.12500000000E+03 0.  0.
          2    1    1    2  501    0  0.78279259416E+01  0.57682220420E+02  0.15603211626E+04  0.15614066240E+04  0.00000000000E+00 0. -1.
          1    1    1    2  502    0 -0.42999132458E+01  0.30829871256E+02 -0.12625350081E+03  0.13003429041E+03  0.00000000000E+00 0. -1.
<mgrwt>
<rscale>  0 0.43808510E+02</rscale>
<asrwt>0</asrwt>
<pdfrwt beam="2">  1        2 0.20442865E-01 0.31128286E+02</pdfrwt>
<pdfrwt beam="1">  1        1 0.45577844E+00 0.61654071E+02</pdfrwt>
<totfact> 0.33341458E+01</totfact>
</mgrwt>
</event>
<event>
 5    1  0.8274494E-003  0.8845067E+02  0.7546771E-02  0.1378522E+00
          2   -1    0    0  502    0  0.00000000000E+00  0.00000000000E+00  0.20999260609E+04  0.20999260609E+04  0.00000000000E+00 0. -1.
          1   -1    0    0  501    0 -0.00000000000E+00 -0.00000000000E+00 -0.17659358835E+02  0.17659358835E+02  0.00000000000E+00 0. -1.
         25    1    1    2    0    0  0.55506605655E+02  0.14136785747E+02  0.94160986016E+03  0.95159600710E+03  0.12500000000E+03 0.  0.
          2    1    1    2  501    0 -0.76746517620E+02 -0.56681767398E+02  0.17629942027E+03  0.20046031106E+03  0.00000000000E+00 0. -1.
          1    1    1    2  502    0  0.21239911965E+02  0.42544981652E+02  0.96435742164E+03  0.96552910158E+03  0.00000000000E+00 0. -1.
<mgrwt>
<rscale>  0 0.64853849E+02</rscale>
<asrwt>0</asrwt>
<pdfrwt beam="1">  1        2 0.32306535E+00 0.47552175E+02</pdfrwt>
<pdfrwt beam="2">  1        1 0.27168261E-02 0.88450670E+02</pdfrwt>
<totfact> 0.37773082E+03</totfact>
</mgrwt>
</event>
<event>
 5    1  0.8274494E-003  0.9722283E+02  0.7546771E-02  0.1339087E+00
          2   -1    0    0  502    0  0.00000000000E+00  0.00000000000E+00  0.38163624202E+03  0.38163624202E+03  0.00000000000E+00 0. -1.
          1   -1    0    0  501    0 -0.00000000000E+00 -0.00000000000E+00 -0.61236938003E+03  0.61236938003E+03  0.00000000000E+00 0. -1.
         25    1    1    2    0    0  0.53566913766E+01 -0.51013230319E+02  0.71851211373E+02  0.15303150129E+03  0.12500000000E+03 0.  0.
          2    1    1    2  501    0 -0.12365454345E+02 -0.59017452704E+02 -0.55879972388E+03  0.56204367765E+03  0.00000000000E+00 0. -1.
          1    1    1    2  502    0  0.70087629687E+01  0.11003068302E+03  0.25621537450E+03  0.27893044311E+03  0.00000000000E+00 0. -1.
<mgrwt>
<rscale>  0 0.76566539E+02</rscale>
<asrwt>0</asrwt>
<pdfrwt beam="1">  1        2 0.58713268E-01 0.97222825E+02</pdfrwt>
<pdfrwt beam="2">  1        1 0.94210673E-01 0.60298957E+02</pdfrwt>
<totfact> 0.41443826E+02</totfact>
</mgrwt>
</event>
<event>
 5    1  0.8274494E-003  0.7155477E+02  0.7546771E-02  0.1362753E+00
          1   -1    0    0  502    0  0.00000000000E+00  0.00000000000E+00  0.13888158364E+04  0.13888158364E+04  0.00000000000E+00 0. -1.
         -1   -1    0    0    0  501 -0.00000000000E+00 -0.00000000000E+00 -0.42420463164E+02  0.42420463164E+02  0.00000000000E+00 0.  1.
         25    1    1    2    0    0  0.20651642738E+02  0.53163295127E+02  0.20371513960E+03  0.24571870991E+03  0.12500000000E+03 0.  0.
          2    1    1    2  502    0 -0.73115841071E+02 -0.11542365704E+02  0.11073116734E+04  0.11097829944E+04  0.00000000000E+00 0. -1.
         -2    1    1    2    0  501  0.52464198333E+02 -0.41620929423E+02  0.35368560165E+02  0.75734595271E+02  0.00000000000E+00 0.  1.
<mgrwt>
<rscale>  0 0.69223718E+02</rscale>
<asrwt>0</asrwt>
<pdfrwt beam="1">  1        1 0.21366394E+00 0.71554772E+02</pdfrwt>
<pdfrwt beam="2">  1       -1 0.65262262E-02 0.66968604E+02</pdfrwt>
<totfact> 0.10061413E+03</totfact>
</mgrwt>
</event>
<event>
 5    1  0.8274494E-003  0.6989815E+02  0.7546771E-02  0.1403921E+00
          2   -1    0    0  502    0  0.00000000000E+00  0.00000000000E+00  0.30981430222E+04  0.30981430222E+04  0.00000000000E+00 0. -1.
          1   -1    0    0  501    0 -0.00000000000E+00 -0.00000000000E+00 -0.25686803581E+03  0.25686803581E+03  0.00000000000E+00 0. -1.
         25    1    1    2    0    0 -0.17836024960E+02  0.22477304790E+02  0.20720145716E+02  0.12991411569E+03  0.12500000000E+03 0.  0.
          2    1    1    2  501    0  0.12208587061E+02  0.47539587321E+02 -0.19887904107E+03  0.20484612502E+03  0.00000000000E+00 0. -1.
          1    1    1    2  502    0  0.56274378996E+01 -0.70016892112E+02  0.30194338818E+04  0.30202508173E+04  0.00000000000E+00 0. -1.
<mgrwt>
<rscale>  0 0.58572643E+02</rscale>
<asrwt>0</asrwt>
<pdfrwt beam="1">  1        2 0.47663736E+00 0.69898146E+02</pdfrwt>
<pdfrwt beam="2">  1        1 0.39518162E-01 0.49082196E+02</pdfrwt>
<totfact> 0.32678305E+01</totfact>
</mgrwt>
</event>
<event>
 5    1  0.8274494E-003  0.7068789E+03  0.7546771E-02  0.1204913E+00
          2   -1    0    0  502    0  0.00000000000E+00  0.00000000000E+00  0.11095907834E+04  0.11095907834E+04  0.00000000000E+00 0. -1.
          1   -1    0    0  501    0 -0.00000000000E+00 -0.00000000000E+00 -0.87702859958E+03  0.87702859958E+03  0.00000000000E+00 0. -1.
         25    1    1    2    0    0  0.52435417865E+03  0.46008525930E+03 -0.34732677876E+03  0.78923167811E+03  0.12500000000E+03 0.  0.
          2    1    1    2  501    0 -0.55367787215E+03 -0.46786623963E+03  0.11790786758E+03  0.73441151239E+03  0.00000000000E+00 0. -1.
          3    1    1    2  502    0  0.29323693495E+02  0.77809803344E+01  0.46198109504E+03  0.46297619251E+03  0.00000000000E+00 0. -1.
<mgrwt>
<rscale>  0 0.14644324E+03</rscale>
<asrwt>0</asrwt>
<pdfrwt beam="1">  1        2 0.17070627E+00 0.30338468E+02</pdfrwt>
<pdfrwt beam="2">  1        1 0.13492748E+00 0.70687893E+03</pdfrwt>
<totfact> 0.67013605E+01</totfact>
</mgrwt>
</event>
<event>
 5    1  0.8274494E-003  0.6494095E+02  0.7546771E-02  0.1428853E+00
         -2   -1    0    0    0  501 -0.00000000000E+00  0.00000000000E+00  0.11117639628E+03  0.11117639628E+03  0.00000000000E+00 0.  1.
          2   -1    0    0  502    0  0.00000000000E+00 -0.00000000000E+00 -0.10035810877E+04  0.10035810877E+04  0.00000000000E+00 0. -1.
         25    1    1    2    0    0  0.26151841685E+02 -0.33280367988E+01 -0.26451572496E+03  0.29374915047E+03  0.12500000000E+03 0.  0.
          1    1    1    2  502    0 -0.66575886763E+02  0.19575382067E+02 -0.71777437259E+03  0.72112106766E+03  0.00000000000E+00 0. -1.
         -1    1    1    2    0  501  0.40424045078E+02 -0.16247345268E+02  0.89885406110E+02  0.99887265857E+02  0.00000000000E+00 0.  1.
<mgrwt>
<rscale>  0 0.53190972E+02</rscale>
<asrwt>0</asrwt>
<pdfrwt beam="2">  1        2 0.15439709E+00 0.64940949E+02</pdfrwt>
<pdfrwt beam="1">  1       -2 0.17104061E-01 0.43566956E+02</pdfrwt>
<totfact> 0.71339438E+02</totfact>
</mgrwt>
</event>
<event>
 5    1  0.8274494E-003  0.9377278E+02  0.7546771E-02  0.1298561E+00
          1   -1    0    0  501    0 -0.00000000000E+00  0.00000000000E+00  0.74619886115E+02  0.74619886115E+02  0.00000000000E+00 0. -1.
          2   -1    0    0  502    0  0.00000000000E+00 -0.00000000000E+00 -0.28922354326E+04  0.28922354326E+04  0.00000000000E+00 0. -1.
         25    1    1    2    0    0  0.22818677643E+02  0.55590294068E+02 -0.76277107774E+03  0.77527781465E+03  0.12500000000E+03 0.  0.
          2    1    1    2  501    0 -0.84129714318E+02  0.31575004832E+02  0.36884752732E+02  0.97135342412E+02  0.00000000000E+00 0. -1.
          1    1    1    2  502    0  0.61311036675E+02 -0.87165298900E+02 -0.20917292214E+04  0.20944421616E+04  0.00000000000E+00 0. -1.
<mgrwt>
<rscale>  0 0.91795461E+02</rscale>
<asrwt>0</asrwt>
<pdfrwt beam="2">  1        2 0.44495920E+00 0.93772783E+02</pdfrwt>
<pdfrwt beam="1">  1        1 0.11479985E-01 0.89859834E+02</pdfrwt>
<totfact> 0.19272525E+02</totfact>
</mgrwt>
</event>
<event>
 5    1  0.8274494E-003  0.1246930E+03  0.7546771E-02  0.1375663E+00
          2   -1    0    0  502    0  0.00000000000E+00  0.00000000000E+00  0.41820237994E+03  0.41820237994E+03  0.00000000000E+00 0. -1.
          1   -1    0    0  501    0 -0.00000000000E+00 -0.00000000000E+00 -0.14707215858E+03  0.14707215858E+03  0.00000000000E+00 0. -1.
         25    1    1    2    0    0 -0.93038876933E+02  0.29363303190E+02  0.13085321398E+03  0.20558696409E+03  0.12500000000E+03 0.  0.
          2    1    1    2  501    0  0.12195109957E+03 -0.48242173441E+02 -0.68580100682E+02  0.14799529788E+03  0.00000000000E+00 0. -1.
          1    1    1    2  502    0 -0.28912222638E+02  0.18878870251E+02  0.20885710807E+03  0.21169227655E+03  0.00000000000E+00 0. -1.
<mgrwt>
<rscale>  0 0.65617553E+02</rscale>
<asrwt>0</asrwt>
<pdfrwt beam="1">  1        2 0.64338827E-01 0.34530108E+02</pdfrwt>
<pdfrwt beam="2">  1        1 0.22626486E-01 0.12469301E+03</pdfrwt>
<totfact> 0.22220958E+03</totfact>
</mgrwt>
</event>
<event>
 5    1  0.8274494E-003  0.7280806E+02  0.7546771E-02  0.1465339E+00
          1   -1    0    0  501    0 -0.00000000000E+00  0.00000000000E+00  0.11151495455E+04  0.11151495455E+04  0.00000000000E+00 0. -1.
          2   -1    0    0  502    0  0.00000000000E+00 -0.00000000000E+00 -0.49376439545E+03  0.49376439545E+03  0.00000000000E+00 0. -1.
         25    1    1    2    0    0 -0.43619398989E+02  0.61023771549E+02 -0.16026295437E+02  0.14665740625E+03  0.12500000000E+03 0.  0.
          2    1    1    2  501    0  0.62223513686E+02 -0.37916514061E+02  0.10480338858E+04  0.10505638740E+04  0.00000000000E+00 0. -1.
          1    1    1    2  502    0 -0.18604114697E+02 -0.23107257488E+02 -0.41062244026E+03  0.41169266070E+03  0.00000000000E+00 0. -1.
<mgrwt>
<rscale>  0 0.46474808E+02</rscale>
<asrwt>0</asrwt>
<pdfrwt beam="2">  1        2 0.75963754E-01 0.29665779E+02</pdfrwt>
<pdfrwt beam="1">  1        1 0.17156147E+00 0.72808060E+02</pdfrwt>
<totfact> 0.12849278E+02</totfact>
</mgrwt>
</event>
<event>
 5    1  0.8274494E-003  0.2589034E+02  0.7546771E-02  0.1674125E+00
         -1   -1    0    0    0  501 -0.00000000000E+00  0.00000000000E+00  0.11971405657E+03  0.11971405657E+03  0.00000000000E+00 0.  1.
          1   -1    0    0  502    0  0.00000000000E+00 -0.00000000000E+00 -0.11515584727E+03  0.11515584727E+03  0.00000000000E+00 0. -1.
         25    1    1    2    0    0 -0.59347498821E+01  0.37984736001E+02 -0.21207621038E+02  0.13248707339E+03  0.12500000000E+03 0.  0.
          2    1    1    2  502    0 -0.10754469691E+02 -0.22965942059E+02 -0.31753318463E+02  0.40637007104E+02  0.00000000000E+00 0. -1.
         -2    1    1    2    0  501  0.16689219573E+02 -0.15018793942E+02  0.57519148800E+02  0.61745823341E+02  0.00000000000E+00 0.  1.
<mgrwt>
<rscale>  0 0.24109980E+02</rscale>
<asrwt>0</asrwt>
<pdfrwt beam="2">  1        1 0.17716284E-01 0.25890344E+02</pdfrwt>
<pdfrwt beam="1">  1       -1 0.18417547E-01 0.22452043E+02</pdfrwt>
<totfact> 0.55380020E+03</totfact>
</mgrwt>
</event>
<event>
 5    1  0.8274494E-003  0.7062536E+02  0.7546771E-02  0.1423961E+00
          2   -1    0    0  502    0  0.00000000000E+00  0.00000000000E+00  0.21416411409E+04  0.21416411409E+04  0.00000000000E+00 0. -1.
         -2   -1    0    0    0  501 -0.00000000000E+00 -0.00000000000E+00 -0.57460361734E+02  0.57460361734E+02  0.00000000000E+00 0.  1.
         25    1    1    2    0    0  0.39044693082E+02 -0.61613141707E+02  0.11678012903E+03  0.18596576520E+03  0.12500000000E+03 0.  0.
          1    1    1    2  502    0 -0.64656141452E+02  0.28855142211E+02  0.19701889070E+04  0.19714607186E+04  0.00000000000E+00 0. -1.
         -1    1    1    2    0  501  0.25611448371E+02  0.32757999496E+02 -0.27882568320E+01  0.41675018833E+02  0.00000000000E+00 0.  1.
<mgrwt>
<rscale>  0 0.54191498E+02</rscale>
<asrwt>0</asrwt>
<pdfrwt beam="1">  1        2 0.32948319E+00 0.70625363E+02</pdfrwt>
<pdfrwt beam="2">  1       -2 0.88400573E-02 0.41581640E+02</pdfrwt>
<totfact> 0.51451460E+02</totfact>
</mgrwt>
</event>
<event>
 5    1  0.1546293E-002  0.5522653E+02  0.7546771E-02  0.1439783E+00
          2   -1    0    0  502    0  0.00000000000E+00  0.00000000000E+00  0.19780733038E+04  0.19780733038E+04  0.00000000000E+00 0. -1.
          1   -1    0    0  501    0 -0.00000000000E+00 -0.00000000000E+00 -0.25135596487E+04  0.25135596487E+04  0.00000000000E+00 0. -1.
         25    1    1    2    0    0  0.24443877897E+02  0.36288550576E+02 -0.25011057084E+03  0.28300999932E+03  0.12500000000E+03 0.  0.
          2    1    1    2  501    0 -0.44684718364E+02  0.15142798643E+02 -0.22463622748E+04  0.22468576942E+04  0.00000000000E+00 0. -1.
          1    1    1    2  502    0  0.20240840467E+02 -0.51431349219E+02  0.19609865007E+04  0.19617652590E+04  0.00000000000E+00 0. -1.
<mgrwt>
<rscale>  0 0.51045393E+02</rscale>
<asrwt>0</asrwt>
<pdfrwt beam="1">  1        2 0.30431897E+00 0.55226529E+02</pdfrwt>
<pdfrwt beam="2">  1        1 0.38670148E+00 0.47180805E+02</pdfrwt>
<totfact> 0.25038487E+00</totfact>
</mgrwt>
</event>
