<event>
 3    0  0.1712588E+001  0.1250000E+03  0.7546771E-02  0.1235069E+00
         21   -1    0    0  502  501  0.00000000000E+00  0.00000000000E+00  0.32280674154E+02  0.32280674154E+02  0.00000000000E+00 0.  1.
         21   -1    0    0  501  502 -0.00000000000E+00 -0.00000000000E+00 -0.12100893498E+03  0.12100893498E+03  0.00000000000E+00 0.  1.
         25    1    1    2    0    0  0.00000000000E+00  0.00000000000E+00 -0.88728260830E+02  0.15328960914E+03  0.12500000000E+03 0.  0.
<mgrwt>
<rscale>  2 0.12500000E+03</rscale>
<asrwt>0</asrwt>
<pdfrwt beam="1">  1       21 0.49662575E-02 0.12500000E+03</pdfrwt>
<pdfrwt beam="2">  1       21 0.18616759E-01 0.12500000E+03</pdfrwt>
<totfact> 0.70348371E+06</totfact>
</mgrwt>
</event>
<event>
 3    0  0.1709506E+001  0.1250000E+03  0.7546771E-02  0.1235069E+00
         21   -1    0    0  502  501  0.00000000000E+00  0.00000000000E+00  0.31915797781E+02  0.31915797781E+02  0.00000000000E+00 0.  1.
         21   -1    0    0  501  502 -0.00000000000E+00 -0.00000000000E+00 -0.12239236590E+03  0.12239236590E+03  0.00000000000E+00 0.  1.
         25    1    1    2    0    0  0.00000000000E+00  0.00000000000E+00 -0.90476568120E+02  0.15430816368E+03  0.12500000000E+03 0.  0.
<mgrwt>
<rscale>  2 0.12500000E+03</rscale>
<asrwt>0</asrwt>
<pdfrwt beam="1">  1       21 0.49101227E-02 0.12500000E+03</pdfrwt>
<pdfrwt beam="2">  1       21 0.18829595E-01 0.12500000E+03</pdfrwt>
<totfact> 0.70221747E+06</totfact>
</mgrwt>
</event>
<event>
 3    0  0.1618589E+001  0.1250000E+03  0.7546771E-02  0.1235069E+00
         21   -1    0    0  502  501  0.00000000000E+00  0.00000000000E+00  0.23977217035E+03  0.23977217035E+03  0.00000000000E+00 0. -1.
         21   -1    0    0  501  502 -0.00000000000E+00 -0.00000000000E+00 -0.16291507035E+02  0.16291507035E+02  0.00000000000E+00 0. -1.
         25    1    1    2    0    0  0.00000000000E+00  0.00000000000E+00  0.22348066331E+03  0.25606367738E+03  0.12500000000E+03 0.  0.
<mgrwt>
<rscale>  2 0.12500000E+03</rscale>
<asrwt>0</asrwt>
<pdfrwt beam="1">  1       21 0.36888024E-01 0.12500000E+03</pdfrwt>
<pdfrwt beam="2">  1       21 0.25063859E-02 0.12500000E+03</pdfrwt>
<totfact> 0.59311955E+06</totfact>
</mgrwt>
</event>
<event>
 3    0  0.1368989E+001  0.1250000E+03  0.7546771E-02  0.1235069E+00
         21   -1    0    0  502  501  0.00000000000E+00  0.00000000000E+00  0.84790158233E+03  0.84790158233E+03  0.00000000000E+00 0.  1.
         21   -1    0    0  501  502 -0.00000000000E+00 -0.00000000000E+00 -0.46069615642E+01  0.46069615642E+01  0.00000000000E+00 0.  1.
         25    1    1    2    0    0  0.00000000000E+00  0.00000000000E+00  0.84329462076E+03  0.85250854389E+03  0.12500000000E+03 0.  0.
<mgrwt>
<rscale>  2 0.12500000E+03</rscale>
<asrwt>0</asrwt>
<pdfrwt beam="1">  1       21 0.13044627E+00 0.12500000E+03</pdfrwt>
<pdfrwt beam="2">  1       21 0.70876399E-03 0.12500000E+03</pdfrwt>
<totfact> 0.27695263E+06</totfact>
</mgrwt>
</event>
<event>
 3    0  0.1402005E+001  0.1250000E+03  0.7546771E-02  0.1235069E+00
         21   -1    0    0  502  501  0.00000000000E+00  0.00000000000E+00  0.69910295788E+01  0.69910295788E+01  0.00000000000E+00 0. -1.
         21   -1    0    0  501  502 -0.00000000000E+00 -0.00000000000E+00 -0.55875174836E+03  0.55875174836E+03  0.00000000000E+00 0. -1.
         25    1    1    2    0    0  0.00000000000E+00  0.00000000000E+00 -0.55176071878E+03  0.56574277794E+03  0.12500000000E+03 0.  0.
<mgrwt>
<rscale>  2 0.12500000E+03</rscale>
<asrwt>0</asrwt>
<pdfrwt beam="1">  1       21 0.10755434E-02 0.12500000E+03</pdfrwt>
<pdfrwt beam="2">  1       21 0.85961773E-01 0.12500000E+03</pdfrwt>
<totfact> 0.38689173E+06</totfact>
</mgrwt>
</event>
<event>
 3    0  0.1368989E+001  0.1250000E+03  0.7546771E-02  0.1235069E+00
         21   -1    0    0  502  501  0.00000000000E+00  0.00000000000E+00  0.10898279505E+04  0.10898279505E+04  0.00000000000E+00 0. -1.
         21   -1    0    0  501  502 -0.00000000000E+00 -0.00000000000E+00 -0.35842813523E+01  0.35842813523E+01  0.00000000000E+00 0. -1.
         25    1    1    2    0    0  0.00000000000E+00  0.00000000000E+00  0.10862436691E+04  0.10934122318E+04  0.12500000000E+03 0.  0.
<mgrwt>
<rscale>  2 0.12500000E+03</rscale>
<asrwt>0</asrwt>
<pdfrwt beam="1">  1       21 0.16766557E+00 0.12500000E+03</pdfrwt>
<pdfrwt beam="2">  1       21 0.55142877E-03 0.12500000E+03</pdfrwt>
<totfact> 0.21398549E+06</totfact>
</mgrwt>
</event>
<event>
 3    0  0.1661652E+001  0.1250000E+03  0.7546771E-02  0.1235069E+00
         21   -1    0    0  502  501  0.00000000000E+00  0.00000000000E+00  0.20254551954E+02  0.20254551954E+02  0.00000000000E+00 0.  1.
         21   -1    0    0  501  502 -0.00000000000E+00 -0.00000000000E+00 -0.19285788246E+03  0.19285788246E+03  0.00000000000E+00 0.  1.
         25    1    1    2    0    0  0.00000000000E+00  0.00000000000E+00 -0.17260333051E+03  0.21311243442E+03  0.12500000000E+03 0.  0.
<mgrwt>
<rscale>  2 0.12500000E+03</rscale>
<asrwt>0</asrwt>
<pdfrwt beam="1">  1       21 0.31160849E-02 0.12500000E+03</pdfrwt>
<pdfrwt beam="2">  1       21 0.29670444E-01 0.12500000E+03</pdfrwt>
<totfact> 0.63533552E+06</totfact>
</mgrwt>
</event>
<event>
 3    0  0.1705656E+001  0.1250000E+03  0.7546771E-02  0.1235069E+00
         21   -1    0    0  502  501  0.00000000000E+00  0.00000000000E+00  0.83680388011E+02  0.83680388011E+02  0.00000000000E+00 0. -1.
         21   -1    0    0  501  502 -0.00000000000E+00 -0.00000000000E+00 -0.46680591389E+02  0.46680591389E+02  0.00000000000E+00 0. -1.
         25    1    1    2    0    0  0.00000000000E+00  0.00000000000E+00  0.36999796622E+02  0.13036097940E+03  0.12500000000E+03 0.  0.
<mgrwt>
<rscale>  2 0.12500000E+03</rscale>
<asrwt>0</asrwt>
<pdfrwt beam="1">  1       21 0.12873906E-01 0.12500000E+03</pdfrwt>
<pdfrwt beam="2">  1       21 0.71816294E-02 0.12500000E+03</pdfrwt>
<totfact> 0.73316709E+06</totfact>
</mgrwt>
</event>
<event>
 3    0  0.1703078E+001  0.1250000E+03  0.7546771E-02  0.1235069E+00
         21   -1    0    0  502  501  0.00000000000E+00  0.00000000000E+00  0.96624508689E+02  0.96624508689E+02  0.00000000000E+00 0. -1.
         21   -1    0    0  501  502 -0.00000000000E+00 -0.00000000000E+00 -0.40427113710E+02  0.40427113710E+02  0.00000000000E+00 0. -1.
         25    1    1    2    0    0  0.00000000000E+00  0.00000000000E+00  0.56197394979E+02  0.13705162240E+03  0.12500000000E+03 0.  0.
<mgrwt>
<rscale>  2 0.12500000E+03</rscale>
<asrwt>0</asrwt>
<pdfrwt beam="1">  1       21 0.14865309E-01 0.12500000E+03</pdfrwt>
<pdfrwt beam="2">  1       21 0.62195560E-02 0.12500000E+03</pdfrwt>
<totfact> 0.72425947E+06</totfact>
</mgrwt>
</event>
<event>
 3    0  0.1368989E+001  0.1250000E+03  0.7546771E-02  0.1235069E+00
         21   -1    0    0  502  501  0.00000000000E+00  0.00000000000E+00  0.11398874176E+04  0.11398874176E+04  0.00000000000E+00 0.  1.
         21   -1    0    0  501  502 -0.00000000000E+00 -0.00000000000E+00 -0.34268735136E+01  0.34268735136E+01  0.00000000000E+00 0.  1.
         25    1    1    2    0    0  0.00000000000E+00  0.00000000000E+00  0.11364605441E+04  0.11433142912E+04  0.12500000000E+03 0.  0.
<mgrwt>
<rscale>  2 0.12500000E+03</rscale>
<asrwt>0</asrwt>
<pdfrwt beam="1">  1       21 0.17536699E+00 0.12500000E+03</pdfrwt>
<pdfrwt beam="2">  1       21 0.52721222E-03 0.12500000E+03</pdfrwt>
<totfact> 0.20310925E+06</totfact>
</mgrwt>
</event>
<event>
 3    0  0.1583256E+001  0.1250000E+03  0.7546771E-02  0.1235069E+00
         21   -1    0    0  502  501  0.00000000000E+00  0.00000000000E+00  0.26788418435E+03  0.26788418435E+03  0.00000000000E+00 0. -1.
         21   -1    0    0  501  502 -0.00000000000E+00 -0.00000000000E+00 -0.14581861223E+02  0.14581861223E+02  0.00000000000E+00 0. -1.
         25    1    1    2    0    0  0.00000000000E+00  0.00000000000E+00  0.25330232312E+03  0.28246604557E+03  0.12500000000E+03 0.  0.
<mgrwt>
<rscale>  2 0.12500000E+03</rscale>
<asrwt>0</asrwt>
<pdfrwt beam="1">  1       21 0.41212948E-01 0.12500000E+03</pdfrwt>
<pdfrwt beam="2">  1       21 0.22433635E-02 0.12500000E+03</pdfrwt>
<totfact> 0.56945538E+06</totfact>
</mgrwt>
</event>
<event>
 3    0  0.1573736E+001  0.1250000E+03  0.7546771E-02  0.1235069E+00
         21   -1    0    0  502  501  0.00000000000E+00  0.00000000000E+00  0.11658545621E+02  0.11658545621E+02  0.00000000000E+00 0.  1.
         21   -1    0    0  501  502 -0.00000000000E+00 -0.00000000000E+00 -0.33505465664E+03  0.33505465664E+03  0.00000000000E+00 0.  1.
         25    1    1    2    0    0  0.00000000000E+00  0.00000000000E+00 -0.32339611102E+03  0.34671320226E+03  0.12500000000E+03 0.  0.
<mgrwt>
<rscale>  2 0.12500000E+03</rscale>
<asrwt>0</asrwt>
<pdfrwt beam="1">  1       21 0.17936226E-02 0.12500000E+03</pdfrwt>
<pdfrwt beam="2">  1       21 0.51546865E-01 0.12500000E+03</pdfrwt>
<totfact> 0.51782092E+06</totfact>
</mgrwt>
</event>
<event>
 3    0  0.1729341E+001  0.1250000E+03  0.7546771E-02  0.1235069E+00
         21   -1    0    0  502  501  0.00000000000E+00  0.00000000000E+00  0.45240940784E+02  0.45240940784E+02  0.00000000000E+00 0.  1.
         21   -1    0    0  501  502 -0.00000000000E+00 -0.00000000000E+00 -0.86343253087E+02  0.86343253087E+02  0.00000000000E+00 0.  1.
         25    1    1    2    0    0  0.00000000000E+00  0.00000000000E+00 -0.41102312304E+02  0.13158419387E+03  0.12500000000E+03 0.  0.
<mgrwt>
<rscale>  2 0.12500000E+03</rscale>
<asrwt>0</asrwt>
<pdfrwt beam="1">  1       21 0.69601448E-02 0.12500000E+03</pdfrwt>
<pdfrwt beam="2">  1       21 0.13283577E-01 0.12500000E+03</pdfrwt>
<totfact> 0.73152055E+06</totfact>
</mgrwt>
</event>
<event>
 3    0  0.1704211E+001  0.1250000E+03  0.7546771E-02  0.1235069E+00
         21   -1    0    0  502  501  0.00000000000E+00  0.00000000000E+00  0.87096071023E+02  0.87096071023E+02  0.00000000000E+00 0. -1.
         21   -1    0    0  501  502 -0.00000000000E+00 -0.00000000000E+00 -0.44849899130E+02  0.44849899130E+02  0.00000000000E+00 0. -1.
         25    1    1    2    0    0  0.00000000000E+00  0.00000000000E+00  0.42246171893E+02  0.13194597015E+03  0.12500000000E+03 0.  0.
<mgrwt>
<rscale>  2 0.12500000E+03</rscale>
<asrwt>0</asrwt>
<pdfrwt beam="1">  1       21 0.13399395E-01 0.12500000E+03</pdfrwt>
<pdfrwt beam="2">  1       21 0.68999845E-02 0.12500000E+03</pdfrwt>
<totfact> 0.73103477E+06</totfact>
</mgrwt>
</event>
<event>
 3    0  0.1460984E+001  0.1250000E+03  0.7546771E-02  0.1235069E+00
         21   -1    0    0  502  501  0.00000000000E+00  0.00000000000E+00  0.79909291657E+01  0.79909291657E+01  0.00000000000E+00 0. -1.
         21   -1    0    0  501  502 -0.00000000000E+00 -0.00000000000E+00 -0.48883551825E+03  0.48883551825E+03  0.00000000000E+00 0. -1.
         25    1    1    2    0    0  0.00000000000E+00  0.00000000000E+00 -0.48084458908E+03  0.49682644741E+03  0.12500000000E+03 0.  0.
<mgrwt>
<rscale>  2 0.12500000E+03</rscale>
<asrwt>0</asrwt>
<pdfrwt beam="1">  1       21 0.12293732E-02 0.12500000E+03</pdfrwt>
<pdfrwt beam="2">  1       21 0.75205494E-01 0.12500000E+03</pdfrwt>
<totfact> 0.42216694E+06</totfact>
</mgrwt>
</event>
<event>
 3    0  0.1730005E+001  0.1250000E+03  0.7546771E-02  0.1235069E+00
         21   -1    0    0  502  501  0.00000000000E+00  0.00000000000E+00  0.46679994641E+02  0.46679994641E+02  0.00000000000E+00 0.  1.
         21   -1    0    0  501  502 -0.00000000000E+00 -0.00000000000E+00 -0.83681457764E+02  0.83681457764E+02  0.00000000000E+00 0.  1.
         25    1    1    2    0    0  0.00000000000E+00  0.00000000000E+00 -0.37001463123E+02  0.13036145241E+03  0.12500000000E+03 0.  0.
<mgrwt>
<rscale>  2 0.12500000E+03</rscale>
<asrwt>0</asrwt>
<pdfrwt beam="1">  1       21 0.71815378E-02 0.12500000E+03</pdfrwt>
<pdfrwt beam="2">  1       21 0.12874070E-01 0.12500000E+03</pdfrwt>
<totfact> 0.73316646E+06</totfact>
</mgrwt>
</event>
<event>
 3    0  0.1651134E+001  0.1250000E+03  0.7546771E-02  0.1235069E+00
         21   -1    0    0  502  501  0.00000000000E+00  0.00000000000E+00  0.17981798435E+03  0.17981798435E+03  0.00000000000E+00 0. -1.
         21   -1    0    0  501  502 -0.00000000000E+00 -0.00000000000E+00 -0.21723355503E+02  0.21723355503E+02  0.00000000000E+00 0. -1.
         25    1    1    2    0    0  0.00000000000E+00  0.00000000000E+00  0.15809462885E+03  0.20154133986E+03  0.12500000000E+03 0.  0.
<mgrwt>
<rscale>  2 0.12500000E+03</rscale>
<asrwt>0</asrwt>
<pdfrwt beam="1">  1       21 0.27664304E-01 0.12500000E+03</pdfrwt>
<pdfrwt beam="2">  1       21 0.33420548E-02 0.12500000E+03</pdfrwt>
<totfact> 0.64760620E+06</totfact>
</mgrwt>
</event>
<event>
 3    0  0.1708610E+001  0.1250000E+03  0.7546771E-02  0.1235069E+00
         21   -1    0    0  502  501  0.00000000000E+00  0.00000000000E+00  0.75325287030E+02  0.75325287030E+02  0.00000000000E+00 0. -1.
         21   -1    0    0  501  502 -0.00000000000E+00 -0.00000000000E+00 -0.51858415069E+02  0.51858415069E+02  0.00000000000E+00 0. -1.
         25    1    1    2    0    0  0.00000000000E+00  0.00000000000E+00  0.23466871961E+02  0.12718370210E+03  0.12500000000E+03 0.  0.
<mgrwt>
<rscale>  2 0.12500000E+03</rscale>
<asrwt>0</asrwt>
<pdfrwt beam="1">  1       21 0.11588506E-01 0.12500000E+03</pdfrwt>
<pdfrwt beam="2">  1       21 0.79782177E-02 0.12500000E+03</pdfrwt>
<totfact> 0.73744149E+06</totfact>
</mgrwt>
</event>
<event>
 3    0  0.1483894E+001  0.1250000E+03  0.7546771E-02  0.1235069E+00
         21   -1    0    0  502  501  0.00000000000E+00  0.00000000000E+00  0.83530068673E+01  0.83530068673E+01  0.00000000000E+00 0.  1.
         21   -1    0    0  501  502 -0.00000000000E+00 -0.00000000000E+00 -0.46764597013E+03  0.46764597013E+03  0.00000000000E+00 0.  1.
         25    1    1    2    0    0  0.00000000000E+00  0.00000000000E+00 -0.45929296327E+03  0.47599897700E+03  0.12500000000E+03 0.  0.
<mgrwt>
<rscale>  2 0.12500000E+03</rscale>
<asrwt>0</asrwt>
<pdfrwt beam="1">  1       21 0.12850782E-02 0.12500000E+03</pdfrwt>
<pdfrwt beam="2">  1       21 0.71945524E-01 0.12500000E+03</pdfrwt>
<totfact> 0.43376345E+06</totfact>
</mgrwt>
</event>
<event>
 3    0  0.1656537E+001  0.1250000E+03  0.7546771E-02  0.1235069E+00
         21   -1    0    0  502  501  0.00000000000E+00  0.00000000000E+00  0.17758561266E+03  0.17758561266E+03  0.00000000000E+00 0. -1.
         21   -1    0    0  501  502 -0.00000000000E+00 -0.00000000000E+00 -0.21996432828E+02  0.21996432828E+02  0.00000000000E+00 0. -1.
         25    1    1    2    0    0  0.00000000000E+00  0.00000000000E+00  0.15558917983E+03  0.19958204548E+03  0.12500000000E+03 0.  0.
<mgrwt>
<rscale>  2 0.12500000E+03</rscale>
<asrwt>0</asrwt>
<pdfrwt beam="1">  1       21 0.27320863E-01 0.12500000E+03</pdfrwt>
<pdfrwt beam="2">  1       21 0.33840667E-02 0.12500000E+03</pdfrwt>
<totfact> 0.64972569E+06</totfact>
</mgrwt>
</event>
<event>
 3    0  0.1633020E+001  0.1250000E+03  0.7546771E-02  0.1235069E+00
         21   -1    0    0  502  501  0.00000000000E+00  0.00000000000E+00  0.17589714635E+02  0.17589714635E+02  0.00000000000E+00 0. -1.
         21   -1    0    0  501  502 -0.00000000000E+00 -0.00000000000E+00 -0.22207580288E+03  0.22207580288E+03  0.00000000000E+00 0. -1.
         25    1    1    2    0    0  0.00000000000E+00  0.00000000000E+00 -0.20448608824E+03  0.23966551751E+03  0.12500000000E+03 0.  0.
<mgrwt>
<rscale>  2 0.12500000E+03</rscale>
<asrwt>0</asrwt>
<pdfrwt beam="1">  1       21 0.27061101E-02 0.12500000E+03</pdfrwt>
<pdfrwt beam="2">  1       21 0.34165507E-01 0.12500000E+03</pdfrwt>
<totfact> 0.60865045E+06</totfact>
</mgrwt>
</event>
<event>
 3    0  0.1473595E+001  0.1250000E+03  0.7546771E-02  0.1235069E+00
         21   -1    0    0  502  501  0.00000000000E+00  0.00000000000E+00  0.79176007952E+01  0.79176007952E+01  0.00000000000E+00 0.  1.
         21   -1    0    0  501  502 -0.00000000000E+00 -0.00000000000E+00 -0.49336283819E+03  0.49336283819E+03  0.00000000000E+00 0.  1.
         25    1    1    2    0    0  0.00000000000E+00  0.00000000000E+00 -0.48544523740E+03  0.50128043899E+03  0.12500000000E+03 0.  0.
<mgrwt>
<rscale>  2 0.12500000E+03</rscale>
<asrwt>0</asrwt>
<pdfrwt beam="1">  1       21 0.12180927E-02 0.12500000E+03</pdfrwt>
<pdfrwt beam="2">  1       21 0.75901957E-01 0.12500000E+03</pdfrwt>
<totfact> 0.41974721E+06</totfact>
</mgrwt>
</event>
<event>
 3    0  0.1735819E+001  0.1250000E+03  0.7546771E-02  0.1235069E+00
         21   -1    0    0  502  501  0.00000000000E+00  0.00000000000E+00  0.72564543287E+02  0.72564543287E+02  0.00000000000E+00 0.  1.
         21   -1    0    0  501  502 -0.00000000000E+00 -0.00000000000E+00 -0.53831386832E+02  0.53831386832E+02  0.00000000000E+00 0.  1.
         25    1    1    2    0    0  0.00000000000E+00  0.00000000000E+00  0.18733156455E+02  0.12639593012E+03  0.12500000000E+03 0.  0.
<mgrwt>
<rscale>  2 0.12500000E+03</rscale>
<asrwt>0</asrwt>
<pdfrwt beam="1">  1       21 0.11163776E-01 0.12500000E+03</pdfrwt>
<pdfrwt beam="2">  1       21 0.82817518E-02 0.12500000E+03</pdfrwt>
<totfact> 0.73851625E+06</totfact>
</mgrwt>
</event>
<event>
 3    0  0.1564057E+001  0.1250000E+03  0.7546771E-02  0.1235069E+00
         21   -1    0    0  502  501  0.00000000000E+00  0.00000000000E+00  0.32958084932E+03  0.32958084932E+03  0.00000000000E+00 0. -1.
         21   -1    0    0  501  502 -0.00000000000E+00 -0.00000000000E+00 -0.11852175295E+02  0.11852175295E+02  0.00000000000E+00 0. -1.
         25    1    1    2    0    0  0.00000000000E+00  0.00000000000E+00  0.31772867402E+03  0.34143302461E+03  0.12500000000E+03 0.  0.
<mgrwt>
<rscale>  2 0.12500000E+03</rscale>
<asrwt>0</asrwt>
<pdfrwt beam="1">  1       21 0.50704739E-01 0.12500000E+03</pdfrwt>
<pdfrwt beam="2">  1       21 0.18234118E-02 0.12500000E+03</pdfrwt>
<totfact> 0.52177421E+06</totfact>
</mgrwt>
</event>
<event>
 3    0  0.1610368E+001  0.1250000E+03  0.7546771E-02  0.1235069E+00
         21   -1    0    0  502  501  0.00000000000E+00  0.00000000000E+00  0.27523004723E+03  0.27523004723E+03  0.00000000000E+00 0.  1.
         21   -1    0    0  501  502 -0.00000000000E+00 -0.00000000000E+00 -0.14192672781E+02  0.14192672781E+02  0.00000000000E+00 0.  1.
         25    1    1    2    0    0  0.00000000000E+00  0.00000000000E+00  0.26103737445E+03  0.28942272002E+03  0.12500000000E+03 0.  0.
<mgrwt>
<rscale>  2 0.12500000E+03</rscale>
<asrwt>0</asrwt>
<pdfrwt beam="1">  1       21 0.42343080E-01 0.12500000E+03</pdfrwt>
<pdfrwt beam="2">  1       21 0.21834883E-02 0.12500000E+03</pdfrwt>
<totfact> 0.56346806E+06</totfact>
</mgrwt>
</event>
<event>
 3    0  0.1368989E+001  0.1250000E+03  0.7546771E-02  0.1235069E+00
         21   -1    0    0  502  501  0.00000000000E+00  0.00000000000E+00  0.36749571660E+01  0.36749571660E+01  0.00000000000E+00 0.  1.
         21   -1    0    0  501  502 -0.00000000000E+00 -0.00000000000E+00 -0.10629375592E+04  0.10629375592E+04  0.00000000000E+00 0.  1.
         25    1    1    2    0    0  0.00000000000E+00  0.00000000000E+00 -0.10592626020E+04  0.10666125163E+04  0.12500000000E+03 0.  0.
<mgrwt>
<rscale>  2 0.12500000E+03</rscale>
<asrwt>0</asrwt>
<pdfrwt beam="1">  1       21 0.56537819E-03 0.12500000E+03</pdfrwt>
<pdfrwt beam="2">  1       21 0.16352881E+00 0.12500000E+03</pdfrwt>
<totfact> 0.22009642E+06</totfact>
</mgrwt>
</event>
<event>
 3    0  0.1633759E+001  0.1250000E+03  0.7546771E-02  0.1235069E+00
         21   -1    0    0  502  501  0.00000000000E+00  0.00000000000E+00  0.23105866104E+03  0.23105866104E+03  0.00000000000E+00 0.  1.
         21   -1    0    0  501  502 -0.00000000000E+00 -0.00000000000E+00 -0.16905880015E+02  0.16905880015E+02  0.00000000000E+00 0.  1.
         25    1    1    2    0    0  0.00000000000E+00  0.00000000000E+00  0.21415278102E+03  0.24796454105E+03  0.12500000000E+03 0.  0.
<mgrwt>
<rscale>  2 0.12500000E+03</rscale>
<asrwt>0</asrwt>
<pdfrwt beam="1">  1       21 0.35547484E-01 0.12500000E+03</pdfrwt>
<pdfrwt beam="2">  1       21 0.26009048E-02 0.12500000E+03</pdfrwt>
<totfact> 0.60070356E+06</totfact>
</mgrwt>
</event>
<event>
 3    0  0.1379451E+001  0.1250000E+03  0.7546771E-02  0.1235069E+00
         21   -1    0    0  502  501  0.00000000000E+00  0.00000000000E+00  0.60758656324E+01  0.60758656324E+01  0.00000000000E+00 0. -1.
         21   -1    0    0  501  502 -0.00000000000E+00 -0.00000000000E+00 -0.64291250603E+03  0.64291250603E+03  0.00000000000E+00 0. -1.
         25    1    1    2    0    0  0.00000000000E+00  0.00000000000E+00 -0.63683664039E+03  0.64898837166E+03  0.12500000000E+03 0.  0.
<mgrwt>
<rscale>  2 0.12500000E+03</rscale>
<asrwt>0</asrwt>
<pdfrwt beam="1">  1       21 0.93474856E-03 0.12500000E+03</pdfrwt>
<pdfrwt beam="2">  1       21 0.98909616E-01 0.12500000E+03</pdfrwt>
<totfact> 0.34966640E+06</totfact>
</mgrwt>
</event>
<event>
 3    0  0.1560611E+001  0.1250000E+03  0.7546771E-02  0.1235069E+00
         21   -1    0    0  502  501  0.00000000000E+00  0.00000000000E+00  0.33116622025E+03  0.33116622025E+03  0.00000000000E+00 0. -1.
         21   -1    0    0  501  502 -0.00000000000E+00 -0.00000000000E+00 -0.11795436132E+02  0.11795436132E+02  0.00000000000E+00 0. -1.
         25    1    1    2    0    0  0.00000000000E+00  0.00000000000E+00  0.31937078411E+03  0.34296165638E+03  0.12500000000E+03 0.  0.
<mgrwt>
<rscale>  2 0.12500000E+03</rscale>
<asrwt>0</asrwt>
<pdfrwt beam="1">  1       21 0.50948642E-01 0.12500000E+03</pdfrwt>
<pdfrwt beam="2">  1       21 0.18146827E-02 0.12500000E+03</pdfrwt>
<totfact> 0.52062474E+06</totfact>
</mgrwt>
</event>
<event>
 3    0  0.1640709E+001  0.1250000E+03  0.7546771E-02  0.1235069E+00
         21   -1    0    0  502  501  0.00000000000E+00  0.00000000000E+00  0.17082783444E+02  0.17082783444E+02  0.00000000000E+00 0.  1.
         21   -1    0    0  501  502 -0.00000000000E+00 -0.00000000000E+00 -0.22866589703E+03  0.22866589703E+03  0.00000000000E+00 0.  1.
         25    1    1    2    0    0  0.00000000000E+00  0.00000000000E+00 -0.21158311359E+03  0.24574868047E+03  0.12500000000E+03 0.  0.
<mgrwt>
<rscale>  2 0.12500000E+03</rscale>
<asrwt>0</asrwt>
<pdfrwt beam="1">  1       21 0.26281205E-02 0.12500000E+03</pdfrwt>
<pdfrwt beam="2">  1       21 0.35179369E-01 0.12500000E+03</pdfrwt>
<totfact> 0.60280769E+06</totfact>
</mgrwt>
</event>
<event>
 3    0  0.1544648E+001  0.1250000E+03  0.7546771E-02  0.1235069E+00
         21   -1    0    0  502  501  0.00000000000E+00  0.00000000000E+00  0.33857794493E+03  0.33857794493E+03  0.00000000000E+00 0. -1.
         21   -1    0    0  501  502 -0.00000000000E+00 -0.00000000000E+00 -0.11537225205E+02  0.11537225205E+02  0.00000000000E+00 0. -1.
         25    1    1    2    0    0  0.00000000000E+00  0.00000000000E+00  0.32704071973E+03  0.35011517014E+03  0.12500000000E+03 0.  0.
<mgrwt>
<rscale>  2 0.12500000E+03</rscale>
<asrwt>0</asrwt>
<pdfrwt beam="1">  1       21 0.52088907E-01 0.12500000E+03</pdfrwt>
<pdfrwt beam="2">  1       21 0.17749580E-02 0.12500000E+03</pdfrwt>
<totfact> 0.51529931E+06</totfact>
</mgrwt>
</event>
<event>
 3    0  0.1730792E+001  0.1250000E+03  0.7546771E-02  0.1235069E+00
         21   -1    0    0  502  501  0.00000000000E+00  0.00000000000E+00  0.43580895097E+02  0.43580895097E+02  0.00000000000E+00 0.  1.
         21   -1    0    0  501  502 -0.00000000000E+00 -0.00000000000E+00 -0.89632165456E+02  0.89632165456E+02  0.00000000000E+00 0.  1.
         25    1    1    2    0    0  0.00000000000E+00  0.00000000000E+00 -0.46051270359E+02  0.13321306055E+03  0.12500000000E+03 0.  0.
<mgrwt>
<rscale>  2 0.12500000E+03</rscale>
<asrwt>0</asrwt>
<pdfrwt beam="1">  1       21 0.67047532E-02 0.12500000E+03</pdfrwt>
<pdfrwt beam="2">  1       21 0.13789564E-01 0.12500000E+03</pdfrwt>
<totfact> 0.72933961E+06</totfact>
</mgrwt>
</event>
<event>
 3    0  0.1398646E+001  0.1250000E+03  0.7546771E-02  0.1235069E+00
         21   -1    0    0  502  501  0.00000000000E+00  0.00000000000E+00  0.67356280828E+03  0.67356280828E+03  0.00000000000E+00 0. -1.
         21   -1    0    0  501  502 -0.00000000000E+00 -0.00000000000E+00 -0.57993849303E+01  0.57993849303E+01  0.00000000000E+00 0. -1.
         25    1    1    2    0    0  0.00000000000E+00  0.00000000000E+00  0.66776342335E+03  0.67936219321E+03  0.12500000000E+03 0.  0.
<mgrwt>
<rscale>  2 0.12500000E+03</rscale>
<asrwt>0</asrwt>
<pdfrwt beam="1">  1       21 0.10362499E+00 0.12500000E+03</pdfrwt>
<pdfrwt beam="2">  1       21 0.89221360E-03 0.12500000E+03</pdfrwt>
<totfact> 0.33721106E+06</totfact>
</mgrwt>
</event>
<event>
 3    0  0.1711949E+001  0.1250000E+03  0.7546771E-02  0.1235069E+00
         21   -1    0    0  502  501  0.00000000000E+00  0.00000000000E+00  0.13951402467E+03  0.13951402467E+03  0.00000000000E+00 0.  1.
         21   -1    0    0  501  502 -0.00000000000E+00 -0.00000000000E+00 -0.27998977229E+02  0.27998977229E+02  0.00000000000E+00 0.  1.
         25    1    1    2    0    0  0.00000000000E+00  0.00000000000E+00  0.11151504744E+03  0.16751300190E+03  0.12500000000E+03 0.  0.
<mgrwt>
<rscale>  2 0.12500000E+03</rscale>
<asrwt>0</asrwt>
<pdfrwt beam="1">  1       21 0.21463696E-01 0.12500000E+03</pdfrwt>
<pdfrwt beam="2">  1       21 0.43075350E-02 0.12500000E+03</pdfrwt>
<totfact> 0.68612942E+06</totfact>
</mgrwt>
</event>
<event>
 3    0  0.1458573E+001  0.1250000E+03  0.7546771E-02  0.1235069E+00
         21   -1    0    0  502  501  0.00000000000E+00  0.00000000000E+00  0.72567752043E+01  0.72567752043E+01  0.00000000000E+00 0.  1.
         21   -1    0    0  501  502 -0.00000000000E+00 -0.00000000000E+00 -0.53829006549E+03  0.53829006549E+03  0.00000000000E+00 0.  1.
         25    1    1    2    0    0  0.00000000000E+00  0.00000000000E+00 -0.53103329029E+03  0.54554684070E+03  0.12500000000E+03 0.  0.
<mgrwt>
<rscale>  2 0.12500000E+03</rscale>
<asrwt>0</asrwt>
<pdfrwt beam="1">  1       21 0.11164268E-02 0.12500000E+03</pdfrwt>
<pdfrwt beam="2">  1       21 0.82813866E-01 0.12500000E+03</pdfrwt>
<totfact> 0.39676994E+06</totfact>
</mgrwt>
</event>
<event>
 3    0  0.1733012E+001  0.1250000E+03  0.7546771E-02  0.1235069E+00
         21   -1    0    0  502  501  0.00000000000E+00  0.00000000000E+00  0.47959339869E+02  0.47959339869E+02  0.00000000000E+00 0.  1.
         21   -1    0    0  501  502 -0.00000000000E+00 -0.00000000000E+00 -0.81449202818E+02  0.81449202818E+02  0.00000000000E+00 0.  1.
         25    1    1    2    0    0  0.00000000000E+00  0.00000000000E+00 -0.33489862950E+02  0.12940854269E+03  0.12500000000E+03 0.  0.
<mgrwt>
<rscale>  2 0.12500000E+03</rscale>
<asrwt>0</asrwt>
<pdfrwt beam="1">  1       21 0.73783600E-02 0.12500000E+03</pdfrwt>
<pdfrwt beam="2">  1       21 0.12530646E-01 0.12500000E+03</pdfrwt>
<totfact> 0.73444071E+06</totfact>
</mgrwt>
</event>
<event>
 3    0  0.1729926E+001  0.1250000E+03  0.7546771E-02  0.1235069E+00
         21   -1    0    0  502  501  0.00000000000E+00  0.00000000000E+00  0.90599492335E+02  0.90599492335E+02  0.00000000000E+00 0.  1.
         21   -1    0    0  501  502 -0.00000000000E+00 -0.00000000000E+00 -0.43115583756E+02  0.43115583756E+02  0.00000000000E+00 0.  1.
         25    1    1    2    0    0  0.00000000000E+00  0.00000000000E+00  0.47483908579E+02  0.13371507609E+03  0.12500000000E+03 0.  0.
<mgrwt>
<rscale>  2 0.12500000E+03</rscale>
<asrwt>0</asrwt>
<pdfrwt beam="1">  1       21 0.13938383E-01 0.12500000E+03</pdfrwt>
<pdfrwt beam="2">  1       21 0.66331668E-02 0.12500000E+03</pdfrwt>
<totfact> 0.72867060E+06</totfact>
</mgrwt>
</event>
<event>
 3    0  0.1702302E+001  0.1250000E+03  0.7546771E-02  0.1235069E+00
         21   -1    0    0  502  501  0.00000000000E+00  0.00000000000E+00  0.88337491680E+02  0.88337491680E+02  0.00000000000E+00 0. -1.
         21   -1    0    0  501  502 -0.00000000000E+00 -0.00000000000E+00 -0.44219616447E+02  0.44219616447E+02  0.00000000000E+00 0. -1.
         25    1    1    2    0    0  0.00000000000E+00  0.00000000000E+00  0.44117875232E+02  0.13255710813E+03  0.12500000000E+03 0.  0.
<mgrwt>
<rscale>  2 0.12500000E+03</rscale>
<asrwt>0</asrwt>
<pdfrwt beam="1">  1       21 0.13590383E-01 0.12500000E+03</pdfrwt>
<pdfrwt beam="2">  1       21 0.68030179E-02 0.12500000E+03</pdfrwt>
<totfact> 0.73021597E+06</totfact>
</mgrwt>
</event>
<event>
 3    0  0.1368989E+001  0.1250000E+03  0.7546771E-02  0.1235069E+00
         21   -1    0    0  502  501  0.00000000000E+00  0.00000000000E+00  0.53502891692E+01  0.53502891692E+01  0.00000000000E+00 0. -1.
         21   -1    0    0  501  502 -0.00000000000E+00 -0.00000000000E+00 -0.73010072474E+03  0.73010072474E+03  0.00000000000E+00 0. -1.
         25    1    1    2    0    0  0.00000000000E+00  0.00000000000E+00 -0.72475043557E+03  0.73545101391E+03  0.12500000000E+03 0.  0.
<mgrwt>
<rscale>  2 0.12500000E+03</rscale>
<asrwt>0</asrwt>
<pdfrwt beam="1">  1       21 0.82312167E-03 0.12500000E+03</pdfrwt>
<pdfrwt beam="2">  1       21 0.11232315E+00 0.12500000E+03</pdfrwt>
<totfact> 0.31587319E+06</totfact>
</mgrwt>
</event>
<event>
 3    0  0.1703824E+001  0.1250000E+03  0.7546771E-02  0.1235069E+00
         21   -1    0    0  502  501  0.00000000000E+00  0.00000000000E+00  0.44932411584E+02  0.44932411584E+02  0.00000000000E+00 0. -1.
         21   -1    0    0  501  502 -0.00000000000E+00 -0.00000000000E+00 -0.86936130563E+02  0.86936130563E+02  0.00000000000E+00 0. -1.
         25    1    1    2    0    0  0.00000000000E+00  0.00000000000E+00 -0.42003718978E+02  0.13186854215E+03  0.12500000000E+03 0.  0.
<mgrwt>
<rscale>  2 0.12500000E+03</rscale>
<asrwt>0</asrwt>
<pdfrwt beam="1">  1       21 0.69126787E-02 0.12500000E+03</pdfrwt>
<pdfrwt beam="2">  1       21 0.13374789E-01 0.12500000E+03</pdfrwt>
<totfact> 0.73113867E+06</totfact>
</mgrwt>
</event>
<event>
 3    0  0.1572257E+001  0.1250000E+03  0.7546771E-02  0.1235069E+00
         21   -1    0    0  502  501  0.00000000000E+00  0.00000000000E+00  0.12011888854E+02  0.12011888854E+02  0.00000000000E+00 0.  1.
         21   -1    0    0  501  502 -0.00000000000E+00 -0.00000000000E+00 -0.32519864672E+03  0.32519864672E+03  0.00000000000E+00 0.  1.
         25    1    1    2    0    0  0.00000000000E+00  0.00000000000E+00 -0.31318675787E+03  0.33721053558E+03  0.12500000000E+03 0.  0.
<mgrwt>
<rscale>  2 0.12500000E+03</rscale>
<asrwt>0</asrwt>
<pdfrwt beam="1">  1       21 0.18479828E-02 0.12500000E+03</pdfrwt>
<pdfrwt beam="2">  1       21 0.50030564E-01 0.12500000E+03</pdfrwt>
<totfact> 0.52497066E+06</totfact>
</mgrwt>
</event>
<event>
 3    0  0.1726164E+001  0.1250000E+03  0.7546771E-02  0.1235069E+00
         21   -1    0    0  502  501  0.00000000000E+00  0.00000000000E+00  0.88797701985E+02  0.88797701985E+02  0.00000000000E+00 0.  1.
         21   -1    0    0  501  502 -0.00000000000E+00 -0.00000000000E+00 -0.43990440211E+02  0.43990440211E+02  0.00000000000E+00 0.  1.
         25    1    1    2    0    0  0.00000000000E+00  0.00000000000E+00  0.44807261774E+02  0.13278814220E+03  0.12500000000E+03 0.  0.
<mgrwt>
<rscale>  2 0.12500000E+03</rscale>
<asrwt>0</asrwt>
<pdfrwt beam="1">  1       21 0.13661185E-01 0.12500000E+03</pdfrwt>
<pdfrwt beam="2">  1       21 0.67677600E-02 0.12500000E+03</pdfrwt>
<totfact> 0.72990702E+06</totfact>
</mgrwt>
</event>
<event>
 3    0  0.1736505E+001  0.1250000E+03  0.7546771E-02  0.1235069E+00
         21   -1    0    0  502  501  0.00000000000E+00  0.00000000000E+00  0.57309655338E+02  0.57309655338E+02  0.00000000000E+00 0.  1.
         21   -1    0    0  501  502 -0.00000000000E+00 -0.00000000000E+00 -0.68160416896E+02  0.68160416896E+02  0.00000000000E+00 0.  1.
         25    1    1    2    0    0  0.00000000000E+00  0.00000000000E+00 -0.10850761558E+02  0.12547007223E+03  0.12500000000E+03 0.  0.
<mgrwt>
<rscale>  2 0.12500000E+03</rscale>
<asrwt>0</asrwt>
<pdfrwt beam="1">  1       21 0.88168701E-02 0.12500000E+03</pdfrwt>
<pdfrwt beam="2">  1       21 0.10486218E-01 0.12500000E+03</pdfrwt>
<totfact> 0.73979584E+06</totfact>
</mgrwt>
</event>
<event>
 3    0  0.1434502E+001  0.1250000E+03  0.7546771E-02  0.1235069E+00
         21   -1    0    0  502  501  0.00000000000E+00  0.00000000000E+00  0.55332874755E+03  0.55332874755E+03  0.00000000000E+00 0.  1.
         21   -1    0    0  501  502 -0.00000000000E+00 -0.00000000000E+00 -0.70595464582E+01  0.70595464582E+01  0.00000000000E+00 0.  1.
         25    1    1    2    0    0  0.00000000000E+00  0.00000000000E+00  0.54626920109E+03  0.56038829401E+03  0.12500000000E+03 0.  0.
<mgrwt>
<rscale>  2 0.12500000E+03</rscale>
<asrwt>0</asrwt>
<pdfrwt beam="1">  1       21 0.85127466E-01 0.12500000E+03</pdfrwt>
<pdfrwt beam="2">  1       21 0.10860845E-02 0.12500000E+03</pdfrwt>
<totfact> 0.38947582E+06</totfact>
</mgrwt>
</event>
<event>
 3    0  0.1574880E+001  0.1250000E+03  0.7546771E-02  0.1235069E+00
         21   -1    0    0  502  501  0.00000000000E+00  0.00000000000E+00  0.35852883531E+03  0.35852883531E+03  0.00000000000E+00 0.  1.
         21   -1    0    0  501  502 -0.00000000000E+00 -0.00000000000E+00 -0.10895218502E+02  0.10895218502E+02  0.00000000000E+00 0.  1.
         25    1    1    2    0    0  0.00000000000E+00  0.00000000000E+00  0.34763361681E+03  0.36942405381E+03  0.12500000000E+03 0.  0.
<mgrwt>
<rscale>  2 0.12500000E+03</rscale>
<asrwt>0</asrwt>
<pdfrwt beam="1">  1       21 0.55158273E-01 0.12500000E+03</pdfrwt>
<pdfrwt beam="2">  1       21 0.16761877E-02 0.12500000E+03</pdfrwt>
<totfact> 0.50135134E+06</totfact>
</mgrwt>
</event>
<event>
 3    0  0.1648678E+001  0.1250000E+03  0.7546771E-02  0.1235069E+00
         21   -1    0    0  502  501  0.00000000000E+00  0.00000000000E+00  0.20730720473E+02  0.20730720473E+02  0.00000000000E+00 0. -1.
         21   -1    0    0  501  502 -0.00000000000E+00 -0.00000000000E+00 -0.18842808696E+03  0.18842808696E+03  0.00000000000E+00 0. -1.
         25    1    1    2    0    0  0.00000000000E+00  0.00000000000E+00 -0.16769736649E+03  0.20915880743E+03  0.12500000000E+03 0.  0.
<mgrwt>
<rscale>  2 0.12500000E+03</rscale>
<asrwt>0</asrwt>
<pdfrwt beam="1">  1       21 0.31893415E-02 0.12500000E+03</pdfrwt>
<pdfrwt beam="2">  1       21 0.28988937E-01 0.12500000E+03</pdfrwt>
<totfact> 0.63948147E+06</totfact>
</mgrwt>
</event>
<event>
 3    0  0.1645868E+001  0.1250000E+03  0.7546771E-02  0.1235069E+00
         21   -1    0    0  502  501  0.00000000000E+00  0.00000000000E+00  0.23814440600E+03  0.23814440600E+03  0.00000000000E+00 0.  1.
         21   -1    0    0  501  502 -0.00000000000E+00 -0.00000000000E+00 -0.16402862723E+02  0.16402862723E+02  0.00000000000E+00 0.  1.
         25    1    1    2    0    0  0.00000000000E+00  0.00000000000E+00  0.22174154328E+03  0.25454726873E+03  0.12500000000E+03 0.  0.
<mgrwt>
<rscale>  2 0.12500000E+03</rscale>
<asrwt>0</asrwt>
<pdfrwt beam="1">  1       21 0.36637599E-01 0.12500000E+03</pdfrwt>
<pdfrwt beam="2">  1       21 0.25235175E-02 0.12500000E+03</pdfrwt>
<totfact> 0.59452694E+06</totfact>
</mgrwt>
</event>
<event>
 3    0  0.1368989E+001  0.1250000E+03  0.7546771E-02  0.1235069E+00
         21   -1    0    0  502  501  0.00000000000E+00  0.00000000000E+00  0.51052656047E+01  0.51052656047E+01  0.00000000000E+00 0.  1.
         21   -1    0    0  501  502 -0.00000000000E+00 -0.00000000000E+00 -0.76514138587E+03  0.76514138587E+03  0.00000000000E+00 0.  1.
         25    1    1    2    0    0  0.00000000000E+00  0.00000000000E+00 -0.76003612026E+03  0.77024665147E+03  0.12500000000E+03 0.  0.
<mgrwt>
<rscale>  2 0.12500000E+03</rscale>
<asrwt>0</asrwt>
<pdfrwt beam="1">  1       21 0.78542510E-03 0.12500000E+03</pdfrwt>
<pdfrwt beam="2">  1       21 0.11771412E+00 0.12500000E+03</pdfrwt>
<totfact> 0.30369191E+06</totfact>
</mgrwt>
</event>
<event>
 3    0  0.1712331E+001  0.1250000E+03  0.7546771E-02  0.1235069E+00
         21   -1    0    0  502  501  0.00000000000E+00  0.00000000000E+00  0.62842856358E+02  0.62842856358E+02  0.00000000000E+00 0. -1.
         21   -1    0    0  501  502 -0.00000000000E+00 -0.00000000000E+00 -0.62159014189E+02  0.62159014189E+02  0.00000000000E+00 0. -1.
         25    1    1    2    0    0  0.00000000000E+00  0.00000000000E+00  0.68384216883E+00  0.12500187055E+03  0.12500000000E+03 0.  0.
<mgrwt>
<rscale>  2 0.12500000E+03</rscale>
<asrwt>0</asrwt>
<pdfrwt beam="1">  1       21 0.96681318E-02 0.12500000E+03</pdfrwt>
<pdfrwt beam="2">  1       21 0.95629252E-02 0.12500000E+03</pdfrwt>
<totfact> 0.74043329E+06</totfact>
</mgrwt>
</event>
<event>
 3    0  0.1723662E+001  0.1250000E+03  0.7546771E-02  0.1235069E+00
         21   -1    0    0  502  501  0.00000000000E+00  0.00000000000E+00  0.35091189468E+02  0.35091189468E+02  0.00000000000E+00 0.  1.
         21   -1    0    0  501  502 -0.00000000000E+00 -0.00000000000E+00 -0.11131711576E+03  0.11131711576E+03  0.00000000000E+00 0.  1.
         25    1    1    2    0    0  0.00000000000E+00  0.00000000000E+00 -0.76225926288E+02  0.14640830522E+03  0.12500000000E+03 0.  0.
<mgrwt>
<rscale>  2 0.12500000E+03</rscale>
<asrwt>0</asrwt>
<pdfrwt beam="1">  1       21 0.53986446E-02 0.12500000E+03</pdfrwt>
<pdfrwt beam="2">  1       21 0.17125710E-01 0.12500000E+03</pdfrwt>
<totfact> 0.71213355E+06</totfact>
</mgrwt>
</event>
<event>
 3    0  0.1490182E+001  0.1250000E+03  0.7546771E-02  0.1235069E+00
         21   -1    0    0  502  501  0.00000000000E+00  0.00000000000E+00  0.40535341955E+03  0.40535341955E+03  0.00000000000E+00 0. -1.
         21   -1    0    0  501  502 -0.00000000000E+00 -0.00000000000E+00 -0.96366523918E+01  0.96366523918E+01  0.00000000000E+00 0. -1.
         25    1    1    2    0    0  0.00000000000E+00  0.00000000000E+00  0.39571676716E+03  0.41499007194E+03  0.12500000000E+03 0.  0.
<mgrwt>
<rscale>  2 0.12500000E+03</rscale>
<asrwt>0</asrwt>
<pdfrwt beam="1">  1       21 0.62362052E-01 0.12500000E+03</pdfrwt>
<pdfrwt beam="2">  1       21 0.14825622E-02 0.12500000E+03</pdfrwt>
<totfact> 0.47062719E+06</totfact>
</mgrwt>
</event>
<event>
 3    0  0.1607249E+001  0.1250000E+03  0.7546771E-02  0.1235069E+00
         21   -1    0    0  502  501  0.00000000000E+00  0.00000000000E+00  0.14593457747E+02  0.14593457747E+02  0.00000000000E+00 0.  1.
         21   -1    0    0  501  502 -0.00000000000E+00 -0.00000000000E+00 -0.26767131326E+03  0.26767131326E+03  0.00000000000E+00 0.  1.
         25    1    1    2    0    0  0.00000000000E+00  0.00000000000E+00 -0.25307785551E+03  0.28226477100E+03  0.12500000000E+03 0.  0.
<mgrwt>
<rscale>  2 0.12500000E+03</rscale>
<asrwt>0</asrwt>
<pdfrwt beam="1">  1       21 0.22451475E-02 0.12500000E+03</pdfrwt>
<pdfrwt beam="2">  1       21 0.41180199E-01 0.12500000E+03</pdfrwt>
<totfact> 0.56963017E+06</totfact>
</mgrwt>
</event>
<event>
 3    0  0.1368989E+001  0.1250000E+03  0.7546771E-02  0.1235069E+00
         21   -1    0    0  502  501  0.00000000000E+00  0.00000000000E+00  0.13115632516E+04  0.13115632516E+04  0.00000000000E+00 0. -1.
         21   -1    0    0  501  502 -0.00000000000E+00 -0.00000000000E+00 -0.29783161393E+01  0.29783161393E+01  0.00000000000E+00 0. -1.
         25    1    1    2    0    0  0.00000000000E+00  0.00000000000E+00  0.13085849355E+04  0.13145415678E+04  0.12500000000E+03 0.  0.
<mgrwt>
<rscale>  2 0.12500000E+03</rscale>
<asrwt>0</asrwt>
<pdfrwt beam="1">  1       21 0.20177850E+00 0.12500000E+03</pdfrwt>
<pdfrwt beam="2">  1       21 0.45820353E-03 0.12500000E+03</pdfrwt>
<totfact> 0.16993299E+06</totfact>
</mgrwt>
</event>
<event>
 3    0  0.1535866E+001  0.1250000E+03  0.7546771E-02  0.1235069E+00
         21   -1    0    0  502  501  0.00000000000E+00  0.00000000000E+00  0.10178798001E+02  0.10178798001E+02  0.00000000000E+00 0. -1.
         21   -1    0    0  501  502 -0.00000000000E+00 -0.00000000000E+00 -0.38376338734E+03  0.38376338734E+03  0.00000000000E+00 0. -1.
         25    1    1    2    0    0  0.00000000000E+00  0.00000000000E+00 -0.37358458934E+03  0.39394218534E+03  0.12500000000E+03 0.  0.
<mgrwt>
<rscale>  2 0.12500000E+03</rscale>
<asrwt>0</asrwt>
<pdfrwt beam="1">  1       21 0.15659693E-02 0.12500000E+03</pdfrwt>
<pdfrwt beam="2">  1       21 0.59040508E-01 0.12500000E+03</pdfrwt>
<totfact> 0.48445777E+06</totfact>
</mgrwt>
</event>
<event>
 3    0  0.1703308E+001  0.1250000E+03  0.7546771E-02  0.1235069E+00
         21   -1    0    0  502  501  0.00000000000E+00  0.00000000000E+00  0.26650698338E+02  0.26650698338E+02  0.00000000000E+00 0.  1.
         21   -1    0    0  501  502 -0.00000000000E+00 -0.00000000000E+00 -0.14657214420E+03  0.14657214420E+03  0.00000000000E+00 0.  1.
         25    1    1    2    0    0  0.00000000000E+00  0.00000000000E+00 -0.11992144587E+03  0.17322284254E+03  0.12500000000E+03 0.  0.
<mgrwt>
<rscale>  2 0.12500000E+03</rscale>
<asrwt>0</asrwt>
<pdfrwt beam="1">  1       21 0.41001075E-02 0.12500000E+03</pdfrwt>
<pdfrwt beam="2">  1       21 0.22549560E-01 0.12500000E+03</pdfrwt>
<totfact> 0.67937625E+06</totfact>
</mgrwt>
</event>
<event>
 3    0  0.1580876E+001  0.1250000E+03  0.7546771E-02  0.1235069E+00
         21   -1    0    0  502  501  0.00000000000E+00  0.00000000000E+00  0.12158169154E+02  0.12158169154E+02  0.00000000000E+00 0.  1.
         21   -1    0    0  501  502 -0.00000000000E+00 -0.00000000000E+00 -0.32128603827E+03  0.32128603827E+03  0.00000000000E+00 0.  1.
         25    1    1    2    0    0  0.00000000000E+00  0.00000000000E+00 -0.30912786911E+03  0.33344420742E+03  0.12500000000E+03 0.  0.
<mgrwt>
<rscale>  2 0.12500000E+03</rscale>
<asrwt>0</asrwt>
<pdfrwt beam="1">  1       21 0.18704879E-02 0.12500000E+03</pdfrwt>
<pdfrwt beam="2">  1       21 0.49428612E-01 0.12500000E+03</pdfrwt>
<totfact> 0.52784867E+06</totfact>
</mgrwt>
</event>
<event>
 3    0  0.1709863E+001  0.1250000E+03  0.7546771E-02  0.1235069E+00
         21   -1    0    0  502  501  0.00000000000E+00  0.00000000000E+00  0.70777144534E+02  0.70777144534E+02  0.00000000000E+00 0. -1.
         21   -1    0    0  501  502 -0.00000000000E+00 -0.00000000000E+00 -0.55190839157E+02  0.55190839157E+02  0.00000000000E+00 0. -1.
         25    1    1    2    0    0  0.00000000000E+00  0.00000000000E+00  0.15586305376E+02  0.12596798369E+03  0.12500000000E+03 0.  0.
<mgrwt>
<rscale>  2 0.12500000E+03</rscale>
<asrwt>0</asrwt>
<pdfrwt beam="1">  1       21 0.10888791E-01 0.12500000E+03</pdfrwt>
<pdfrwt beam="2">  1       21 0.84908984E-02 0.12500000E+03</pdfrwt>
<totfact> 0.73910454E+06</totfact>
</mgrwt>
</event>
<event>
 3    0  0.1368989E+001  0.1250000E+03  0.7546771E-02  0.1235069E+00
         21   -1    0    0  502  501  0.00000000000E+00  0.00000000000E+00  0.25452811446E+01  0.25452811446E+01  0.00000000000E+00 0.  1.
         21   -1    0    0  501  502 -0.00000000000E+00 -0.00000000000E+00 -0.15347027609E+04  0.15347027609E+04  0.00000000000E+00 0.  1.
         25    1    1    2    0    0  0.00000000000E+00  0.00000000000E+00 -0.15321574798E+04  0.15372480421E+04  0.12500000000E+03 0.  0.
<mgrwt>
<rscale>  2 0.12500000E+03</rscale>
<asrwt>0</asrwt>
<pdfrwt beam="1">  1       21 0.39158164E-03 0.12500000E+03</pdfrwt>
<pdfrwt beam="2">  1       21 0.23610816E+00 0.12500000E+03</pdfrwt>
<totfact> 0.13449391E+06</totfact>
</mgrwt>
</event>
<event>
 3    0  0.1712078E+001  0.1250000E+03  0.7546771E-02  0.1235069E+00
         21   -1    0    0  502  501  0.00000000000E+00  0.00000000000E+00  0.12136714467E+03  0.12136714467E+03  0.00000000000E+00 0.  1.
         21   -1    0    0  501  502 -0.00000000000E+00 -0.00000000000E+00 -0.32185399193E+02  0.32185399193E+02  0.00000000000E+00 0.  1.
         25    1    1    2    0    0  0.00000000000E+00  0.00000000000E+00  0.89181745473E+02  0.15355254386E+03  0.12500000000E+03 0.  0.
<mgrwt>
<rscale>  2 0.12500000E+03</rscale>
<asrwt>0</asrwt>
<pdfrwt beam="1">  1       21 0.18671868E-01 0.12500000E+03</pdfrwt>
<pdfrwt beam="2">  1       21 0.49515999E-02 0.12500000E+03</pdfrwt>
<totfact> 0.70315737E+06</totfact>
</mgrwt>
</event>
<event>
 3    0  0.1674770E+001  0.1250000E+03  0.7546771E-02  0.1235069E+00
         21   -1    0    0  502  501  0.00000000000E+00  0.00000000000E+00  0.21685313404E+02  0.21685313404E+02  0.00000000000E+00 0.  1.
         21   -1    0    0  501  502 -0.00000000000E+00 -0.00000000000E+00 -0.18013343535E+03  0.18013343535E+03  0.00000000000E+00 0.  1.
         25    1    1    2    0    0  0.00000000000E+00  0.00000000000E+00 -0.15844812195E+03  0.20181874875E+03  0.12500000000E+03 0.  0.
<mgrwt>
<rscale>  2 0.12500000E+03</rscale>
<asrwt>0</asrwt>
<pdfrwt beam="1">  1       21 0.33362021E-02 0.12500000E+03</pdfrwt>
<pdfrwt beam="2">  1       21 0.27712836E-01 0.12500000E+03</pdfrwt>
<totfact> 0.64730710E+06</totfact>
</mgrwt>
</event>
<event>
 3    0  0.1420001E+001  0.1250000E+03  0.7546771E-02  0.1235069E+00
         21   -1    0    0  502  501  0.00000000000E+00  0.00000000000E+00  0.71233262423E+01  0.71233262423E+01  0.00000000000E+00 0. -1.
         21   -1    0    0  501  502 -0.00000000000E+00 -0.00000000000E+00 -0.54837443452E+03  0.54837443452E+03  0.00000000000E+00 0. -1.
         25    1    1    2    0    0  0.00000000000E+00  0.00000000000E+00 -0.54125110827E+03  0.55549776076E+03  0.12500000000E+03 0.  0.
<mgrwt>
<rscale>  2 0.12500000E+03</rscale>
<asrwt>0</asrwt>
<pdfrwt beam="1">  1       21 0.10958961E-02 0.12500000E+03</pdfrwt>
<pdfrwt beam="2">  1       21 0.84365315E-01 0.12500000E+03</pdfrwt>
<totfact> 0.39185767E+06</totfact>
</mgrwt>
</event>
<event>
 3    0  0.1524549E+001  0.1250000E+03  0.7546771E-02  0.1235069E+00
         21   -1    0    0  502  501  0.00000000000E+00  0.00000000000E+00  0.97670531716E+01  0.97670531716E+01  0.00000000000E+00 0.  1.
         21   -1    0    0  501  502 -0.00000000000E+00 -0.00000000000E+00 -0.39994151065E+03  0.39994151065E+03  0.00000000000E+00 0.  1.
         25    1    1    2    0    0  0.00000000000E+00  0.00000000000E+00 -0.39017445747E+03  0.40970856382E+03  0.12500000000E+03 0.  0.
<mgrwt>
<rscale>  2 0.12500000E+03</rscale>
<asrwt>0</asrwt>
<pdfrwt beam="1">  1       21 0.15026239E-02 0.12500000E+03</pdfrwt>
<pdfrwt beam="2">  1       21 0.61529448E-01 0.12500000E+03</pdfrwt>
<totfact> 0.47403996E+06</totfact>
</mgrwt>
</event>
<event>
 3    0  0.1368989E+001  0.1250000E+03  0.7546771E-02  0.1235069E+00
         21   -1    0    0  502  501  0.00000000000E+00  0.00000000000E+00  0.80349355151E+03  0.80349355151E+03  0.00000000000E+00 0.  1.
         21   -1    0    0  501  502 -0.00000000000E+00 -0.00000000000E+00 -0.48615822649E+01  0.48615822649E+01  0.00000000000E+00 0.  1.
         25    1    1    2    0    0  0.00000000000E+00  0.00000000000E+00  0.79863196925E+03  0.80835513378E+03  0.12500000000E+03 0.  0.
<mgrwt>
<rscale>  2 0.12500000E+03</rscale>
<asrwt>0</asrwt>
<pdfrwt beam="1">  1       21 0.12361429E+00 0.12500000E+03</pdfrwt>
<pdfrwt beam="2">  1       21 0.74793637E-03 0.12500000E+03</pdfrwt>
<totfact> 0.29087873E+06</totfact>
</mgrwt>
</event>
<event>
 3    0  0.1384000E+001  0.1250000E+03  0.7546771E-02  0.1235069E+00
         21   -1    0    0  502  501  0.00000000000E+00  0.00000000000E+00  0.52319389991E+01  0.52319389991E+01  0.00000000000E+00 0.  1.
         21   -1    0    0  501  502 -0.00000000000E+00 -0.00000000000E+00 -0.74661612085E+03  0.74661612085E+03  0.00000000000E+00 0.  1.
         25    1    1    2    0    0  0.00000000000E+00  0.00000000000E+00 -0.74138418185E+03  0.75184805985E+03  0.12500000000E+03 0.  0.
<mgrwt>
<rscale>  2 0.12500000E+03</rscale>
<asrwt>0</asrwt>
<pdfrwt beam="1">  1       21 0.80491388E-03 0.12500000E+03</pdfrwt>
<pdfrwt beam="2">  1       21 0.11486399E+00 0.12500000E+03</pdfrwt>
<totfact> 0.31003973E+06</totfact>
</mgrwt>
</event>
<event>
 3    0  0.1707371E+001  0.1250000E+03  0.7546771E-02  0.1235069E+00
         21   -1    0    0  502  501  0.00000000000E+00  0.00000000000E+00  0.47526657100E+02  0.47526657100E+02  0.00000000000E+00 0. -1.
         21   -1    0    0  501  502 -0.00000000000E+00 -0.00000000000E+00 -0.82190716502E+02  0.82190716502E+02  0.00000000000E+00 0. -1.
         25    1    1    2    0    0  0.00000000000E+00  0.00000000000E+00 -0.34664059402E+02  0.12971737360E+03  0.12500000000E+03 0.  0.
<mgrwt>
<rscale>  2 0.12500000E+03</rscale>
<asrwt>0</asrwt>
<pdfrwt beam="1">  1       21 0.73117934E-02 0.12500000E+03</pdfrwt>
<pdfrwt beam="2">  1       21 0.12644726E-01 0.12500000E+03</pdfrwt>
<totfact> 0.73402712E+06</totfact>
</mgrwt>
</event>
<event>
 3    0  0.1420773E+001  0.1250000E+03  0.7546771E-02  0.1235069E+00
         21   -1    0    0  502  501  0.00000000000E+00  0.00000000000E+00  0.71290567857E+01  0.71290567857E+01  0.00000000000E+00 0. -1.
         21   -1    0    0  501  502 -0.00000000000E+00 -0.00000000000E+00 -0.54793363518E+03  0.54793363518E+03  0.00000000000E+00 0. -1.
         25    1    1    2    0    0  0.00000000000E+00  0.00000000000E+00 -0.54080457839E+03  0.55506269196E+03  0.12500000000E+03 0.  0.
<mgrwt>
<rscale>  2 0.12500000E+03</rscale>
<asrwt>0</asrwt>
<pdfrwt beam="1">  1       21 0.10967780E-02 0.12500000E+03</pdfrwt>
<pdfrwt beam="2">  1       21 0.84297477E-01 0.12500000E+03</pdfrwt>
<totfact> 0.39207067E+06</totfact>
</mgrwt>
</event>
<event>
 3    0  0.1383476E+001  0.1250000E+03  0.7546771E-02  0.1235069E+00
         21   -1    0    0  502  501  0.00000000000E+00  0.00000000000E+00  0.52295822498E+01  0.52295822498E+01  0.00000000000E+00 0.  1.
         21   -1    0    0  501  502 -0.00000000000E+00 -0.00000000000E+00 -0.74695258884E+03  0.74695258884E+03  0.00000000000E+00 0.  1.
         25    1    1    2    0    0  0.00000000000E+00  0.00000000000E+00 -0.74172300659E+03  0.75218217109E+03  0.12500000000E+03 0.  0.
<mgrwt>
<rscale>  2 0.12500000E+03</rscale>
<asrwt>0</asrwt>
<pdfrwt beam="1">  1       21 0.80455090E-03 0.12500000E+03</pdfrwt>
<pdfrwt beam="2">  1       21 0.11491581E+00 0.12500000E+03</pdfrwt>
<totfact> 0.30992251E+06</totfact>
</mgrwt>
</event>
<event>
 3    0  0.1643854E+001  0.1250000E+03  0.7546771E-02  0.1235069E+00
         21   -1    0    0  502  501  0.00000000000E+00  0.00000000000E+00  0.22684507069E+03  0.22684507069E+03  0.00000000000E+00 0.  1.
         21   -1    0    0  501  502 -0.00000000000E+00 -0.00000000000E+00 -0.17219902500E+02  0.17219902500E+02  0.00000000000E+00 0.  1.
         25    1    1    2    0    0  0.00000000000E+00  0.00000000000E+00  0.20962516819E+03  0.24406497319E+03  0.12500000000E+03 0.  0.
<mgrwt>
<rscale>  2 0.12500000E+03</rscale>
<asrwt>0</asrwt>
<pdfrwt beam="1">  1       21 0.34899240E-01 0.12500000E+03</pdfrwt>
<pdfrwt beam="2">  1       21 0.26492159E-02 0.12500000E+03</pdfrwt>
<totfact> 0.60441508E+06</totfact>
</mgrwt>
</event>
<event>
 3    0  0.1680507E+001  0.1250000E+03  0.7546771E-02  0.1235069E+00
         21   -1    0    0  502  501  0.00000000000E+00  0.00000000000E+00  0.17175466737E+03  0.17175466737E+03  0.00000000000E+00 0.  1.
         21   -1    0    0  501  502 -0.00000000000E+00 -0.00000000000E+00 -0.22743195628E+02  0.22743195628E+02  0.00000000000E+00 0.  1.
         25    1    1    2    0    0  0.00000000000E+00  0.00000000000E+00  0.14901147174E+03  0.19449786300E+03  0.12500000000E+03 0.  0.
<mgrwt>
<rscale>  2 0.12500000E+03</rscale>
<asrwt>0</asrwt>
<pdfrwt beam="1">  1       21 0.26423794E-01 0.12500000E+03</pdfrwt>
<pdfrwt beam="2">  1       21 0.34989533E-02 0.12500000E+03</pdfrwt>
<totfact> 0.65526022E+06</totfact>
</mgrwt>
</event>
<event>
 3    0  0.1707553E+001  0.1250000E+03  0.7546771E-02  0.1235069E+00
         21   -1    0    0  502  501  0.00000000000E+00  0.00000000000E+00  0.46286321671E+02  0.46286321671E+02  0.00000000000E+00 0. -1.
         21   -1    0    0  501  502 -0.00000000000E+00 -0.00000000000E+00 -0.84393182673E+02  0.84393182673E+02  0.00000000000E+00 0. -1.
         25    1    1    2    0    0  0.00000000000E+00  0.00000000000E+00 -0.38106861002E+02  0.13067950434E+03  0.12500000000E+03 0.  0.
<mgrwt>
<rscale>  2 0.12500000E+03</rscale>
<asrwt>0</asrwt>
<pdfrwt beam="1">  1       21 0.71209726E-02 0.12500000E+03</pdfrwt>
<pdfrwt beam="2">  1       21 0.12983567E-01 0.12500000E+03</pdfrwt>
<totfact> 0.73273894E+06</totfact>
</mgrwt>
</event>
<event>
 3    0  0.1708595E+001  0.1250000E+03  0.7546771E-02  0.1235069E+00
         21   -1    0    0  502  501  0.00000000000E+00  0.00000000000E+00  0.78602128031E+02  0.78602128031E+02  0.00000000000E+00 0. -1.
         21   -1    0    0  501  502 -0.00000000000E+00 -0.00000000000E+00 -0.49696491658E+02  0.49696491658E+02  0.00000000000E+00 0. -1.
         25    1    1    2    0    0  0.00000000000E+00  0.00000000000E+00  0.28905636373E+02  0.12829861969E+03  0.12500000000E+03 0.  0.
<mgrwt>
<rscale>  2 0.12500000E+03</rscale>
<asrwt>0</asrwt>
<pdfrwt beam="1">  1       21 0.12092635E-01 0.12500000E+03</pdfrwt>
<pdfrwt beam="2">  1       21 0.76456141E-02 0.12500000E+03</pdfrwt>
<totfact> 0.73593258E+06</totfact>
</mgrwt>
</event>
<event>
 3    0  0.1613847E+001  0.1250000E+03  0.7546771E-02  0.1235069E+00
         21   -1    0    0  502  501  0.00000000000E+00  0.00000000000E+00  0.13535821724E+02  0.13535821724E+02  0.00000000000E+00 0.  1.
         21   -1    0    0  501  502 -0.00000000000E+00 -0.00000000000E+00 -0.28858609987E+03  0.28858609987E+03  0.00000000000E+00 0.  1.
         25    1    1    2    0    0  0.00000000000E+00  0.00000000000E+00 -0.27505027815E+03  0.30212192160E+03  0.12500000000E+03 0.  0.
<mgrwt>
<rscale>  2 0.12500000E+03</rscale>
<asrwt>0</asrwt>
<pdfrwt beam="1">  1       21 0.20824340E-02 0.12500000E+03</pdfrwt>
<pdfrwt beam="2">  1       21 0.44397864E-01 0.12500000E+03</pdfrwt>
<totfact> 0.55280292E+06</totfact>
</mgrwt>
</event>
<event>
 3    0  0.1542317E+001  0.1250000E+03  0.7546771E-02  0.1235069E+00
         21   -1    0    0  502  501  0.00000000000E+00  0.00000000000E+00  0.10441203802E+02  0.10441203802E+02  0.00000000000E+00 0.  1.
         21   -1    0    0  501  502 -0.00000000000E+00 -0.00000000000E+00 -0.37411873901E+03  0.37411873901E+03  0.00000000000E+00 0.  1.
         25    1    1    2    0    0  0.00000000000E+00  0.00000000000E+00 -0.36367753521E+03  0.38455994281E+03  0.12500000000E+03 0.  0.
<mgrwt>
<rscale>  2 0.12500000E+03</rscale>
<asrwt>0</asrwt>
<pdfrwt beam="1">  1       21 0.16063393E-02 0.12500000E+03</pdfrwt>
<pdfrwt beam="2">  1       21 0.57556720E-01 0.12500000E+03</pdfrwt>
<totfact> 0.49082625E+06</totfact>
</mgrwt>
</event>
<event>
 3    0  0.1456466E+001  0.1250000E+03  0.7546771E-02  0.1235069E+00
         21   -1    0    0  502  501  0.00000000000E+00  0.00000000000E+00  0.57111890975E+03  0.57111890975E+03  0.00000000000E+00 0.  1.
         21   -1    0    0  501  502 -0.00000000000E+00 -0.00000000000E+00 -0.68396439573E+01  0.68396439573E+01  0.00000000000E+00 0.  1.
         25    1    1    2    0    0  0.00000000000E+00  0.00000000000E+00  0.56427926580E+03  0.57795855371E+03  0.12500000000E+03 0.  0.
<mgrwt>
<rscale>  2 0.12500000E+03</rscale>
<asrwt>0</asrwt>
<pdfrwt beam="1">  1       21 0.87864410E-01 0.12500000E+03</pdfrwt>
<pdfrwt beam="2">  1       21 0.10522534E-02 0.12500000E+03</pdfrwt>
<totfact> 0.38108794E+06</totfact>
</mgrwt>
</event>
<event>
 3    0  0.1479896E+001  0.1250000E+03  0.7546771E-02  0.1235069E+00
         21   -1    0    0  502  501  0.00000000000E+00  0.00000000000E+00  0.79719154946E+01  0.79719154946E+01  0.00000000000E+00 0.  1.
         21   -1    0    0  501  502 -0.00000000000E+00 -0.00000000000E+00 -0.49000143098E+03  0.49000143098E+03  0.00000000000E+00 0.  1.
         25    1    1    2    0    0  0.00000000000E+00  0.00000000000E+00 -0.48202951548E+03  0.49797334647E+03  0.12500000000E+03 0.  0.
<mgrwt>
<rscale>  2 0.12500000E+03</rscale>
<asrwt>0</asrwt>
<pdfrwt beam="1">  1       21 0.12264483E-02 0.12500000E+03</pdfrwt>
<pdfrwt beam="2">  1       21 0.75384852E-01 0.12500000E+03</pdfrwt>
<totfact> 0.42154188E+06</totfact>
</mgrwt>
</event>
<event>
 3    0  0.1680108E+001  0.1250000E+03  0.7546771E-02  0.1235069E+00
         21   -1    0    0  502  501  0.00000000000E+00  0.00000000000E+00  0.14269262901E+03  0.14269262901E+03  0.00000000000E+00 0. -1.
         21   -1    0    0  501  502 -0.00000000000E+00 -0.00000000000E+00 -0.27375275283E+02  0.27375275283E+02  0.00000000000E+00 0. -1.
         25    1    1    2    0    0  0.00000000000E+00  0.00000000000E+00  0.11531735373E+03  0.17006790429E+03  0.12500000000E+03 0.  0.
<mgrwt>
<rscale>  2 0.12500000E+03</rscale>
<asrwt>0</asrwt>
<pdfrwt beam="1">  1       21 0.21952712E-01 0.12500000E+03</pdfrwt>
<pdfrwt beam="2">  1       21 0.42115809E-02 0.12500000E+03</pdfrwt>
<totfact> 0.68309587E+06</totfact>
</mgrwt>
</event>
<event>
 3    0  0.1429894E+001  0.1250000E+03  0.7546771E-02  0.1235069E+00
         21   -1    0    0  502  501  0.00000000000E+00  0.00000000000E+00  0.54429814321E+03  0.54429814321E+03  0.00000000000E+00 0. -1.
         21   -1    0    0  501  502 -0.00000000000E+00 -0.00000000000E+00 -0.71766733889E+01  0.71766733889E+01  0.00000000000E+00 0. -1.
         25    1    1    2    0    0  0.00000000000E+00  0.00000000000E+00  0.53712146982E+03  0.55147481660E+03  0.12500000000E+03 0.  0.
<mgrwt>
<rscale>  2 0.12500000E+03</rscale>
<asrwt>0</asrwt>
<pdfrwt beam="1">  1       21 0.83738143E-01 0.12500000E+03</pdfrwt>
<pdfrwt beam="2">  1       21 0.11041040E-02 0.12500000E+03</pdfrwt>
<totfact> 0.39383310E+06</totfact>
</mgrwt>
</event>
<event>
 3    0  0.1533449E+001  0.1250000E+03  0.7546771E-02  0.1235069E+00
         21   -1    0    0  502  501  0.00000000000E+00  0.00000000000E+00  0.44306547598E+03  0.44306547598E+03  0.00000000000E+00 0.  1.
         21   -1    0    0  501  502 -0.00000000000E+00 -0.00000000000E+00 -0.88164170124E+01  0.88164170124E+01  0.00000000000E+00 0.  1.
         25    1    1    2    0    0  0.00000000000E+00  0.00000000000E+00  0.43424905896E+03  0.45188189299E+03  0.12500000000E+03 0.  0.
<mgrwt>
<rscale>  2 0.12500000E+03</rscale>
<asrwt>0</asrwt>
<pdfrwt beam="1">  1       21 0.68163902E-01 0.12500000E+03</pdfrwt>
<pdfrwt beam="2">  1       21 0.13563722E-02 0.12500000E+03</pdfrwt>
<totfact> 0.44779881E+06</totfact>
</mgrwt>
</event>
<event>
 3    0  0.1734041E+001  0.1250000E+03  0.7546771E-02  0.1235069E+00
         21   -1    0    0  502  501  0.00000000000E+00  0.00000000000E+00  0.48436387681E+02  0.48436387681E+02  0.00000000000E+00 0.  1.
         21   -1    0    0  501  502 -0.00000000000E+00 -0.00000000000E+00 -0.80647013269E+02  0.80647013269E+02  0.00000000000E+00 0.  1.
         25    1    1    2    0    0  0.00000000000E+00  0.00000000000E+00 -0.32210625588E+02  0.12908340095E+03  0.12500000000E+03 0.  0.
<mgrwt>
<rscale>  2 0.12500000E+03</rscale>
<asrwt>0</asrwt>
<pdfrwt beam="1">  1       21 0.74517521E-02 0.12500000E+03</pdfrwt>
<pdfrwt beam="2">  1       21 0.12407233E-01 0.12500000E+03</pdfrwt>
<totfact> 0.73487682E+06</totfact>
</mgrwt>
</event>
<event>
 3    0  0.1684353E+001  0.1250000E+03  0.7546771E-02  0.1235069E+00
         21   -1    0    0  502  501  0.00000000000E+00  0.00000000000E+00  0.31820780798E+02  0.31820780798E+02  0.00000000000E+00 0. -1.
         21   -1    0    0  501  502 -0.00000000000E+00 -0.00000000000E+00 -0.12275783001E+03  0.12275783001E+03  0.00000000000E+00 0. -1.
         25    1    1    2    0    0  0.00000000000E+00  0.00000000000E+00 -0.90937049215E+02  0.15457861081E+03  0.12500000000E+03 0.  0.
<mgrwt>
<rscale>  2 0.12500000E+03</rscale>
<asrwt>0</asrwt>
<pdfrwt beam="1">  1       21 0.48955047E-02 0.12500000E+03</pdfrwt>
<pdfrwt beam="2">  1       21 0.18885820E-01 0.12500000E+03</pdfrwt>
<totfact> 0.70188070E+06</totfact>
</mgrwt>
</event>
<event>
 3    0  0.1368989E+001  0.1250000E+03  0.7546771E-02  0.1235069E+00
         21   -1    0    0  502  501  0.00000000000E+00  0.00000000000E+00  0.11636319434E+04  0.11636319434E+04  0.00000000000E+00 0. -1.
         21   -1    0    0  501  502 -0.00000000000E+00 -0.00000000000E+00 -0.33569463456E+01  0.33569463456E+01  0.00000000000E+00 0. -1.
         25    1    1    2    0    0  0.00000000000E+00  0.00000000000E+00  0.11602749971E+04  0.11669888898E+04  0.12500000000E+03 0.  0.
<mgrwt>
<rscale>  2 0.12500000E+03</rscale>
<asrwt>0</asrwt>
<pdfrwt beam="1">  1       21 0.17901998E+00 0.12500000E+03</pdfrwt>
<pdfrwt beam="2">  1       21 0.51645421E-03 0.12500000E+03</pdfrwt>
<totfact> 0.19813958E+06</totfact>
</mgrwt>
</event>
<event>
 3    0  0.1368989E+001  0.1250000E+03  0.7546771E-02  0.1235069E+00
         21   -1    0    0  502  501  0.00000000000E+00  0.00000000000E+00  0.25703415760E+01  0.25703415760E+01  0.00000000000E+00 0.  1.
         21   -1    0    0  501  502 -0.00000000000E+00 -0.00000000000E+00 -0.15197396472E+04  0.15197396472E+04  0.00000000000E+00 0.  1.
         25    1    1    2    0    0  0.00000000000E+00  0.00000000000E+00 -0.15171693057E+04  0.15223099888E+04  0.12500000000E+03 0.  0.
<mgrwt>
<rscale>  2 0.12500000E+03</rscale>
<asrwt>0</asrwt>
<pdfrwt beam="1">  1       21 0.39543761E-03 0.12500000E+03</pdfrwt>
<pdfrwt beam="2">  1       21 0.23380583E+00 0.12500000E+03</pdfrwt>
<totfact> 0.13665249E+06</totfact>
</mgrwt>
</event>
<event>
 3    0  0.1631283E+001  0.1250000E+03  0.7546771E-02  0.1235069E+00
         21   -1    0    0  502  501  0.00000000000E+00  0.00000000000E+00  0.22229167156E+03  0.22229167156E+03  0.00000000000E+00 0. -1.
         21   -1    0    0  501  502 -0.00000000000E+00 -0.00000000000E+00 -0.17572633166E+02  0.17572633166E+02  0.00000000000E+00 0. -1.
         25    1    1    2    0    0  0.00000000000E+00  0.00000000000E+00  0.20471903839E+03  0.23986430472E+03  0.12500000000E+03 0.  0.
<mgrwt>
<rscale>  2 0.12500000E+03</rscale>
<asrwt>0</asrwt>
<pdfrwt beam="1">  1       21 0.34198717E-01 0.12500000E+03</pdfrwt>
<pdfrwt beam="2">  1       21 0.27034822E-02 0.12500000E+03</pdfrwt>
<totfact> 0.60845797E+06</totfact>
</mgrwt>
</event>
<event>
 3    0  0.1474406E+001  0.1250000E+03  0.7546771E-02  0.1235069E+00
         21   -1    0    0  502  501  0.00000000000E+00  0.00000000000E+00  0.48341115384E+03  0.48341115384E+03  0.00000000000E+00 0. -1.
         21   -1    0    0  501  502 -0.00000000000E+00 -0.00000000000E+00 -0.80805955117E+01  0.80805955117E+01  0.00000000000E+00 0. -1.
         25    1    1    2    0    0  0.00000000000E+00  0.00000000000E+00  0.47533055833E+03  0.49149174935E+03  0.12500000000E+03 0.  0.
<mgrwt>
<rscale>  2 0.12500000E+03</rscale>
<asrwt>0</asrwt>
<pdfrwt beam="1">  1       21 0.74370924E-01 0.12500000E+03</pdfrwt>
<pdfrwt beam="2">  1       21 0.12431689E-02 0.12500000E+03</pdfrwt>
<totfact> 0.42509291E+06</totfact>
</mgrwt>
</event>
<event>
 3    0  0.1566363E+001  0.1250000E+03  0.7546771E-02  0.1235069E+00
         21   -1    0    0  502  501  0.00000000000E+00  0.00000000000E+00  0.13714120825E+02  0.13714120825E+02  0.00000000000E+00 0. -1.
         21   -1    0    0  501  502 -0.00000000000E+00 -0.00000000000E+00 -0.28483415378E+03  0.28483415378E+03  0.00000000000E+00 0. -1.
         25    1    1    2    0    0  0.00000000000E+00  0.00000000000E+00 -0.27112003295E+03  0.29854827460E+03  0.12500000000E+03 0.  0.
<mgrwt>
<rscale>  2 0.12500000E+03</rscale>
<asrwt>0</asrwt>
<pdfrwt beam="1">  1       21 0.21098646E-02 0.12500000E+03</pdfrwt>
<pdfrwt beam="2">  1       21 0.43820642E-01 0.12500000E+03</pdfrwt>
<totfact> 0.55577032E+06</totfact>
</mgrwt>
</event>
<event>
 3    0  0.1368989E+001  0.1250000E+03  0.7546771E-02  0.1235069E+00
         21   -1    0    0  502  501  0.00000000000E+00  0.00000000000E+00  0.41156335306E+01  0.41156335306E+01  0.00000000000E+00 0.  1.
         21   -1    0    0  501  502 -0.00000000000E+00 -0.00000000000E+00 -0.94912483606E+03  0.94912483606E+03  0.00000000000E+00 0.  1.
         25    1    1    2    0    0  0.00000000000E+00  0.00000000000E+00 -0.94500920253E+03  0.95324046959E+03  0.12500000000E+03 0.  0.
<mgrwt>
<rscale>  2 0.12500000E+03</rscale>
<asrwt>0</asrwt>
<pdfrwt beam="1">  1       21 0.63317425E-03 0.12500000E+03</pdfrwt>
<pdfrwt beam="2">  1       21 0.14601924E+00 0.12500000E+03</pdfrwt>
<totfact> 0.24824838E+06</totfact>
</mgrwt>
</event>
<event>
 3    0  0.1732617E+001  0.1250000E+03  0.7546771E-02  0.1235069E+00
         21   -1    0    0  502  501  0.00000000000E+00  0.00000000000E+00  0.47781935177E+02  0.47781935177E+02  0.00000000000E+00 0.  1.
         21   -1    0    0  501  502 -0.00000000000E+00 -0.00000000000E+00 -0.81751607288E+02  0.81751607288E+02  0.00000000000E+00 0.  1.
         25    1    1    2    0    0  0.00000000000E+00  0.00000000000E+00 -0.33969672111E+02  0.12953354246E+03  0.12500000000E+03 0.  0.
<mgrwt>
<rscale>  2 0.12500000E+03</rscale>
<asrwt>0</asrwt>
<pdfrwt beam="1">  1       21 0.73510670E-02 0.12500000E+03</pdfrwt>
<pdfrwt beam="2">  1       21 0.12577170E-01 0.12500000E+03</pdfrwt>
<totfact> 0.73427323E+06</totfact>
</mgrwt>
</event>
<event>
 3    0  0.1673438E+001  0.1250000E+03  0.7546771E-02  0.1235069E+00
         21   -1    0    0  502  501  0.00000000000E+00  0.00000000000E+00  0.19730791662E+02  0.19730791662E+02  0.00000000000E+00 0.  1.
         21   -1    0    0  501  502 -0.00000000000E+00 -0.00000000000E+00 -0.19797735778E+03  0.19797735778E+03  0.00000000000E+00 0.  1.
         25    1    1    2    0    0  0.00000000000E+00  0.00000000000E+00 -0.17824656612E+03  0.21770814944E+03  0.12500000000E+03 0.  0.
<mgrwt>
<rscale>  2 0.12500000E+03</rscale>
<asrwt>0</asrwt>
<pdfrwt beam="1">  1       21 0.30355064E-02 0.12500000E+03</pdfrwt>
<pdfrwt beam="2">  1       21 0.30458055E-01 0.12500000E+03</pdfrwt>
<totfact> 0.63057564E+06</totfact>
</mgrwt>
</event>
<event>
 3    0  0.1709652E+001  0.1250000E+03  0.7546771E-02  0.1235069E+00
         21   -1    0    0  502  501  0.00000000000E+00  0.00000000000E+00  0.14047977934E+03  0.14047977934E+03  0.00000000000E+00 0.  1.
         21   -1    0    0  501  502 -0.00000000000E+00 -0.00000000000E+00 -0.27806492995E+02  0.27806492995E+02  0.00000000000E+00 0.  1.
         25    1    1    2    0    0  0.00000000000E+00  0.00000000000E+00  0.11267328634E+03  0.16828627233E+03  0.12500000000E+03 0.  0.
<mgrwt>
<rscale>  2 0.12500000E+03</rscale>
<asrwt>0</asrwt>
<pdfrwt beam="1">  1       21 0.21612273E-01 0.12500000E+03</pdfrwt>
<pdfrwt beam="2">  1       21 0.42779221E-02 0.12500000E+03</pdfrwt>
<totfact> 0.68520910E+06</totfact>
</mgrwt>
</event>
<event>
 3    0  0.1508036E+001  0.1250000E+03  0.7546771E-02  0.1235069E+00
         21   -1    0    0  502  501  0.00000000000E+00  0.00000000000E+00  0.98304741527E+01  0.98304741527E+01  0.00000000000E+00 0. -1.
         21   -1    0    0  501  502 -0.00000000000E+00 -0.00000000000E+00 -0.39736130113E+03  0.39736130113E+03  0.00000000000E+00 0. -1.
         25    1    1    2    0    0  0.00000000000E+00  0.00000000000E+00 -0.38753082697E+03  0.40719177528E+03  0.12500000000E+03 0.  0.
<mgrwt>
<rscale>  2 0.12500000E+03</rscale>
<asrwt>0</asrwt>
<pdfrwt beam="1">  1       21 0.15123809E-02 0.12500000E+03</pdfrwt>
<pdfrwt beam="2">  1       21 0.61132497E-01 0.12500000E+03</pdfrwt>
<totfact> 0.47567963E+06</totfact>
</mgrwt>
</event>
<event>
 3    0  0.1394452E+001  0.1250000E+03  0.7546771E-02  0.1235069E+00
         21   -1    0    0  502  501  0.00000000000E+00  0.00000000000E+00  0.60477347253E+01  0.60477347253E+01  0.00000000000E+00 0.  1.
         21   -1    0    0  501  502 -0.00000000000E+00 -0.00000000000E+00 -0.64590299962E+03  0.64590299962E+03  0.00000000000E+00 0.  1.
         25    1    1    2    0    0  0.00000000000E+00  0.00000000000E+00 -0.63985526489E+03  0.65195073435E+03  0.12500000000E+03 0.  0.
<mgrwt>
<rscale>  2 0.12500000E+03</rscale>
<asrwt>0</asrwt>
<pdfrwt beam="1">  1       21 0.93042009E-03 0.12500000E+03</pdfrwt>
<pdfrwt beam="2">  1       21 0.99369760E-01 0.12500000E+03</pdfrwt>
<totfact> 0.34843515E+06</totfact>
</mgrwt>
</event>
<event>
 3    0  0.1609814E+001  0.1250000E+03  0.7546771E-02  0.1235069E+00
         21   -1    0    0  502  501  0.00000000000E+00  0.00000000000E+00  0.16017042281E+02  0.16017042281E+02  0.00000000000E+00 0. -1.
         21   -1    0    0  501  502 -0.00000000000E+00 -0.00000000000E+00 -0.24388085712E+03  0.24388085712E+03  0.00000000000E+00 0. -1.
         25    1    1    2    0    0  0.00000000000E+00  0.00000000000E+00 -0.22786381484E+03  0.25989789940E+03  0.12500000000E+03 0.  0.
<mgrwt>
<rscale>  2 0.12500000E+03</rscale>
<asrwt>0</asrwt>
<pdfrwt beam="1">  1       21 0.24641602E-02 0.12500000E+03</pdfrwt>
<pdfrwt beam="2">  1       21 0.37520134E-01 0.12500000E+03</pdfrwt>
<totfact> 0.58958629E+06</totfact>
</mgrwt>
</event>
<event>
 3    0  0.1368989E+001  0.1250000E+03  0.7546771E-02  0.1235069E+00
         21   -1    0    0  502  501  0.00000000000E+00  0.00000000000E+00  0.12122235590E+01  0.12122235590E+01  0.00000000000E+00 0.  1.
         21   -1    0    0  501  502 -0.00000000000E+00 -0.00000000000E+00 -0.32223841641E+04  0.32223841641E+04  0.00000000000E+00 0.  1.
         25    1    1    2    0    0  0.00000000000E+00  0.00000000000E+00 -0.32211719406E+04  0.32235963877E+04  0.12500000000E+03 0.  0.
<mgrwt>
<rscale>  2 0.12500000E+03</rscale>
<asrwt>0</asrwt>
<pdfrwt beam="1">  1       21 0.18649630E-03 0.12500000E+03</pdfrwt>
<pdfrwt beam="2">  1       21 0.49575042E+00 0.12500000E+03</pdfrwt>
<totfact> 0.11295609E+05</totfact>
</mgrwt>
</event>
<event>
 3    0  0.1497555E+001  0.1250000E+03  0.7546771E-02  0.1235069E+00
         21   -1    0    0  502  501  0.00000000000E+00  0.00000000000E+00  0.43320831388E+03  0.43320831388E+03  0.00000000000E+00 0.  1.
         21   -1    0    0  501  502 -0.00000000000E+00 -0.00000000000E+00 -0.90170245464E+01  0.90170245464E+01  0.00000000000E+00 0.  1.
         25    1    1    2    0    0  0.00000000000E+00  0.00000000000E+00  0.42419128934E+03  0.44222533843E+03  0.12500000000E+03 0.  0.
<mgrwt>
<rscale>  2 0.12500000E+03</rscale>
<asrwt>0</asrwt>
<pdfrwt beam="1">  1       21 0.66647417E-01 0.12500000E+03</pdfrwt>
<pdfrwt beam="2">  1       21 0.13872349E-02 0.12500000E+03</pdfrwt>
<totfact> 0.45361145E+06</totfact>
</mgrwt>
</event>
<event>
 3    0  0.1707791E+001  0.1250000E+03  0.7546771E-02  0.1235069E+00
         21   -1    0    0  502  501  0.00000000000E+00  0.00000000000E+00  0.29557151237E+02  0.29557151237E+02  0.00000000000E+00 0.  1.
         21   -1    0    0  501  502 -0.00000000000E+00 -0.00000000000E+00 -0.13215921821E+03  0.13215921821E+03  0.00000000000E+00 0.  1.
         25    1    1    2    0    0  0.00000000000E+00  0.00000000000E+00 -0.10260206698E+03  0.16171636945E+03  0.12500000000E+03 0.  0.
<mgrwt>
<rscale>  2 0.12500000E+03</rscale>
<asrwt>0</asrwt>
<pdfrwt beam="1">  1       21 0.45472540E-02 0.12500000E+03</pdfrwt>
<pdfrwt beam="2">  1       21 0.20332188E-01 0.12500000E+03</pdfrwt>
<totfact> 0.69310380E+06</totfact>
</mgrwt>
</event>
<event>
 3    0  0.1459246E+001  0.1250000E+03  0.7546771E-02  0.1235069E+00
         21   -1    0    0  502  501  0.00000000000E+00  0.00000000000E+00  0.50286818199E+03  0.50286818199E+03  0.00000000000E+00 0.  1.
         21   -1    0    0  501  502 -0.00000000000E+00 -0.00000000000E+00 -0.77679402672E+01  0.77679402672E+01  0.00000000000E+00 0.  1.
         25    1    1    2    0    0  0.00000000000E+00  0.00000000000E+00  0.49510024173E+03  0.51063612226E+03  0.12500000000E+03 0.  0.
<mgrwt>
<rscale>  2 0.12500000E+03</rscale>
<asrwt>0</asrwt>
<pdfrwt beam="1">  1       21 0.77364310E-01 0.12500000E+03</pdfrwt>
<pdfrwt beam="2">  1       21 0.11950681E-02 0.12500000E+03</pdfrwt>
<totfact> 0.41473071E+06</totfact>
</mgrwt>
</event>
<event>
 3    0  0.1657901E+001  0.1250000E+03  0.7546771E-02  0.1235069E+00
         21   -1    0    0  502  501  0.00000000000E+00  0.00000000000E+00  0.15511207632E+03  0.15511207632E+03  0.00000000000E+00 0. -1.
         21   -1    0    0  501  502 -0.00000000000E+00 -0.00000000000E+00 -0.25183403463E+02  0.25183403463E+02  0.00000000000E+00 0. -1.
         25    1    1    2    0    0  0.00000000000E+00  0.00000000000E+00  0.12992867286E+03  0.18029547978E+03  0.12500000000E+03 0.  0.
<mgrwt>
<rscale>  2 0.12500000E+03</rscale>
<asrwt>0</asrwt>
<pdfrwt beam="1">  1       21 0.23863396E-01 0.12500000E+03</pdfrwt>
<pdfrwt beam="2">  1       21 0.38743699E-02 0.12500000E+03</pdfrwt>
<totfact> 0.67117656E+06</totfact>
</mgrwt>
</event>
<event>
 3    0  0.1703582E+001  0.1250000E+03  0.7546771E-02  0.1235069E+00
         21   -1    0    0  502  501  0.00000000000E+00  0.00000000000E+00  0.96343343051E+02  0.96343343051E+02  0.00000000000E+00 0. -1.
         21   -1    0    0  501  502 -0.00000000000E+00 -0.00000000000E+00 -0.40545095035E+02  0.40545095035E+02  0.00000000000E+00 0. -1.
         25    1    1    2    0    0  0.00000000000E+00  0.00000000000E+00  0.55798248016E+02  0.13688843809E+03  0.12500000000E+03 0.  0.
<mgrwt>
<rscale>  2 0.12500000E+03</rscale>
<asrwt>0</asrwt>
<pdfrwt beam="1">  1       21 0.14822053E-01 0.12500000E+03</pdfrwt>
<pdfrwt beam="2">  1       21 0.62377070E-02 0.12500000E+03</pdfrwt>
<totfact> 0.72447384E+06</totfact>
</mgrwt>
</event>
<event>
 3    0  0.1368989E+001  0.1250000E+03  0.7546771E-02  0.1235069E+00
         21   -1    0    0  502  501  0.00000000000E+00  0.00000000000E+00  0.16788565664E+04  0.16788565664E+04  0.00000000000E+00 0.  1.
         21   -1    0    0  501  502 -0.00000000000E+00 -0.00000000000E+00 -0.23267324190E+01  0.23267324190E+01  0.00000000000E+00 0.  1.
         25    1    1    2    0    0  0.00000000000E+00  0.00000000000E+00  0.16765298340E+04  0.16811832988E+04  0.12500000000E+03 0.  0.
<mgrwt>
<rscale>  2 0.12500000E+03</rscale>
<asrwt>0</asrwt>
<pdfrwt beam="1">  1       21 0.25828466E+00 0.12500000E+03</pdfrwt>
<pdfrwt beam="2">  1       21 0.35796018E-03 0.12500000E+03</pdfrwt>
<totfact> 0.11506768E+06</totfact>
</mgrwt>
</event>
<event>
 3    0  0.1724298E+001  0.1250000E+03  0.7546771E-02  0.1235069E+00
         21   -1    0    0  502  501  0.00000000000E+00  0.00000000000E+00  0.11126924361E+03  0.11126924361E+03  0.00000000000E+00 0.  1.
         21   -1    0    0  501  502 -0.00000000000E+00 -0.00000000000E+00 -0.35106286997E+02  0.35106286997E+02  0.00000000000E+00 0.  1.
         25    1    1    2    0    0  0.00000000000E+00  0.00000000000E+00  0.76162956610E+02  0.14637553060E+03  0.12500000000E+03 0.  0.
<mgrwt>
<rscale>  2 0.12500000E+03</rscale>
<asrwt>0</asrwt>
<pdfrwt beam="1">  1       21 0.17118345E-01 0.12500000E+03</pdfrwt>
<pdfrwt beam="2">  1       21 0.54009673E-02 0.12500000E+03</pdfrwt>
<totfact> 0.71217527E+06</totfact>
</mgrwt>
</event>
<event>
 3    0  0.1392412E+001  0.1250000E+03  0.7546771E-02  0.1235069E+00
         21   -1    0    0  502  501  0.00000000000E+00  0.00000000000E+00  0.56656929062E+01  0.56656929062E+01  0.00000000000E+00 0.  1.
         21   -1    0    0  501  502 -0.00000000000E+00 -0.00000000000E+00 -0.68945671159E+03  0.68945671159E+03  0.00000000000E+00 0.  1.
         25    1    1    2    0    0  0.00000000000E+00  0.00000000000E+00 -0.68379101869E+03  0.69512240450E+03  0.12500000000E+03 0.  0.
<mgrwt>
<rscale>  2 0.12500000E+03</rscale>
<asrwt>0</asrwt>
<pdfrwt beam="1">  1       21 0.87164498E-03 0.12500000E+03</pdfrwt>
<pdfrwt beam="2">  1       21 0.10607027E+00 0.12500000E+03</pdfrwt>
<totfact> 0.33099034E+06</totfact>
</mgrwt>
</event>
<event>
 3    0  0.1368989E+001  0.1250000E+03  0.7546771E-02  0.1235069E+00
         21   -1    0    0  502  501  0.00000000000E+00  0.00000000000E+00  0.29803668380E+04  0.29803668380E+04  0.00000000000E+00 0. -1.
         21   -1    0    0  501  502 -0.00000000000E+00 -0.00000000000E+00 -0.13106608053E+01  0.13106608053E+01  0.00000000000E+00 0. -1.
         25    1    1    2    0    0  0.00000000000E+00  0.00000000000E+00  0.29790561772E+04  0.29816774988E+04  0.12500000000E+03 0.  0.
<mgrwt>
<rscale>  2 0.12500000E+03</rscale>
<asrwt>0</asrwt>
<pdfrwt beam="1">  1       21 0.45851255E+00 0.12500000E+03</pdfrwt>
<pdfrwt beam="2">  1       21 0.20164251E-03 0.12500000E+03</pdfrwt>
<totfact> 0.17962188E+05</totfact>
</mgrwt>
</event>
<event>
 3    0  0.1710348E+001  0.1250000E+03  0.7546771E-02  0.1235069E+00
         21   -1    0    0  502  501  0.00000000000E+00  0.00000000000E+00  0.77026747140E+02  0.77026747140E+02  0.00000000000E+00 0. -1.
         21   -1    0    0  501  502 -0.00000000000E+00 -0.00000000000E+00 -0.50712903570E+02  0.50712903570E+02  0.00000000000E+00 0. -1.
         25    1    1    2    0    0  0.00000000000E+00  0.00000000000E+00  0.26313843570E+02  0.12773965071E+03  0.12500000000E+03 0.  0.
<mgrwt>
<rscale>  2 0.12500000E+03</rscale>
<asrwt>0</asrwt>
<pdfrwt beam="1">  1       21 0.11850269E-01 0.12500000E+03</pdfrwt>
<pdfrwt beam="2">  1       21 0.78019851E-02 0.12500000E+03</pdfrwt>
<totfact> 0.73668759E+06</totfact>
</mgrwt>
</event>
<event>
 3    0  0.1734358E+001  0.1250000E+03  0.7546771E-02  0.1235069E+00
         21   -1    0    0  502  501  0.00000000000E+00  0.00000000000E+00  0.77658488895E+02  0.77658488895E+02  0.00000000000E+00 0.  1.
         21   -1    0    0  501  502 -0.00000000000E+00 -0.00000000000E+00 -0.50300360663E+02  0.50300360663E+02  0.00000000000E+00 0.  1.
         25    1    1    2    0    0  0.00000000000E+00  0.00000000000E+00  0.27358128232E+02  0.12795884956E+03  0.12500000000E+03 0.  0.
<mgrwt>
<rscale>  2 0.12500000E+03</rscale>
<asrwt>0</asrwt>
<pdfrwt beam="1">  1       21 0.11947460E-01 0.12500000E+03</pdfrwt>
<pdfrwt beam="2">  1       21 0.77385170E-02 0.12500000E+03</pdfrwt>
<totfact> 0.73639119E+06</totfact>
</mgrwt>
</event>
<event>
 3    0  0.1372912E+001  0.1250000E+03  0.7546771E-02  0.1235069E+00
         21   -1    0    0  502  501  0.00000000000E+00  0.00000000000E+00  0.59272509969E+01  0.59272509969E+01  0.00000000000E+00 0.  1.
         21   -1    0    0  501  502 -0.00000000000E+00 -0.00000000000E+00 -0.65903232410E+03  0.65903232410E+03  0.00000000000E+00 0.  1.
         25    1    1    2    0    0  0.00000000000E+00  0.00000000000E+00 -0.65310507311E+03  0.66495957510E+03  0.12500000000E+03 0.  0.
<mgrwt>
<rscale>  2 0.12500000E+03</rscale>
<asrwt>0</asrwt>
<pdfrwt beam="1">  1       21 0.91188543E-03 0.12500000E+03</pdfrwt>
<pdfrwt beam="2">  1       21 0.10138952E+00 0.12500000E+03</pdfrwt>
<totfact> 0.34305286E+06</totfact>
</mgrwt>
</event>
<event>
 3    0  0.1689064E+001  0.1250000E+03  0.7546771E-02  0.1235069E+00
         21   -1    0    0  502  501  0.00000000000E+00  0.00000000000E+00  0.35623711953E+02  0.35623711953E+02  0.00000000000E+00 0. -1.
         21   -1    0    0  501  502 -0.00000000000E+00 -0.00000000000E+00 -0.10965308739E+03  0.10965308739E+03  0.00000000000E+00 0. -1.
         25    1    1    2    0    0  0.00000000000E+00  0.00000000000E+00 -0.74029375439E+02  0.14527679934E+03  0.12500000000E+03 0.  0.
<mgrwt>
<rscale>  2 0.12500000E+03</rscale>
<asrwt>0</asrwt>
<pdfrwt beam="1">  1       21 0.54805711E-02 0.12500000E+03</pdfrwt>
<pdfrwt beam="2">  1       21 0.16869706E-01 0.12500000E+03</pdfrwt>
<totfact> 0.71357694E+06</totfact>
</mgrwt>
</event>
<event>
 3    0  0.1683645E+001  0.1250000E+03  0.7546771E-02  0.1235069E+00
         21   -1    0    0  502  501  0.00000000000E+00  0.00000000000E+00  0.22129109064E+02  0.22129109064E+02  0.00000000000E+00 0.  1.
         21   -1    0    0  501  502 -0.00000000000E+00 -0.00000000000E+00 -0.17652088878E+03  0.17652088878E+03  0.00000000000E+00 0.  1.
         25    1    1    2    0    0  0.00000000000E+00  0.00000000000E+00 -0.15439177972E+03  0.19864999785E+03  0.12500000000E+03 0.  0.
<mgrwt>
<rscale>  2 0.12500000E+03</rscale>
<asrwt>0</asrwt>
<pdfrwt beam="1">  1       21 0.34044782E-02 0.12500000E+03</pdfrwt>
<pdfrwt beam="2">  1       21 0.27157060E-01 0.12500000E+03</pdfrwt>
<totfact> 0.65073737E+06</totfact>
</mgrwt>
</event>
<event>
 3    0  0.1572757E+001  0.1250000E+03  0.7546771E-02  0.1235069E+00
         21   -1    0    0  502  501  0.00000000000E+00  0.00000000000E+00  0.12411516099E+02  0.12411516099E+02  0.00000000000E+00 0. -1.
         21   -1    0    0  501  502 -0.00000000000E+00 -0.00000000000E+00 -0.31472786797E+03  0.31472786797E+03  0.00000000000E+00 0. -1.
         25    1    1    2    0    0  0.00000000000E+00  0.00000000000E+00 -0.30231635187E+03  0.32713938407E+03  0.12500000000E+03 0.  0.
<mgrwt>
<rscale>  2 0.12500000E+03</rscale>
<asrwt>0</asrwt>
<pdfrwt beam="1">  1       21 0.19094639E-02 0.12500000E+03</pdfrwt>
<pdfrwt beam="2">  1       21 0.48419674E-01 0.12500000E+03</pdfrwt>
<totfact> 0.53272387E+06</totfact>
</mgrwt>
</event>
<event>
 3    0  0.1614024E+001  0.1250000E+03  0.7546771E-02  0.1235069E+00
         21   -1    0    0  502  501  0.00000000000E+00  0.00000000000E+00  0.12743828071E+02  0.12743828071E+02  0.00000000000E+00 0.  1.
         21   -1    0    0  501  502 -0.00000000000E+00 -0.00000000000E+00 -0.30652092749E+03  0.30652092749E+03  0.00000000000E+00 0.  1.
         25    1    1    2    0    0  0.00000000000E+00  0.00000000000E+00 -0.29377709942E+03  0.31926475556E+03  0.12500000000E+03 0.  0.
<mgrwt>
<rscale>  2 0.12500000E+03</rscale>
<asrwt>0</asrwt>
<pdfrwt beam="1">  1       21 0.19605891E-02 0.12500000E+03</pdfrwt>
<pdfrwt beam="2">  1       21 0.47157062E-01 0.12500000E+03</pdfrwt>
<totfact> 0.53891660E+06</totfact>
</mgrwt>
</event>
<event>
 3    0  0.1543918E+001  0.1250000E+03  0.7546771E-02  0.1235069E+00
         21   -1    0    0  502  501  0.00000000000E+00  0.00000000000E+00  0.37311642144E+03  0.37311642144E+03  0.00000000000E+00 0.  1.
         21   -1    0    0  501  502 -0.00000000000E+00 -0.00000000000E+00 -0.10469252425E+02  0.10469252425E+02  0.00000000000E+00 0.  1.
         25    1    1    2    0    0  0.00000000000E+00  0.00000000000E+00  0.36264716901E+03  0.38358567386E+03  0.12500000000E+03 0.  0.
<mgrwt>
<rscale>  2 0.12500000E+03</rscale>
<asrwt>0</asrwt>
<pdfrwt beam="1">  1       21 0.57402516E-01 0.12500000E+03</pdfrwt>
<pdfrwt beam="2">  1       21 0.16106545E-02 0.12500000E+03</pdfrwt>
<totfact> 0.49149501E+06</totfact>
</mgrwt>
</event>
<event>
 3    0  0.1648447E+001  0.1250000E+03  0.7546771E-02  0.1235069E+00
         21   -1    0    0  502  501  0.00000000000E+00  0.00000000000E+00  0.16451563829E+02  0.16451563829E+02  0.00000000000E+00 0.  1.
         21   -1    0    0  501  502 -0.00000000000E+00 -0.00000000000E+00 -0.23743943375E+03  0.23743943375E+03  0.00000000000E+00 0.  1.
         25    1    1    2    0    0  0.00000000000E+00  0.00000000000E+00 -0.22098786993E+03  0.25389099758E+03  0.12500000000E+03 0.  0.
<mgrwt>
<rscale>  2 0.12500000E+03</rscale>
<asrwt>0</asrwt>
<pdfrwt beam="1">  1       21 0.25310100E-02 0.12500000E+03</pdfrwt>
<pdfrwt beam="2">  1       21 0.36529142E-01 0.12500000E+03</pdfrwt>
<totfact> 0.59513781E+06</totfact>
</mgrwt>
</event>
<event>
 3    0  0.1685013E+001  0.1250000E+03  0.7546771E-02  0.1235069E+00
         21   -1    0    0  502  501  0.00000000000E+00  0.00000000000E+00  0.15981379988E+03  0.15981379988E+03  0.00000000000E+00 0.  1.
         21   -1    0    0  501  502 -0.00000000000E+00 -0.00000000000E+00 -0.24442507486E+02  0.24442507486E+02  0.00000000000E+00 0.  1.
         25    1    1    2    0    0  0.00000000000E+00  0.00000000000E+00  0.13537129240E+03  0.18425630737E+03  0.12500000000E+03 0.  0.
<mgrwt>
<rscale>  2 0.12500000E+03</rscale>
<asrwt>0</asrwt>
<pdfrwt beam="1">  1       21 0.24586738E-01 0.12500000E+03</pdfrwt>
<pdfrwt beam="2">  1       21 0.37603859E-02 0.12500000E+03</pdfrwt>
<totfact> 0.66666590E+06</totfact>
</mgrwt>
</event>
<event>
 3    0  0.1675126E+001  0.1250000E+03  0.7546771E-02  0.1235069E+00
         21   -1    0    0  502  501  0.00000000000E+00  0.00000000000E+00  0.14784996995E+03  0.14784996995E+03  0.00000000000E+00 0. -1.
         21   -1    0    0  501  502 -0.00000000000E+00 -0.00000000000E+00 -0.26420363840E+02  0.26420363840E+02  0.00000000000E+00 0. -1.
         25    1    1    2    0    0  0.00000000000E+00  0.00000000000E+00  0.12142960611E+03  0.17427033379E+03  0.12500000000E+03 0.  0.
<mgrwt>
<rscale>  2 0.12500000E+03</rscale>
<asrwt>0</asrwt>
<pdfrwt beam="1">  1       21 0.22746149E-01 0.12500000E+03</pdfrwt>
<pdfrwt beam="2">  1       21 0.40646714E-02 0.12500000E+03</pdfrwt>
<totfact> 0.67814983E+06</totfact>
</mgrwt>
</event>
<event>
 3    0  0.1711334E+001  0.1250000E+03  0.7546771E-02  0.1235069E+00
         21   -1    0    0  502  501  0.00000000000E+00  0.00000000000E+00  0.51313661727E+02  0.51313661727E+02  0.00000000000E+00 0. -1.
         21   -1    0    0  501  502 -0.00000000000E+00 -0.00000000000E+00 -0.76124951300E+02  0.76124951300E+02  0.00000000000E+00 0. -1.
         25    1    1    2    0    0  0.00000000000E+00  0.00000000000E+00 -0.24811289573E+02  0.12743861303E+03  0.12500000000E+03 0.  0.
<mgrwt>
<rscale>  2 0.12500000E+03</rscale>
<asrwt>0</asrwt>
<pdfrwt beam="1">  1       21 0.78944095E-02 0.12500000E+03</pdfrwt>
<pdfrwt beam="2">  1       21 0.11711531E-01 0.12500000E+03</pdfrwt>
<totfact> 0.73709542E+06</totfact>
</mgrwt>
</event>
<event>
 3    0  0.1708594E+001  0.1250000E+03  0.7546771E-02  0.1235069E+00
         21   -1    0    0  502  501  0.00000000000E+00  0.00000000000E+00  0.31810181270E+02  0.31810181270E+02  0.00000000000E+00 0.  1.
         21   -1    0    0  501  502 -0.00000000000E+00 -0.00000000000E+00 -0.12279873437E+03  0.12279873437E+03  0.00000000000E+00 0.  1.
         25    1    1    2    0    0  0.00000000000E+00  0.00000000000E+00 -0.90988553100E+02  0.15460891564E+03  0.12500000000E+03 0.  0.
<mgrwt>
<rscale>  2 0.12500000E+03</rscale>
<asrwt>0</asrwt>
<pdfrwt beam="1">  1       21 0.48938741E-02 0.12500000E+03</pdfrwt>
<pdfrwt beam="2">  1       21 0.18892113E-01 0.12500000E+03</pdfrwt>
<totfact> 0.70184298E+06</totfact>
</mgrwt>
</event>
<event>
 3    0  0.1624395E+001  0.1250000E+03  0.7546771E-02  0.1235069E+00
         21   -1    0    0  502  501  0.00000000000E+00  0.00000000000E+00  0.17970493559E+02  0.17970493559E+02  0.00000000000E+00 0. -1.
         21   -1    0    0  501  502 -0.00000000000E+00 -0.00000000000E+00 -0.21737021229E+03  0.21737021229E+03  0.00000000000E+00 0. -1.
         25    1    1    2    0    0  0.00000000000E+00  0.00000000000E+00 -0.19939971873E+03  0.23534070585E+03  0.12500000000E+03 0.  0.
<mgrwt>
<rscale>  2 0.12500000E+03</rscale>
<asrwt>0</asrwt>
<pdfrwt beam="1">  1       21 0.27646913E-02 0.12500000E+03</pdfrwt>
<pdfrwt beam="2">  1       21 0.33441571E-01 0.12500000E+03</pdfrwt>
<totfact> 0.61286468E+06</totfact>
</mgrwt>
</event>
<event>
 3    0  0.1488856E+001  0.1250000E+03  0.7546771E-02  0.1235069E+00
         21   -1    0    0  502  501  0.00000000000E+00  0.00000000000E+00  0.48701456678E+03  0.48701456678E+03  0.00000000000E+00 0.  1.
         21   -1    0    0  501  502 -0.00000000000E+00 -0.00000000000E+00 -0.80208073156E+01  0.80208073156E+01  0.00000000000E+00 0.  1.
         25    1    1    2    0    0  0.00000000000E+00  0.00000000000E+00  0.47899375946E+03  0.49503537409E+03  0.12500000000E+03 0.  0.
<mgrwt>
<rscale>  2 0.12500000E+03</rscale>
<asrwt>0</asrwt>
<pdfrwt beam="1">  1       21 0.74925295E-01 0.12500000E+03</pdfrwt>
<pdfrwt beam="2">  1       21 0.12339707E-02 0.12500000E+03</pdfrwt>
<totfact> 0.42314607E+06</totfact>
</mgrwt>
</event>
<event>
 3    0  0.1734085E+001  0.1250000E+03  0.7546771E-02  0.1235069E+00
         21   -1    0    0  502  501  0.00000000000E+00  0.00000000000E+00  0.50120968732E+02  0.50120968732E+02  0.00000000000E+00 0.  1.
         21   -1    0    0  501  502 -0.00000000000E+00 -0.00000000000E+00 -0.77936442548E+02  0.77936442548E+02  0.00000000000E+00 0.  1.
         25    1    1    2    0    0  0.00000000000E+00  0.00000000000E+00 -0.27815473816E+02  0.12805741128E+03  0.12500000000E+03 0.  0.
<mgrwt>
<rscale>  2 0.12500000E+03</rscale>
<asrwt>0</asrwt>
<pdfrwt beam="1">  1       21 0.77109183E-02 0.12500000E+03</pdfrwt>
<pdfrwt beam="2">  1       21 0.11990222E-01 0.12500000E+03</pdfrwt>
<totfact> 0.73625805E+06</totfact>
</mgrwt>
</event>
<event>
 3    0  0.1368989E+001  0.1250000E+03  0.7546771E-02  0.1235069E+00
         21   -1    0    0  502  501  0.00000000000E+00  0.00000000000E+00  0.39639974760E+01  0.39639974760E+01  0.00000000000E+00 0.  1.
         21   -1    0    0  501  502 -0.00000000000E+00 -0.00000000000E+00 -0.98543200990E+03  0.98543200990E+03  0.00000000000E+00 0.  1.
         25    1    1    2    0    0  0.00000000000E+00  0.00000000000E+00 -0.98146801243E+03  0.98939600738E+03  0.12500000000E+03 0.  0.
<mgrwt>
<rscale>  2 0.12500000E+03</rscale>
<asrwt>0</asrwt>
<pdfrwt beam="1">  1       21 0.60984588E-03 0.12500000E+03</pdfrwt>
<pdfrwt beam="2">  1       21 0.15160489E+00 0.12500000E+03</pdfrwt>
<totfact> 0.23885440E+06</totfact>
</mgrwt>
</event>
<event>
 3    0  0.1386716E+001  0.1250000E+03  0.7546771E-02  0.1235069E+00
         21   -1    0    0  502  501  0.00000000000E+00  0.00000000000E+00  0.59981771135E+03  0.59981771135E+03  0.00000000000E+00 0. -1.
         21   -1    0    0  501  502 -0.00000000000E+00 -0.00000000000E+00 -0.65123952263E+01  0.65123952263E+01  0.00000000000E+00 0. -1.
         25    1    1    2    0    0  0.00000000000E+00  0.00000000000E+00  0.59330531612E+03  0.60633010657E+03  0.12500000000E+03 0.  0.
<mgrwt>
<rscale>  2 0.12500000E+03</rscale>
<asrwt>0</asrwt>
<pdfrwt beam="1">  1       21 0.92279604E-01 0.12500000E+03</pdfrwt>
<pdfrwt beam="2">  1       21 0.10019074E-02 0.12500000E+03</pdfrwt>
<totfact> 0.36807928E+06</totfact>
</mgrwt>
</event>
<event>
 3    0  0.1727765E+001  0.1250000E+03  0.7546771E-02  0.1235069E+00
         21   -1    0    0  502  501  0.00000000000E+00  0.00000000000E+00  0.87783642405E+02  0.87783642405E+02  0.00000000000E+00 0.  1.
         21   -1    0    0  501  502 -0.00000000000E+00 -0.00000000000E+00 -0.44498609228E+02  0.44498609228E+02  0.00000000000E+00 0.  1.
         25    1    1    2    0    0  0.00000000000E+00  0.00000000000E+00  0.43285033177E+02  0.13228225163E+03  0.12500000000E+03 0.  0.
<mgrwt>
<rscale>  2 0.12500000E+03</rscale>
<asrwt>0</asrwt>
<pdfrwt beam="1">  1       21 0.13505176E-01 0.12500000E+03</pdfrwt>
<pdfrwt beam="2">  1       21 0.68459399E-02 0.12500000E+03</pdfrwt>
<totfact> 0.73058394E+06</totfact>
</mgrwt>
</event>
<event>
 3    0  0.1368989E+001  0.1250000E+03  0.7546771E-02  0.1235069E+00
         21   -1    0    0  502  501  0.00000000000E+00  0.00000000000E+00  0.14427801411E+04  0.14427801411E+04  0.00000000000E+00 0.  1.
         21   -1    0    0  501  502 -0.00000000000E+00 -0.00000000000E+00 -0.27074464700E+01  0.27074464700E+01  0.00000000000E+00 0.  1.
         25    1    1    2    0    0  0.00000000000E+00  0.00000000000E+00  0.14400726946E+04  0.14454875876E+04  0.12500000000E+03 0.  0.
<mgrwt>
<rscale>  2 0.12500000E+03</rscale>
<asrwt>0</asrwt>
<pdfrwt beam="1">  1       21 0.22196556E+00 0.12500000E+03</pdfrwt>
<pdfrwt beam="2">  1       21 0.41653138E-03 0.12500000E+03</pdfrwt>
<totfact> 0.14820816E+06</totfact>
</mgrwt>
</event>
<event>
 3    0  0.1721497E+001  0.1250000E+03  0.7546771E-02  0.1235069E+00
         21   -1    0    0  502  501  0.00000000000E+00  0.00000000000E+00  0.38122243536E+02  0.38122243536E+02  0.00000000000E+00 0.  1.
         21   -1    0    0  501  502 -0.00000000000E+00 -0.00000000000E+00 -0.10246642479E+03  0.10246642479E+03  0.00000000000E+00 0.  1.
         25    1    1    2    0    0  0.00000000000E+00  0.00000000000E+00 -0.64344181250E+02  0.14058866832E+03  0.12500000000E+03 0.  0.
<mgrwt>
<rscale>  2 0.12500000E+03</rscale>
<asrwt>0</asrwt>
<pdfrwt beam="1">  1       21 0.58649606E-02 0.12500000E+03</pdfrwt>
<pdfrwt beam="2">  1       21 0.15764065E-01 0.12500000E+03</pdfrwt>
<totfact> 0.71962552E+06</totfact>
</mgrwt>
</event>
<event>
 3    0  0.1419137E+001  0.1250000E+03  0.7546771E-02  0.1235069E+00
         21   -1    0    0  502  501  0.00000000000E+00  0.00000000000E+00  0.51362221335E+03  0.51362221335E+03  0.00000000000E+00 0. -1.
         21   -1    0    0  501  502 -0.00000000000E+00 -0.00000000000E+00 -0.76052980157E+01  0.76052980157E+01  0.00000000000E+00 0. -1.
         25    1    1    2    0    0  0.00000000000E+00  0.00000000000E+00  0.50601691533E+03  0.52122751136E+03  0.12500000000E+03 0.  0.
<mgrwt>
<rscale>  2 0.12500000E+03</rscale>
<asrwt>0</asrwt>
<pdfrwt beam="1">  1       21 0.79018775E-01 0.12500000E+03</pdfrwt>
<pdfrwt beam="2">  1       21 0.11700462E-02 0.12500000E+03</pdfrwt>
<totfact> 0.40915777E+06</totfact>
</mgrwt>
</event>
<event>
 3    0  0.1597524E+001  0.1250000E+03  0.7546771E-02  0.1235069E+00
         21   -1    0    0  502  501  0.00000000000E+00  0.00000000000E+00  0.13208698613E+02  0.13208698613E+02  0.00000000000E+00 0.  1.
         21   -1    0    0  501  502 -0.00000000000E+00 -0.00000000000E+00 -0.29573314635E+03  0.29573314635E+03  0.00000000000E+00 0.  1.
         25    1    1    2    0    0  0.00000000000E+00  0.00000000000E+00 -0.28252444773E+03  0.30894184496E+03  0.12500000000E+03 0.  0.
<mgrwt>
<rscale>  2 0.12500000E+03</rscale>
<asrwt>0</asrwt>
<pdfrwt beam="1">  1       21 0.20321078E-02 0.12500000E+03</pdfrwt>
<pdfrwt beam="2">  1       21 0.45497400E-01 0.12500000E+03</pdfrwt>
<totfact> 0.54721165E+06</totfact>
</mgrwt>
</event>
<event>
 3    0  0.1685587E+001  0.1250000E+03  0.7546771E-02  0.1235069E+00
         21   -1    0    0  502  501  0.00000000000E+00  0.00000000000E+00  0.31156162410E+02  0.31156162410E+02  0.00000000000E+00 0. -1.
         21   -1    0    0  501  502 -0.00000000000E+00 -0.00000000000E+00 -0.12537648086E+03  0.12537648086E+03  0.00000000000E+00 0. -1.
         25    1    1    2    0    0  0.00000000000E+00  0.00000000000E+00 -0.94220318448E+02  0.15653264327E+03  0.12500000000E+03 0.  0.
<mgrwt>
<rscale>  2 0.12500000E+03</rscale>
<asrwt>0</asrwt>
<pdfrwt beam="1">  1       21 0.47932556E-02 0.12500000E+03</pdfrwt>
<pdfrwt beam="2">  1       21 0.19288690E-01 0.12500000E+03</pdfrwt>
<totfact> 0.69945670E+06</totfact>
</mgrwt>
</event>
<event>
 3    0  0.1666557E+001  0.1250000E+03  0.7546771E-02  0.1235069E+00
         21   -1    0    0  502  501  0.00000000000E+00  0.00000000000E+00  0.23287227953E+02  0.23287227953E+02  0.00000000000E+00 0. -1.
         21   -1    0    0  501  502 -0.00000000000E+00 -0.00000000000E+00 -0.16774216355E+03  0.16774216355E+03  0.00000000000E+00 0. -1.
         25    1    1    2    0    0  0.00000000000E+00  0.00000000000E+00 -0.14445493560E+03  0.19102939150E+03  0.12500000000E+03 0.  0.
<mgrwt>
<rscale>  2 0.12500000E+03</rscale>
<asrwt>0</asrwt>
<pdfrwt beam="1">  1       21 0.35826504E-02 0.12500000E+03</pdfrwt>
<pdfrwt beam="2">  1       21 0.25806487E-01 0.12500000E+03</pdfrwt>
<totfact> 0.65908239E+06</totfact>
</mgrwt>
</event>
<event>
 3    0  0.1654216E+001  0.1250000E+03  0.7546771E-02  0.1235069E+00
         21   -1    0    0  502  501  0.00000000000E+00  0.00000000000E+00  0.22255304496E+03  0.22255304496E+03  0.00000000000E+00 0.  1.
         21   -1    0    0  501  502 -0.00000000000E+00 -0.00000000000E+00 -0.17551995304E+02  0.17551995304E+02  0.00000000000E+00 0.  1.
         25    1    1    2    0    0  0.00000000000E+00  0.00000000000E+00  0.20500104965E+03  0.24010504026E+03  0.12500000000E+03 0.  0.
<mgrwt>
<rscale>  2 0.12500000E+03</rscale>
<asrwt>0</asrwt>
<pdfrwt beam="1">  1       21 0.34238928E-01 0.12500000E+03</pdfrwt>
<pdfrwt beam="2">  1       21 0.27003071E-02 0.12500000E+03</pdfrwt>
<totfact> 0.60822501E+06</totfact>
</mgrwt>
</event>
<event>
 3    0  0.1368989E+001  0.1250000E+03  0.7546771E-02  0.1235069E+00
         21   -1    0    0  502  501  0.00000000000E+00  0.00000000000E+00  0.11229795965E+04  0.11229795965E+04  0.00000000000E+00 0.  1.
         21   -1    0    0  501  502 -0.00000000000E+00 -0.00000000000E+00 -0.34784692547E+01  0.34784692547E+01  0.00000000000E+00 0.  1.
         25    1    1    2    0    0  0.00000000000E+00  0.00000000000E+00  0.11195011272E+04  0.11264580657E+04  0.12500000000E+03 0.  0.
<mgrwt>
<rscale>  2 0.12500000E+03</rscale>
<asrwt>0</asrwt>
<pdfrwt beam="1">  1       21 0.17276580E+00 0.12500000E+03</pdfrwt>
<pdfrwt beam="2">  1       21 0.53515001E-03 0.12500000E+03</pdfrwt>
<totfact> 0.20672429E+06</totfact>
</mgrwt>
</event>
<event>
 3    0  0.1671608E+001  0.1250000E+03  0.7546771E-02  0.1235069E+00
         21   -1    0    0  502  501  0.00000000000E+00  0.00000000000E+00  0.28446922489E+02  0.28446922489E+02  0.00000000000E+00 0. -1.
         21   -1    0    0  501  502 -0.00000000000E+00 -0.00000000000E+00 -0.13731713866E+03  0.13731713866E+03  0.00000000000E+00 0. -1.
         25    1    1    2    0    0  0.00000000000E+00  0.00000000000E+00 -0.10887021618E+03  0.16576406115E+03  0.12500000000E+03 0.  0.
<mgrwt>
<rscale>  2 0.12500000E+03</rscale>
<asrwt>0</asrwt>
<pdfrwt beam="1">  1       21 0.43764496E-02 0.12500000E+03</pdfrwt>
<pdfrwt beam="2">  1       21 0.21125714E-01 0.12500000E+03</pdfrwt>
<totfact> 0.68821959E+06</totfact>
</mgrwt>
</event>
<event>
 3    0  0.1487553E+001  0.1250000E+03  0.7546771E-02  0.1235069E+00
         21   -1    0    0  502  501  0.00000000000E+00  0.00000000000E+00  0.52400197797E+03  0.52400197797E+03  0.00000000000E+00 0.  1.
         21   -1    0    0  501  502 -0.00000000000E+00 -0.00000000000E+00 -0.74546474331E+01  0.74546474331E+01  0.00000000000E+00 0.  1.
         25    1    1    2    0    0  0.00000000000E+00  0.00000000000E+00  0.51654733054E+03  0.53145662540E+03  0.12500000000E+03 0.  0.
<mgrwt>
<rscale>  2 0.12500000E+03</rscale>
<asrwt>0</asrwt>
<pdfrwt beam="1">  1       21 0.80615660E-01 0.12500000E+03</pdfrwt>
<pdfrwt beam="2">  1       21 0.11468692E-02 0.12500000E+03</pdfrwt>
<totfact> 0.40387934E+06</totfact>
</mgrwt>
</event>
<event>
 3    0  0.1666812E+001  0.1250000E+03  0.7546771E-02  0.1235069E+00
         21   -1    0    0  502  501  0.00000000000E+00  0.00000000000E+00  0.24833162575E+02  0.24833162575E+02  0.00000000000E+00 0. -1.
         21   -1    0    0  501  502 -0.00000000000E+00 -0.00000000000E+00 -0.15729973934E+03  0.15729973934E+03  0.00000000000E+00 0. -1.
         25    1    1    2    0    0  0.00000000000E+00  0.00000000000E+00 -0.13246657676E+03  0.18213290191E+03  0.12500000000E+03 0.  0.
<mgrwt>
<rscale>  2 0.12500000E+03</rscale>
<asrwt>0</asrwt>
<pdfrwt beam="1">  1       21 0.38204864E-02 0.12500000E+03</pdfrwt>
<pdfrwt beam="2">  1       21 0.24199961E-01 0.12500000E+03</pdfrwt>
<totfact> 0.66907695E+06</totfact>
</mgrwt>
</event>
<event>
 3    0  0.1706624E+001  0.1250000E+03  0.7546771E-02  0.1235069E+00
         21   -1    0    0  502  501  0.00000000000E+00  0.00000000000E+00  0.41443259674E+02  0.41443259674E+02  0.00000000000E+00 0. -1.
         21   -1    0    0  501  502 -0.00000000000E+00 -0.00000000000E+00 -0.94255375439E+02  0.94255375439E+02  0.00000000000E+00 0. -1.
         25    1    1    2    0    0  0.00000000000E+00  0.00000000000E+00 -0.52812115764E+02  0.13569863511E+03  0.12500000000E+03 0.  0.
<mgrwt>
<rscale>  2 0.12500000E+03</rscale>
<asrwt>0</asrwt>
<pdfrwt beam="1">  1       21 0.63758861E-02 0.12500000E+03</pdfrwt>
<pdfrwt beam="2">  1       21 0.14500827E-01 0.12500000E+03</pdfrwt>
<totfact> 0.72604100E+06</totfact>
</mgrwt>
</event>
<event>
 3    0  0.1679336E+001  0.1250000E+03  0.7546771E-02  0.1235069E+00
         21   -1    0    0  502  501  0.00000000000E+00  0.00000000000E+00  0.29159415894E+02  0.29159415894E+02  0.00000000000E+00 0. -1.
         21   -1    0    0  501  502 -0.00000000000E+00 -0.00000000000E+00 -0.13396187407E+03  0.13396187407E+03  0.00000000000E+00 0. -1.
         25    1    1    2    0    0  0.00000000000E+00  0.00000000000E+00 -0.10480245818E+03  0.16312128997E+03  0.12500000000E+03 0.  0.
<mgrwt>
<rscale>  2 0.12500000E+03</rscale>
<asrwt>0</asrwt>
<pdfrwt beam="1">  1       21 0.44860640E-02 0.12500000E+03</pdfrwt>
<pdfrwt beam="2">  1       21 0.20609519E-01 0.12500000E+03</pdfrwt>
<totfact> 0.69140105E+06</totfact>
</mgrwt>
</event>
<event>
 3    0  0.1576237E+001  0.1250000E+03  0.7546771E-02  0.1235069E+00
         21   -1    0    0  502  501  0.00000000000E+00  0.00000000000E+00  0.29518518909E+03  0.29518518909E+03  0.00000000000E+00 0. -1.
         21   -1    0    0  501  502 -0.00000000000E+00 -0.00000000000E+00 -0.13233218144E+02  0.13233218144E+02  0.00000000000E+00 0. -1.
         25    1    1    2    0    0  0.00000000000E+00  0.00000000000E+00  0.28195197095E+03  0.30841840723E+03  0.12500000000E+03 0.  0.
<mgrwt>
<rscale>  2 0.12500000E+03</rscale>
<asrwt>0</asrwt>
<pdfrwt beam="1">  1       21 0.45413101E-01 0.12500000E+03</pdfrwt>
<pdfrwt beam="2">  1       21 0.20358799E-02 0.12500000E+03</pdfrwt>
<totfact> 0.54763750E+06</totfact>
</mgrwt>
</event>
<event>
 3    0  0.1539049E+001  0.1250000E+03  0.7546771E-02  0.1235069E+00
         21   -1    0    0  502  501  0.00000000000E+00  0.00000000000E+00  0.44027417576E+03  0.44027417576E+03  0.00000000000E+00 0.  1.
         21   -1    0    0  501  502 -0.00000000000E+00 -0.00000000000E+00 -0.88723123342E+01  0.88723123342E+01  0.00000000000E+00 0.  1.
         25    1    1    2    0    0  0.00000000000E+00  0.00000000000E+00  0.43140186342E+03  0.44914648809E+03  0.12500000000E+03 0.  0.
<mgrwt>
<rscale>  2 0.12500000E+03</rscale>
<asrwt>0</asrwt>
<pdfrwt beam="1">  1       21 0.67734471E-01 0.12500000E+03</pdfrwt>
<pdfrwt beam="2">  1       21 0.13649715E-02 0.12500000E+03</pdfrwt>
<totfact> 0.44943392E+06</totfact>
</mgrwt>
</event>
<event>
 3    0  0.1701055E+001  0.1250000E+03  0.7546771E-02  0.1235069E+00
         21   -1    0    0  502  501  0.00000000000E+00  0.00000000000E+00  0.13495321362E+03  0.13495321362E+03  0.00000000000E+00 0.  1.
         21   -1    0    0  501  502 -0.00000000000E+00 -0.00000000000E+00 -0.28945216606E+02  0.28945216606E+02  0.00000000000E+00 0.  1.
         25    1    1    2    0    0  0.00000000000E+00  0.00000000000E+00  0.10600799702E+03  0.16389843023E+03  0.12500000000E+03 0.  0.
<mgrwt>
<rscale>  2 0.12500000E+03</rscale>
<asrwt>0</asrwt>
<pdfrwt beam="1">  1       21 0.20762032E-01 0.12500000E+03</pdfrwt>
<pdfrwt beam="2">  1       21 0.44531103E-02 0.12500000E+03</pdfrwt>
<totfact> 0.69046260E+06</totfact>
</mgrwt>
</event>
<event>
 3    0  0.1643899E+001  0.1250000E+03  0.7546771E-02  0.1235069E+00
         21   -1    0    0  502  501  0.00000000000E+00  0.00000000000E+00  0.19498403430E+02  0.19498403430E+02  0.00000000000E+00 0. -1.
         21   -1    0    0  501  502 -0.00000000000E+00 -0.00000000000E+00 -0.20033691548E+03  0.20033691548E+03  0.00000000000E+00 0. -1.
         25    1    1    2    0    0  0.00000000000E+00  0.00000000000E+00 -0.18083851205E+03  0.21983531891E+03  0.12500000000E+03 0.  0.
<mgrwt>
<rscale>  2 0.12500000E+03</rscale>
<asrwt>0</asrwt>
<pdfrwt beam="1">  1       21 0.29997546E-02 0.12500000E+03</pdfrwt>
<pdfrwt beam="2">  1       21 0.30821062E-01 0.12500000E+03</pdfrwt>
<totfact> 0.62839373E+06</totfact>
</mgrwt>
</event>
<event>
 3    0  0.1641927E+001  0.1250000E+03  0.7546771E-02  0.1235069E+00
         21   -1    0    0  502  501  0.00000000000E+00  0.00000000000E+00  0.20966933306E+03  0.20966933306E+03  0.00000000000E+00 0. -1.
         21   -1    0    0  501  502 -0.00000000000E+00 -0.00000000000E+00 -0.18630526186E+02  0.18630526186E+02  0.00000000000E+00 0. -1.
         25    1    1    2    0    0  0.00000000000E+00  0.00000000000E+00  0.19103880688E+03  0.22829985925E+03  0.12500000000E+03 0.  0.
<mgrwt>
<rscale>  2 0.12500000E+03</rscale>
<asrwt>0</asrwt>
<pdfrwt beam="1">  1       21 0.32256819E-01 0.12500000E+03</pdfrwt>
<pdfrwt beam="2">  1       21 0.28662349E-02 0.12500000E+03</pdfrwt>
<totfact> 0.61983582E+06</totfact>
</mgrwt>
</event>
<event>
 3    0  0.1624397E+001  0.1250000E+03  0.7546771E-02  0.1235069E+00
         21   -1    0    0  502  501  0.00000000000E+00  0.00000000000E+00  0.15005308290E+02  0.15005308290E+02  0.00000000000E+00 0.  1.
         21   -1    0    0  501  502 -0.00000000000E+00 -0.00000000000E+00 -0.26032454145E+03  0.26032454145E+03  0.00000000000E+00 0.  1.
         25    1    1    2    0    0  0.00000000000E+00  0.00000000000E+00 -0.24531923316E+03  0.27532984974E+03  0.12500000000E+03 0.  0.
<mgrwt>
<rscale>  2 0.12500000E+03</rscale>
<asrwt>0</asrwt>
<pdfrwt beam="1">  1       21 0.23085091E-02 0.12500000E+03</pdfrwt>
<pdfrwt beam="2">  1       21 0.40049928E-01 0.12500000E+03</pdfrwt>
<totfact> 0.57570765E+06</totfact>
</mgrwt>
</event>
<event>
 3    0  0.1703066E+001  0.1250000E+03  0.7546771E-02  0.1235069E+00
         21   -1    0    0  502  501  0.00000000000E+00  0.00000000000E+00  0.91946027052E+02  0.91946027052E+02  0.00000000000E+00 0. -1.
         21   -1    0    0  501  502 -0.00000000000E+00 -0.00000000000E+00 -0.42484162995E+02  0.42484162995E+02  0.00000000000E+00 0. -1.
         25    1    1    2    0    0  0.00000000000E+00  0.00000000000E+00  0.49461864058E+02  0.13443019005E+03  0.12500000000E+03 0.  0.
<mgrwt>
<rscale>  2 0.12500000E+03</rscale>
<asrwt>0</asrwt>
<pdfrwt beam="1">  1       21 0.14145543E-01 0.12500000E+03</pdfrwt>
<pdfrwt beam="2">  1       21 0.65360251E-02 0.12500000E+03</pdfrwt>
<totfact> 0.72772007E+06</totfact>
</mgrwt>
</event>
<event>
 3    0  0.1706521E+001  0.1250000E+03  0.7546771E-02  0.1235069E+00
         21   -1    0    0  502  501  0.00000000000E+00  0.00000000000E+00  0.27438594352E+02  0.27438594352E+02  0.00000000000E+00 0.  1.
         21   -1    0    0  501  502 -0.00000000000E+00 -0.00000000000E+00 -0.14236334230E+03  0.14236334230E+03  0.00000000000E+00 0.  1.
         25    1    1    2    0    0  0.00000000000E+00  0.00000000000E+00 -0.11492474795E+03  0.16980193665E+03  0.12500000000E+03 0.  0.
<mgrwt>
<rscale>  2 0.12500000E+03</rscale>
<asrwt>0</asrwt>
<pdfrwt beam="1">  1       21 0.42213221E-02 0.12500000E+03</pdfrwt>
<pdfrwt beam="2">  1       21 0.21902053E-01 0.12500000E+03</pdfrwt>
<totfact> 0.68341122E+06</totfact>
</mgrwt>
</event>
<event>
 3    0  0.1703679E+001  0.1250000E+03  0.7546771E-02  0.1235069E+00
         21   -1    0    0  502  501  0.00000000000E+00  0.00000000000E+00  0.99103854408E+02  0.99103854408E+02  0.00000000000E+00 0. -1.
         21   -1    0    0  501  502 -0.00000000000E+00 -0.00000000000E+00 -0.39415722258E+02  0.39415722258E+02  0.00000000000E+00 0. -1.
         25    1    1    2    0    0  0.00000000000E+00  0.00000000000E+00  0.59688132150E+02  0.13851957667E+03  0.12500000000E+03 0.  0.
<mgrwt>
<rscale>  2 0.12500000E+03</rscale>
<asrwt>0</asrwt>
<pdfrwt beam="1">  1       21 0.15246747E-01 0.12500000E+03</pdfrwt>
<pdfrwt beam="2">  1       21 0.60639573E-02 0.12500000E+03</pdfrwt>
<totfact> 0.72233168E+06</totfact>
</mgrwt>
</event>
<event>
 3    0  0.1543893E+001  0.1250000E+03  0.7546771E-02  0.1235069E+00
         21   -1    0    0  502  501  0.00000000000E+00  0.00000000000E+00  0.10282125865E+02  0.10282125865E+02  0.00000000000E+00 0. -1.
         21   -1    0    0  501  502 -0.00000000000E+00 -0.00000000000E+00 -0.37990684526E+03  0.37990684526E+03  0.00000000000E+00 0. -1.
         25    1    1    2    0    0  0.00000000000E+00  0.00000000000E+00 -0.36962471939E+03  0.39018897112E+03  0.12500000000E+03 0.  0.
<mgrwt>
<rscale>  2 0.12500000E+03</rscale>
<asrwt>0</asrwt>
<pdfrwt beam="1">  1       21 0.15818656E-02 0.12500000E+03</pdfrwt>
<pdfrwt beam="2">  1       21 0.58447204E-01 0.12500000E+03</pdfrwt>
<totfact> 0.48698988E+06</totfact>
</mgrwt>
</event>
<event>
 3    0  0.1482696E+001  0.1250000E+03  0.7546771E-02  0.1235069E+00
         21   -1    0    0  502  501  0.00000000000E+00  0.00000000000E+00  0.49027549501E+03  0.49027549501E+03  0.00000000000E+00 0.  1.
         21   -1    0    0  501  502 -0.00000000000E+00 -0.00000000000E+00 -0.79674591933E+01  0.79674591933E+01  0.00000000000E+00 0.  1.
         25    1    1    2    0    0  0.00000000000E+00  0.00000000000E+00  0.48230803582E+03  0.49824295420E+03  0.12500000000E+03 0.  0.
<mgrwt>
<rscale>  2 0.12500000E+03</rscale>
<asrwt>0</asrwt>
<pdfrwt beam="1">  1       21 0.75426976E-01 0.12500000E+03</pdfrwt>
<pdfrwt beam="2">  1       21 0.12257633E-02 0.12500000E+03</pdfrwt>
<totfact> 0.42139528E+06</totfact>
</mgrwt>
</event>
<event>
 3    0  0.1554901E+001  0.1250000E+03  0.7546771E-02  0.1235069E+00
         21   -1    0    0  502  501  0.00000000000E+00  0.00000000000E+00  0.33380471224E+03  0.33380471224E+03  0.00000000000E+00 0. -1.
         21   -1    0    0  501  502 -0.00000000000E+00 -0.00000000000E+00 -0.11702201487E+02  0.11702201487E+02  0.00000000000E+00 0. -1.
         25    1    1    2    0    0  0.00000000000E+00  0.00000000000E+00  0.32210251075E+03  0.34550691373E+03  0.12500000000E+03 0.  0.
<mgrwt>
<rscale>  2 0.12500000E+03</rscale>
<asrwt>0</asrwt>
<pdfrwt beam="1">  1       21 0.51354564E-01 0.12500000E+03</pdfrwt>
<pdfrwt beam="2">  1       21 0.18003389E-02 0.12500000E+03</pdfrwt>
<totfact> 0.51871983E+06</totfact>
</mgrwt>
</event>
<event>
 3    0  0.1368989E+001  0.1250000E+03  0.7546771E-02  0.1235069E+00
         21   -1    0    0  502  501  0.00000000000E+00  0.00000000000E+00  0.15822331994E+01  0.15822331994E+01  0.00000000000E+00 0. -1.
         21   -1    0    0  501  502 -0.00000000000E+00 -0.00000000000E+00 -0.24688206526E+04  0.24688206526E+04  0.00000000000E+00 0. -1.
         25    1    1    2    0    0  0.00000000000E+00  0.00000000000E+00 -0.24672384194E+04  0.24704028858E+04  0.12500000000E+03 0.  0.
<mgrwt>
<rscale>  2 0.12500000E+03</rscale>
<asrwt>0</asrwt>
<pdfrwt beam="1">  1       21 0.24342175E-03 0.12500000E+03</pdfrwt>
<pdfrwt beam="2">  1       21 0.37981659E+00 0.12500000E+03</pdfrwt>
<totfact> 0.42053264E+05</totfact>
</mgrwt>
</event>
<event>
 3    0  0.1666455E+001  0.1250000E+03  0.7546771E-02  0.1235069E+00
         21   -1    0    0  502  501  0.00000000000E+00  0.00000000000E+00  0.25719166358E+02  0.25719166358E+02  0.00000000000E+00 0. -1.
         21   -1    0    0  501  502 -0.00000000000E+00 -0.00000000000E+00 -0.15188089480E+03  0.15188089480E+03  0.00000000000E+00 0. -1.
         25    1    1    2    0    0  0.00000000000E+00  0.00000000000E+00 -0.12616172844E+03  0.17760006116E+03  0.12500000000E+03 0.  0.
<mgrwt>
<rscale>  2 0.12500000E+03</rscale>
<asrwt>0</asrwt>
<pdfrwt beam="1">  1       21 0.39567949E-02 0.12500000E+03</pdfrwt>
<pdfrwt beam="2">  1       21 0.23366291E-01 0.12500000E+03</pdfrwt>
<totfact> 0.67427922E+06</totfact>
</mgrwt>
</event>
<event>
 3    0  0.1694499E+001  0.1250000E+03  0.7546771E-02  0.1235069E+00
         21   -1    0    0  502  501  0.00000000000E+00  0.00000000000E+00  0.10390733342E+03  0.10390733342E+03  0.00000000000E+00 0. -1.
         21   -1    0    0  501  502 -0.00000000000E+00 -0.00000000000E+00 -0.37593592978E+02  0.37593592978E+02  0.00000000000E+00 0. -1.
         25    1    1    2    0    0  0.00000000000E+00  0.00000000000E+00  0.66313740440E+02  0.14150092640E+03  0.12500000000E+03 0.  0.
<mgrwt>
<rscale>  2 0.12500000E+03</rscale>
<asrwt>0</asrwt>
<pdfrwt beam="1">  1       21 0.15985743E-01 0.12500000E+03</pdfrwt>
<pdfrwt beam="2">  1       21 0.57836297E-02 0.12500000E+03</pdfrwt>
<totfact> 0.71843967E+06</totfact>
</mgrwt>
</event>
<event>
 3    0  0.1368989E+001  0.1250000E+03  0.7546771E-02  0.1235069E+00
         21   -1    0    0  502  501  0.00000000000E+00  0.00000000000E+00  0.22190782735E+01  0.22190782735E+01  0.00000000000E+00 0. -1.
         21   -1    0    0  501  502 -0.00000000000E+00 -0.00000000000E+00 -0.17603029360E+04  0.17603029360E+04  0.00000000000E+00 0. -1.
         25    1    1    2    0    0  0.00000000000E+00  0.00000000000E+00 -0.17580838577E+04  0.17625220143E+04  0.12500000000E+03 0.  0.
<mgrwt>
<rscale>  2 0.12500000E+03</rscale>
<asrwt>0</asrwt>
<pdfrwt beam="1">  1       21 0.34139721E-03 0.12500000E+03</pdfrwt>
<pdfrwt beam="2">  1       21 0.27081540E+00 0.12500000E+03</pdfrwt>
<totfact> 0.10508079E+06</totfact>
</mgrwt>
</event>
<event>
 3    0  0.1700242E+001  0.1250000E+03  0.7546771E-02  0.1235069E+00
         21   -1    0    0  502  501  0.00000000000E+00  0.00000000000E+00  0.41912988416E+02  0.41912988416E+02  0.00000000000E+00 0. -1.
         21   -1    0    0  501  502 -0.00000000000E+00 -0.00000000000E+00 -0.93199033225E+02  0.93199033225E+02  0.00000000000E+00 0. -1.
         25    1    1    2    0    0  0.00000000000E+00  0.00000000000E+00 -0.51286044809E+02  0.13511202164E+03  0.12500000000E+03 0.  0.
<mgrwt>
<rscale>  2 0.12500000E+03</rscale>
<asrwt>0</asrwt>
<pdfrwt beam="1">  1       21 0.64481522E-02 0.12500000E+03</pdfrwt>
<pdfrwt beam="2">  1       21 0.14338313E-01 0.12500000E+03</pdfrwt>
<totfact> 0.72681643E+06</totfact>
</mgrwt>
</event>
<event>
 3    0  0.1686270E+001  0.1250000E+03  0.7546771E-02  0.1235069E+00
         21   -1    0    0  502  501  0.00000000000E+00  0.00000000000E+00  0.12525655112E+03  0.12525655112E+03  0.00000000000E+00 0. -1.
         21   -1    0    0  501  502 -0.00000000000E+00 -0.00000000000E+00 -0.31185993587E+02  0.31185993587E+02  0.00000000000E+00 0. -1.
         25    1    1    2    0    0  0.00000000000E+00  0.00000000000E+00  0.94070557536E+02  0.15644254471E+03  0.12500000000E+03 0.  0.
<mgrwt>
<rscale>  2 0.12500000E+03</rscale>
<asrwt>0</asrwt>
<pdfrwt beam="1">  1       21 0.19270238E-01 0.12500000E+03</pdfrwt>
<pdfrwt beam="2">  1       21 0.47978452E-02 0.12500000E+03</pdfrwt>
<totfact> 0.69956811E+06</totfact>
</mgrwt>
</event>
<event>
 3    0  0.1626525E+001  0.1250000E+03  0.7546771E-02  0.1235069E+00
         21   -1    0    0  502  501  0.00000000000E+00  0.00000000000E+00  0.25915039305E+03  0.25915039305E+03  0.00000000000E+00 0.  1.
         21   -1    0    0  501  502 -0.00000000000E+00 -0.00000000000E+00 -0.15073293750E+02  0.15073293750E+02  0.00000000000E+00 0.  1.
         25    1    1    2    0    0  0.00000000000E+00  0.00000000000E+00  0.24407709930E+03  0.27422368680E+03  0.12500000000E+03 0.  0.
<mgrwt>
<rscale>  2 0.12500000E+03</rscale>
<asrwt>0</asrwt>
<pdfrwt beam="1">  1       21 0.39869288E-01 0.12500000E+03</pdfrwt>
<pdfrwt beam="2">  1       21 0.23189685E-02 0.12500000E+03</pdfrwt>
<totfact> 0.57668702E+06</totfact>
</mgrwt>
</event>
<event>
 3    0  0.1368989E+001  0.1250000E+03  0.7546771E-02  0.1235069E+00
         21   -1    0    0  502  501  0.00000000000E+00  0.00000000000E+00  0.48597410596E+01  0.48597410596E+01  0.00000000000E+00 0. -1.
         21   -1    0    0  501  502 -0.00000000000E+00 -0.00000000000E+00 -0.80379797032E+03  0.80379797032E+03  0.00000000000E+00 0. -1.
         25    1    1    2    0    0  0.00000000000E+00  0.00000000000E+00 -0.79893822927E+03  0.80865771138E+03  0.12500000000E+03 0.  0.
<mgrwt>
<rscale>  2 0.12500000E+03</rscale>
<asrwt>0</asrwt>
<pdfrwt beam="1">  1       21 0.74765253E-03 0.12500000E+03</pdfrwt>
<pdfrwt beam="2">  1       21 0.12366122E+00 0.12500000E+03</pdfrwt>
<totfact> 0.29077965E+06</totfact>
</mgrwt>
</event>
<event>
 3    0  0.1640915E+001  0.1250000E+03  0.7546771E-02  0.1235069E+00
         21   -1    0    0  502  501  0.00000000000E+00  0.00000000000E+00  0.21008888774E+03  0.21008888774E+03  0.00000000000E+00 0. -1.
         21   -1    0    0  501  502 -0.00000000000E+00 -0.00000000000E+00 -0.18593320390E+02  0.18593320390E+02  0.00000000000E+00 0. -1.
         25    1    1    2    0    0  0.00000000000E+00  0.00000000000E+00  0.19149556735E+03  0.22868220813E+03  0.12500000000E+03 0.  0.
<mgrwt>
<rscale>  2 0.12500000E+03</rscale>
<asrwt>0</asrwt>
<pdfrwt beam="1">  1       21 0.32321366E-01 0.12500000E+03</pdfrwt>
<pdfrwt beam="2">  1       21 0.28605110E-02 0.12500000E+03</pdfrwt>
<totfact> 0.61945368E+06</totfact>
</mgrwt>
</event>
<event>
 3    0  0.1695452E+001  0.1250000E+03  0.7546771E-02  0.1235069E+00
         21   -1    0    0  502  501  0.00000000000E+00  0.00000000000E+00  0.36680603888E+02  0.36680603888E+02  0.00000000000E+00 0. -1.
         21   -1    0    0  501  502 -0.00000000000E+00 -0.00000000000E+00 -0.10649361204E+03  0.10649361204E+03  0.00000000000E+00 0. -1.
         25    1    1    2    0    0  0.00000000000E+00  0.00000000000E+00 -0.69813008154E+02  0.14317421593E+03  0.12500000000E+03 0.  0.
<mgrwt>
<rscale>  2 0.12500000E+03</rscale>
<asrwt>0</asrwt>
<pdfrwt beam="1">  1       21 0.56431698E-02 0.12500000E+03</pdfrwt>
<pdfrwt beam="2">  1       21 0.16383633E-01 0.12500000E+03</pdfrwt>
<totfact> 0.71627582E+06</totfact>
</mgrwt>
</event>
<event>
 3    0  0.1368989E+001  0.1250000E+03  0.7546771E-02  0.1235069E+00
         21   -1    0    0  502  501  0.00000000000E+00  0.00000000000E+00  0.25030358098E+01  0.25030358098E+01  0.00000000000E+00 0.  1.
         21   -1    0    0  501  502 -0.00000000000E+00 -0.00000000000E+00 -0.15606049201E+04  0.15606049201E+04  0.00000000000E+00 0.  1.
         25    1    1    2    0    0  0.00000000000E+00  0.00000000000E+00 -0.15581018843E+04  0.15631079559E+04  0.12500000000E+03 0.  0.
<mgrwt>
<rscale>  2 0.12500000E+03</rscale>
<asrwt>0</asrwt>
<pdfrwt beam="1">  1       21 0.38508264E-03 0.12500000E+03</pdfrwt>
<pdfrwt beam="2">  1       21 0.24009293E+00 0.12500000E+03</pdfrwt>
<totfact> 0.13082600E+06</totfact>
</mgrwt>
</event>
<event>
 3    0  0.1522759E+001  0.1250000E+03  0.7546771E-02  0.1235069E+00
         21   -1    0    0  502  501  0.00000000000E+00  0.00000000000E+00  0.87258685724E+01  0.87258685724E+01  0.00000000000E+00 0.  1.
         21   -1    0    0  501  502 -0.00000000000E+00 -0.00000000000E+00 -0.44766317159E+03  0.44766317159E+03  0.00000000000E+00 0.  1.
         25    1    1    2    0    0  0.00000000000E+00  0.00000000000E+00 -0.43893730302E+03  0.45638904016E+03  0.12500000000E+03 0.  0.
<mgrwt>
<rscale>  2 0.12500000E+03</rscale>
<asrwt>0</asrwt>
<pdfrwt beam="1">  1       21 0.13424408E-02 0.12500000E+03</pdfrwt>
<pdfrwt beam="2">  1       21 0.68871284E-01 0.12500000E+03</pdfrwt>
<totfact> 0.44512405E+06</totfact>
</mgrwt>
</event>
<event>
 3    0  0.1368989E+001  0.1250000E+03  0.7546771E-02  0.1235069E+00
         21   -1    0    0  502  501  0.00000000000E+00  0.00000000000E+00  0.15765917350E+04  0.15765917350E+04  0.00000000000E+00 0. -1.
         21   -1    0    0  501  502 -0.00000000000E+00 -0.00000000000E+00 -0.24776547493E+01  0.24776547493E+01  0.00000000000E+00 0. -1.
         25    1    1    2    0    0  0.00000000000E+00  0.00000000000E+00  0.15741140803E+04  0.15790693898E+04  0.12500000000E+03 0.  0.
<mgrwt>
<rscale>  2 0.12500000E+03</rscale>
<asrwt>0</asrwt>
<pdfrwt beam="1">  1       21 0.24255177E+00 0.12500000E+03</pdfrwt>
<pdfrwt beam="2">  1       21 0.38117891E-03 0.12500000E+03</pdfrwt>
<totfact> 0.12860462E+06</totfact>
</mgrwt>
</event>
<event>
 3    0  0.1384426E+001  0.1250000E+03  0.7546771E-02  0.1235069E+00
         21   -1    0    0  502  501  0.00000000000E+00  0.00000000000E+00  0.65091119458E+01  0.65091119458E+01  0.00000000000E+00 0. -1.
         21   -1    0    0  501  502 -0.00000000000E+00 -0.00000000000E+00 -0.60012026717E+03  0.60012026717E+03  0.00000000000E+00 0. -1.
         25    1    1    2    0    0  0.00000000000E+00  0.00000000000E+00 -0.59361115523E+03  0.60662937912E+03  0.12500000000E+03 0.  0.
<mgrwt>
<rscale>  2 0.12500000E+03</rscale>
<asrwt>0</asrwt>
<pdfrwt beam="1">  1       21 0.10014016E-02 0.12500000E+03</pdfrwt>
<pdfrwt beam="2">  1       21 0.92326213E-01 0.12500000E+03</pdfrwt>
<totfact> 0.36794527E+06</totfact>
</mgrwt>
</event>
<event>
 3    0  0.1736393E+001  0.1250000E+03  0.7546771E-02  0.1235069E+00
         21   -1    0    0  502  501  0.00000000000E+00  0.00000000000E+00  0.66629194963E+02  0.66629194963E+02  0.00000000000E+00 0.  1.
         21   -1    0    0  501  502 -0.00000000000E+00 -0.00000000000E+00 -0.58626702636E+02  0.58626702636E+02  0.00000000000E+00 0.  1.
         25    1    1    2    0    0  0.00000000000E+00  0.00000000000E+00  0.80024923266E+01  0.12525589760E+03  0.12500000000E+03 0.  0.
<mgrwt>
<rscale>  2 0.12500000E+03</rscale>
<asrwt>0</asrwt>
<pdfrwt beam="1">  1       21 0.10250645E-01 0.12500000E+03</pdfrwt>
<pdfrwt beam="2">  1       21 0.90194927E-02 0.12500000E+03</pdfrwt>
<totfact> 0.74009025E+06</totfact>
</mgrwt>
</event>
<event>
 3    0  0.1368989E+001  0.1250000E+03  0.7546771E-02  0.1235069E+00
         21   -1    0    0  502  501  0.00000000000E+00  0.00000000000E+00  0.43107458309E+01  0.43107458309E+01  0.00000000000E+00 0. -1.
         21   -1    0    0  501  502 -0.00000000000E+00 -0.00000000000E+00 -0.90616569690E+03  0.90616569690E+03  0.00000000000E+00 0. -1.
         25    1    1    2    0    0  0.00000000000E+00  0.00000000000E+00 -0.90185495107E+03  0.91047644273E+03  0.12500000000E+03 0.  0.
<mgrwt>
<rscale>  2 0.12500000E+03</rscale>
<asrwt>0</asrwt>
<pdfrwt beam="1">  1       21 0.66319145E-03 0.12500000E+03</pdfrwt>
<pdfrwt beam="2">  1       21 0.13941015E+00 0.12500000E+03</pdfrwt>
<totfact> 0.26000111E+06</totfact>
</mgrwt>
</event>
<event>
 3    0  0.1368989E+001  0.1250000E+03  0.7546771E-02  0.1235069E+00
         21   -1    0    0  502  501  0.00000000000E+00  0.00000000000E+00  0.32067864026E+01  0.32067864026E+01  0.00000000000E+00 0.  1.
         21   -1    0    0  501  502 -0.00000000000E+00 -0.00000000000E+00 -0.12181197964E+04  0.12181197964E+04  0.00000000000E+00 0.  1.
         25    1    1    2    0    0  0.00000000000E+00  0.00000000000E+00 -0.12149130100E+04  0.12213265828E+04  0.12500000000E+03 0.  0.
<mgrwt>
<rscale>  2 0.12500000E+03</rscale>
<asrwt>0</asrwt>
<pdfrwt beam="1">  1       21 0.49335115E-03 0.12500000E+03</pdfrwt>
<pdfrwt beam="2">  1       21 0.18740328E+00 0.12500000E+03</pdfrwt>
<totfact> 0.18723465E+06</totfact>
</mgrwt>
</event>
<event>
 3    0  0.1633137E+001  0.1250000E+03  0.7546771E-02  0.1235069E+00
         21   -1    0    0  502  501  0.00000000000E+00  0.00000000000E+00  0.18277928117E+02  0.18277928117E+02  0.00000000000E+00 0. -1.
         21   -1    0    0  501  502 -0.00000000000E+00 -0.00000000000E+00 -0.21371404762E+03  0.21371404762E+03  0.00000000000E+00 0. -1.
         25    1    1    2    0    0  0.00000000000E+00  0.00000000000E+00 -0.19543611950E+03  0.23199197574E+03  0.12500000000E+03 0.  0.
<mgrwt>
<rscale>  2 0.12500000E+03</rscale>
<asrwt>0</asrwt>
<pdfrwt beam="1">  1       21 0.28119888E-02 0.12500000E+03</pdfrwt>
<pdfrwt beam="2">  1       21 0.32879085E-01 0.12500000E+03</pdfrwt>
<totfact> 0.61616299E+06</totfact>
</mgrwt>
</event>
<event>
 3    0  0.1533745E+001  0.1250000E+03  0.7546771E-02  0.1235069E+00
         21   -1    0    0  502  501  0.00000000000E+00  0.00000000000E+00  0.44291809300E+03  0.44291809300E+03  0.00000000000E+00 0.  1.
         21   -1    0    0  501  502 -0.00000000000E+00 -0.00000000000E+00 -0.88193507146E+01  0.88193507146E+01  0.00000000000E+00 0.  1.
         25    1    1    2    0    0  0.00000000000E+00  0.00000000000E+00  0.43409874228E+03  0.45173744371E+03  0.12500000000E+03 0.  0.
<mgrwt>
<rscale>  2 0.12500000E+03</rscale>
<asrwt>0</asrwt>
<pdfrwt beam="1">  1       21 0.68141228E-01 0.12500000E+03</pdfrwt>
<pdfrwt beam="2">  1       21 0.13568235E-02 0.12500000E+03</pdfrwt>
<totfact> 0.44788493E+06</totfact>
</mgrwt>
</event>
<event>
 3    0  0.1705694E+001  0.1250000E+03  0.7546771E-02  0.1235069E+00
         21   -1    0    0  502  501  0.00000000000E+00  0.00000000000E+00  0.46813015104E+02  0.46813015104E+02  0.00000000000E+00 0. -1.
         21   -1    0    0  501  502 -0.00000000000E+00 -0.00000000000E+00 -0.83443674614E+02  0.83443674614E+02  0.00000000000E+00 0. -1.
         25    1    1    2    0    0  0.00000000000E+00  0.00000000000E+00 -0.36630659510E+02  0.13025668972E+03  0.12500000000E+03 0.  0.
<mgrwt>
<rscale>  2 0.12500000E+03</rscale>
<asrwt>0</asrwt>
<pdfrwt beam="1">  1       21 0.72020024E-02 0.12500000E+03</pdfrwt>
<pdfrwt beam="2">  1       21 0.12837488E-01 0.12500000E+03</pdfrwt>
<totfact> 0.73330628E+06</totfact>
</mgrwt>
</event>
<event>
 3    0  0.1624767E+001  0.1250000E+03  0.7546771E-02  0.1235069E+00
         21   -1    0    0  502  501  0.00000000000E+00  0.00000000000E+00  0.23715610992E+03  0.23715610992E+03  0.00000000000E+00 0. -1.
         21   -1    0    0  501  502 -0.00000000000E+00 -0.00000000000E+00 -0.16471218057E+02  0.16471218057E+02  0.00000000000E+00 0. -1.
         25    1    1    2    0    0  0.00000000000E+00  0.00000000000E+00  0.22068489187E+03  0.25362732798E+03  0.12500000000E+03 0.  0.
<mgrwt>
<rscale>  2 0.12500000E+03</rscale>
<asrwt>0</asrwt>
<pdfrwt beam="1">  1       21 0.36485553E-01 0.12500000E+03</pdfrwt>
<pdfrwt beam="2">  1       21 0.25340337E-02 0.12500000E+03</pdfrwt>
<totfact> 0.59538354E+06</totfact>
</mgrwt>
</event>
<event>
 3    0  0.1643027E+001  0.1250000E+03  0.7546771E-02  0.1235069E+00
         21   -1    0    0  502  501  0.00000000000E+00  0.00000000000E+00  0.20476569608E+02  0.20476569608E+02  0.00000000000E+00 0. -1.
         21   -1    0    0  501  502 -0.00000000000E+00 -0.00000000000E+00 -0.19076681665E+03  0.19076681665E+03  0.00000000000E+00 0. -1.
         25    1    1    2    0    0  0.00000000000E+00  0.00000000000E+00 -0.17029024704E+03  0.21124338626E+03  0.12500000000E+03 0.  0.
<mgrwt>
<rscale>  2 0.12500000E+03</rscale>
<asrwt>0</asrwt>
<pdfrwt beam="1">  1       21 0.31502414E-02 0.12500000E+03</pdfrwt>
<pdfrwt beam="2">  1       21 0.29348742E-01 0.12500000E+03</pdfrwt>
<totfact> 0.63728954E+06</totfact>
</mgrwt>
</event>
<event>
 3    0  0.1383784E+001  0.1250000E+03  0.7546771E-02  0.1235069E+00
         21   -1    0    0  502  501  0.00000000000E+00  0.00000000000E+00  0.69496228047E+03  0.69496228047E+03  0.00000000000E+00 0.  1.
         21   -1    0    0  501  502 -0.00000000000E+00 -0.00000000000E+00 -0.56208086536E+01  0.56208086536E+01  0.00000000000E+00 0.  1.
         25    1    1    2    0    0  0.00000000000E+00  0.00000000000E+00  0.68934147181E+03  0.70058308912E+03  0.12500000000E+03 0.  0.
<mgrwt>
<rscale>  2 0.12500000E+03</rscale>
<asrwt>0</asrwt>
<pdfrwt beam="1">  1       21 0.10691721E+00 0.12500000E+03</pdfrwt>
<pdfrwt beam="2">  1       21 0.86474034E-03 0.12500000E+03</pdfrwt>
<totfact> 0.32887688E+06</totfact>
</mgrwt>
</event>
<event>
 3    0  0.1701487E+001  0.1250000E+03  0.7546771E-02  0.1235069E+00
         21   -1    0    0  502  501  0.00000000000E+00  0.00000000000E+00  0.44159711112E+02  0.44159711112E+02  0.00000000000E+00 0. -1.
         21   -1    0    0  501  502 -0.00000000000E+00 -0.00000000000E+00 -0.88457326863E+02  0.88457326863E+02  0.00000000000E+00 0. -1.
         25    1    1    2    0    0  0.00000000000E+00  0.00000000000E+00 -0.44297615751E+02  0.13261703797E+03  0.12500000000E+03 0.  0.
<mgrwt>
<rscale>  2 0.12500000E+03</rscale>
<asrwt>0</asrwt>
<pdfrwt beam="1">  1       21 0.67938018E-02 0.12500000E+03</pdfrwt>
<pdfrwt beam="2">  1       21 0.13608819E-01 0.12500000E+03</pdfrwt>
<totfact> 0.73013580E+06</totfact>
</mgrwt>
</event>
<event>
 3    0  0.1736178E+001  0.1250000E+03  0.7546771E-02  0.1235069E+00
         21   -1    0    0  502  501  0.00000000000E+00  0.00000000000E+00  0.56810738111E+02  0.56810738111E+02  0.00000000000E+00 0.  1.
         21   -1    0    0  501  502 -0.00000000000E+00 -0.00000000000E+00 -0.68759008066E+02  0.68759008066E+02  0.00000000000E+00 0.  1.
         25    1    1    2    0    0  0.00000000000E+00  0.00000000000E+00 -0.11948269954E+02  0.12556974618E+03  0.12500000000E+03 0.  0.
<mgrwt>
<rscale>  2 0.12500000E+03</rscale>
<asrwt>0</asrwt>
<pdfrwt beam="1">  1       21 0.87401135E-02 0.12500000E+03</pdfrwt>
<pdfrwt beam="2">  1       21 0.10578309E-01 0.12500000E+03</pdfrwt>
<totfact> 0.73965659E+06</totfact>
</mgrwt>
</event>
<event>
 3    0  0.1707221E+001  0.1250000E+03  0.7546771E-02  0.1235069E+00
         21   -1    0    0  502  501  0.00000000000E+00  0.00000000000E+00  0.89404209492E+02  0.89404209492E+02  0.00000000000E+00 0. -1.
         21   -1    0    0  501  502 -0.00000000000E+00 -0.00000000000E+00 -0.43692014304E+02  0.43692014304E+02  0.00000000000E+00 0. -1.
         25    1    1    2    0    0  0.00000000000E+00  0.00000000000E+00  0.45712195188E+02  0.13309622380E+03  0.12500000000E+03 0.  0.
<mgrwt>
<rscale>  2 0.12500000E+03</rscale>
<asrwt>0</asrwt>
<pdfrwt beam="1">  1       21 0.13754494E-01 0.12500000E+03</pdfrwt>
<pdfrwt beam="2">  1       21 0.67218483E-02 0.12500000E+03</pdfrwt>
<totfact> 0.72949552E+06</totfact>
</mgrwt>
</event>
<event>
 3    0  0.1677767E+001  0.1250000E+03  0.7546771E-02  0.1235069E+00
         21   -1    0    0  502  501  0.00000000000E+00  0.00000000000E+00  0.30315383931E+02  0.30315383931E+02  0.00000000000E+00 0. -1.
         21   -1    0    0  501  502 -0.00000000000E+00 -0.00000000000E+00 -0.12885372024E+03  0.12885372024E+03  0.00000000000E+00 0. -1.
         25    1    1    2    0    0  0.00000000000E+00  0.00000000000E+00 -0.98538336309E+02  0.15916910417E+03  0.12500000000E+03 0.  0.
<mgrwt>
<rscale>  2 0.12500000E+03</rscale>
<asrwt>0</asrwt>
<pdfrwt beam="1">  1       21 0.46639052E-02 0.12500000E+03</pdfrwt>
<pdfrwt beam="2">  1       21 0.19823649E-01 0.12500000E+03</pdfrwt>
<totfact> 0.69621165E+06</totfact>
</mgrwt>
</event>
<event>
 3    0  0.1368989E+001  0.1250000E+03  0.7546771E-02  0.1235069E+00
         21   -1    0    0  502  501  0.00000000000E+00  0.00000000000E+00  0.35571310424E+01  0.35571310424E+01  0.00000000000E+00 0.  1.
         21   -1    0    0  501  502 -0.00000000000E+00 -0.00000000000E+00 -0.10981462177E+04  0.10981462177E+04  0.00000000000E+00 0.  1.
         25    1    1    2    0    0  0.00000000000E+00  0.00000000000E+00 -0.10945890866E+04  0.11017033487E+04  0.12500000000E+03 0.  0.
<mgrwt>
<rscale>  2 0.12500000E+03</rscale>
<asrwt>0</asrwt>
<pdfrwt beam="1">  1       21 0.54724958E-03 0.12500000E+03</pdfrwt>
<pdfrwt beam="2">  1       21 0.16894599E+00 0.12500000E+03</pdfrwt>
<totfact> 0.21213503E+06</totfact>
</mgrwt>
</event>
<event>
 3    0  0.1368989E+001  0.1250000E+03  0.7546771E-02  0.1235069E+00
         21   -1    0    0  502  501  0.00000000000E+00  0.00000000000E+00  0.31960504386E+01  0.31960504386E+01  0.00000000000E+00 0.  1.
         21   -1    0    0  501  502 -0.00000000000E+00 -0.00000000000E+00 -0.12222116250E+04  0.12222116250E+04  0.00000000000E+00 0.  1.
         25    1    1    2    0    0  0.00000000000E+00  0.00000000000E+00 -0.12190155745E+04  0.12254076754E+04  0.12500000000E+03 0.  0.
<mgrwt>
<rscale>  2 0.12500000E+03</rscale>
<asrwt>0</asrwt>
<pdfrwt beam="1">  1       21 0.49169970E-03 0.12500000E+03</pdfrwt>
<pdfrwt beam="2">  1       21 0.18803270E+00 0.12500000E+03</pdfrwt>
<totfact> 0.18644280E+06</totfact>
</mgrwt>
</event>
<event>
 3    0  0.1368989E+001  0.1250000E+03  0.7546771E-02  0.1235069E+00
         21   -1    0    0  502  501  0.00000000000E+00  0.00000000000E+00  0.66756477348E+03  0.66756477348E+03  0.00000000000E+00 0.  1.
         21   -1    0    0  501  502 -0.00000000000E+00 -0.00000000000E+00 -0.58514921026E+01  0.58514921026E+01  0.00000000000E+00 0.  1.
         25    1    1    2    0    0  0.00000000000E+00  0.00000000000E+00  0.66171328138E+03  0.67341626558E+03  0.12500000000E+03 0.  0.
<mgrwt>
<rscale>  2 0.12500000E+03</rscale>
<asrwt>0</asrwt>
<pdfrwt beam="1">  1       21 0.10270221E+00 0.12500000E+03</pdfrwt>
<pdfrwt beam="2">  1       21 0.90023008E-03 0.12500000E+03</pdfrwt>
<totfact> 0.33960455E+06</totfact>
</mgrwt>
</event>
<event>
 3    0  0.1604938E+001  0.1250000E+03  0.7546771E-02  0.1235069E+00
         21   -1    0    0  502  501  0.00000000000E+00  0.00000000000E+00  0.14058486585E+02  0.14058486585E+02  0.00000000000E+00 0.  1.
         21   -1    0    0  501  502 -0.00000000000E+00 -0.00000000000E+00 -0.27785707775E+03  0.27785707775E+03  0.00000000000E+00 0.  1.
         25    1    1    2    0    0  0.00000000000E+00  0.00000000000E+00 -0.26379859117E+03  0.29191556433E+03  0.12500000000E+03 0.  0.
<mgrwt>
<rscale>  2 0.12500000E+03</rscale>
<asrwt>0</asrwt>
<pdfrwt beam="1">  1       21 0.21628441E-02 0.12500000E+03</pdfrwt>
<pdfrwt beam="2">  1       21 0.42747243E-01 0.12500000E+03</pdfrwt>
<totfact> 0.56134785E+06</totfact>
</mgrwt>
</event>
<event>
 3    0  0.1617612E+001  0.1250000E+03  0.7546771E-02  0.1235069E+00
         21   -1    0    0  502  501  0.00000000000E+00  0.00000000000E+00  0.21983077105E+03  0.21983077105E+03  0.00000000000E+00 0. -1.
         21   -1    0    0  501  502 -0.00000000000E+00 -0.00000000000E+00 -0.17769350402E+02  0.17769350402E+02  0.00000000000E+00 0. -1.
         25    1    1    2    0    0  0.00000000000E+00  0.00000000000E+00  0.20206142065E+03  0.23760012145E+03  0.12500000000E+03 0.  0.
<mgrwt>
<rscale>  2 0.12500000E+03</rscale>
<asrwt>0</asrwt>
<pdfrwt beam="1">  1       21 0.33820117E-01 0.12500000E+03</pdfrwt>
<pdfrwt beam="2">  1       21 0.27337464E-02 0.12500000E+03</pdfrwt>
<totfact> 0.61065670E+06</totfact>
</mgrwt>
</event>
<event>
 3    0  0.1562888E+001  0.1250000E+03  0.7546771E-02  0.1235069E+00
         21   -1    0    0  502  501  0.00000000000E+00  0.00000000000E+00  0.12974267183E+02  0.12974267183E+02  0.00000000000E+00 0. -1.
         21   -1    0    0  501  502 -0.00000000000E+00 -0.00000000000E+00 -0.30107673480E+03  0.30107673480E+03  0.00000000000E+00 0. -1.
         25    1    1    2    0    0  0.00000000000E+00  0.00000000000E+00 -0.28810246762E+03  0.31405100198E+03  0.12500000000E+03 0.  0.
<mgrwt>
<rscale>  2 0.12500000E+03</rscale>
<asrwt>0</asrwt>
<pdfrwt beam="1">  1       21 0.19960412E-02 0.12500000E+03</pdfrwt>
<pdfrwt beam="2">  1       21 0.46319496E-01 0.12500000E+03</pdfrwt>
<totfact> 0.54308164E+06</totfact>
</mgrwt>
</event>
<event>
 3    0  0.1579549E+001  0.1250000E+03  0.7546771E-02  0.1235069E+00
         21   -1    0    0  502  501  0.00000000000E+00  0.00000000000E+00  0.10954119010E+02  0.10954119010E+02  0.00000000000E+00 0.  1.
         21   -1    0    0  501  502 -0.00000000000E+00 -0.00000000000E+00 -0.35660101888E+03  0.35660101888E+03  0.00000000000E+00 0.  1.
         25    1    1    2    0    0  0.00000000000E+00  0.00000000000E+00 -0.34564689987E+03  0.36755513789E+03  0.12500000000E+03 0.  0.
<mgrwt>
<rscale>  2 0.12500000E+03</rscale>
<asrwt>0</asrwt>
<pdfrwt beam="1">  1       21 0.16852493E-02 0.12500000E+03</pdfrwt>
<pdfrwt beam="2">  1       21 0.54861687E-01 0.12500000E+03</pdfrwt>
<totfact> 0.50267500E+06</totfact>
</mgrwt>
</event>
<event>
 3    0  0.1480808E+001  0.1250000E+03  0.7546771E-02  0.1235069E+00
         21   -1    0    0  502  501  0.00000000000E+00  0.00000000000E+00  0.90621052776E+01  0.90621052776E+01  0.00000000000E+00 0. -1.
         21   -1    0    0  501  502 -0.00000000000E+00 -0.00000000000E+00 -0.43105325753E+03  0.43105325753E+03  0.00000000000E+00 0. -1.
         25    1    1    2    0    0  0.00000000000E+00  0.00000000000E+00 -0.42199115226E+03  0.44011536281E+03  0.12500000000E+03 0.  0.
<mgrwt>
<rscale>  2 0.12500000E+03</rscale>
<asrwt>0</asrwt>
<pdfrwt beam="1">  1       21 0.13941701E-02 0.12500000E+03</pdfrwt>
<pdfrwt beam="2">  1       21 0.66315884E-01 0.12500000E+03</pdfrwt>
<totfact> 0.45489586E+06</totfact>
</mgrwt>
</event>
<event>
 3    0  0.1654140E+001  0.1250000E+03  0.7546771E-02  0.1235069E+00
         21   -1    0    0  502  501  0.00000000000E+00  0.00000000000E+00  0.21438775122E+03  0.21438775122E+03  0.00000000000E+00 0.  1.
         21   -1    0    0  501  502 -0.00000000000E+00 -0.00000000000E+00 -0.18220490573E+02  0.18220490573E+02  0.00000000000E+00 0.  1.
         25    1    1    2    0    0  0.00000000000E+00  0.00000000000E+00  0.19616726065E+03  0.23260824179E+03  0.12500000000E+03 0.  0.
<mgrwt>
<rscale>  2 0.12500000E+03</rscale>
<asrwt>0</asrwt>
<pdfrwt beam="1">  1       21 0.32982729E-01 0.12500000E+03</pdfrwt>
<pdfrwt beam="2">  1       21 0.28031525E-02 0.12500000E+03</pdfrwt>
<totfact> 0.61555369E+06</totfact>
</mgrwt>
</event>
<event>
 3    0  0.1696916E+001  0.1250000E+03  0.7546771E-02  0.1235069E+00
         21   -1    0    0  502  501  0.00000000000E+00  0.00000000000E+00  0.26176367890E+02  0.26176367890E+02  0.00000000000E+00 0.  1.
         21   -1    0    0  501  502 -0.00000000000E+00 -0.00000000000E+00 -0.14922811355E+03  0.14922811355E+03  0.00000000000E+00 0.  1.
         25    1    1    2    0    0  0.00000000000E+00  0.00000000000E+00 -0.12305174566E+03  0.17540448144E+03  0.12500000000E+03 0.  0.
<mgrwt>
<rscale>  2 0.12500000E+03</rscale>
<asrwt>0</asrwt>
<pdfrwt beam="1">  1       21 0.40271334E-02 0.12500000E+03</pdfrwt>
<pdfrwt beam="2">  1       21 0.22958172E-01 0.12500000E+03</pdfrwt>
<totfact> 0.67682670E+06</totfact>
</mgrwt>
</event>
<event>
 3    0  0.1632466E+001  0.1250000E+03  0.7546771E-02  0.1235069E+00
         21   -1    0    0  502  501  0.00000000000E+00  0.00000000000E+00  0.15205122875E+02  0.15205122875E+02  0.00000000000E+00 0.  1.
         21   -1    0    0  501  502 -0.00000000000E+00 -0.00000000000E+00 -0.25690354705E+03  0.25690354705E+03  0.00000000000E+00 0.  1.
         25    1    1    2    0    0  0.00000000000E+00  0.00000000000E+00 -0.24169842418E+03  0.27210866993E+03  0.12500000000E+03 0.  0.
<mgrwt>
<rscale>  2 0.12500000E+03</rscale>
<asrwt>0</asrwt>
<pdfrwt beam="1">  1       21 0.23392497E-02 0.12500000E+03</pdfrwt>
<pdfrwt beam="2">  1       21 0.39523622E-01 0.12500000E+03</pdfrwt>
<totfact> 0.57856732E+06</totfact>
</mgrwt>
</event>
<event>
 3    0  0.1368989E+001  0.1250000E+03  0.7546771E-02  0.1235069E+00
         21   -1    0    0  502  501  0.00000000000E+00  0.00000000000E+00  0.94659918662E+03  0.94659918662E+03  0.00000000000E+00 0.  1.
         21   -1    0    0  501  502 -0.00000000000E+00 -0.00000000000E+00 -0.41266145748E+01  0.41266145748E+01  0.00000000000E+00 0.  1.
         25    1    1    2    0    0  0.00000000000E+00  0.00000000000E+00  0.94247257204E+03  0.95072580119E+03  0.12500000000E+03 0.  0.
<mgrwt>
<rscale>  2 0.12500000E+03</rscale>
<asrwt>0</asrwt>
<pdfrwt beam="1">  1       21 0.14563047E+00 0.12500000E+03</pdfrwt>
<pdfrwt beam="2">  1       21 0.63486453E-03 0.12500000E+03</pdfrwt>
<totfact> 0.24892011E+06</totfact>
</mgrwt>
</event>
<event>
 3    0  0.1473746E+001  0.1250000E+03  0.7546771E-02  0.1235069E+00
         21   -1    0    0  502  501  0.00000000000E+00  0.00000000000E+00  0.73709637774E+01  0.73709637774E+01  0.00000000000E+00 0.  1.
         21   -1    0    0  501  502 -0.00000000000E+00 -0.00000000000E+00 -0.52995105090E+03  0.52995105090E+03  0.00000000000E+00 0.  1.
         25    1    1    2    0    0  0.00000000000E+00  0.00000000000E+00 -0.52258008712E+03  0.53732201468E+03  0.12500000000E+03 0.  0.
<mgrwt>
<rscale>  2 0.12500000E+03</rscale>
<asrwt>0</asrwt>
<pdfrwt beam="1">  1       21 0.11339944E-02 0.12500000E+03</pdfrwt>
<pdfrwt beam="2">  1       21 0.81530930E-01 0.12500000E+03</pdfrwt>
<totfact> 0.40089745E+06</totfact>
</mgrwt>
</event>
<event>
 3    0  0.1718456E+001  0.1250000E+03  0.7546771E-02  0.1235069E+00
         21   -1    0    0  502  501  0.00000000000E+00  0.00000000000E+00  0.36430047350E+02  0.36430047350E+02  0.00000000000E+00 0.  1.
         21   -1    0    0  501  502 -0.00000000000E+00 -0.00000000000E+00 -0.10722604784E+03  0.10722604784E+03  0.00000000000E+00 0.  1.
         25    1    1    2    0    0  0.00000000000E+00  0.00000000000E+00 -0.70796000489E+02  0.14365609519E+03  0.12500000000E+03 0.  0.
<mgrwt>
<rscale>  2 0.12500000E+03</rscale>
<asrwt>0</asrwt>
<pdfrwt beam="1">  1       21 0.56046228E-02 0.12500000E+03</pdfrwt>
<pdfrwt beam="2">  1       21 0.16496315E-01 0.12500000E+03</pdfrwt>
<totfact> 0.71565532E+06</totfact>
</mgrwt>
</event>
<event>
 3    0  0.1508340E+001  0.1250000E+03  0.7546771E-02  0.1235069E+00
         21   -1    0    0  502  501  0.00000000000E+00  0.00000000000E+00  0.44472724959E+03  0.44472724959E+03  0.00000000000E+00 0. -1.
         21   -1    0    0  501  502 -0.00000000000E+00 -0.00000000000E+00 -0.87834734742E+01  0.87834734742E+01  0.00000000000E+00 0. -1.
         25    1    1    2    0    0  0.00000000000E+00  0.00000000000E+00  0.43594377611E+03  0.45351072306E+03  0.12500000000E+03 0.  0.
<mgrwt>
<rscale>  2 0.12500000E+03</rscale>
<asrwt>0</asrwt>
<pdfrwt beam="1">  1       21 0.68419560E-01 0.12500000E+03</pdfrwt>
<pdfrwt beam="2">  1       21 0.13513040E-02 0.12500000E+03</pdfrwt>
<totfact> 0.44682944E+06</totfact>
</mgrwt>
</event>
<event>
 3    0  0.1600713E+001  0.1250000E+03  0.7546771E-02  0.1235069E+00
         21   -1    0    0  502  501  0.00000000000E+00  0.00000000000E+00  0.23523256510E+03  0.23523256510E+03  0.00000000000E+00 0. -1.
         21   -1    0    0  501  502 -0.00000000000E+00 -0.00000000000E+00 -0.16605906577E+02  0.16605906577E+02  0.00000000000E+00 0. -1.
         25    1    1    2    0    0  0.00000000000E+00  0.00000000000E+00  0.21862665853E+03  0.25183847168E+03  0.12500000000E+03 0.  0.
<mgrwt>
<rscale>  2 0.12500000E+03</rscale>
<asrwt>0</asrwt>
<pdfrwt beam="1">  1       21 0.36189623E-01 0.12500000E+03</pdfrwt>
<pdfrwt beam="2">  1       21 0.25547550E-02 0.12500000E+03</pdfrwt>
<totfact> 0.59705532E+06</totfact>
</mgrwt>
</event>
<event>
 3    0  0.1712947E+001  0.1250000E+03  0.7546771E-02  0.1235069E+00
         21   -1    0    0  502  501  0.00000000000E+00  0.00000000000E+00  0.32323954240E+02  0.32323954240E+02  0.00000000000E+00 0.  1.
         21   -1    0    0  501  502 -0.00000000000E+00 -0.00000000000E+00 -0.12084691035E+03  0.12084691035E+03  0.00000000000E+00 0.  1.
         25    1    1    2    0    0  0.00000000000E+00  0.00000000000E+00 -0.88522956106E+02  0.15317086459E+03  0.12500000000E+03 0.  0.
<mgrwt>
<rscale>  2 0.12500000E+03</rscale>
<asrwt>0</asrwt>
<pdfrwt beam="1">  1       21 0.49729160E-02 0.12500000E+03</pdfrwt>
<pdfrwt beam="2">  1       21 0.18591833E-01 0.12500000E+03</pdfrwt>
<totfact> 0.70363118E+06</totfact>
</mgrwt>
</event>
<event>
 3    0  0.1623843E+001  0.1250000E+03  0.7546771E-02  0.1235069E+00
         21   -1    0    0  502  501  0.00000000000E+00  0.00000000000E+00  0.22541328137E+03  0.22541328137E+03  0.00000000000E+00 0. -1.
         21   -1    0    0  501  502 -0.00000000000E+00 -0.00000000000E+00 -0.17329280583E+02  0.17329280583E+02  0.00000000000E+00 0. -1.
         25    1    1    2    0    0  0.00000000000E+00  0.00000000000E+00  0.20808400079E+03  0.24274256195E+03  0.12500000000E+03 0.  0.
<mgrwt>
<rscale>  2 0.12500000E+03</rscale>
<asrwt>0</asrwt>
<pdfrwt beam="1">  1       21 0.34678964E-01 0.12500000E+03</pdfrwt>
<pdfrwt beam="2">  1       21 0.26660433E-02 0.12500000E+03</pdfrwt>
<totfact> 0.60568277E+06</totfact>
</mgrwt>
</event>
<event>
 3    0  0.1679557E+001  0.1250000E+03  0.7546771E-02  0.1235069E+00
         21   -1    0    0  502  501  0.00000000000E+00  0.00000000000E+00  0.13376688174E+03  0.13376688174E+03  0.00000000000E+00 0. -1.
         21   -1    0    0  501  502 -0.00000000000E+00 -0.00000000000E+00 -0.29201921650E+02  0.29201921650E+02  0.00000000000E+00 0. -1.
         25    1    1    2    0    0  0.00000000000E+00  0.00000000000E+00  0.10456496009E+03  0.16296880339E+03  0.12500000000E+03 0.  0.
<mgrwt>
<rscale>  2 0.12500000E+03</rscale>
<asrwt>0</asrwt>
<pdfrwt beam="1">  1       21 0.20579520E-01 0.12500000E+03</pdfrwt>
<pdfrwt beam="2">  1       21 0.44926034E-02 0.12500000E+03</pdfrwt>
<totfact> 0.69158548E+06</totfact>
</mgrwt>
</event>
<event>
 3    0  0.1539647E+001  0.1250000E+03  0.7546771E-02  0.1235069E+00
         21   -1    0    0  502  501  0.00000000000E+00  0.00000000000E+00  0.38103188222E+03  0.38103188222E+03  0.00000000000E+00 0. -1.
         21   -1    0    0  501  502 -0.00000000000E+00 -0.00000000000E+00 -0.10251766800E+02  0.10251766800E+02  0.00000000000E+00 0. -1.
         25    1    1    2    0    0  0.00000000000E+00  0.00000000000E+00  0.37078011542E+03  0.39128364902E+03  0.12500000000E+03 0.  0.
<mgrwt>
<rscale>  2 0.12500000E+03</rscale>
<asrwt>0</asrwt>
<pdfrwt beam="1">  1       21 0.58620279E-01 0.12500000E+03</pdfrwt>
<pdfrwt beam="2">  1       21 0.15771952E-02 0.12500000E+03</pdfrwt>
<totfact> 0.48624926E+06</totfact>
</mgrwt>
</event>
<event>
 3    0  0.1368989E+001  0.1250000E+03  0.7546771E-02  0.1235069E+00
         21   -1    0    0  502  501  0.00000000000E+00  0.00000000000E+00  0.14856989599E+04  0.14856989599E+04  0.00000000000E+00 0.  1.
         21   -1    0    0  501  502 -0.00000000000E+00 -0.00000000000E+00 -0.26292338525E+01  0.26292338525E+01  0.00000000000E+00 0.  1.
         25    1    1    2    0    0  0.00000000000E+00  0.00000000000E+00  0.14830697261E+04  0.14883281938E+04  0.12500000000E+03 0.  0.
<mgrwt>
<rscale>  2 0.12500000E+03</rscale>
<asrwt>0</asrwt>
<pdfrwt beam="1">  1       21 0.22856840E+00 0.12500000E+03</pdfrwt>
<pdfrwt beam="2">  1       21 0.40449870E-03 0.12500000E+03</pdfrwt>
<totfact> 0.14167336E+06</totfact>
</mgrwt>
</event>
<event>
 3    0  0.1467619E+001  0.1250000E+03  0.7546771E-02  0.1235069E+00
         21   -1    0    0  502  501  0.00000000000E+00  0.00000000000E+00  0.80495616524E+01  0.80495616524E+01  0.00000000000E+00 0. -1.
         21   -1    0    0  501  502 -0.00000000000E+00 -0.00000000000E+00 -0.48527487194E+03  0.48527487194E+03  0.00000000000E+00 0. -1.
         25    1    1    2    0    0  0.00000000000E+00  0.00000000000E+00 -0.47722531028E+03  0.49332443359E+03  0.12500000000E+03 0.  0.
<mgrwt>
<rscale>  2 0.12500000E+03</rscale>
<asrwt>0</asrwt>
<pdfrwt beam="1">  1       21 0.12383942E-02 0.12500000E+03</pdfrwt>
<pdfrwt beam="2">  1       21 0.74657667E-01 0.12500000E+03</pdfrwt>
<totfact> 0.42408433E+06</totfact>
</mgrwt>
</event>
<event>
 3    0  0.1659835E+001  0.1250000E+03  0.7546771E-02  0.1235069E+00
         21   -1    0    0  502  501  0.00000000000E+00  0.00000000000E+00  0.17040006940E+03  0.17040006940E+03  0.00000000000E+00 0. -1.
         21   -1    0    0  501  502 -0.00000000000E+00 -0.00000000000E+00 -0.22923993011E+02  0.22923993011E+02  0.00000000000E+00 0. -1.
         25    1    1    2    0    0  0.00000000000E+00  0.00000000000E+00  0.14747607639E+03  0.19332406241E+03  0.12500000000E+03 0.  0.
<mgrwt>
<rscale>  2 0.12500000E+03</rscale>
<asrwt>0</asrwt>
<pdfrwt beam="1">  1       21 0.26215395E-01 0.12500000E+03</pdfrwt>
<pdfrwt beam="2">  1       21 0.35267683E-02 0.12500000E+03</pdfrwt>
<totfact> 0.65654917E+06</totfact>
</mgrwt>
</event>
<event>
 3    0  0.1735712E+001  0.1250000E+03  0.7546771E-02  0.1235069E+00
         21   -1    0    0  502  501  0.00000000000E+00  0.00000000000E+00  0.56173342793E+02  0.56173342793E+02  0.00000000000E+00 0.  1.
         21   -1    0    0  501  502 -0.00000000000E+00 -0.00000000000E+00 -0.69539212120E+02  0.69539212120E+02  0.00000000000E+00 0.  1.
         25    1    1    2    0    0  0.00000000000E+00  0.00000000000E+00 -0.13365869327E+02  0.12571255491E+03  0.12500000000E+03 0.  0.
<mgrwt>
<rscale>  2 0.12500000E+03</rscale>
<asrwt>0</asrwt>
<pdfrwt beam="1">  1       21 0.86420528E-02 0.12500000E+03</pdfrwt>
<pdfrwt beam="2">  1       21 0.10698340E-01 0.12500000E+03</pdfrwt>
<totfact> 0.73945794E+06</totfact>
</mgrwt>
</event>
<event>
 3    0  0.1368989E+001  0.1250000E+03  0.7546771E-02  0.1235069E+00
         21   -1    0    0  502  501  0.00000000000E+00  0.00000000000E+00  0.34835423593E+01  0.34835423593E+01  0.00000000000E+00 0.  1.
         21   -1    0    0  501  502 -0.00000000000E+00 -0.00000000000E+00 -0.11213441942E+04  0.11213441942E+04  0.00000000000E+00 0.  1.
         25    1    1    2    0    0  0.00000000000E+00  0.00000000000E+00 -0.11178606519E+04  0.11248277366E+04  0.12500000000E+03 0.  0.
<mgrwt>
<rscale>  2 0.12500000E+03</rscale>
<asrwt>0</asrwt>
<pdfrwt beam="1">  1       21 0.53592807E-03 0.12500000E+03</pdfrwt>
<pdfrwt beam="2">  1       21 0.17251498E+00 0.12500000E+03</pdfrwt>
<totfact> 0.20707468E+06</totfact>
</mgrwt>
</event>
<event>
 3    0  0.1709288E+001  0.1250000E+03  0.7546771E-02  0.1235069E+00
         21   -1    0    0  502  501  0.00000000000E+00  0.00000000000E+00  0.74619889782E+02  0.74619889782E+02  0.00000000000E+00 0. -1.
         21   -1    0    0  501  502 -0.00000000000E+00 -0.00000000000E+00 -0.52348643390E+02  0.52348643390E+02  0.00000000000E+00 0. -1.
         25    1    1    2    0    0  0.00000000000E+00  0.00000000000E+00  0.22271246391E+02  0.12696853317E+03  0.12500000000E+03 0.  0.
<mgrwt>
<rscale>  2 0.12500000E+03</rscale>
<asrwt>0</asrwt>
<pdfrwt beam="1">  1       21 0.11479983E-01 0.12500000E+03</pdfrwt>
<pdfrwt beam="2">  1       21 0.80536374E-02 0.12500000E+03</pdfrwt>
<totfact> 0.73773420E+06</totfact>
</mgrwt>
</event>
<event>
 3    0  0.1661975E+001  0.1250000E+03  0.7546771E-02  0.1235069E+00
         21   -1    0    0  502  501  0.00000000000E+00  0.00000000000E+00  0.19275209288E+02  0.19275209288E+02  0.00000000000E+00 0.  1.
         21   -1    0    0  501  502 -0.00000000000E+00 -0.00000000000E+00 -0.20265668412E+03  0.20265668412E+03  0.00000000000E+00 0.  1.
         25    1    1    2    0    0  0.00000000000E+00  0.00000000000E+00 -0.18338147484E+03  0.22193189341E+03  0.12500000000E+03 0.  0.
<mgrwt>
<rscale>  2 0.12500000E+03</rscale>
<asrwt>0</asrwt>
<pdfrwt beam="1">  1       21 0.29654168E-02 0.12500000E+03</pdfrwt>
<pdfrwt beam="2">  1       21 0.31177951E-01 0.12500000E+03</pdfrwt>
<totfact> 0.62625614E+06</totfact>
</mgrwt>
</event>
<event>
 3    0  0.1736100E+001  0.1250000E+03  0.7546771E-02  0.1235069E+00
         21   -1    0    0  502  501  0.00000000000E+00  0.00000000000E+00  0.51341323381E+02  0.51341323381E+02  0.00000000000E+00 0.  1.
         21   -1    0    0  501  502 -0.00000000000E+00 -0.00000000000E+00 -0.76083936735E+02  0.76083936735E+02  0.00000000000E+00 0.  1.
         25    1    1    2    0    0  0.00000000000E+00  0.00000000000E+00 -0.24742613354E+02  0.12742526012E+03  0.12500000000E+03 0.  0.
<mgrwt>
<rscale>  2 0.12500000E+03</rscale>
<asrwt>0</asrwt>
<pdfrwt beam="1">  1       21 0.78986651E-02 0.12500000E+03</pdfrwt>
<pdfrwt beam="2">  1       21 0.11705221E-01 0.12500000E+03</pdfrwt>
<totfact> 0.73711353E+06</totfact>
</mgrwt>
</event>
<event>
 3    0  0.1626666E+001  0.1250000E+03  0.7546771E-02  0.1235069E+00
         21   -1    0    0  502  501  0.00000000000E+00  0.00000000000E+00  0.14548250458E+02  0.14548250458E+02  0.00000000000E+00 0.  1.
         21   -1    0    0  501  502 -0.00000000000E+00 -0.00000000000E+00 -0.26850307612E+03  0.26850307612E+03  0.00000000000E+00 0.  1.
         25    1    1    2    0    0  0.00000000000E+00  0.00000000000E+00 -0.25395482566E+03  0.28305132657E+03  0.12500000000E+03 0.  0.
<mgrwt>
<rscale>  2 0.12500000E+03</rscale>
<asrwt>0</asrwt>
<pdfrwt beam="1">  1       21 0.22381924E-02 0.12500000E+03</pdfrwt>
<pdfrwt beam="2">  1       21 0.41308164E-01 0.12500000E+03</pdfrwt>
<totfact> 0.56894759E+06</totfact>
</mgrwt>
</event>
<event>
 3    0  0.1676871E+001  0.1250000E+03  0.7546771E-02  0.1235069E+00
         21   -1    0    0  502  501  0.00000000000E+00  0.00000000000E+00  0.18656742279E+03  0.18656742279E+03  0.00000000000E+00 0.  1.
         21   -1    0    0  501  502 -0.00000000000E+00 -0.00000000000E+00 -0.20937470978E+02  0.20937470978E+02  0.00000000000E+00 0.  1.
         25    1    1    2    0    0  0.00000000000E+00  0.00000000000E+00  0.16562995181E+03  0.20750489376E+03  0.12500000000E+03 0.  0.
<mgrwt>
<rscale>  2 0.12500000E+03</rscale>
<asrwt>0</asrwt>
<pdfrwt beam="1">  1       21 0.28702679E-01 0.12500000E+03</pdfrwt>
<pdfrwt beam="2">  1       21 0.32211495E-02 0.12500000E+03</pdfrwt>
<totfact> 0.64123010E+06</totfact>
</mgrwt>
</event>
<event>
 3    0  0.1668457E+001  0.1250000E+03  0.7546771E-02  0.1235069E+00
         21   -1    0    0  502  501  0.00000000000E+00  0.00000000000E+00  0.20551103437E+02  0.20551103437E+02  0.00000000000E+00 0.  1.
         21   -1    0    0  501  502 -0.00000000000E+00 -0.00000000000E+00 -0.19007495203E+03  0.19007495203E+03  0.00000000000E+00 0.  1.
         25    1    1    2    0    0  0.00000000000E+00  0.00000000000E+00 -0.16952384859E+03  0.21062605547E+03  0.12500000000E+03 0.  0.
<mgrwt>
<rscale>  2 0.12500000E+03</rscale>
<asrwt>0</asrwt>
<pdfrwt beam="1">  1       21 0.31617081E-02 0.12500000E+03</pdfrwt>
<pdfrwt beam="2">  1       21 0.29242301E-01 0.12500000E+03</pdfrwt>
<totfact> 0.63793727E+06</totfact>
</mgrwt>
</event>
<event>
 3    0  0.1735333E+001  0.1250000E+03  0.7546771E-02  0.1235069E+00
         21   -1    0    0  502  501  0.00000000000E+00  0.00000000000E+00  0.76771312991E+02  0.76771312991E+02  0.00000000000E+00 0.  1.
         21   -1    0    0  501  502 -0.00000000000E+00 -0.00000000000E+00 -0.50881635963E+02  0.50881635963E+02  0.00000000000E+00 0.  1.
         25    1    1    2    0    0  0.00000000000E+00  0.00000000000E+00  0.25889677029E+02  0.12765294895E+03  0.12500000000E+03 0.  0.
<mgrwt>
<rscale>  2 0.12500000E+03</rscale>
<asrwt>0</asrwt>
<pdfrwt beam="1">  1       21 0.11810971E-01 0.12500000E+03</pdfrwt>
<pdfrwt beam="2">  1       21 0.78279440E-02 0.12500000E+03</pdfrwt>
<totfact> 0.73680496E+06</totfact>
</mgrwt>
</event>
<event>
 3    0  0.1687716E+001  0.1250000E+03  0.7546771E-02  0.1235069E+00
         21   -1    0    0  502  501  0.00000000000E+00  0.00000000000E+00  0.11025862704E+03  0.11025862704E+03  0.00000000000E+00 0. -1.
         21   -1    0    0  501  502 -0.00000000000E+00 -0.00000000000E+00 -0.35428066764E+02  0.35428066764E+02  0.00000000000E+00 0. -1.
         25    1    1    2    0    0  0.00000000000E+00  0.00000000000E+00  0.74830560274E+02  0.14568669380E+03  0.12500000000E+03 0.  0.
<mgrwt>
<rscale>  2 0.12500000E+03</rscale>
<asrwt>0</asrwt>
<pdfrwt beam="1">  1       21 0.16962865E-01 0.12500000E+03</pdfrwt>
<pdfrwt beam="2">  1       21 0.54504719E-02 0.12500000E+03</pdfrwt>
<totfact> 0.71305335E+06</totfact>
</mgrwt>
</event>
<event>
 3    0  0.1547487E+001  0.1250000E+03  0.7546771E-02  0.1235069E+00
         21   -1    0    0  502  501  0.00000000000E+00  0.00000000000E+00  0.11249834127E+02  0.11249834127E+02  0.00000000000E+00 0.  1.
         21   -1    0    0  501  502 -0.00000000000E+00 -0.00000000000E+00 -0.34722734184E+03  0.34722734184E+03  0.00000000000E+00 0.  1.
         25    1    1    2    0    0  0.00000000000E+00  0.00000000000E+00 -0.33597750771E+03  0.35847717596E+03  0.12500000000E+03 0.  0.
<mgrwt>
<rscale>  2 0.12500000E+03</rscale>
<asrwt>0</asrwt>
<pdfrwt beam="1">  1       21 0.17307436E-02 0.12500000E+03</pdfrwt>
<pdfrwt beam="2">  1       21 0.53419596E-01 0.12500000E+03</pdfrwt>
<totfact> 0.50918396E+06</totfact>
</mgrwt>
</event>
<event>
 3    0  0.1596714E+001  0.1250000E+03  0.7546771E-02  0.1235069E+00
         21   -1    0    0  502  501  0.00000000000E+00  0.00000000000E+00  0.14892756099E+02  0.14892756099E+02  0.00000000000E+00 0. -1.
         21   -1    0    0  501  502 -0.00000000000E+00 -0.00000000000E+00 -0.26229194744E+03  0.26229194744E+03  0.00000000000E+00 0. -1.
         25    1    1    2    0    0  0.00000000000E+00  0.00000000000E+00 -0.24739919134E+03  0.27718470354E+03  0.12500000000E+03 0.  0.
<mgrwt>
<rscale>  2 0.12500000E+03</rscale>
<asrwt>0</asrwt>
<pdfrwt beam="1">  1       21 0.22911932E-02 0.12500000E+03</pdfrwt>
<pdfrwt beam="2">  1       21 0.40352608E-01 0.12500000E+03</pdfrwt>
<totfact> 0.57407160E+06</totfact>
</mgrwt>
</event>
<event>
 3    0  0.1669704E+001  0.1250000E+03  0.7546771E-02  0.1235069E+00
         21   -1    0    0  502  501  0.00000000000E+00  0.00000000000E+00  0.13804426325E+03  0.13804426325E+03  0.00000000000E+00 0. -1.
         21   -1    0    0  501  502 -0.00000000000E+00 -0.00000000000E+00 -0.28297083183E+02  0.28297083183E+02  0.00000000000E+00 0. -1.
         25    1    1    2    0    0  0.00000000000E+00  0.00000000000E+00  0.10974718006E+03  0.16634134643E+03  0.12500000000E+03 0.  0.
<mgrwt>
<rscale>  2 0.12500000E+03</rscale>
<asrwt>0</asrwt>
<pdfrwt beam="1">  1       21 0.21237579E-01 0.12500000E+03</pdfrwt>
<pdfrwt beam="2">  1       21 0.43533975E-02 0.12500000E+03</pdfrwt>
<totfact> 0.68752834E+06</totfact>
</mgrwt>
</event>
<event>
 3    0  0.1693759E+001  0.1250000E+03  0.7546771E-02  0.1235069E+00
         21   -1    0    0  502  501  0.00000000000E+00  0.00000000000E+00  0.11412416765E+03  0.11412416765E+03  0.00000000000E+00 0. -1.
         21   -1    0    0  501  502 -0.00000000000E+00 -0.00000000000E+00 -0.34228070008E+02  0.34228070008E+02  0.00000000000E+00 0. -1.
         25    1    1    2    0    0  0.00000000000E+00  0.00000000000E+00  0.79896097644E+02  0.14835223766E+03  0.12500000000E+03 0.  0.
<mgrwt>
<rscale>  2 0.12500000E+03</rscale>
<asrwt>0</asrwt>
<pdfrwt beam="1">  1       21 0.17557564E-01 0.12500000E+03</pdfrwt>
<pdfrwt beam="2">  1       21 0.52658570E-02 0.12500000E+03</pdfrwt>
<totfact> 0.70966808E+06</totfact>
</mgrwt>
</event>
<event>
 3    0  0.1686160E+001  0.1250000E+03  0.7546771E-02  0.1235069E+00
         21   -1    0    0  502  501  0.00000000000E+00  0.00000000000E+00  0.32034164187E+02  0.32034164187E+02  0.00000000000E+00 0. -1.
         21   -1    0    0  501  502 -0.00000000000E+00 -0.00000000000E+00 -0.12194012546E+03  0.12194012546E+03  0.00000000000E+00 0. -1.
         25    1    1    2    0    0  0.00000000000E+00  0.00000000000E+00 -0.89905961274E+02  0.15397428965E+03  0.12500000000E+03 0.  0.
<mgrwt>
<rscale>  2 0.12500000E+03</rscale>
<asrwt>0</asrwt>
<pdfrwt beam="1">  1       21 0.49283329E-02 0.12500000E+03</pdfrwt>
<pdfrwt beam="2">  1       21 0.18760020E-01 0.12500000E+03</pdfrwt>
<totfact> 0.70263366E+06</totfact>
</mgrwt>
</event>
<event>
 3    0  0.1573525E+001  0.1250000E+03  0.7546771E-02  0.1235069E+00
         21   -1    0    0  502  501  0.00000000000E+00  0.00000000000E+00  0.31469571207E+03  0.31469571207E+03  0.00000000000E+00 0. -1.
         21   -1    0    0  501  502 -0.00000000000E+00 -0.00000000000E+00 -0.12412784319E+02  0.12412784319E+02  0.00000000000E+00 0. -1.
         25    1    1    2    0    0  0.00000000000E+00  0.00000000000E+00  0.30228292775E+03  0.32710849639E+03  0.12500000000E+03 0.  0.
<mgrwt>
<rscale>  2 0.12500000E+03</rscale>
<asrwt>0</asrwt>
<pdfrwt beam="1">  1       21 0.48414719E-01 0.12500000E+03</pdfrwt>
<pdfrwt beam="2">  1       21 0.19096594E-02 0.12500000E+03</pdfrwt>
<totfact> 0.53274798E+06</totfact>
</mgrwt>
</event>
<event>
 3    0  0.1711558E+001  0.1250000E+03  0.7546771E-02  0.1235069E+00
         21   -1    0    0  502  501  0.00000000000E+00  0.00000000000E+00  0.51462098980E+02  0.51462098980E+02  0.00000000000E+00 0. -1.
         21   -1    0    0  501  502 -0.00000000000E+00 -0.00000000000E+00 -0.75905376528E+02  0.75905376528E+02  0.00000000000E+00 0. -1.
         25    1    1    2    0    0  0.00000000000E+00  0.00000000000E+00 -0.24443277547E+02  0.12736747551E+03  0.12500000000E+03 0.  0.
<mgrwt>
<rscale>  2 0.12500000E+03</rscale>
<asrwt>0</asrwt>
<pdfrwt beam="1">  1       21 0.79172460E-02 0.12500000E+03</pdfrwt>
<pdfrwt beam="2">  1       21 0.11677750E-01 0.12500000E+03</pdfrwt>
<totfact> 0.73719192E+06</totfact>
</mgrwt>
</event>
<event>
 3    0  0.1561658E+001  0.1250000E+03  0.7546771E-02  0.1235069E+00
         21   -1    0    0  502  501  0.00000000000E+00  0.00000000000E+00  0.12215541177E+02  0.12215541177E+02  0.00000000000E+00 0. -1.
         21   -1    0    0  501  502 -0.00000000000E+00 -0.00000000000E+00 -0.31977707278E+03  0.31977707278E+03  0.00000000000E+00 0. -1.
         25    1    1    2    0    0  0.00000000000E+00  0.00000000000E+00 -0.30756153161E+03  0.33199261396E+03  0.12500000000E+03 0.  0.
<mgrwt>
<rscale>  2 0.12500000E+03</rscale>
<asrwt>0</asrwt>
<pdfrwt beam="1">  1       21 0.18793142E-02 0.12500000E+03</pdfrwt>
<pdfrwt beam="2">  1       21 0.49196469E-01 0.12500000E+03</pdfrwt>
<totfact> 0.52896467E+06</totfact>
</mgrwt>
</event>
<event>
 3    0  0.1672073E+001  0.1250000E+03  0.7546771E-02  0.1235069E+00
         21   -1    0    0  502  501  0.00000000000E+00  0.00000000000E+00  0.19675588713E+02  0.19675588713E+02  0.00000000000E+00 0.  1.
         21   -1    0    0  501  502 -0.00000000000E+00 -0.00000000000E+00 -0.19853281429E+03  0.19853281429E+03  0.00000000000E+00 0.  1.
         25    1    1    2    0    0  0.00000000000E+00  0.00000000000E+00 -0.17885722557E+03  0.21820840300E+03  0.12500000000E+03 0.  0.
<mgrwt>
<rscale>  2 0.12500000E+03</rscale>
<asrwt>0</asrwt>
<pdfrwt beam="1">  1       21 0.30270137E-02 0.12500000E+03</pdfrwt>
<pdfrwt beam="2">  1       21 0.30543509E-01 0.12500000E+03</pdfrwt>
<totfact> 0.63006131E+06</totfact>
</mgrwt>
</event>
<event>
 3    0  0.1706475E+001  0.1250000E+03  0.7546771E-02  0.1235069E+00
         21   -1    0    0  502  501  0.00000000000E+00  0.00000000000E+00  0.47139470119E+02  0.47139470119E+02  0.00000000000E+00 0. -1.
         21   -1    0    0  501  502 -0.00000000000E+00 -0.00000000000E+00 -0.82865802058E+02  0.82865802058E+02  0.00000000000E+00 0. -1.
         25    1    1    2    0    0  0.00000000000E+00  0.00000000000E+00 -0.35726331939E+02  0.13000527218E+03  0.12500000000E+03 0.  0.
<mgrwt>
<rscale>  2 0.12500000E+03</rscale>
<asrwt>0</asrwt>
<pdfrwt beam="1">  1       21 0.72522262E-02 0.12500000E+03</pdfrwt>
<pdfrwt beam="2">  1       21 0.12748585E-01 0.12500000E+03</pdfrwt>
<totfact> 0.73364210E+06</totfact>
</mgrwt>
</event>
<event>
 3    0  0.1672017E+001  0.1250000E+03  0.7546771E-02  0.1235069E+00
         21   -1    0    0  502  501  0.00000000000E+00  0.00000000000E+00  0.18854300179E+03  0.18854300179E+03  0.00000000000E+00 0.  1.
         21   -1    0    0  501  502 -0.00000000000E+00 -0.00000000000E+00 -0.20718085333E+02  0.20718085333E+02  0.00000000000E+00 0.  1.
         25    1    1    2    0    0  0.00000000000E+00  0.00000000000E+00  0.16782491645E+03  0.20926108712E+03  0.12500000000E+03 0.  0.
<mgrwt>
<rscale>  2 0.12500000E+03</rscale>
<asrwt>0</asrwt>
<pdfrwt beam="1">  1       21 0.29006615E-01 0.12500000E+03</pdfrwt>
<pdfrwt beam="2">  1       21 0.31873979E-02 0.12500000E+03</pdfrwt>
<totfact> 0.63937362E+06</totfact>
</mgrwt>
</event>
<event>
 3    0  0.1707203E+001  0.1250000E+03  0.7546771E-02  0.1235069E+00
         21   -1    0    0  502  501  0.00000000000E+00  0.00000000000E+00  0.12676271855E+03  0.12676271855E+03  0.00000000000E+00 0.  1.
         21   -1    0    0  501  502 -0.00000000000E+00 -0.00000000000E+00 -0.30815448302E+02  0.30815448302E+02  0.00000000000E+00 0.  1.
         25    1    1    2    0    0  0.00000000000E+00  0.00000000000E+00  0.95947270243E+02  0.15757816685E+03  0.12500000000E+03 0.  0.
<mgrwt>
<rscale>  2 0.12500000E+03</rscale>
<asrwt>0</asrwt>
<pdfrwt beam="1">  1       21 0.19501956E-01 0.12500000E+03</pdfrwt>
<pdfrwt beam="2">  1       21 0.47408383E-02 0.12500000E+03</pdfrwt>
<totfact> 0.69816635E+06</totfact>
</mgrwt>
</event>
<event>
 3    0  0.1711797E+001  0.1250000E+03  0.7546771E-02  0.1235069E+00
         21   -1    0    0  502  501  0.00000000000E+00  0.00000000000E+00  0.66262783675E+02  0.66262783675E+02  0.00000000000E+00 0. -1.
         21   -1    0    0  501  502 -0.00000000000E+00 -0.00000000000E+00 -0.58950888921E+02  0.58950888921E+02  0.00000000000E+00 0. -1.
         25    1    1    2    0    0  0.00000000000E+00  0.00000000000E+00  0.73118947544E+01  0.12521367260E+03  0.12500000000E+03 0.  0.
<mgrwt>
<rscale>  2 0.12500000E+03</rscale>
<asrwt>0</asrwt>
<pdfrwt beam="1">  1       21 0.10194274E-01 0.12500000E+03</pdfrwt>
<pdfrwt beam="2">  1       21 0.90693675E-02 0.12500000E+03</pdfrwt>
<totfact> 0.74014726E+06</totfact>
</mgrwt>
</event>
<event>
 3    0  0.1707289E+001  0.1250000E+03  0.7546771E-02  0.1235069E+00
         21   -1    0    0  502  501  0.00000000000E+00  0.00000000000E+00  0.85018020735E+02  0.85018020735E+02  0.00000000000E+00 0. -1.
         21   -1    0    0  501  502 -0.00000000000E+00 -0.00000000000E+00 -0.45946141374E+02  0.45946141374E+02  0.00000000000E+00 0. -1.
         25    1    1    2    0    0  0.00000000000E+00  0.00000000000E+00  0.39071879362E+02  0.13096416211E+03  0.12500000000E+03 0.  0.
<mgrwt>
<rscale>  2 0.12500000E+03</rscale>
<asrwt>0</asrwt>
<pdfrwt beam="1">  1       21 0.13079696E-01 0.12500000E+03</pdfrwt>
<pdfrwt beam="2">  1       21 0.70686371E-02 0.12500000E+03</pdfrwt>
<totfact> 0.73235501E+06</totfact>
</mgrwt>
</event>
<event>
 3    0  0.1712330E+001  0.1250000E+03  0.7546771E-02  0.1235069E+00
         21   -1    0    0  502  501  0.00000000000E+00  0.00000000000E+00  0.62874016082E+02  0.62874016082E+02  0.00000000000E+00 0. -1.
         21   -1    0    0  501  502 -0.00000000000E+00 -0.00000000000E+00 -0.62128208812E+02  0.62128208812E+02  0.00000000000E+00 0. -1.
         25    1    1    2    0    0  0.00000000000E+00  0.00000000000E+00  0.74580726959E+00  0.12500222489E+03  0.12500000000E+03 0.  0.
<mgrwt>
<rscale>  2 0.12500000E+03</rscale>
<asrwt>0</asrwt>
<pdfrwt beam="1">  1       21 0.96729256E-02 0.12500000E+03</pdfrwt>
<pdfrwt beam="2">  1       21 0.95581859E-02 0.12500000E+03</pdfrwt>
<totfact> 0.74043281E+06</totfact>
</mgrwt>
</event>
<event>
 3    0  0.1661941E+001  0.1250000E+03  0.7546771E-02  0.1235069E+00
         21   -1    0    0  502  501  0.00000000000E+00  0.00000000000E+00  0.21118513665E+03  0.21118513665E+03  0.00000000000E+00 0.  1.
         21   -1    0    0  501  502 -0.00000000000E+00 -0.00000000000E+00 -0.18496803620E+02  0.18496803620E+02  0.00000000000E+00 0.  1.
         25    1    1    2    0    0  0.00000000000E+00  0.00000000000E+00  0.19268833303E+03  0.22968194027E+03  0.12500000000E+03 0.  0.
<mgrwt>
<rscale>  2 0.12500000E+03</rscale>
<asrwt>0</asrwt>
<pdfrwt beam="1">  1       21 0.32490019E-01 0.12500000E+03</pdfrwt>
<pdfrwt beam="2">  1       21 0.28456622E-02 0.12500000E+03</pdfrwt>
<totfact> 0.61845647E+06</totfact>
</mgrwt>
</event>
<event>
 3    0  0.1706666E+001  0.1250000E+03  0.7546771E-02  0.1235069E+00
         21   -1    0    0  502  501  0.00000000000E+00  0.00000000000E+00  0.82936885147E+02  0.82936885147E+02  0.00000000000E+00 0. -1.
         21   -1    0    0  501  502 -0.00000000000E+00 -0.00000000000E+00 -0.47099068081E+02  0.47099068081E+02  0.00000000000E+00 0. -1.
         25    1    1    2    0    0  0.00000000000E+00  0.00000000000E+00  0.35837817066E+02  0.13003595323E+03  0.12500000000E+03 0.  0.
<mgrwt>
<rscale>  2 0.12500000E+03</rscale>
<asrwt>0</asrwt>
<pdfrwt beam="1">  1       21 0.12759521E-01 0.12500000E+03</pdfrwt>
<pdfrwt beam="2">  1       21 0.72460105E-02 0.12500000E+03</pdfrwt>
<totfact> 0.73360110E+06</totfact>
</mgrwt>
</event>
<event>
 3    0  0.1601090E+001  0.1250000E+03  0.7546771E-02  0.1235069E+00
         21   -1    0    0  502  501  0.00000000000E+00  0.00000000000E+00  0.13279224768E+02  0.13279224768E+02  0.00000000000E+00 0.  1.
         21   -1    0    0  501  502 -0.00000000000E+00 -0.00000000000E+00 -0.29416250332E+03  0.29416250332E+03  0.00000000000E+00 0.  1.
         25    1    1    2    0    0  0.00000000000E+00  0.00000000000E+00 -0.28088327856E+03  0.30744172809E+03  0.12500000000E+03 0.  0.
<mgrwt>
<rscale>  2 0.12500000E+03</rscale>
<asrwt>0</asrwt>
<pdfrwt beam="1">  1       21 0.20429576E-02 0.12500000E+03</pdfrwt>
<pdfrwt beam="2">  1       21 0.45255771E-01 0.12500000E+03</pdfrwt>
<totfact> 0.54843351E+06</totfact>
</mgrwt>
</event>
<event>
 3    0  0.1704451E+001  0.1250000E+03  0.7546771E-02  0.1235069E+00
         21   -1    0    0  502  501  0.00000000000E+00  0.00000000000E+00  0.45149057532E+02  0.45149057532E+02  0.00000000000E+00 0. -1.
         21   -1    0    0  501  502 -0.00000000000E+00 -0.00000000000E+00 -0.86518971016E+02  0.86518971016E+02  0.00000000000E+00 0. -1.
         25    1    1    2    0    0  0.00000000000E+00  0.00000000000E+00 -0.41369913485E+02  0.13166802855E+03  0.12500000000E+03 0.  0.
<mgrwt>
<rscale>  2 0.12500000E+03</rscale>
<asrwt>0</asrwt>
<pdfrwt beam="1">  1       21 0.69460089E-02 0.12500000E+03</pdfrwt>
<pdfrwt beam="2">  1       21 0.13310611E-01 0.12500000E+03</pdfrwt>
<totfact> 0.73140791E+06</totfact>
</mgrwt>
</event>
<event>
 3    0  0.1587813E+001  0.1250000E+03  0.7546771E-02  0.1235069E+00
         21   -1    0    0  502  501  0.00000000000E+00  0.00000000000E+00  0.14187145956E+02  0.14187145956E+02  0.00000000000E+00 0. -1.
         21   -1    0    0  501  502 -0.00000000000E+00 -0.00000000000E+00 -0.27533726741E+03  0.27533726741E+03  0.00000000000E+00 0. -1.
         25    1    1    2    0    0  0.00000000000E+00  0.00000000000E+00 -0.26115012146E+03  0.28952441337E+03  0.12500000000E+03 0.  0.
<mgrwt>
<rscale>  2 0.12500000E+03</rscale>
<asrwt>0</asrwt>
<pdfrwt beam="1">  1       21 0.21826378E-02 0.12500000E+03</pdfrwt>
<pdfrwt beam="2">  1       21 0.42359580E-01 0.12500000E+03</pdfrwt>
<totfact> 0.56338128E+06</totfact>
</mgrwt>
</event>
<event>
 3    0  0.1707765E+001  0.1250000E+03  0.7546771E-02  0.1235069E+00
         21   -1    0    0  502  501  0.00000000000E+00  0.00000000000E+00  0.49230616017E+02  0.49230616017E+02  0.00000000000E+00 0. -1.
         21   -1    0    0  501  502 -0.00000000000E+00 -0.00000000000E+00 -0.79345950063E+02  0.79345950063E+02  0.00000000000E+00 0. -1.
         25    1    1    2    0    0  0.00000000000E+00  0.00000000000E+00 -0.30115334046E+02  0.12857656608E+03  0.12500000000E+03 0.  0.
<mgrwt>
<rscale>  2 0.12500000E+03</rscale>
<asrwt>0</asrwt>
<pdfrwt beam="1">  1       21 0.75739410E-02 0.12500000E+03</pdfrwt>
<pdfrwt beam="2">  1       21 0.12207069E-01 0.12500000E+03</pdfrwt>
<totfact> 0.73555813E+06</totfact>
</mgrwt>
</event>
<event>
 3    0  0.1701924E+001  0.1250000E+03  0.7546771E-02  0.1235069E+00
         21   -1    0    0  502  501  0.00000000000E+00  0.00000000000E+00  0.10003939387E+03  0.10003939387E+03  0.00000000000E+00 0. -1.
         21   -1    0    0  501  502 -0.00000000000E+00 -0.00000000000E+00 -0.39047117830E+02  0.39047117830E+02  0.00000000000E+00 0. -1.
         25    1    1    2    0    0  0.00000000000E+00  0.00000000000E+00  0.60992276036E+02  0.13908651170E+03  0.12500000000E+03 0.  0.
<mgrwt>
<rscale>  2 0.12500000E+03</rscale>
<asrwt>0</asrwt>
<pdfrwt beam="1">  1       21 0.15390676E-01 0.12500000E+03</pdfrwt>
<pdfrwt beam="2">  1       21 0.60072489E-02 0.12500000E+03</pdfrwt>
<totfact> 0.72158787E+06</totfact>
</mgrwt>
</event>
<event>
 3    0  0.1368989E+001  0.1250000E+03  0.7546771E-02  0.1235069E+00
         21   -1    0    0  502  501  0.00000000000E+00  0.00000000000E+00  0.71205724825E+03  0.71205724825E+03  0.00000000000E+00 0.  1.
         21   -1    0    0  501  502 -0.00000000000E+00 -0.00000000000E+00 -0.54858650896E+01  0.54858650896E+01  0.00000000000E+00 0.  1.
         25    1    1    2    0    0  0.00000000000E+00  0.00000000000E+00  0.70657138316E+03  0.71754311334E+03  0.12500000000E+03 0.  0.
<mgrwt>
<rscale>  2 0.12500000E+03</rscale>
<asrwt>0</asrwt>
<pdfrwt beam="1">  1       21 0.10954720E+00 0.12500000E+03</pdfrwt>
<pdfrwt beam="2">  1       21 0.84397981E-03 0.12500000E+03</pdfrwt>
<totfact> 0.32244693E+06</totfact>
</mgrwt>
</event>
<event>
 3    0  0.1710222E+001  0.1250000E+03  0.7546771E-02  0.1235069E+00
         21   -1    0    0  502  501  0.00000000000E+00  0.00000000000E+00  0.80171695401E+02  0.80171695401E+02  0.00000000000E+00 0. -1.
         21   -1    0    0  501  502 -0.00000000000E+00 -0.00000000000E+00 -0.48723554872E+02  0.48723554872E+02  0.00000000000E+00 0. -1.
         25    1    1    2    0    0  0.00000000000E+00  0.00000000000E+00  0.31448140529E+02  0.12889525027E+03  0.12500000000E+03 0.  0.
<mgrwt>
<rscale>  2 0.12500000E+03</rscale>
<asrwt>0</asrwt>
<pdfrwt beam="1">  1       21 0.12334107E-01 0.12500000E+03</pdfrwt>
<pdfrwt beam="2">  1       21 0.74959315E-02 0.12500000E+03</pdfrwt>
<totfact> 0.73512952E+06</totfact>
</mgrwt>
</event>
<event>
 3    0  0.1688864E+001  0.1250000E+03  0.7546771E-02  0.1235069E+00
         21   -1    0    0  502  501  0.00000000000E+00  0.00000000000E+00  0.11643002599E+03  0.11643002599E+03  0.00000000000E+00 0. -1.
         21   -1    0    0  501  502 -0.00000000000E+00 -0.00000000000E+00 -0.33550194350E+02  0.33550194350E+02  0.00000000000E+00 0. -1.
         25    1    1    2    0    0  0.00000000000E+00  0.00000000000E+00  0.82879831637E+02  0.14998022034E+03  0.12500000000E+03 0.  0.
<mgrwt>
<rscale>  2 0.12500000E+03</rscale>
<asrwt>0</asrwt>
<pdfrwt beam="1">  1       21 0.17912311E-01 0.12500000E+03</pdfrwt>
<pdfrwt beam="2">  1       21 0.51615684E-02 0.12500000E+03</pdfrwt>
<totfact> 0.70761686E+06</totfact>
</mgrwt>
</event>
<event>
 3    0  0.1611340E+001  0.1250000E+03  0.7546771E-02  0.1235069E+00
         21   -1    0    0  502  501  0.00000000000E+00  0.00000000000E+00  0.28978265312E+03  0.28978265312E+03  0.00000000000E+00 0.  1.
         21   -1    0    0  501  502 -0.00000000000E+00 -0.00000000000E+00 -0.13479930416E+02  0.13479930416E+02  0.00000000000E+00 0.  1.
         25    1    1    2    0    0  0.00000000000E+00  0.00000000000E+00  0.27630272271E+03  0.30326258354E+03  0.12500000000E+03 0.  0.
<mgrwt>
<rscale>  2 0.12500000E+03</rscale>
<asrwt>0</asrwt>
<pdfrwt beam="1">  1       21 0.44581942E-01 0.12500000E+03</pdfrwt>
<pdfrwt beam="2">  1       21 0.20738357E-02 0.12500000E+03</pdfrwt>
<totfact> 0.55186128E+06</totfact>
</mgrwt>
</event>
<event>
 3    0  0.1429404E+001  0.1250000E+03  0.7546771E-02  0.1235069E+00
         21   -1    0    0  502  501  0.00000000000E+00  0.00000000000E+00  0.71934957834E+01  0.71934957834E+01  0.00000000000E+00 0. -1.
         21   -1    0    0  501  502 -0.00000000000E+00 -0.00000000000E+00 -0.54302527138E+03  0.54302527138E+03  0.00000000000E+00 0. -1.
         25    1    1    2    0    0  0.00000000000E+00  0.00000000000E+00 -0.53583177560E+03  0.55021876717E+03  0.12500000000E+03 0.  0.
<mgrwt>
<rscale>  2 0.12500000E+03</rscale>
<asrwt>0</asrwt>
<pdfrwt beam="1">  1       21 0.11066913E-02 0.12500000E+03</pdfrwt>
<pdfrwt beam="2">  1       21 0.83542379E-01 0.12500000E+03</pdfrwt>
<totfact> 0.39445258E+06</totfact>
</mgrwt>
</event>
<event>
 3    0  0.1694647E+001  0.1250000E+03  0.7546771E-02  0.1235069E+00
         21   -1    0    0  502  501  0.00000000000E+00  0.00000000000E+00  0.28349052759E+02  0.28349052759E+02  0.00000000000E+00 0.  1.
         21   -1    0    0  501  502 -0.00000000000E+00 -0.00000000000E+00 -0.13779120005E+03  0.13779120005E+03  0.00000000000E+00 0.  1.
         25    1    1    2    0    0  0.00000000000E+00  0.00000000000E+00 -0.10944214730E+03  0.16614025281E+03  0.12500000000E+03 0.  0.
<mgrwt>
<rscale>  2 0.12500000E+03</rscale>
<asrwt>0</asrwt>
<pdfrwt beam="1">  1       21 0.43613928E-02 0.12500000E+03</pdfrwt>
<pdfrwt beam="2">  1       21 0.21198646E-01 0.12500000E+03</pdfrwt>
<totfact> 0.68776899E+06</totfact>
</mgrwt>
</event>
<event>
 3    0  0.1711320E+001  0.1250000E+03  0.7546771E-02  0.1235069E+00
         21   -1    0    0  502  501  0.00000000000E+00  0.00000000000E+00  0.68431895011E+02  0.68431895011E+02  0.00000000000E+00 0. -1.
         21   -1    0    0  501  502 -0.00000000000E+00 -0.00000000000E+00 -0.57082300576E+02  0.57082300576E+02  0.00000000000E+00 0. -1.
         25    1    1    2    0    0  0.00000000000E+00  0.00000000000E+00  0.11349594435E+02  0.12551419559E+03  0.12500000000E+03 0.  0.
<mgrwt>
<rscale>  2 0.12500000E+03</rscale>
<asrwt>0</asrwt>
<pdfrwt beam="1">  1       21 0.10527984E-01 0.12500000E+03</pdfrwt>
<pdfrwt beam="2">  1       21 0.87818923E-02 0.12500000E+03</pdfrwt>
<totfact> 0.73973412E+06</totfact>
</mgrwt>
</event>
<event>
 3    0  0.1546435E+001  0.1250000E+03  0.7546771E-02  0.1235069E+00
         21   -1    0    0  502  501  0.00000000000E+00  0.00000000000E+00  0.10496259704E+02  0.10496259704E+02  0.00000000000E+00 0.  1.
         21   -1    0    0  501  502 -0.00000000000E+00 -0.00000000000E+00 -0.37215637856E+03  0.37215637856E+03  0.00000000000E+00 0.  1.
         25    1    1    2    0    0  0.00000000000E+00  0.00000000000E+00 -0.36166011886E+03  0.38265263827E+03  0.12500000000E+03 0.  0.
<mgrwt>
<rscale>  2 0.12500000E+03</rscale>
<asrwt>0</asrwt>
<pdfrwt beam="1">  1       21 0.16148095E-02 0.12500000E+03</pdfrwt>
<pdfrwt beam="2">  1       21 0.57254815E-01 0.12500000E+03</pdfrwt>
<totfact> 0.49213680E+06</totfact>
</mgrwt>
</event>
<event>
 3    0  0.1572504E+001  0.1250000E+03  0.7546771E-02  0.1235069E+00
         21   -1    0    0  502  501  0.00000000000E+00  0.00000000000E+00  0.12407007752E+02  0.12407007752E+02  0.00000000000E+00 0. -1.
         21   -1    0    0  501  502 -0.00000000000E+00 -0.00000000000E+00 -0.31484223093E+03  0.31484223093E+03  0.00000000000E+00 0. -1.
         25    1    1    2    0    0  0.00000000000E+00  0.00000000000E+00 -0.30243522318E+03  0.32724923869E+03  0.12500000000E+03 0.  0.
<mgrwt>
<rscale>  2 0.12500000E+03</rscale>
<asrwt>0</asrwt>
<pdfrwt beam="1">  1       21 0.19087705E-02 0.12500000E+03</pdfrwt>
<pdfrwt beam="2">  1       21 0.48437265E-01 0.12500000E+03</pdfrwt>
<totfact> 0.53263832E+06</totfact>
</mgrwt>
</event>
<event>
 3    0  0.1545279E+001  0.1250000E+03  0.7546771E-02  0.1235069E+00
         21   -1    0    0  502  501  0.00000000000E+00  0.00000000000E+00  0.10019312992E+02  0.10019312992E+02  0.00000000000E+00 0.  1.
         21   -1    0    0  501  502 -0.00000000000E+00 -0.00000000000E+00 -0.38987204044E+03  0.38987204044E+03  0.00000000000E+00 0.  1.
         25    1    1    2    0    0  0.00000000000E+00  0.00000000000E+00 -0.37985272745E+03  0.39989135344E+03  0.12500000000E+03 0.  0.
<mgrwt>
<rscale>  2 0.12500000E+03</rscale>
<asrwt>0</asrwt>
<pdfrwt beam="1">  1       21 0.15414329E-02 0.12500000E+03</pdfrwt>
<pdfrwt beam="2">  1       21 0.59980310E-01 0.12500000E+03</pdfrwt>
<totfact> 0.48048559E+06</totfact>
</mgrwt>
</event>
<event>
 3    0  0.1697341E+001  0.1250000E+03  0.7546771E-02  0.1235069E+00
         21   -1    0    0  502  501  0.00000000000E+00  0.00000000000E+00  0.13654247035E+03  0.13654247035E+03  0.00000000000E+00 0.  1.
         21   -1    0    0  501  502 -0.00000000000E+00 -0.00000000000E+00 -0.28608314980E+02  0.28608314980E+02  0.00000000000E+00 0.  1.
         25    1    1    2    0    0  0.00000000000E+00  0.00000000000E+00  0.10793415538E+03  0.16515078533E+03  0.12500000000E+03 0.  0.
<mgrwt>
<rscale>  2 0.12500000E+03</rscale>
<asrwt>0</asrwt>
<pdfrwt beam="1">  1       21 0.21006533E-01 0.12500000E+03</pdfrwt>
<pdfrwt beam="2">  1       21 0.44012793E-02 0.12500000E+03</pdfrwt>
<totfact> 0.68895539E+06</totfact>
</mgrwt>
</event>
<event>
 3    0  0.1368989E+001  0.1250000E+03  0.7546771E-02  0.1235069E+00
         21   -1    0    0  502  501  0.00000000000E+00  0.00000000000E+00  0.61059950601E+03  0.61059950601E+03  0.00000000000E+00 0. -1.
         21   -1    0    0  501  502 -0.00000000000E+00 -0.00000000000E+00 -0.63974011796E+01  0.63974011796E+01  0.00000000000E+00 0. -1.
         25    1    1    2    0    0  0.00000000000E+00  0.00000000000E+00  0.60420210483E+03  0.61699690719E+03  0.12500000000E+03 0.  0.
<mgrwt>
<rscale>  2 0.12500000E+03</rscale>
<asrwt>0</asrwt>
<pdfrwt beam="1">  1       21 0.93938339E-01 0.12500000E+03</pdfrwt>
<pdfrwt beam="2">  1       21 0.98421605E-03 0.12500000E+03</pdfrwt>
<totfact> 0.36335090E+06</totfact>
</mgrwt>
</event>
<event>
 3    0  0.1710156E+001  0.1250000E+03  0.7546771E-02  0.1235069E+00
         21   -1    0    0  502  501  0.00000000000E+00  0.00000000000E+00  0.55167912118E+02  0.55167912118E+02  0.00000000000E+00 0. -1.
         21   -1    0    0  501  502 -0.00000000000E+00 -0.00000000000E+00 -0.70806558559E+02  0.70806558559E+02  0.00000000000E+00 0. -1.
         25    1    1    2    0    0  0.00000000000E+00  0.00000000000E+00 -0.15638646441E+02  0.12597447068E+03  0.12500000000E+03 0.  0.
<mgrwt>
<rscale>  2 0.12500000E+03</rscale>
<asrwt>0</asrwt>
<pdfrwt beam="1">  1       21 0.84873711E-02 0.12500000E+03</pdfrwt>
<pdfrwt beam="2">  1       21 0.10893317E-01 0.12500000E+03</pdfrwt>
<totfact> 0.73909559E+06</totfact>
</mgrwt>
</event>
<event>
 3    0  0.1727938E+001  0.1250000E+03  0.7546771E-02  0.1235069E+00
         21   -1    0    0  502  501  0.00000000000E+00  0.00000000000E+00  0.87673010312E+02  0.87673010312E+02  0.00000000000E+00 0.  1.
         21   -1    0    0  501  502 -0.00000000000E+00 -0.00000000000E+00 -0.44554760765E+02  0.44554760765E+02  0.00000000000E+00 0.  1.
         25    1    1    2    0    0  0.00000000000E+00  0.00000000000E+00  0.43118249547E+02  0.13222777108E+03  0.12500000000E+03 0.  0.
<mgrwt>
<rscale>  2 0.12500000E+03</rscale>
<asrwt>0</asrwt>
<pdfrwt beam="1">  1       21 0.13488155E-01 0.12500000E+03</pdfrwt>
<pdfrwt beam="2">  1       21 0.68545786E-02 0.12500000E+03</pdfrwt>
<totfact> 0.73065693E+06</totfact>
</mgrwt>
</event>
<event>
 3    0  0.1702182E+001  0.1250000E+03  0.7546771E-02  0.1235069E+00
         21   -1    0    0  502  501  0.00000000000E+00  0.00000000000E+00  0.92472963564E+02  0.92472963564E+02  0.00000000000E+00 0. -1.
         21   -1    0    0  501  502 -0.00000000000E+00 -0.00000000000E+00 -0.42242076489E+02  0.42242076489E+02  0.00000000000E+00 0. -1.
         25    1    1    2    0    0  0.00000000000E+00  0.00000000000E+00  0.50230887075E+02  0.13471504005E+03  0.12500000000E+03 0.  0.
<mgrwt>
<rscale>  2 0.12500000E+03</rscale>
<asrwt>0</asrwt>
<pdfrwt beam="1">  1       21 0.14226610E-01 0.12500000E+03</pdfrwt>
<pdfrwt beam="2">  1       21 0.64987810E-02 0.12500000E+03</pdfrwt>
<totfact> 0.72734224E+06</totfact>
</mgrwt>
</event>
<event>
 3    0  0.1615279E+001  0.1250000E+03  0.7546771E-02  0.1235069E+00
         21   -1    0    0  502  501  0.00000000000E+00  0.00000000000E+00  0.17017759827E+02  0.17017759827E+02  0.00000000000E+00 0. -1.
         21   -1    0    0  501  502 -0.00000000000E+00 -0.00000000000E+00 -0.22953961271E+03  0.22953961271E+03  0.00000000000E+00 0. -1.
         25    1    1    2    0    0  0.00000000000E+00  0.00000000000E+00 -0.21252185289E+03  0.24655737254E+03  0.12500000000E+03 0.  0.
<mgrwt>
<rscale>  2 0.12500000E+03</rscale>
<asrwt>0</asrwt>
<pdfrwt beam="1">  1       21 0.26181170E-02 0.12500000E+03</pdfrwt>
<pdfrwt beam="2">  1       21 0.35313786E-01 0.12500000E+03</pdfrwt>
<totfact> 0.60203830E+06</totfact>
</mgrwt>
</event>
<event>
 3    0  0.1570390E+001  0.1250000E+03  0.7546771E-02  0.1235069E+00
         21   -1    0    0  502  501  0.00000000000E+00  0.00000000000E+00  0.28276343807E+03  0.28276343807E+03  0.00000000000E+00 0. -1.
         21   -1    0    0  501  502 -0.00000000000E+00 -0.00000000000E+00 -0.13814551226E+02  0.13814551226E+02  0.00000000000E+00 0. -1.
         25    1    1    2    0    0  0.00000000000E+00  0.00000000000E+00  0.26894888685E+03  0.29657798930E+03  0.12500000000E+03 0.  0.
<mgrwt>
<rscale>  2 0.12500000E+03</rscale>
<asrwt>0</asrwt>
<pdfrwt beam="1">  1       21 0.43502063E-01 0.12500000E+03</pdfrwt>
<pdfrwt beam="2">  1       21 0.21253158E-02 0.12500000E+03</pdfrwt>
<totfact> 0.55741762E+06</totfact>
</mgrwt>
</event>
<event>
 3    0  0.1679490E+001  0.1250000E+03  0.7546771E-02  0.1235069E+00
         21   -1    0    0  502  501  0.00000000000E+00  0.00000000000E+00  0.24111755613E+02  0.24111755613E+02  0.00000000000E+00 0.  1.
         21   -1    0    0  501  502 -0.00000000000E+00 -0.00000000000E+00 -0.16200603817E+03  0.16200603817E+03  0.00000000000E+00 0.  1.
         25    1    1    2    0    0  0.00000000000E+00  0.00000000000E+00 -0.13789428255E+03  0.18611779378E+03  0.12500000000E+03 0.  0.
<mgrwt>
<rscale>  2 0.12500000E+03</rscale>
<asrwt>0</asrwt>
<pdfrwt beam="1">  1       21 0.37095008E-02 0.12500000E+03</pdfrwt>
<pdfrwt beam="2">  1       21 0.24924006E-01 0.12500000E+03</pdfrwt>
<totfact> 0.66456557E+06</totfact>
</mgrwt>
</event>
<event>
 3    0  0.1680308E+001  0.1250000E+03  0.7546771E-02  0.1235069E+00
         21   -1    0    0  502  501  0.00000000000E+00  0.00000000000E+00  0.30582819101E+02  0.30582819101E+02  0.00000000000E+00 0. -1.
         21   -1    0    0  501  502 -0.00000000000E+00 -0.00000000000E+00 -0.12772694326E+03  0.12772694326E+03  0.00000000000E+00 0. -1.
         25    1    1    2    0    0  0.00000000000E+00  0.00000000000E+00 -0.97144124160E+02  0.15830976236E+03  0.12500000000E+03 0.  0.
<mgrwt>
<rscale>  2 0.12500000E+03</rscale>
<asrwt>0</asrwt>
<pdfrwt beam="1">  1       21 0.47050491E-02 0.12500000E+03</pdfrwt>
<pdfrwt beam="2">  1       21 0.19650299E-01 0.12500000E+03</pdfrwt>
<totfact> 0.69726617E+06</totfact>
</mgrwt>
</event>
<event>
 3    0  0.1728414E+001  0.1250000E+03  0.7546771E-02  0.1235069E+00
         21   -1    0    0  502  501  0.00000000000E+00  0.00000000000E+00  0.42890412029E+02  0.42890412029E+02  0.00000000000E+00 0.  1.
         21   -1    0    0  501  502 -0.00000000000E+00 -0.00000000000E+00 -0.91075133468E+02  0.91075133468E+02  0.00000000000E+00 0.  1.
         25    1    1    2    0    0  0.00000000000E+00  0.00000000000E+00 -0.48184721439E+02  0.13396554550E+03  0.12500000000E+03 0.  0.
<mgrwt>
<rscale>  2 0.12500000E+03</rscale>
<asrwt>0</asrwt>
<pdfrwt beam="1">  1       21 0.65985251E-02 0.12500000E+03</pdfrwt>
<pdfrwt beam="2">  1       21 0.14011559E-01 0.12500000E+03</pdfrwt>
<totfact> 0.72833735E+06</totfact>
</mgrwt>
</event>
<event>
 3    0  0.1711186E+001  0.1250000E+03  0.7546771E-02  0.1235069E+00
         21   -1    0    0  502  501  0.00000000000E+00  0.00000000000E+00  0.68677439892E+02  0.68677439892E+02  0.00000000000E+00 0. -1.
         21   -1    0    0  501  502 -0.00000000000E+00 -0.00000000000E+00 -0.56878212207E+02  0.56878212207E+02  0.00000000000E+00 0. -1.
         25    1    1    2    0    0  0.00000000000E+00  0.00000000000E+00  0.11799227686E+02  0.12555565210E+03  0.12500000000E+03 0.  0.
<mgrwt>
<rscale>  2 0.12500000E+03</rscale>
<asrwt>0</asrwt>
<pdfrwt beam="1">  1       21 0.10565760E-01 0.12500000E+03</pdfrwt>
<pdfrwt beam="2">  1       21 0.87504942E-02 0.12500000E+03</pdfrwt>
<totfact> 0.73967624E+06</totfact>
</mgrwt>
</event>
<event>
 3    0  0.1651196E+001  0.1250000E+03  0.7546771E-02  0.1235069E+00
         21   -1    0    0  502  501  0.00000000000E+00  0.00000000000E+00  0.21560117702E+03  0.21560117702E+03  0.00000000000E+00 0.  1.
         21   -1    0    0  501  502 -0.00000000000E+00 -0.00000000000E+00 -0.18117943761E+02  0.18117943761E+02  0.00000000000E+00 0.  1.
         25    1    1    2    0    0  0.00000000000E+00  0.00000000000E+00  0.19748323326E+03  0.23371912078E+03  0.12500000000E+03 0.  0.
<mgrwt>
<rscale>  2 0.12500000E+03</rscale>
<asrwt>0</asrwt>
<pdfrwt beam="1">  1       21 0.33169410E-01 0.12500000E+03</pdfrwt>
<pdfrwt beam="2">  1       21 0.27873761E-02 0.12500000E+03</pdfrwt>
<totfact> 0.61445799E+06</totfact>
</mgrwt>
</event>
<event>
 3    0  0.1711918E+001  0.1250000E+03  0.7546771E-02  0.1235069E+00
         21   -1    0    0  502  501  0.00000000000E+00  0.00000000000E+00  0.31374563301E+02  0.31374563301E+02  0.00000000000E+00 0.  1.
         21   -1    0    0  501  502 -0.00000000000E+00 -0.00000000000E+00 -0.12450372496E+03  0.12450372496E+03  0.00000000000E+00 0.  1.
         25    1    1    2    0    0  0.00000000000E+00  0.00000000000E+00 -0.93129161661E+02  0.15587828826E+03  0.12500000000E+03 0.  0.
<mgrwt>
<rscale>  2 0.12500000E+03</rscale>
<asrwt>0</asrwt>
<pdfrwt beam="1">  1       21 0.48268559E-02 0.12500000E+03</pdfrwt>
<pdfrwt beam="2">  1       21 0.19154419E-01 0.12500000E+03</pdfrwt>
<totfact> 0.70026663E+06</totfact>
</mgrwt>
</event>
<event>
 3    0  0.1368989E+001  0.1250000E+03  0.7546771E-02  0.1235069E+00
         21   -1    0    0  502  501  0.00000000000E+00  0.00000000000E+00  0.56271114387E+01  0.56271114387E+01  0.00000000000E+00 0. -1.
         21   -1    0    0  501  502 -0.00000000000E+00 -0.00000000000E+00 -0.69418387081E+03  0.69418387081E+03  0.00000000000E+00 0. -1.
         25    1    1    2    0    0  0.00000000000E+00  0.00000000000E+00 -0.68855675937E+03  0.69981098225E+03  0.12500000000E+03 0.  0.
<mgrwt>
<rscale>  2 0.12500000E+03</rscale>
<asrwt>0</asrwt>
<pdfrwt beam="1">  1       21 0.86570988E-03 0.12500000E+03</pdfrwt>
<pdfrwt beam="2">  1       21 0.10679747E+00 0.12500000E+03</pdfrwt>
<totfact> 0.32917441E+06</totfact>
</mgrwt>
</event>
<event>
 3    0  0.1471720E+001  0.1250000E+03  0.7546771E-02  0.1235069E+00
         21   -1    0    0  502  501  0.00000000000E+00  0.00000000000E+00  0.46368647515E+03  0.46368647515E+03  0.00000000000E+00 0. -1.
         21   -1    0    0  501  502 -0.00000000000E+00 -0.00000000000E+00 -0.84243345652E+01  0.84243345652E+01  0.00000000000E+00 0. -1.
         25    1    1    2    0    0  0.00000000000E+00  0.00000000000E+00  0.45526214058E+03  0.47211080971E+03  0.12500000000E+03 0.  0.
<mgrwt>
<rscale>  2 0.12500000E+03</rscale>
<asrwt>0</asrwt>
<pdfrwt beam="1">  1       21 0.71336361E-01 0.12500000E+03</pdfrwt>
<pdfrwt beam="2">  1       21 0.12960518E-02 0.12500000E+03</pdfrwt>
<totfact> 0.43598109E+06</totfact>
</mgrwt>
</event>
<event>
 3    0  0.1385788E+001  0.1250000E+03  0.7546771E-02  0.1235069E+00
         21   -1    0    0  502  501  0.00000000000E+00  0.00000000000E+00  0.65179994475E+01  0.65179994475E+01  0.00000000000E+00 0. -1.
         21   -1    0    0  501  502 -0.00000000000E+00 -0.00000000000E+00 -0.59930198390E+03  0.59930198390E+03  0.00000000000E+00 0. -1.
         25    1    1    2    0    0  0.00000000000E+00  0.00000000000E+00 -0.59278398446E+03  0.60581998335E+03  0.12500000000E+03 0.  0.
<mgrwt>
<rscale>  2 0.12500000E+03</rscale>
<asrwt>0</asrwt>
<pdfrwt beam="1">  1       21 0.10027690E-02 0.12500000E+03</pdfrwt>
<pdfrwt beam="2">  1       21 0.92200319E-01 0.12500000E+03</pdfrwt>
<totfact> 0.36830741E+06</totfact>
</mgrwt>
</event>
<event>
 3    0  0.1670228E+001  0.1250000E+03  0.7546771E-02  0.1235069E+00
         21   -1    0    0  502  501  0.00000000000E+00  0.00000000000E+00  0.25991225338E+02  0.25991225338E+02  0.00000000000E+00 0. -1.
         21   -1    0    0  501  502 -0.00000000000E+00 -0.00000000000E+00 -0.15029110591E+03  0.15029110591E+03  0.00000000000E+00 0. -1.
         25    1    1    2    0    0  0.00000000000E+00  0.00000000000E+00 -0.12429988057E+03  0.17628233125E+03  0.12500000000E+03 0.  0.
<mgrwt>
<rscale>  2 0.12500000E+03</rscale>
<asrwt>0</asrwt>
<pdfrwt beam="1">  1       21 0.39986500E-02 0.12500000E+03</pdfrwt>
<pdfrwt beam="2">  1       21 0.23121709E-01 0.12500000E+03</pdfrwt>
<totfact> 0.67580595E+06</totfact>
</mgrwt>
</event>
<event>
 3    0  0.1721558E+001  0.1250000E+03  0.7546771E-02  0.1235069E+00
         21   -1    0    0  502  501  0.00000000000E+00  0.00000000000E+00  0.11256323113E+03  0.11256323113E+03  0.00000000000E+00 0.  1.
         21   -1    0    0  501  502 -0.00000000000E+00 -0.00000000000E+00 -0.34702717404E+02  0.34702717404E+02  0.00000000000E+00 0.  1.
         25    1    1    2    0    0  0.00000000000E+00  0.00000000000E+00  0.77860513725E+02  0.14726594853E+03  0.12500000000E+03 0.  0.
<mgrwt>
<rscale>  2 0.12500000E+03</rscale>
<asrwt>0</asrwt>
<pdfrwt beam="1">  1       21 0.17317420E-01 0.12500000E+03</pdfrwt>
<pdfrwt beam="2">  1       21 0.53388796E-02 0.12500000E+03</pdfrwt>
<totfact> 0.71104361E+06</totfact>
</mgrwt>
</event>
<event>
 3    0  0.1391416E+001  0.1250000E+03  0.7546771E-02  0.1235069E+00
         21   -1    0    0  502  501  0.00000000000E+00  0.00000000000E+00  0.59700451752E+03  0.59700451752E+03  0.00000000000E+00 0. -1.
         21   -1    0    0  501  502 -0.00000000000E+00 -0.00000000000E+00 -0.65430828166E+01  0.65430828166E+01  0.00000000000E+00 0. -1.
         25    1    1    2    0    0  0.00000000000E+00  0.00000000000E+00  0.59046143470E+03  0.60354760034E+03  0.12500000000E+03 0.  0.
<mgrwt>
<rscale>  2 0.12500000E+03</rscale>
<asrwt>0</asrwt>
<pdfrwt beam="1">  1       21 0.91846806E-01 0.12500000E+03</pdfrwt>
<pdfrwt beam="2">  1       21 0.10066286E-02 0.12500000E+03</pdfrwt>
<totfact> 0.36932698E+06</totfact>
</mgrwt>
</event>
<event>
 3    0  0.1400111E+001  0.1250000E+03  0.7546771E-02  0.1235069E+00
         21   -1    0    0  502  501  0.00000000000E+00  0.00000000000E+00  0.60800533246E+01  0.60800533246E+01  0.00000000000E+00 0.  1.
         21   -1    0    0  501  502 -0.00000000000E+00 -0.00000000000E+00 -0.64246969418E+03  0.64246969418E+03  0.00000000000E+00 0.  1.
         25    1    1    2    0    0  0.00000000000E+00  0.00000000000E+00 -0.63638964085E+03  0.64854974750E+03  0.12500000000E+03 0.  0.
<mgrwt>
<rscale>  2 0.12500000E+03</rscale>
<asrwt>0</asrwt>
<pdfrwt beam="1">  1       21 0.93539221E-03 0.12500000E+03</pdfrwt>
<pdfrwt beam="2">  1       21 0.98841555E-01 0.12500000E+03</pdfrwt>
<totfact> 0.34984902E+06</totfact>
</mgrwt>
</event>
<event>
 3    0  0.1736208E+001  0.1250000E+03  0.7546771E-02  0.1235069E+00
         21   -1    0    0  502  501  0.00000000000E+00  0.00000000000E+00  0.51412064512E+02  0.51412064512E+02  0.00000000000E+00 0.  1.
         21   -1    0    0  501  502 -0.00000000000E+00 -0.00000000000E+00 -0.75979248004E+02  0.75979248004E+02  0.00000000000E+00 0.  1.
         25    1    1    2    0    0  0.00000000000E+00  0.00000000000E+00 -0.24567183492E+02  0.12739131252E+03  0.12500000000E+03 0.  0.
<mgrwt>
<rscale>  2 0.12500000E+03</rscale>
<asrwt>0</asrwt>
<pdfrwt beam="1">  1       21 0.79095484E-02 0.12500000E+03</pdfrwt>
<pdfrwt beam="2">  1       21 0.11689115E-01 0.12500000E+03</pdfrwt>
<totfact> 0.73715958E+06</totfact>
</mgrwt>
</event>
<event>
 3    0  0.1674012E+001  0.1250000E+03  0.7546771E-02  0.1235069E+00
         21   -1    0    0  502  501  0.00000000000E+00  0.00000000000E+00  0.13069535205E+03  0.13069535205E+03  0.00000000000E+00 0. -1.
         21   -1    0    0  501  502 -0.00000000000E+00 -0.00000000000E+00 -0.29888209020E+02  0.29888209020E+02  0.00000000000E+00 0. -1.
         25    1    1    2    0    0  0.00000000000E+00  0.00000000000E+00  0.10080714303E+03  0.16058356107E+03  0.12500000000E+03 0.  0.
<mgrwt>
<rscale>  2 0.12500000E+03</rscale>
<asrwt>0</asrwt>
<pdfrwt beam="1">  1       21 0.20106977E-01 0.12500000E+03</pdfrwt>
<pdfrwt beam="2">  1       21 0.45981861E-02 0.12500000E+03</pdfrwt>
<totfact> 0.69448261E+06</totfact>
</mgrwt>
</event>
<event>
 3    0  0.1497269E+001  0.1250000E+03  0.7546771E-02  0.1235069E+00
         21   -1    0    0  502  501  0.00000000000E+00  0.00000000000E+00  0.86879940810E+01  0.86879940810E+01  0.00000000000E+00 0. -1.
         21   -1    0    0  501  502 -0.00000000000E+00 -0.00000000000E+00 -0.44961471700E+03  0.44961471700E+03  0.00000000000E+00 0. -1.
         25    1    1    2    0    0  0.00000000000E+00  0.00000000000E+00 -0.44092672292E+03  0.45830271108E+03  0.12500000000E+03 0.  0.
<mgrwt>
<rscale>  2 0.12500000E+03</rscale>
<asrwt>0</asrwt>
<pdfrwt beam="1">  1       21 0.13366145E-02 0.12500000E+03</pdfrwt>
<pdfrwt beam="2">  1       21 0.69171495E-01 0.12500000E+03</pdfrwt>
<totfact> 0.44399585E+06</totfact>
</mgrwt>
</event>
<event>
 3    0  0.1676868E+001  0.1250000E+03  0.7546771E-02  0.1235069E+00
         21   -1    0    0  502  501  0.00000000000E+00  0.00000000000E+00  0.19870691136E+02  0.19870691136E+02  0.00000000000E+00 0.  1.
         21   -1    0    0  501  502 -0.00000000000E+00 -0.00000000000E+00 -0.19658349945E+03  0.19658349945E+03  0.00000000000E+00 0.  1.
         25    1    1    2    0    0  0.00000000000E+00  0.00000000000E+00 -0.17671280831E+03  0.21645419058E+03  0.12500000000E+03 0.  0.
<mgrwt>
<rscale>  2 0.12500000E+03</rscale>
<asrwt>0</asrwt>
<pdfrwt beam="1">  1       21 0.30570294E-02 0.12500000E+03</pdfrwt>
<pdfrwt beam="2">  1       21 0.30243615E-01 0.12500000E+03</pdfrwt>
<totfact> 0.63186813E+06</totfact>
</mgrwt>
</event>
<event>
 3    0  0.1677777E+001  0.1250000E+03  0.7546771E-02  0.1235069E+00
         21   -1    0    0  502  501  0.00000000000E+00  0.00000000000E+00  0.30316422261E+02  0.30316422261E+02  0.00000000000E+00 0. -1.
         21   -1    0    0  501  502 -0.00000000000E+00 -0.00000000000E+00 -0.12884930703E+03  0.12884930703E+03  0.00000000000E+00 0. -1.
         25    1    1    2    0    0  0.00000000000E+00  0.00000000000E+00 -0.98532884771E+02  0.15916572929E+03  0.12500000000E+03 0.  0.
<mgrwt>
<rscale>  2 0.12500000E+03</rscale>
<asrwt>0</asrwt>
<pdfrwt beam="1">  1       21 0.46640649E-02 0.12500000E+03</pdfrwt>
<pdfrwt beam="2">  1       21 0.19822971E-01 0.12500000E+03</pdfrwt>
<totfact> 0.69621578E+06</totfact>
</mgrwt>
</event>
<event>
 3    0  0.1595427E+001  0.1250000E+03  0.7546771E-02  0.1235069E+00
         21   -1    0    0  502  501  0.00000000000E+00  0.00000000000E+00  0.13167489266E+02  0.13167489266E+02  0.00000000000E+00 0.  1.
         21   -1    0    0  501  502 -0.00000000000E+00 -0.00000000000E+00 -0.29665868117E+03  0.29665868117E+03  0.00000000000E+00 0.  1.
         25    1    1    2    0    0  0.00000000000E+00  0.00000000000E+00 -0.28349119191E+03  0.30982617044E+03  0.12500000000E+03 0.  0.
<mgrwt>
<rscale>  2 0.12500000E+03</rscale>
<asrwt>0</asrwt>
<pdfrwt beam="1">  1       21 0.20257676E-02 0.12500000E+03</pdfrwt>
<pdfrwt beam="2">  1       21 0.45639796E-01 0.12500000E+03</pdfrwt>
<totfact> 0.54649340E+06</totfact>
</mgrwt>
</event>
<event>
 3    0  0.1709495E+001  0.1250000E+03  0.7546771E-02  0.1235069E+00
         21   -1    0    0  502  501  0.00000000000E+00  0.00000000000E+00  0.50181350810E+02  0.50181350810E+02  0.00000000000E+00 0. -1.
         21   -1    0    0  501  502 -0.00000000000E+00 -0.00000000000E+00 -0.77842663399E+02  0.77842663399E+02  0.00000000000E+00 0. -1.
         25    1    1    2    0    0  0.00000000000E+00  0.00000000000E+00 -0.27661312589E+02  0.12802401421E+03  0.12500000000E+03 0.  0.
<mgrwt>
<rscale>  2 0.12500000E+03</rscale>
<asrwt>0</asrwt>
<pdfrwt beam="1">  1       21 0.77202078E-02 0.12500000E+03</pdfrwt>
<pdfrwt beam="2">  1       21 0.11975794E-01 0.12500000E+03</pdfrwt>
<totfact> 0.73630315E+06</totfact>
</mgrwt>
</event>
<event>
 3    0  0.1729075E+001  0.1250000E+03  0.7546771E-02  0.1235069E+00
         21   -1    0    0  502  501  0.00000000000E+00  0.00000000000E+00  0.45149210098E+02  0.45149210098E+02  0.00000000000E+00 0.  1.
         21   -1    0    0  501  502 -0.00000000000E+00 -0.00000000000E+00 -0.86518678654E+02  0.86518678654E+02  0.00000000000E+00 0.  1.
         25    1    1    2    0    0  0.00000000000E+00  0.00000000000E+00 -0.41369468556E+02  0.13166788875E+03  0.12500000000E+03 0.  0.
<mgrwt>
<rscale>  2 0.12500000E+03</rscale>
<asrwt>0</asrwt>
<pdfrwt beam="1">  1       21 0.69460323E-02 0.12500000E+03</pdfrwt>
<pdfrwt beam="2">  1       21 0.13310566E-01 0.12500000E+03</pdfrwt>
<totfact> 0.73140809E+06</totfact>
</mgrwt>
</event>
<event>
 3    0  0.1713448E+001  0.1250000E+03  0.7546771E-02  0.1235069E+00
         21   -1    0    0  502  501  0.00000000000E+00  0.00000000000E+00  0.31545851754E+02  0.31545851754E+02  0.00000000000E+00 0.  1.
         21   -1    0    0  501  502 -0.00000000000E+00 -0.00000000000E+00 -0.12382769153E+03  0.12382769153E+03  0.00000000000E+00 0.  1.
         25    1    1    2    0    0  0.00000000000E+00  0.00000000000E+00 -0.92281839775E+02  0.15537354328E+03  0.12500000000E+03 0.  0.
<mgrwt>
<rscale>  2 0.12500000E+03</rscale>
<asrwt>0</asrwt>
<pdfrwt beam="1">  1       21 0.48532081E-02 0.12500000E+03</pdfrwt>
<pdfrwt beam="2">  1       21 0.19050414E-01 0.12500000E+03</pdfrwt>
<totfact> 0.70089262E+06</totfact>
</mgrwt>
</event>
<event>
 3    0  0.1705112E+001  0.1250000E+03  0.7546771E-02  0.1235069E+00
         21   -1    0    0  502  501  0.00000000000E+00  0.00000000000E+00  0.90709037297E+02  0.90709037297E+02  0.00000000000E+00 0. -1.
         21   -1    0    0  501  502 -0.00000000000E+00 -0.00000000000E+00 -0.43063515129E+02  0.43063515129E+02  0.00000000000E+00 0. -1.
         25    1    1    2    0    0  0.00000000000E+00  0.00000000000E+00  0.47645522167E+02  0.13377255243E+03  0.12500000000E+03 0.  0.
<mgrwt>
<rscale>  2 0.12500000E+03</rscale>
<asrwt>0</asrwt>
<pdfrwt beam="1">  1       21 0.13955236E-01 0.12500000E+03</pdfrwt>
<pdfrwt beam="2">  1       21 0.66251562E-02 0.12500000E+03</pdfrwt>
<totfact> 0.72859409E+06</totfact>
</mgrwt>
</event>
<event>
 3    0  0.1726594E+001  0.1250000E+03  0.7546771E-02  0.1235069E+00
         21   -1    0    0  502  501  0.00000000000E+00  0.00000000000E+00  0.88527355892E+02  0.88527355892E+02  0.00000000000E+00 0.  1.
         21   -1    0    0  501  502 -0.00000000000E+00 -0.00000000000E+00 -0.44124778840E+02  0.44124778840E+02  0.00000000000E+00 0.  1.
         25    1    1    2    0    0  0.00000000000E+00  0.00000000000E+00  0.44402577052E+02  0.13265213473E+03  0.12500000000E+03 0.  0.
<mgrwt>
<rscale>  2 0.12500000E+03</rscale>
<asrwt>0</asrwt>
<pdfrwt beam="1">  1       21 0.13619593E-01 0.12500000E+03</pdfrwt>
<pdfrwt beam="2">  1       21 0.67884275E-02 0.12500000E+03</pdfrwt>
<totfact> 0.73008886E+06</totfact>
</mgrwt>
</event>
<event>
 3    0  0.1535088E+001  0.1250000E+03  0.7546771E-02  0.1235069E+00
         21   -1    0    0  502  501  0.00000000000E+00  0.00000000000E+00  0.41443369530E+03  0.41443369530E+03  0.00000000000E+00 0.  1.
         21   -1    0    0  501  502 -0.00000000000E+00 -0.00000000000E+00 -0.94255125593E+01  0.94255125593E+01  0.00000000000E+00 0.  1.
         25    1    1    2    0    0  0.00000000000E+00  0.00000000000E+00  0.40500818274E+03  0.42385920785E+03  0.12500000000E+03 0.  0.
<mgrwt>
<rscale>  2 0.12500000E+03</rscale>
<asrwt>0</asrwt>
<pdfrwt beam="1">  1       21 0.63759016E-01 0.12500000E+03</pdfrwt>
<pdfrwt beam="2">  1       21 0.14500792E-02 0.12500000E+03</pdfrwt>
<totfact> 0.46498044E+06</totfact>
</mgrwt>
</event>
<event>
 3    0  0.1368989E+001  0.1250000E+03  0.7546771E-02  0.1235069E+00
         21   -1    0    0  502  501  0.00000000000E+00  0.00000000000E+00  0.23054688646E+04  0.23054688646E+04  0.00000000000E+00 0.  1.
         21   -1    0    0  501  502 -0.00000000000E+00 -0.00000000000E+00 -0.16943408172E+01  0.16943408172E+01  0.00000000000E+00 0.  1.
         25    1    1    2    0    0  0.00000000000E+00  0.00000000000E+00  0.23037745238E+04  0.23071632054E+04  0.12500000000E+03 0.  0.
<mgrwt>
<rscale>  2 0.12500000E+03</rscale>
<asrwt>0</asrwt>
<pdfrwt beam="1">  1       21 0.35468501E+00 0.12500000E+03</pdfrwt>
<pdfrwt beam="2">  1       21 0.26066966E-03 0.12500000E+03</pdfrwt>
<totfact> 0.53219934E+05</totfact>
</mgrwt>
</event>
<event>
 3    0  0.1632448E+001  0.1250000E+03  0.7546771E-02  0.1235069E+00
         21   -1    0    0  502  501  0.00000000000E+00  0.00000000000E+00  0.18253401161E+02  0.18253401161E+02  0.00000000000E+00 0. -1.
         21   -1    0    0  501  502 -0.00000000000E+00 -0.00000000000E+00 -0.21400121356E+03  0.21400121356E+03  0.00000000000E+00 0. -1.
         25    1    1    2    0    0  0.00000000000E+00  0.00000000000E+00 -0.19574781240E+03  0.23225461472E+03  0.12500000000E+03 0.  0.
<mgrwt>
<rscale>  2 0.12500000E+03</rscale>
<asrwt>0</asrwt>
<pdfrwt beam="1">  1       21 0.28082156E-02 0.12500000E+03</pdfrwt>
<pdfrwt beam="2">  1       21 0.32923264E-01 0.12500000E+03</pdfrwt>
<totfact> 0.61590319E+06</totfact>
</mgrwt>
</event>
<event>
 3    0  0.1602185E+001  0.1250000E+03  0.7546771E-02  0.1235069E+00
         21   -1    0    0  502  501  0.00000000000E+00  0.00000000000E+00  0.16614204295E+02  0.16614204295E+02  0.00000000000E+00 0. -1.
         21   -1    0    0  501  502 -0.00000000000E+00 -0.00000000000E+00 -0.23511508169E+03  0.23511508169E+03  0.00000000000E+00 0. -1.
         25    1    1    2    0    0  0.00000000000E+00  0.00000000000E+00 -0.21850087740E+03  0.25172928599E+03  0.12500000000E+03 0.  0.
<mgrwt>
<rscale>  2 0.12500000E+03</rscale>
<asrwt>0</asrwt>
<pdfrwt beam="1">  1       21 0.25560316E-02 0.12500000E+03</pdfrwt>
<pdfrwt beam="2">  1       21 0.36171548E-01 0.12500000E+03</pdfrwt>
<totfact> 0.59715762E+06</totfact>
</mgrwt>
</event>
<event>
 3    0  0.1368989E+001  0.1250000E+03  0.7546771E-02  0.1235069E+00
         21   -1    0    0  502  501  0.00000000000E+00  0.00000000000E+00  0.55353150520E+01  0.55353150520E+01  0.00000000000E+00 0. -1.
         21   -1    0    0  501  502 -0.00000000000E+00 -0.00000000000E+00 -0.70569605584E+03  0.70569605584E+03  0.00000000000E+00 0. -1.
         25    1    1    2    0    0  0.00000000000E+00  0.00000000000E+00 -0.70016074079E+03  0.71123137089E+03  0.12500000000E+03 0.  0.
<mgrwt>
<rscale>  2 0.12500000E+03</rscale>
<asrwt>0</asrwt>
<pdfrwt beam="1">  1       21 0.85158696E-03 0.12500000E+03</pdfrwt>
<pdfrwt beam="2">  1       21 0.10856862E+00 0.12500000E+03</pdfrwt>
<totfact> 0.32481609E+06</totfact>
</mgrwt>
</event>
<event>
 3    0  0.1736363E+001  0.1250000E+03  0.7546771E-02  0.1235069E+00
         21   -1    0    0  502  501  0.00000000000E+00  0.00000000000E+00  0.67814559689E+02  0.67814559689E+02  0.00000000000E+00 0.  1.
         21   -1    0    0  501  502 -0.00000000000E+00 -0.00000000000E+00 -0.57601937076E+02  0.57601937076E+02  0.00000000000E+00 0.  1.
         25    1    1    2    0    0  0.00000000000E+00  0.00000000000E+00  0.10212622613E+02  0.12541649676E+03  0.12500000000E+03 0.  0.
<mgrwt>
<rscale>  2 0.12500000E+03</rscale>
<asrwt>0</asrwt>
<pdfrwt beam="1">  1       21 0.10433009E-01 0.12500000E+03</pdfrwt>
<pdfrwt beam="2">  1       21 0.88618364E-02 0.12500000E+03</pdfrwt>
<totfact> 0.73987095E+06</totfact>
</mgrwt>
</event>
<event>
 3    0  0.1485559E+001  0.1250000E+03  0.7546771E-02  0.1235069E+00
         21   -1    0    0  502  501  0.00000000000E+00  0.00000000000E+00  0.82105044690E+01  0.82105044690E+01  0.00000000000E+00 0. -1.
         21   -1    0    0  501  502 -0.00000000000E+00 -0.00000000000E+00 -0.47576248387E+03  0.47576248387E+03  0.00000000000E+00 0. -1.
         25    1    1    2    0    0  0.00000000000E+00  0.00000000000E+00 -0.46755197940E+03  0.48397298834E+03  0.12500000000E+03 0.  0.
<mgrwt>
<rscale>  2 0.12500000E+03</rscale>
<asrwt>0</asrwt>
<pdfrwt beam="1">  1       21 0.12631544E-02 0.12500000E+03</pdfrwt>
<pdfrwt beam="2">  1       21 0.73194234E-01 0.12500000E+03</pdfrwt>
<totfact> 0.42926802E+06</totfact>
</mgrwt>
</event>
<event>
 3    0  0.1479308E+001  0.1250000E+03  0.7546771E-02  0.1235069E+00
         21   -1    0    0  502  501  0.00000000000E+00  0.00000000000E+00  0.49207738456E+03  0.49207738456E+03  0.00000000000E+00 0.  1.
         21   -1    0    0  501  502 -0.00000000000E+00 -0.00000000000E+00 -0.79382839419E+01  0.79382839419E+01  0.00000000000E+00 0.  1.
         25    1    1    2    0    0  0.00000000000E+00  0.00000000000E+00  0.48413910062E+03  0.50001566850E+03  0.12500000000E+03 0.  0.
<mgrwt>
<rscale>  2 0.12500000E+03</rscale>
<asrwt>0</asrwt>
<pdfrwt beam="1">  1       21 0.75704189E-01 0.12500000E+03</pdfrwt>
<pdfrwt beam="2">  1       21 0.12212748E-02 0.12500000E+03</pdfrwt>
<totfact> 0.42043229E+06</totfact>
</mgrwt>
</event>
<event>
 3    0  0.1368989E+001  0.1250000E+03  0.7546771E-02  0.1235069E+00
         21   -1    0    0  502  501  0.00000000000E+00  0.00000000000E+00  0.17193738736E+04  0.17193738736E+04  0.00000000000E+00 0.  1.
         21   -1    0    0  501  502 -0.00000000000E+00 -0.00000000000E+00 -0.22719026152E+01  0.22719026152E+01  0.00000000000E+00 0.  1.
         25    1    1    2    0    0  0.00000000000E+00  0.00000000000E+00  0.17171019710E+04  0.17216457762E+04  0.12500000000E+03 0.  0.
<mgrwt>
<rscale>  2 0.12500000E+03</rscale>
<asrwt>0</asrwt>
<pdfrwt beam="1">  1       21 0.26451802E+00 0.12500000E+03</pdfrwt>
<pdfrwt beam="2">  1       21 0.34952485E-03 0.12500000E+03</pdfrwt>
<totfact> 0.11001867E+06</totfact>
</mgrwt>
</event>
<event>
 3    0  0.1368989E+001  0.1250000E+03  0.7546771E-02  0.1235069E+00
         21   -1    0    0  502  501  0.00000000000E+00  0.00000000000E+00  0.86515014507E+03  0.86515014507E+03  0.00000000000E+00 0. -1.
         21   -1    0    0  501  502 -0.00000000000E+00 -0.00000000000E+00 -0.45151122291E+01  0.45151122291E+01  0.00000000000E+00 0. -1.
         25    1    1    2    0    0  0.00000000000E+00  0.00000000000E+00  0.86063503284E+03  0.86966525730E+03  0.12500000000E+03 0.  0.
<mgrwt>
<rscale>  2 0.12500000E+03</rscale>
<asrwt>0</asrwt>
<pdfrwt beam="1">  1       21 0.13309989E+00 0.12500000E+03</pdfrwt>
<pdfrwt beam="2">  1       21 0.69463334E-03 0.12500000E+03</pdfrwt>
<totfact> 0.27180264E+06</totfact>
</mgrwt>
</event>
<event>
 3    0  0.1694420E+001  0.1250000E+03  0.7546771E-02  0.1235069E+00
         21   -1    0    0  502  501  0.00000000000E+00  0.00000000000E+00  0.10394794184E+03  0.10394794184E+03  0.00000000000E+00 0. -1.
         21   -1    0    0  501  502 -0.00000000000E+00 -0.00000000000E+00 -0.37578906623E+02  0.37578906623E+02  0.00000000000E+00 0. -1.
         25    1    1    2    0    0  0.00000000000E+00  0.00000000000E+00  0.66369035216E+02  0.14152684846E+03  0.12500000000E+03 0.  0.
<mgrwt>
<rscale>  2 0.12500000E+03</rscale>
<asrwt>0</asrwt>
<pdfrwt beam="1">  1       21 0.15991991E-01 0.12500000E+03</pdfrwt>
<pdfrwt beam="2">  1       21 0.57813703E-02 0.12500000E+03</pdfrwt>
<totfact> 0.71840603E+06</totfact>
</mgrwt>
</event>
<event>
 3    0  0.1735527E+001  0.1250000E+03  0.7546771E-02  0.1235069E+00
         21   -1    0    0  502  501  0.00000000000E+00  0.00000000000E+00  0.50977391348E+02  0.50977391348E+02  0.00000000000E+00 0.  1.
         21   -1    0    0  501  502 -0.00000000000E+00 -0.00000000000E+00 -0.76627106580E+02  0.76627106580E+02  0.00000000000E+00 0.  1.
         25    1    1    2    0    0  0.00000000000E+00  0.00000000000E+00 -0.25649715231E+02  0.12760449793E+03  0.12500000000E+03 0.  0.
<mgrwt>
<rscale>  2 0.12500000E+03</rscale>
<asrwt>0</asrwt>
<pdfrwt beam="1">  1       21 0.78426756E-02 0.12500000E+03</pdfrwt>
<pdfrwt beam="2">  1       21 0.11788786E-01 0.12500000E+03</pdfrwt>
<totfact> 0.73687058E+06</totfact>
</mgrwt>
</event>
<event>
 3    0  0.1685509E+001  0.1250000E+03  0.7546771E-02  0.1235069E+00
         21   -1    0    0  502  501  0.00000000000E+00  0.00000000000E+00  0.17553170527E+03  0.17553170527E+03  0.00000000000E+00 0.  1.
         21   -1    0    0  501  502 -0.00000000000E+00 -0.00000000000E+00 -0.22253814454E+02  0.22253814454E+02  0.00000000000E+00 0.  1.
         25    1    1    2    0    0  0.00000000000E+00  0.00000000000E+00  0.15327789082E+03  0.19778551973E+03  0.12500000000E+03 0.  0.
<mgrwt>
<rscale>  2 0.12500000E+03</rscale>
<asrwt>0</asrwt>
<pdfrwt beam="1">  1       21 0.27004877E-01 0.12500000E+03</pdfrwt>
<pdfrwt beam="2">  1       21 0.34236639E-02 0.12500000E+03</pdfrwt>
<totfact> 0.65167438E+06</totfact>
</mgrwt>
</event>
<event>
 3    0  0.1368989E+001  0.1250000E+03  0.7546771E-02  0.1235069E+00
         21   -1    0    0  502  501  0.00000000000E+00  0.00000000000E+00  0.26350728286E+01  0.26350728286E+01  0.00000000000E+00 0.  1.
         21   -1    0    0  501  502 -0.00000000000E+00 -0.00000000000E+00 -0.14824068457E+04  0.14824068457E+04  0.00000000000E+00 0.  1.
         25    1    1    2    0    0  0.00000000000E+00  0.00000000000E+00 -0.14797717729E+04  0.14850419185E+04  0.12500000000E+03 0.  0.
<mgrwt>
<rscale>  2 0.12500000E+03</rscale>
<asrwt>0</asrwt>
<pdfrwt beam="1">  1       21 0.40539517E-03 0.12500000E+03</pdfrwt>
<pdfrwt beam="2">  1       21 0.22806296E+00 0.12500000E+03</pdfrwt>
<totfact> 0.14216440E+06</totfact>
</mgrwt>
</event>
<event>
 3    0  0.1702574E+001  0.1250000E+03  0.7546771E-02  0.1235069E+00
         21   -1    0    0  502  501  0.00000000000E+00  0.00000000000E+00  0.27124276292E+02  0.27124276292E+02  0.00000000000E+00 0.  1.
         21   -1    0    0  501  502 -0.00000000000E+00 -0.00000000000E+00 -0.14401305893E+03  0.14401305893E+03  0.00000000000E+00 0.  1.
         25    1    1    2    0    0  0.00000000000E+00  0.00000000000E+00 -0.11688878264E+03  0.17113733522E+03  0.12500000000E+03 0.  0.
<mgrwt>
<rscale>  2 0.12500000E+03</rscale>
<asrwt>0</asrwt>
<pdfrwt beam="1">  1       21 0.41729657E-02 0.12500000E+03</pdfrwt>
<pdfrwt beam="2">  1       21 0.22155855E-01 0.12500000E+03</pdfrwt>
<totfact> 0.68183066E+06</totfact>
</mgrwt>
</event>
<event>
 3    0  0.1573977E+001  0.1250000E+03  0.7546771E-02  0.1235069E+00
         21   -1    0    0  502  501  0.00000000000E+00  0.00000000000E+00  0.13192793922E+02  0.13192793922E+02  0.00000000000E+00 0. -1.
         21   -1    0    0  501  502 -0.00000000000E+00 -0.00000000000E+00 -0.29608967009E+03  0.29608967009E+03  0.00000000000E+00 0. -1.
         25    1    1    2    0    0  0.00000000000E+00  0.00000000000E+00 -0.28289687617E+03  0.30928246401E+03  0.12500000000E+03 0.  0.
<mgrwt>
<rscale>  2 0.12500000E+03</rscale>
<asrwt>0</asrwt>
<pdfrwt beam="1">  1       21 0.20296607E-02 0.12500000E+03</pdfrwt>
<pdfrwt beam="2">  1       21 0.45552256E-01 0.12500000E+03</pdfrwt>
<totfact> 0.54693480E+06</totfact>
</mgrwt>
</event>
<event>
 3    0  0.1557417E+001  0.1250000E+03  0.7546771E-02  0.1235069E+00
         21   -1    0    0  502  501  0.00000000000E+00  0.00000000000E+00  0.10645333831E+02  0.10645333831E+02  0.00000000000E+00 0.  1.
         21   -1    0    0  501  502 -0.00000000000E+00 -0.00000000000E+00 -0.36694481001E+03  0.36694481001E+03  0.00000000000E+00 0.  1.
         25    1    1    2    0    0  0.00000000000E+00  0.00000000000E+00 -0.35629947618E+03  0.37759014384E+03  0.12500000000E+03 0.  0.
<mgrwt>
<rscale>  2 0.12500000E+03</rscale>
<asrwt>0</asrwt>
<pdfrwt beam="1">  1       21 0.16377440E-02 0.12500000E+03</pdfrwt>
<pdfrwt beam="2">  1       21 0.56453035E-01 0.12500000E+03</pdfrwt>
<totfact> 0.49563172E+06</totfact>
</mgrwt>
</event>
<event>
 3    0  0.1495256E+001  0.1250000E+03  0.7546771E-02  0.1235069E+00
         21   -1    0    0  502  501  0.00000000000E+00  0.00000000000E+00  0.86680372920E+01  0.86680372920E+01  0.00000000000E+00 0. -1.
         21   -1    0    0  501  502 -0.00000000000E+00 -0.00000000000E+00 -0.45064988398E+03  0.45064988398E+03  0.00000000000E+00 0. -1.
         25    1    1    2    0    0  0.00000000000E+00  0.00000000000E+00 -0.44198184669E+03  0.45931792127E+03  0.12500000000E+03 0.  0.
<mgrwt>
<rscale>  2 0.12500000E+03</rscale>
<asrwt>0</asrwt>
<pdfrwt beam="1">  1       21 0.13335439E-02 0.12500000E+03</pdfrwt>
<pdfrwt beam="2">  1       21 0.69330767E-01 0.12500000E+03</pdfrwt>
<totfact> 0.44339899E+06</totfact>
</mgrwt>
</event>
<event>
 3    0  0.1560246E+001  0.1250000E+03  0.7546771E-02  0.1235069E+00
         21   -1    0    0  502  501  0.00000000000E+00  0.00000000000E+00  0.12922966796E+02  0.12922966796E+02  0.00000000000E+00 0. -1.
         21   -1    0    0  501  502 -0.00000000000E+00 -0.00000000000E+00 -0.30227192113E+03  0.30227192113E+03  0.00000000000E+00 0. -1.
         25    1    1    2    0    0  0.00000000000E+00  0.00000000000E+00 -0.28934895433E+03  0.31519488792E+03  0.12500000000E+03 0.  0.
<mgrwt>
<rscale>  2 0.12500000E+03</rscale>
<asrwt>0</asrwt>
<pdfrwt beam="1">  1       21 0.19881490E-02 0.12500000E+03</pdfrwt>
<pdfrwt beam="2">  1       21 0.46503366E-01 0.12500000E+03</pdfrwt>
<totfact> 0.54216337E+06</totfact>
</mgrwt>
</event>
<event>
 3    0  0.1676919E+001  0.1250000E+03  0.7546771E-02  0.1235069E+00
         21   -1    0    0  502  501  0.00000000000E+00  0.00000000000E+00  0.17322683988E+03  0.17322683988E+03  0.00000000000E+00 0.  1.
         21   -1    0    0  501  502 -0.00000000000E+00 -0.00000000000E+00 -0.22549912027E+02  0.22549912027E+02  0.00000000000E+00 0.  1.
         25    1    1    2    0    0  0.00000000000E+00  0.00000000000E+00  0.15067692785E+03  0.19577675190E+03  0.12500000000E+03 0.  0.
<mgrwt>
<rscale>  2 0.12500000E+03</rscale>
<asrwt>0</asrwt>
<pdfrwt beam="1">  1       21 0.26650282E-01 0.12500000E+03</pdfrwt>
<pdfrwt beam="2">  1       21 0.34692173E-02 0.12500000E+03</pdfrwt>
<totfact> 0.65386110E+06</totfact>
</mgrwt>
</event>
<event>
 3    0  0.1368989E+001  0.1250000E+03  0.7546771E-02  0.1235069E+00
         21   -1    0    0  502  501  0.00000000000E+00  0.00000000000E+00  0.11902809008E+04  0.11902809008E+04  0.00000000000E+00 0.  1.
         21   -1    0    0  501  502 -0.00000000000E+00 -0.00000000000E+00 -0.32817883556E+01  0.32817883556E+01  0.00000000000E+00 0.  1.
         25    1    1    2    0    0  0.00000000000E+00  0.00000000000E+00  0.11869991124E+04  0.11935626891E+04  0.12500000000E+03 0.  0.
<mgrwt>
<rscale>  2 0.12500000E+03</rscale>
<asrwt>0</asrwt>
<pdfrwt beam="1">  1       21 0.18311979E+00 0.12500000E+03</pdfrwt>
<pdfrwt beam="2">  1       21 0.50489147E-03 0.12500000E+03</pdfrwt>
<totfact> 0.19272168E+06</totfact>
</mgrwt>
</event>
<event>
 3    0  0.1615142E+001  0.1250000E+03  0.7546771E-02  0.1235069E+00
         21   -1    0    0  502  501  0.00000000000E+00  0.00000000000E+00  0.17654118514E+02  0.17654118514E+02  0.00000000000E+00 0. -1.
         21   -1    0    0  501  502 -0.00000000000E+00 -0.00000000000E+00 -0.22126564953E+03  0.22126564953E+03  0.00000000000E+00 0. -1.
         25    1    1    2    0    0  0.00000000000E+00  0.00000000000E+00 -0.20361153102E+03  0.23891976805E+03  0.12500000000E+03 0.  0.
<mgrwt>
<rscale>  2 0.12500000E+03</rscale>
<asrwt>0</asrwt>
<pdfrwt beam="1">  1       21 0.27160183E-02 0.12500000E+03</pdfrwt>
<pdfrwt beam="2">  1       21 0.34040868E-01 0.12500000E+03</pdfrwt>
<totfact> 0.60937352E+06</totfact>
</mgrwt>
</event>
<event>
 3    0  0.1735670E+001  0.1250000E+03  0.7546771E-02  0.1235069E+00
         21   -1    0    0  502  501  0.00000000000E+00  0.00000000000E+00  0.69086473619E+02  0.69086473619E+02  0.00000000000E+00 0.  1.
         21   -1    0    0  501  502 -0.00000000000E+00 -0.00000000000E+00 -0.56541458775E+02  0.56541458775E+02  0.00000000000E+00 0.  1.
         25    1    1    2    0    0  0.00000000000E+00  0.00000000000E+00  0.12545014844E+02  0.12562793239E+03  0.12500000000E+03 0.  0.
<mgrwt>
<rscale>  2 0.12500000E+03</rscale>
<asrwt>0</asrwt>
<pdfrwt beam="1">  1       21 0.10628688E-01 0.12500000E+03</pdfrwt>
<pdfrwt beam="2">  1       21 0.86986860E-02 0.12500000E+03</pdfrwt>
<totfact> 0.73957554E+06</totfact>
</mgrwt>
</event>
<event>
 3    0  0.1504634E+001  0.1250000E+03  0.7546771E-02  0.1235069E+00
         21   -1    0    0  502  501  0.00000000000E+00  0.00000000000E+00  0.81892064131E+01  0.81892064131E+01  0.00000000000E+00 0.  1.
         21   -1    0    0  501  502 -0.00000000000E+00 -0.00000000000E+00 -0.47699982183E+03  0.47699982183E+03  0.00000000000E+00 0.  1.
         25    1    1    2    0    0  0.00000000000E+00  0.00000000000E+00 -0.46881061542E+03  0.48518902824E+03  0.12500000000E+03 0.  0.
<mgrwt>
<rscale>  2 0.12500000E+03</rscale>
<asrwt>0</asrwt>
<pdfrwt beam="1">  1       21 0.12598777E-02 0.12500000E+03</pdfrwt>
<pdfrwt beam="2">  1       21 0.73384601E-01 0.12500000E+03</pdfrwt>
<totfact> 0.42858858E+06</totfact>
</mgrwt>
</event>
<event>
 3    0  0.1521520E+001  0.1250000E+03  0.7546771E-02  0.1235069E+00
         21   -1    0    0  502  501  0.00000000000E+00  0.00000000000E+00  0.38981218960E+03  0.38981218960E+03  0.00000000000E+00 0. -1.
         21   -1    0    0  501  502 -0.00000000000E+00 -0.00000000000E+00 -0.10020851334E+02  0.10020851334E+02  0.00000000000E+00 0. -1.
         25    1    1    2    0    0  0.00000000000E+00  0.00000000000E+00  0.37979133827E+03  0.39983304093E+03  0.12500000000E+03 0.  0.
<mgrwt>
<rscale>  2 0.12500000E+03</rscale>
<asrwt>0</asrwt>
<pdfrwt beam="1">  1       21 0.59971094E-01 0.12500000E+03</pdfrwt>
<pdfrwt beam="2">  1       21 0.15416697E-02 0.12500000E+03</pdfrwt>
<totfact> 0.48052432E+06</totfact>
</mgrwt>
</event>
<event>
 3    0  0.1642509E+001  0.1250000E+03  0.7546771E-02  0.1235069E+00
         21   -1    0    0  502  501  0.00000000000E+00  0.00000000000E+00  0.20453560571E+02  0.20453560571E+02  0.00000000000E+00 0. -1.
         21   -1    0    0  501  502 -0.00000000000E+00 -0.00000000000E+00 -0.19098141795E+03  0.19098141795E+03  0.00000000000E+00 0. -1.
         25    1    1    2    0    0  0.00000000000E+00  0.00000000000E+00 -0.17052785738E+03  0.21143497852E+03  0.12500000000E+03 0.  0.
<mgrwt>
<rscale>  2 0.12500000E+03</rscale>
<asrwt>0</asrwt>
<pdfrwt beam="1">  1       21 0.31467017E-02 0.12500000E+03</pdfrwt>
<pdfrwt beam="2">  1       21 0.29381756E-01 0.12500000E+03</pdfrwt>
<totfact> 0.63708875E+06</totfact>
</mgrwt>
</event>
<event>
 3    0  0.1368989E+001  0.1250000E+03  0.7546771E-02  0.1235069E+00
         21   -1    0    0  502  501  0.00000000000E+00  0.00000000000E+00  0.10836294744E+04  0.10836294744E+04  0.00000000000E+00 0. -1.
         21   -1    0    0  501  502 -0.00000000000E+00 -0.00000000000E+00 -0.36047838236E+01  0.36047838236E+01  0.00000000000E+00 0. -1.
         25    1    1    2    0    0  0.00000000000E+00  0.00000000000E+00  0.10800246905E+04  0.10872342582E+04  0.12500000000E+03 0.  0.
<mgrwt>
<rscale>  2 0.12500000E+03</rscale>
<asrwt>0</asrwt>
<pdfrwt beam="1">  1       21 0.16671197E+00 0.12500000E+03</pdfrwt>
<pdfrwt beam="2">  1       21 0.55458299E-03 0.12500000E+03</pdfrwt>
<totfact> 0.21537605E+06</totfact>
</mgrwt>
</event>
<event>
 3    0  0.1496585E+001  0.1250000E+03  0.7546771E-02  0.1235069E+00
         21   -1    0    0  502  501  0.00000000000E+00  0.00000000000E+00  0.81177839619E+01  0.81177839619E+01  0.00000000000E+00 0.  1.
         21   -1    0    0  501  502 -0.00000000000E+00 -0.00000000000E+00 -0.48119659483E+03  0.48119659483E+03  0.00000000000E+00 0.  1.
         25    1    1    2    0    0  0.00000000000E+00  0.00000000000E+00 -0.47307881086E+03  0.48931437879E+03  0.12500000000E+03 0.  0.
<mgrwt>
<rscale>  2 0.12500000E+03</rscale>
<asrwt>0</asrwt>
<pdfrwt beam="1">  1       21 0.12488898E-02 0.12500000E+03</pdfrwt>
<pdfrwt beam="2">  1       21 0.74030246E-01 0.12500000E+03</pdfrwt>
<totfact> 0.42629568E+06</totfact>
</mgrwt>
</event>
<event>
 3    0  0.1647735E+001  0.1250000E+03  0.7546771E-02  0.1235069E+00
         21   -1    0    0  502  501  0.00000000000E+00  0.00000000000E+00  0.18122473942E+03  0.18122473942E+03  0.00000000000E+00 0. -1.
         21   -1    0    0  501  502 -0.00000000000E+00 -0.00000000000E+00 -0.21554728193E+02  0.21554728193E+02  0.00000000000E+00 0. -1.
         25    1    1    2    0    0  0.00000000000E+00  0.00000000000E+00  0.15967001123E+03  0.20277946761E+03  0.12500000000E+03 0.  0.
<mgrwt>
<rscale>  2 0.12500000E+03</rscale>
<asrwt>0</asrwt>
<pdfrwt beam="1">  1       21 0.27880728E-01 0.12500000E+03</pdfrwt>
<pdfrwt beam="2">  1       21 0.33161122E-02 0.12500000E+03</pdfrwt>
<totfact> 0.64627318E+06</totfact>
</mgrwt>
</event>
<event>
 3    0  0.1731525E+001  0.1250000E+03  0.7546771E-02  0.1235069E+00
         21   -1    0    0  502  501  0.00000000000E+00  0.00000000000E+00  0.85309100259E+02  0.85309100259E+02  0.00000000000E+00 0.  1.
         21   -1    0    0  501  502 -0.00000000000E+00 -0.00000000000E+00 -0.45789370514E+02  0.45789370514E+02  0.00000000000E+00 0.  1.
         25    1    1    2    0    0  0.00000000000E+00  0.00000000000E+00  0.39519729745E+02  0.13109847077E+03  0.12500000000E+03 0.  0.
<mgrwt>
<rscale>  2 0.12500000E+03</rscale>
<asrwt>0</asrwt>
<pdfrwt beam="1">  1       21 0.13124477E-01 0.12500000E+03</pdfrwt>
<pdfrwt beam="2">  1       21 0.70445186E-02 0.12500000E+03</pdfrwt>
<totfact> 0.73217404E+06</totfact>
</mgrwt>
</event>
<event>
 3    0  0.1368989E+001  0.1250000E+03  0.7546771E-02  0.1235069E+00
         21   -1    0    0  502  501  0.00000000000E+00  0.00000000000E+00  0.17857209916E+04  0.17857209916E+04  0.00000000000E+00 0. -1.
         21   -1    0    0  501  502 -0.00000000000E+00 -0.00000000000E+00 -0.21874917853E+01  0.21874917853E+01  0.00000000000E+00 0. -1.
         25    1    1    2    0    0  0.00000000000E+00  0.00000000000E+00  0.17835334998E+04  0.17879084834E+04  0.12500000000E+03 0.  0.
<mgrwt>
<rscale>  2 0.12500000E+03</rscale>
<asrwt>0</asrwt>
<pdfrwt beam="1">  1       21 0.27472514E+00 0.12500000E+03</pdfrwt>
<pdfrwt beam="2">  1       21 0.33653863E-03 0.12500000E+03</pdfrwt>
<totfact> 0.10209843E+06</totfact>
</mgrwt>
</event>
<event>
 3    0  0.1731663E+001  0.1250000E+03  0.7546771E-02  0.1235069E+00
         21   -1    0    0  502  501  0.00000000000E+00  0.00000000000E+00  0.43844004243E+02  0.43844004243E+02  0.00000000000E+00 0.  1.
         21   -1    0    0  501  502 -0.00000000000E+00 -0.00000000000E+00 -0.89094280220E+02  0.89094280220E+02  0.00000000000E+00 0.  1.
         25    1    1    2    0    0  0.00000000000E+00  0.00000000000E+00 -0.45250275977E+02  0.13293828446E+03  0.12500000000E+03 0.  0.
<mgrwt>
<rscale>  2 0.12500000E+03</rscale>
<asrwt>0</asrwt>
<pdfrwt beam="1">  1       21 0.67452314E-02 0.12500000E+03</pdfrwt>
<pdfrwt beam="2">  1       21 0.13706812E-01 0.12500000E+03</pdfrwt>
<totfact> 0.72970640E+06</totfact>
</mgrwt>
</event>
<event>
 3    0  0.1704025E+001  0.1250000E+03  0.7546771E-02  0.1235069E+00
         21   -1    0    0  502  501  0.00000000000E+00  0.00000000000E+00  0.91369123849E+02  0.91369123849E+02  0.00000000000E+00 0. -1.
         21   -1    0    0  501  502 -0.00000000000E+00 -0.00000000000E+00 -0.42752407328E+02  0.42752407328E+02  0.00000000000E+00 0. -1.
         25    1    1    2    0    0  0.00000000000E+00  0.00000000000E+00  0.48616716521E+02  0.13412153118E+03  0.12500000000E+03 0.  0.
<mgrwt>
<rscale>  2 0.12500000E+03</rscale>
<asrwt>0</asrwt>
<pdfrwt beam="1">  1       21 0.14056788E-01 0.12500000E+03</pdfrwt>
<pdfrwt beam="2">  1       21 0.65772934E-02 0.12500000E+03</pdfrwt>
<totfact> 0.72812999E+06</totfact>
</mgrwt>
</event>
<event>
 3    0  0.1651742E+001  0.1250000E+03  0.7546771E-02  0.1235069E+00
         21   -1    0    0  502  501  0.00000000000E+00  0.00000000000E+00  0.16370129607E+03  0.16370129607E+03  0.00000000000E+00 0. -1.
         21   -1    0    0  501  502 -0.00000000000E+00 -0.00000000000E+00 -0.23862059090E+02  0.23862059090E+02  0.00000000000E+00 0. -1.
         25    1    1    2    0    0  0.00000000000E+00  0.00000000000E+00  0.13983923698E+03  0.18756335516E+03  0.12500000000E+03 0.  0.
<mgrwt>
<rscale>  2 0.12500000E+03</rscale>
<asrwt>0</asrwt>
<pdfrwt beam="1">  1       21 0.25184814E-01 0.12500000E+03</pdfrwt>
<pdfrwt beam="2">  1       21 0.36710861E-02 0.12500000E+03</pdfrwt>
<totfact> 0.66294304E+06</totfact>
</mgrwt>
</event>
<event>
 3    0  0.1368989E+001  0.1250000E+03  0.7546771E-02  0.1235069E+00
         21   -1    0    0  502  501  0.00000000000E+00  0.00000000000E+00  0.16444404364E+04  0.16444404364E+04  0.00000000000E+00 0.  1.
         21   -1    0    0  501  502 -0.00000000000E+00 -0.00000000000E+00 -0.23754280870E+01  0.23754280870E+01  0.00000000000E+00 0.  1.
         25    1    1    2    0    0  0.00000000000E+00  0.00000000000E+00  0.16420650083E+04  0.16468158645E+04  0.12500000000E+03 0.  0.
<mgrwt>
<rscale>  2 0.12500000E+03</rscale>
<asrwt>0</asrwt>
<pdfrwt beam="1">  1       21 0.25298993E+00 0.12500000E+03</pdfrwt>
<pdfrwt beam="2">  1       21 0.36545179E-03 0.12500000E+03</pdfrwt>
<totfact> 0.11949533E+06</totfact>
</mgrwt>
</event>
<event>
 3    0  0.1381803E+001  0.1250000E+03  0.7546771E-02  0.1235069E+00
         21   -1    0    0  502  501  0.00000000000E+00  0.00000000000E+00  0.59765139863E+01  0.59765139863E+01  0.00000000000E+00 0.  1.
         21   -1    0    0  501  502 -0.00000000000E+00 -0.00000000000E+00 -0.65360007673E+03  0.65360007673E+03  0.00000000000E+00 0.  1.
         25    1    1    2    0    0  0.00000000000E+00  0.00000000000E+00 -0.64762356274E+03  0.65957659072E+03  0.12500000000E+03 0.  0.
<mgrwt>
<rscale>  2 0.12500000E+03</rscale>
<asrwt>0</asrwt>
<pdfrwt beam="1">  1       21 0.91946370E-03 0.12500000E+03</pdfrwt>
<pdfrwt beam="2">  1       21 0.10055386E+00 0.12500000E+03</pdfrwt>
<totfact> 0.34527451E+06</totfact>
</mgrwt>
</event>
<event>
 3    0  0.1694925E+001  0.1250000E+03  0.7546771E-02  0.1235069E+00
         21   -1    0    0  502  501  0.00000000000E+00  0.00000000000E+00  0.37731329313E+02  0.37731329313E+02  0.00000000000E+00 0. -1.
         21   -1    0    0  501  502 -0.00000000000E+00 -0.00000000000E+00 -0.10352802488E+03  0.10352802488E+03  0.00000000000E+00 0. -1.
         25    1    1    2    0    0  0.00000000000E+00  0.00000000000E+00 -0.65796695570E+02  0.14125935420E+03  0.12500000000E+03 0.  0.
<mgrwt>
<rscale>  2 0.12500000E+03</rscale>
<asrwt>0</asrwt>
<pdfrwt beam="1">  1       21 0.58048199E-02 0.12500000E+03</pdfrwt>
<pdfrwt beam="2">  1       21 0.15927389E-01 0.12500000E+03</pdfrwt>
<totfact> 0.71875326E+06</totfact>
</mgrwt>
</event>
<event>
 3    0  0.1491568E+001  0.1250000E+03  0.7546771E-02  0.1235069E+00
         21   -1    0    0  502  501  0.00000000000E+00  0.00000000000E+00  0.86316019729E+01  0.86316019729E+01  0.00000000000E+00 0. -1.
         21   -1    0    0  501  502 -0.00000000000E+00 -0.00000000000E+00 -0.45255214643E+03  0.45255214643E+03  0.00000000000E+00 0. -1.
         25    1    1    2    0    0  0.00000000000E+00  0.00000000000E+00 -0.44392054446E+03  0.46118374841E+03  0.12500000000E+03 0.  0.
<mgrwt>
<rscale>  2 0.12500000E+03</rscale>
<asrwt>0</asrwt>
<pdfrwt beam="1">  1       21 0.13279383E-02 0.12500000E+03</pdfrwt>
<pdfrwt beam="2">  1       21 0.69623434E-01 0.12500000E+03</pdfrwt>
<totfact> 0.44230524E+06</totfact>
</mgrwt>
</event>
<event>
 3    0  0.1665610E+001  0.1250000E+03  0.7546771E-02  0.1235069E+00
         21   -1    0    0  502  501  0.00000000000E+00  0.00000000000E+00  0.24753999633E+02  0.24753999633E+02  0.00000000000E+00 0. -1.
         21   -1    0    0  501  502 -0.00000000000E+00 -0.00000000000E+00 -0.15780278169E+03  0.15780278169E+03  0.00000000000E+00 0. -1.
         25    1    1    2    0    0  0.00000000000E+00  0.00000000000E+00 -0.13304878206E+03  0.18255678132E+03  0.12500000000E+03 0.  0.
<mgrwt>
<rscale>  2 0.12500000E+03</rscale>
<asrwt>0</asrwt>
<pdfrwt beam="1">  1       21 0.38083076E-02 0.12500000E+03</pdfrwt>
<pdfrwt beam="2">  1       21 0.24277351E-01 0.12500000E+03</pdfrwt>
<totfact> 0.66859434E+06</totfact>
</mgrwt>
</event>
<event>
 3    0  0.1427049E+001  0.1250000E+03  0.7546771E-02  0.1235069E+00
         21   -1    0    0  502  501  0.00000000000E+00  0.00000000000E+00  0.67930154484E+01  0.67930154484E+01  0.00000000000E+00 0. -1.
         21   -1    0    0  501  502 -0.00000000000E+00 -0.00000000000E+00 -0.57503917512E+03  0.57503917512E+03  0.00000000000E+00 0. -1.
         25    1    1    2    0    0  0.00000000000E+00  0.00000000000E+00 -0.56824615967E+03  0.58183219057E+03  0.12500000000E+03 0.  0.
<mgrwt>
<rscale>  2 0.12500000E+03</rscale>
<asrwt>0</asrwt>
<pdfrwt beam="1">  1       21 0.10450789E-02 0.12500000E+03</pdfrwt>
<pdfrwt beam="2">  1       21 0.88467598E-01 0.12500000E+03</pdfrwt>
<totfact> 0.37927340E+06</totfact>
</mgrwt>
</event>
<event>
 3    0  0.1423791E+001  0.1250000E+03  0.7546771E-02  0.1235069E+00
         21   -1    0    0  502  501  0.00000000000E+00  0.00000000000E+00  0.67708788046E+01  0.67708788046E+01  0.00000000000E+00 0. -1.
         21   -1    0    0  501  502 -0.00000000000E+00 -0.00000000000E+00 -0.57691920247E+03  0.57691920247E+03  0.00000000000E+00 0. -1.
         25    1    1    2    0    0  0.00000000000E+00  0.00000000000E+00 -0.57014832367E+03  0.58369008128E+03  0.12500000000E+03 0.  0.
<mgrwt>
<rscale>  2 0.12500000E+03</rscale>
<asrwt>0</asrwt>
<pdfrwt beam="1">  1       21 0.10416731E-02 0.12500000E+03</pdfrwt>
<pdfrwt beam="2">  1       21 0.88756847E-01 0.12500000E+03</pdfrwt>
<totfact> 0.37840754E+06</totfact>
</mgrwt>
</event>
<event>
 3    0  0.1586268E+001  0.1250000E+03  0.7546771E-02  0.1235069E+00
         21   -1    0    0  502  501  0.00000000000E+00  0.00000000000E+00  0.30896391532E+03  0.30896391532E+03  0.00000000000E+00 0. -1.
         21   -1    0    0  501  502 -0.00000000000E+00 -0.00000000000E+00 -0.12643062204E+02  0.12643062204E+02  0.00000000000E+00 0. -1.
         25    1    1    2    0    0  0.00000000000E+00  0.00000000000E+00  0.29632085311E+03  0.32160697752E+03  0.12500000000E+03 0.  0.
<mgrwt>
<rscale>  2 0.12500000E+03</rscale>
<asrwt>0</asrwt>
<pdfrwt beam="1">  1       21 0.47532904E-01 0.12500000E+03</pdfrwt>
<pdfrwt beam="2">  1       21 0.19450867E-02 0.12500000E+03</pdfrwt>
<totfact> 0.53706246E+06</totfact>
</mgrwt>
</event>
<event>
 3    0  0.1645870E+001  0.1250000E+03  0.7546771E-02  0.1235069E+00
         21   -1    0    0  502  501  0.00000000000E+00  0.00000000000E+00  0.19933870318E+03  0.19933870318E+03  0.00000000000E+00 0. -1.
         21   -1    0    0  501  502 -0.00000000000E+00 -0.00000000000E+00 -0.19596044008E+02  0.19596044008E+02  0.00000000000E+00 0. -1.
         25    1    1    2    0    0  0.00000000000E+00  0.00000000000E+00  0.17974265917E+03  0.21893474718E+03  0.12500000000E+03 0.  0.
<mgrwt>
<rscale>  2 0.12500000E+03</rscale>
<asrwt>0</asrwt>
<pdfrwt beam="1">  1       21 0.30667491E-01 0.12500000E+03</pdfrwt>
<pdfrwt beam="2">  1       21 0.30147761E-02 0.12500000E+03</pdfrwt>
<totfact> 0.62931585E+06</totfact>
</mgrwt>
</event>
<event>
 3    0  0.1410486E+001  0.1250000E+03  0.7546771E-02  0.1235069E+00
         21   -1    0    0  502  501  0.00000000000E+00  0.00000000000E+00  0.62450050562E+03  0.62450050562E+03  0.00000000000E+00 0. -1.
         21   -1    0    0  501  502 -0.00000000000E+00 -0.00000000000E+00 -0.62549989389E+01  0.62549989389E+01  0.00000000000E+00 0. -1.
         25    1    1    2    0    0  0.00000000000E+00  0.00000000000E+00  0.61824550669E+03  0.63075550456E+03  0.12500000000E+03 0.  0.
<mgrwt>
<rscale>  2 0.12500000E+03</rscale>
<asrwt>0</asrwt>
<pdfrwt beam="1">  1       21 0.96076951E-01 0.12500000E+03</pdfrwt>
<pdfrwt beam="2">  1       21 0.96230803E-03 0.12500000E+03</pdfrwt>
<totfact> 0.35737694E+06</totfact>
</mgrwt>
</event>
<event>
 3    0  0.1482837E+001  0.1250000E+03  0.7546771E-02  0.1235069E+00
         21   -1    0    0  502  501  0.00000000000E+00  0.00000000000E+00  0.79974159733E+01  0.79974159733E+01  0.00000000000E+00 0.  1.
         21   -1    0    0  501  502 -0.00000000000E+00 -0.00000000000E+00 -0.48843901743E+03  0.48843901743E+03  0.00000000000E+00 0.  1.
         25    1    1    2    0    0  0.00000000000E+00  0.00000000000E+00 -0.48044160146E+03  0.49643643340E+03  0.12500000000E+03 0.  0.
<mgrwt>
<rscale>  2 0.12500000E+03</rscale>
<asrwt>0</asrwt>
<pdfrwt beam="1">  1       21 0.12303713E-02 0.12500000E+03</pdfrwt>
<pdfrwt beam="2">  1       21 0.75144491E-01 0.12500000E+03</pdfrwt>
<totfact> 0.42237983E+06</totfact>
</mgrwt>
</event>
<event>
 3    0  0.1689295E+001  0.1250000E+03  0.7546771E-02  0.1235069E+00
         21   -1    0    0  502  501  0.00000000000E+00  0.00000000000E+00  0.12390300353E+03  0.12390300353E+03  0.00000000000E+00 0. -1.
         21   -1    0    0  501  502 -0.00000000000E+00 -0.00000000000E+00 -0.31526677230E+02  0.31526677230E+02  0.00000000000E+00 0. -1.
         25    1    1    2    0    0  0.00000000000E+00  0.00000000000E+00  0.92376326296E+02  0.15542968076E+03  0.12500000000E+03 0.  0.
<mgrwt>
<rscale>  2 0.12500000E+03</rscale>
<asrwt>0</asrwt>
<pdfrwt beam="1">  1       21 0.19062000E-01 0.12500000E+03</pdfrwt>
<pdfrwt beam="2">  1       21 0.48502581E-02 0.12500000E+03</pdfrwt>
<totfact> 0.70082295E+06</totfact>
</mgrwt>
</event>
<event>
 3    0  0.1736130E+001  0.1250000E+03  0.7546771E-02  0.1235069E+00
         21   -1    0    0  502  501  0.00000000000E+00  0.00000000000E+00  0.72185943498E+02  0.72185943498E+02  0.00000000000E+00 0.  1.
         21   -1    0    0  501  502 -0.00000000000E+00 -0.00000000000E+00 -0.54113720909E+02  0.54113720909E+02  0.00000000000E+00 0.  1.
         25    1    1    2    0    0  0.00000000000E+00  0.00000000000E+00  0.18072222588E+02  0.12629966441E+03  0.12500000000E+03 0.  0.
<mgrwt>
<rscale>  2 0.12500000E+03</rscale>
<asrwt>0</asrwt>
<pdfrwt beam="1">  1       21 0.11105530E-01 0.12500000E+03</pdfrwt>
<pdfrwt beam="2">  1       21 0.83251878E-02 0.12500000E+03</pdfrwt>
<totfact> 0.73864825E+06</totfact>
</mgrwt>
</event>
<event>
 3    0  0.1695382E+001  0.1250000E+03  0.7546771E-02  0.1235069E+00
         21   -1    0    0  502  501  0.00000000000E+00  0.00000000000E+00  0.33187626496E+02  0.33187626496E+02  0.00000000000E+00 0. -1.
         21   -1    0    0  501  502 -0.00000000000E+00 -0.00000000000E+00 -0.11770199958E+03  0.11770199958E+03  0.00000000000E+00 0. -1.
         25    1    1    2    0    0  0.00000000000E+00  0.00000000000E+00 -0.84514373085E+02  0.15088962608E+03  0.12500000000E+03 0.  0.
<mgrwt>
<rscale>  2 0.12500000E+03</rscale>
<asrwt>0</asrwt>
<pdfrwt beam="1">  1       21 0.51057887E-02 0.12500000E+03</pdfrwt>
<pdfrwt beam="2">  1       21 0.18108000E-01 0.12500000E+03</pdfrwt>
<totfact> 0.70647626E+06</totfact>
</mgrwt>
</event>
<event>
 3    0  0.1707388E+001  0.1250000E+03  0.7546771E-02  0.1235069E+00
         21   -1    0    0  502  501  0.00000000000E+00  0.00000000000E+00  0.84949562945E+02  0.84949562945E+02  0.00000000000E+00 0. -1.
         21   -1    0    0  501  502 -0.00000000000E+00 -0.00000000000E+00 -0.45983167713E+02  0.45983167713E+02  0.00000000000E+00 0. -1.
         25    1    1    2    0    0  0.00000000000E+00  0.00000000000E+00  0.38966395232E+02  0.13093273066E+03  0.12500000000E+03 0.  0.
<mgrwt>
<rscale>  2 0.12500000E+03</rscale>
<asrwt>0</asrwt>
<pdfrwt beam="1">  1       21 0.13069164E-01 0.12500000E+03</pdfrwt>
<pdfrwt beam="2">  1       21 0.70743335E-02 0.12500000E+03</pdfrwt>
<totfact> 0.73239738E+06</totfact>
</mgrwt>
</event>
<event>
 3    0  0.1368989E+001  0.1250000E+03  0.7546771E-02  0.1235069E+00
         21   -1    0    0  502  501  0.00000000000E+00  0.00000000000E+00  0.15845938493E+01  0.15845938493E+01  0.00000000000E+00 0. -1.
         21   -1    0    0  501  502 -0.00000000000E+00 -0.00000000000E+00 -0.24651427251E+04  0.24651427251E+04  0.00000000000E+00 0. -1.
         25    1    1    2    0    0  0.00000000000E+00  0.00000000000E+00 -0.24635581313E+04  0.24667273190E+04  0.12500000000E+03 0.  0.
<mgrwt>
<rscale>  2 0.12500000E+03</rscale>
<asrwt>0</asrwt>
<pdfrwt beam="1">  1       21 0.24378333E-03 0.12500000E+03</pdfrwt>
<pdfrwt beam="2">  1       21 0.37925326E+00 0.12500000E+03</pdfrwt>
<totfact> 0.42283659E+05</totfact>
</mgrwt>
</event>
<event>
 3    0  0.1577694E+001  0.1250000E+03  0.7546771E-02  0.1235069E+00
         21   -1    0    0  502  501  0.00000000000E+00  0.00000000000E+00  0.12103884358E+02  0.12103884358E+02  0.00000000000E+00 0.  1.
         21   -1    0    0  501  502 -0.00000000000E+00 -0.00000000000E+00 -0.32272697628E+03  0.32272697628E+03  0.00000000000E+00 0.  1.
         25    1    1    2    0    0  0.00000000000E+00  0.00000000000E+00 -0.31062309192E+03  0.33483086064E+03  0.12500000000E+03 0.  0.
<mgrwt>
<rscale>  2 0.12500000E+03</rscale>
<asrwt>0</asrwt>
<pdfrwt beam="1">  1       21 0.18621364E-02 0.12500000E+03</pdfrwt>
<pdfrwt beam="2">  1       21 0.49650296E-01 0.12500000E+03</pdfrwt>
<totfact> 0.52678612E+06</totfact>
</mgrwt>
</event>
<event>
 3    0  0.1536761E+001  0.1250000E+03  0.7546771E-02  0.1235069E+00
         21   -1    0    0  502  501  0.00000000000E+00  0.00000000000E+00  0.88648850925E+01  0.88648850925E+01  0.00000000000E+00 0.  1.
         21   -1    0    0  501  502 -0.00000000000E+00 -0.00000000000E+00 -0.44064304943E+03  0.44064304943E+03  0.00000000000E+00 0.  1.
         25    1    1    2    0    0  0.00000000000E+00  0.00000000000E+00 -0.43177816434E+03  0.44950793452E+03  0.12500000000E+03 0.  0.
<mgrwt>
<rscale>  2 0.12500000E+03</rscale>
<asrwt>0</asrwt>
<pdfrwt beam="1">  1       21 0.13638287E-02 0.12500000E+03</pdfrwt>
<pdfrwt beam="2">  1       21 0.67791227E-01 0.12500000E+03</pdfrwt>
<totfact> 0.44921732E+06</totfact>
</mgrwt>
</event>
<event>
 3    0  0.1368989E+001  0.1250000E+03  0.7546771E-02  0.1235069E+00
         21   -1    0    0  502  501  0.00000000000E+00  0.00000000000E+00  0.37330607656E+01  0.37330607656E+01  0.00000000000E+00 0.  1.
         21   -1    0    0  501  502 -0.00000000000E+00 -0.00000000000E+00 -0.10463933606E+04  0.10463933606E+04  0.00000000000E+00 0.  1.
         25    1    1    2    0    0  0.00000000000E+00  0.00000000000E+00 -0.10426602999E+04  0.10501264214E+04  0.12500000000E+03 0.  0.
<mgrwt>
<rscale>  2 0.12500000E+03</rscale>
<asrwt>0</asrwt>
<pdfrwt beam="1">  1       21 0.57431656E-03 0.12500000E+03</pdfrwt>
<pdfrwt beam="2">  1       21 0.16098373E+00 0.12500000E+03</pdfrwt>
<totfact> 0.22396002E+06</totfact>
</mgrwt>
</event>
<event>
 3    0  0.1486323E+001  0.1250000E+03  0.7546771E-02  0.1235069E+00
         21   -1    0    0  502  501  0.00000000000E+00  0.00000000000E+00  0.45604543362E+03  0.45604543362E+03  0.00000000000E+00 0. -1.
         21   -1    0    0  501  502 -0.00000000000E+00 -0.00000000000E+00 -0.85654842961E+01  0.85654842961E+01  0.00000000000E+00 0. -1.
         25    1    1    2    0    0  0.00000000000E+00  0.00000000000E+00  0.44747994933E+03  0.46461091792E+03  0.12500000000E+03 0.  0.
<mgrwt>
<rscale>  2 0.12500000E+03</rscale>
<asrwt>0</asrwt>
<pdfrwt beam="1">  1       21 0.70160817E-01 0.12500000E+03</pdfrwt>
<pdfrwt beam="2">  1       21 0.13177672E-02 0.12500000E+03</pdfrwt>
<totfact> 0.44030705E+06</totfact>
</mgrwt>
</event>
<event>
 3    0  0.1582773E+001  0.1250000E+03  0.7546771E-02  0.1235069E+00
         21   -1    0    0  502  501  0.00000000000E+00  0.00000000000E+00  0.14555645903E+02  0.14555645903E+02  0.00000000000E+00 0. -1.
         21   -1    0    0  501  502 -0.00000000000E+00 -0.00000000000E+00 -0.26836665484E+03  0.26836665484E+03  0.00000000000E+00 0. -1.
         25    1    1    2    0    0  0.00000000000E+00  0.00000000000E+00 -0.25381100893E+03  0.28292230074E+03  0.12500000000E+03 0.  0.
<mgrwt>
<rscale>  2 0.12500000E+03</rscale>
<asrwt>0</asrwt>
<pdfrwt beam="1">  1       21 0.22393300E-02 0.12500000E+03</pdfrwt>
<pdfrwt beam="2">  1       21 0.41287180E-01 0.12500000E+03</pdfrwt>
<totfact> 0.56905944E+06</totfact>
</mgrwt>
</event>
<event>
 3    0  0.1649056E+001  0.1250000E+03  0.7546771E-02  0.1235069E+00
         21   -1    0    0  502  501  0.00000000000E+00  0.00000000000E+00  0.18067782573E+03  0.18067782573E+03  0.00000000000E+00 0. -1.
         21   -1    0    0  501  502 -0.00000000000E+00 -0.00000000000E+00 -0.21619974583E+02  0.21619974583E+02  0.00000000000E+00 0. -1.
         25    1    1    2    0    0  0.00000000000E+00  0.00000000000E+00  0.15905785114E+03  0.20229780031E+03  0.12500000000E+03 0.  0.
<mgrwt>
<rscale>  2 0.12500000E+03</rscale>
<asrwt>0</asrwt>
<pdfrwt beam="1">  1       21 0.27796588E-01 0.12500000E+03</pdfrwt>
<pdfrwt beam="2">  1       21 0.33261500E-02 0.12500000E+03</pdfrwt>
<totfact> 0.64679118E+06</totfact>
</mgrwt>
</event>
<event>
 3    0  0.1368989E+001  0.1250000E+03  0.7546771E-02  0.1235069E+00
         21   -1    0    0  502  501  0.00000000000E+00  0.00000000000E+00  0.72807311353E+03  0.72807311353E+03  0.00000000000E+00 0.  1.
         21   -1    0    0  501  502 -0.00000000000E+00 -0.00000000000E+00 -0.53651891925E+01  0.53651891925E+01  0.00000000000E+00 0.  1.
         25    1    1    2    0    0  0.00000000000E+00  0.00000000000E+00  0.72270792433E+03  0.73343830272E+03  0.12500000000E+03 0.  0.
<mgrwt>
<rscale>  2 0.12500000E+03</rscale>
<asrwt>0</asrwt>
<pdfrwt beam="1">  1       21 0.11201117E+00 0.12500000E+03</pdfrwt>
<pdfrwt beam="2">  1       21 0.82541430E-03 0.12500000E+03</pdfrwt>
<totfact> 0.31660135E+06</totfact>
</mgrwt>
</event>
<event>
 3    0  0.1713979E+001  0.1250000E+03  0.7546771E-02  0.1235069E+00
         21   -1    0    0  502  501  0.00000000000E+00  0.00000000000E+00  0.35704546127E+02  0.35704546127E+02  0.00000000000E+00 0.  1.
         21   -1    0    0  501  502 -0.00000000000E+00 -0.00000000000E+00 -0.10940483562E+03  0.10940483562E+03  0.00000000000E+00 0.  1.
         25    1    1    2    0    0  0.00000000000E+00  0.00000000000E+00 -0.73700289497E+02  0.14510938175E+03  0.12500000000E+03 0.  0.
<mgrwt>
<rscale>  2 0.12500000E+03</rscale>
<asrwt>0</asrwt>
<pdfrwt beam="1">  1       21 0.54930072E-02 0.12500000E+03</pdfrwt>
<pdfrwt beam="2">  1       21 0.16831513E-01 0.12500000E+03</pdfrwt>
<totfact> 0.71379104E+06</totfact>
</mgrwt>
</event>
<event>
 3    0  0.1368989E+001  0.1250000E+03  0.7546771E-02  0.1235069E+00
         21   -1    0    0  502  501  0.00000000000E+00  0.00000000000E+00  0.86929485503E+03  0.86929485503E+03  0.00000000000E+00 0.  1.
         21   -1    0    0  501  502 -0.00000000000E+00 -0.00000000000E+00 -0.44935846306E+01  0.44935846306E+01  0.00000000000E+00 0.  1.
         25    1    1    2    0    0  0.00000000000E+00  0.00000000000E+00  0.86480127040E+03  0.87378843966E+03  0.12500000000E+03 0.  0.
<mgrwt>
<rscale>  2 0.12500000E+03</rscale>
<asrwt>0</asrwt>
<pdfrwt beam="1">  1       21 0.13373754E+00 0.12500000E+03</pdfrwt>
<pdfrwt beam="2">  1       21 0.69132141E-03 0.12500000E+03</pdfrwt>
<totfact> 0.27058545E+06</totfact>
</mgrwt>
</event>
<event>
 3    0  0.1685292E+001  0.1250000E+03  0.7546771E-02  0.1235069E+00
         21   -1    0    0  502  501  0.00000000000E+00  0.00000000000E+00  0.22987883501E+02  0.22987883501E+02  0.00000000000E+00 0.  1.
         21   -1    0    0  501  502 -0.00000000000E+00 -0.00000000000E+00 -0.16992647452E+03  0.16992647452E+03  0.00000000000E+00 0.  1.
         25    1    1    2    0    0  0.00000000000E+00  0.00000000000E+00 -0.14693859102E+03  0.19291435802E+03  0.12500000000E+03 0.  0.
<mgrwt>
<rscale>  2 0.12500000E+03</rscale>
<asrwt>0</asrwt>
<pdfrwt beam="1">  1       21 0.35365974E-02 0.12500000E+03</pdfrwt>
<pdfrwt beam="2">  1       21 0.26142535E-01 0.12500000E+03</pdfrwt>
<totfact> 0.65700015E+06</totfact>
</mgrwt>
</event>
<event>
 3    0  0.1634563E+001  0.1250000E+03  0.7546771E-02  0.1235069E+00
         21   -1    0    0  502  501  0.00000000000E+00  0.00000000000E+00  0.18328902608E+02  0.18328902608E+02  0.00000000000E+00 0. -1.
         21   -1    0    0  501  502 -0.00000000000E+00 -0.00000000000E+00 -0.21311968772E+03  0.21311968772E+03  0.00000000000E+00 0. -1.
         25    1    1    2    0    0  0.00000000000E+00  0.00000000000E+00 -0.19479078511E+03  0.23144859033E+03  0.12500000000E+03 0.  0.
<mgrwt>
<rscale>  2 0.12500000E+03</rscale>
<asrwt>0</asrwt>
<pdfrwt beam="1">  1       21 0.28198309E-02 0.12500000E+03</pdfrwt>
<pdfrwt beam="2">  1       21 0.32787648E-01 0.12500000E+03</pdfrwt>
<totfact> 0.61670112E+06</totfact>
</mgrwt>
</event>
<event>
 3    0  0.1689102E+001  0.1250000E+03  0.7546771E-02  0.1235069E+00
         21   -1    0    0  502  501  0.00000000000E+00  0.00000000000E+00  0.35629781308E+02  0.35629781308E+02  0.00000000000E+00 0. -1.
         21   -1    0    0  501  502 -0.00000000000E+00 -0.00000000000E+00 -0.10963440854E+03  0.10963440854E+03  0.00000000000E+00 0. -1.
         25    1    1    2    0    0  0.00000000000E+00  0.00000000000E+00 -0.74004627227E+02  0.14526418984E+03  0.12500000000E+03 0.  0.
<mgrwt>
<rscale>  2 0.12500000E+03</rscale>
<asrwt>0</asrwt>
<pdfrwt beam="1">  1       21 0.54815049E-02 0.12500000E+03</pdfrwt>
<pdfrwt beam="2">  1       21 0.16866832E-01 0.12500000E+03</pdfrwt>
<totfact> 0.71359306E+06</totfact>
</mgrwt>
</event>
<event>
 3    0  0.1499549E+001  0.1250000E+03  0.7546771E-02  0.1235069E+00
         21   -1    0    0  502  501  0.00000000000E+00  0.00000000000E+00  0.87106704131E+01  0.87106704131E+01  0.00000000000E+00 0. -1.
         21   -1    0    0  501  502 -0.00000000000E+00 -0.00000000000E+00 -0.44844424307E+03  0.44844424307E+03  0.00000000000E+00 0. -1.
         25    1    1    2    0    0  0.00000000000E+00  0.00000000000E+00 -0.43973357265E+03  0.45715491348E+03  0.12500000000E+03 0.  0.
<mgrwt>
<rscale>  2 0.12500000E+03</rscale>
<asrwt>0</asrwt>
<pdfrwt beam="1">  1       21 0.13401029E-02 0.12500000E+03</pdfrwt>
<pdfrwt beam="2">  1       21 0.68991432E-01 0.12500000E+03</pdfrwt>
<totfact> 0.44467204E+06</totfact>
</mgrwt>
</event>
<event>
 3    0  0.1580823E+001  0.1250000E+03  0.7546771E-02  0.1235069E+00
         21   -1    0    0  502  501  0.00000000000E+00  0.00000000000E+00  0.13330356369E+02  0.13330356369E+02  0.00000000000E+00 0. -1.
         21   -1    0    0  501  502 -0.00000000000E+00 -0.00000000000E+00 -0.29303417642E+03  0.29303417642E+03  0.00000000000E+00 0. -1.
         25    1    1    2    0    0  0.00000000000E+00  0.00000000000E+00 -0.27970382005E+03  0.30636453279E+03  0.12500000000E+03 0.  0.
<mgrwt>
<rscale>  2 0.12500000E+03</rscale>
<asrwt>0</asrwt>
<pdfrwt beam="1">  1       21 0.20508242E-02 0.12500000E+03</pdfrwt>
<pdfrwt beam="2">  1       21 0.45082177E-01 0.12500000E+03</pdfrwt>
<totfact> 0.54931371E+06</totfact>
</mgrwt>
</event>
<event>
 3    0  0.1427749E+001  0.1250000E+03  0.7546771E-02  0.1235069E+00
         21   -1    0    0  502  501  0.00000000000E+00  0.00000000000E+00  0.67977824613E+01  0.67977824613E+01  0.00000000000E+00 0. -1.
         21   -1    0    0  501  502 -0.00000000000E+00 -0.00000000000E+00 -0.57463592314E+03  0.57463592314E+03  0.00000000000E+00 0. -1.
         25    1    1    2    0    0  0.00000000000E+00  0.00000000000E+00 -0.56783814068E+03  0.58143370561E+03  0.12500000000E+03 0.  0.
<mgrwt>
<rscale>  2 0.12500000E+03</rscale>
<asrwt>0</asrwt>
<pdfrwt beam="1">  1       21 0.10458129E-02 0.12500000E+03</pdfrwt>
<pdfrwt beam="2">  1       21 0.88405511E-01 0.12500000E+03</pdfrwt>
<totfact> 0.37945962E+06</totfact>
</mgrwt>
</event>
<event>
 3    0  0.1368989E+001  0.1250000E+03  0.7546771E-02  0.1235069E+00
         21   -1    0    0  502  501  0.00000000000E+00  0.00000000000E+00  0.14159099941E+04  0.14159099941E+04  0.00000000000E+00 0.  1.
         21   -1    0    0  501  502 -0.00000000000E+00 -0.00000000000E+00 -0.27588264906E+01  0.27588264906E+01  0.00000000000E+00 0.  1.
         25    1    1    2    0    0  0.00000000000E+00  0.00000000000E+00  0.14131511676E+04  0.14186688206E+04  0.12500000000E+03 0.  0.
<mgrwt>
<rscale>  2 0.12500000E+03</rscale>
<asrwt>0</asrwt>
<pdfrwt beam="1">  1       21 0.21783173E+00 0.12500000E+03</pdfrwt>
<pdfrwt beam="2">  1       21 0.42443597E-03 0.12500000E+03</pdfrwt>
<totfact> 0.15243775E+06</totfact>
</mgrwt>
</event>
<event>
 3    0  0.1545450E+001  0.1250000E+03  0.7546771E-02  0.1235069E+00
         21   -1    0    0  502  501  0.00000000000E+00  0.00000000000E+00  0.10302319240E+02  0.10302319240E+02  0.00000000000E+00 0. -1.
         21   -1    0    0  501  502 -0.00000000000E+00 -0.00000000000E+00 -0.37916219726E+03  0.37916219726E+03  0.00000000000E+00 0. -1.
         25    1    1    2    0    0  0.00000000000E+00  0.00000000000E+00 -0.36885987802E+03  0.38946451650E+03  0.12500000000E+03 0.  0.
<mgrwt>
<rscale>  2 0.12500000E+03</rscale>
<asrwt>0</asrwt>
<pdfrwt beam="1">  1       21 0.15849721E-02 0.12500000E+03</pdfrwt>
<pdfrwt beam="2">  1       21 0.58332647E-01 0.12500000E+03</pdfrwt>
<totfact> 0.48748098E+06</totfact>
</mgrwt>
</event>
<event>
 3    0  0.1629764E+001  0.1250000E+03  0.7546771E-02  0.1235069E+00
         21   -1    0    0  502  501  0.00000000000E+00  0.00000000000E+00  0.21473058084E+03  0.21473058084E+03  0.00000000000E+00 0. -1.
         21   -1    0    0  501  502 -0.00000000000E+00 -0.00000000000E+00 -0.18191400520E+02  0.18191400520E+02  0.00000000000E+00 0. -1.
         25    1    1    2    0    0  0.00000000000E+00  0.00000000000E+00  0.19653918032E+03  0.23292198136E+03  0.12500000000E+03 0.  0.
<mgrwt>
<rscale>  2 0.12500000E+03</rscale>
<asrwt>0</asrwt>
<pdfrwt beam="1">  1       21 0.33035472E-01 0.12500000E+03</pdfrwt>
<pdfrwt beam="2">  1       21 0.27986772E-02 0.12500000E+03</pdfrwt>
<totfact> 0.61524389E+06</totfact>
</mgrwt>
</event>
<event>
 3    0  0.1724868E+001  0.1250000E+03  0.7546771E-02  0.1235069E+00
         21   -1    0    0  502  501  0.00000000000E+00  0.00000000000E+00  0.38779640882E+02  0.38779640882E+02  0.00000000000E+00 0.  1.
         21   -1    0    0  501  502 -0.00000000000E+00 -0.00000000000E+00 -0.10072940108E+03  0.10072940108E+03  0.00000000000E+00 0.  1.
         25    1    1    2    0    0  0.00000000000E+00  0.00000000000E+00 -0.61949760196E+02  0.13950904196E+03  0.12500000000E+03 0.  0.
<mgrwt>
<rscale>  2 0.12500000E+03</rscale>
<asrwt>0</asrwt>
<pdfrwt beam="1">  1       21 0.59660986E-02 0.12500000E+03</pdfrwt>
<pdfrwt beam="2">  1       21 0.15496831E-01 0.12500000E+03</pdfrwt>
<totfact> 0.72103466E+06</totfact>
</mgrwt>
</event>
<event>
 3    0  0.1707240E+001  0.1250000E+03  0.7546771E-02  0.1235069E+00
         21   -1    0    0  502  501  0.00000000000E+00  0.00000000000E+00  0.47469319424E+02  0.47469319424E+02  0.00000000000E+00 0. -1.
         21   -1    0    0  501  502 -0.00000000000E+00 -0.00000000000E+00 -0.82289993777E+02  0.82289993777E+02  0.00000000000E+00 0. -1.
         25    1    1    2    0    0  0.00000000000E+00  0.00000000000E+00 -0.34820674353E+02  0.12975931320E+03  0.12500000000E+03 0.  0.
<mgrwt>
<rscale>  2 0.12500000E+03</rscale>
<asrwt>0</asrwt>
<pdfrwt beam="1">  1       21 0.73029723E-02 0.12500000E+03</pdfrwt>
<pdfrwt beam="2">  1       21 0.12659999E-01 0.12500000E+03</pdfrwt>
<totfact> 0.73397100E+06</totfact>
</mgrwt>
</event>
<event>
 3    0  0.1368989E+001  0.1250000E+03  0.7546771E-02  0.1235069E+00
         21   -1    0    0  502  501  0.00000000000E+00  0.00000000000E+00  0.73504950322E+03  0.73504950322E+03  0.00000000000E+00 0. -1.
         21   -1    0    0  501  502 -0.00000000000E+00 -0.00000000000E+00 -0.53142679274E+01  0.53142679274E+01  0.00000000000E+00 0. -1.
         25    1    1    2    0    0  0.00000000000E+00  0.00000000000E+00  0.72973523529E+03  0.74036377115E+03  0.12500000000E+03 0.  0.
<mgrwt>
<rscale>  2 0.12500000E+03</rscale>
<asrwt>0</asrwt>
<pdfrwt beam="1">  1       21 0.11308446E+00 0.12500000E+03</pdfrwt>
<pdfrwt beam="2">  1       21 0.81758026E-03 0.12500000E+03</pdfrwt>
<totfact> 0.31410736E+06</totfact>
</mgrwt>
</event>
<event>
 3    0  0.1368989E+001  0.1250000E+03  0.7546771E-02  0.1235069E+00
         21   -1    0    0  502  501  0.00000000000E+00  0.00000000000E+00  0.18007367665E+04  0.18007367665E+04  0.00000000000E+00 0. -1.
         21   -1    0    0  501  502 -0.00000000000E+00 -0.00000000000E+00 -0.21692509825E+01  0.21692509825E+01  0.00000000000E+00 0. -1.
         25    1    1    2    0    0  0.00000000000E+00  0.00000000000E+00  0.17985675155E+04  0.18029060175E+04  0.12500000000E+03 0.  0.
<mgrwt>
<rscale>  2 0.12500000E+03</rscale>
<asrwt>0</asrwt>
<pdfrwt beam="1">  1       21 0.27703523E+00 0.12500000E+03</pdfrwt>
<pdfrwt beam="2">  1       21 0.33373236E-03 0.12500000E+03</pdfrwt>
<totfact> 0.10036595E+06</totfact>
</mgrwt>
</event>
<event>
 3    0  0.1717296E+001  0.1250000E+03  0.7546771E-02  0.1235069E+00
         21   -1    0    0  502  501  0.00000000000E+00  0.00000000000E+00  0.34172278269E+02  0.34172278269E+02  0.00000000000E+00 0.  1.
         21   -1    0    0  501  502 -0.00000000000E+00 -0.00000000000E+00 -0.11431049371E+03  0.11431049371E+03  0.00000000000E+00 0.  1.
         25    1    1    2    0    0  0.00000000000E+00  0.00000000000E+00 -0.80138215439E+02  0.14848277198E+03  0.12500000000E+03 0.  0.
<mgrwt>
<rscale>  2 0.12500000E+03</rscale>
<asrwt>0</asrwt>
<pdfrwt beam="1">  1       21 0.52572736E-02 0.12500000E+03</pdfrwt>
<pdfrwt beam="2">  1       21 0.17586230E-01 0.12500000E+03</pdfrwt>
<totfact> 0.70950316E+06</totfact>
</mgrwt>
</event>
<event>
 3    0  0.1687585E+001  0.1250000E+03  0.7546771E-02  0.1235069E+00
         21   -1    0    0  502  501  0.00000000000E+00  0.00000000000E+00  0.27886125466E+02  0.27886125466E+02  0.00000000000E+00 0. -1.
         21   -1    0    0  501  502 -0.00000000000E+00 -0.00000000000E+00 -0.14007862099E+03  0.14007862099E+03  0.00000000000E+00 0. -1.
         25    1    1    2    0    0  0.00000000000E+00  0.00000000000E+00 -0.11219249552E+03  0.16796474646E+03  0.12500000000E+03 0.  0.
<mgrwt>
<rscale>  2 0.12500000E+03</rscale>
<asrwt>0</asrwt>
<pdfrwt beam="1">  1       21 0.42901733E-02 0.12500000E+03</pdfrwt>
<pdfrwt beam="2">  1       21 0.21550556E-01 0.12500000E+03</pdfrwt>
<totfact> 0.68559149E+06</totfact>
</mgrwt>
</event>
<event>
 3    0  0.1731805E+001  0.1250000E+03  0.7546771E-02  0.1235069E+00
         21   -1    0    0  502  501  0.00000000000E+00  0.00000000000E+00  0.82580076610E+02  0.82580076610E+02  0.00000000000E+00 0.  1.
         21   -1    0    0  501  502 -0.00000000000E+00 -0.00000000000E+00 -0.47302571763E+02  0.47302571763E+02  0.00000000000E+00 0.  1.
         25    1    1    2    0    0  0.00000000000E+00  0.00000000000E+00  0.35277504847E+02  0.12988264837E+03  0.12500000000E+03 0.  0.
<mgrwt>
<rscale>  2 0.12500000E+03</rscale>
<asrwt>0</asrwt>
<pdfrwt beam="1">  1       21 0.12704627E-01 0.12500000E+03</pdfrwt>
<pdfrwt beam="2">  1       21 0.72773188E-02 0.12500000E+03</pdfrwt>
<totfact> 0.73380603E+06</totfact>
</mgrwt>
</event>
<event>
 3    0  0.1368989E+001  0.1250000E+03  0.7546771E-02  0.1235069E+00
         21   -1    0    0  502  501  0.00000000000E+00  0.00000000000E+00  0.25339214325E+01  0.25339214325E+01  0.00000000000E+00 0.  1.
         21   -1    0    0  501  502 -0.00000000000E+00 -0.00000000000E+00 -0.15415829196E+04  0.15415829196E+04  0.00000000000E+00 0.  1.
         25    1    1    2    0    0  0.00000000000E+00  0.00000000000E+00 -0.15390489982E+04  0.15441168410E+04  0.12500000000E+03 0.  0.
<mgrwt>
<rscale>  2 0.12500000E+03</rscale>
<asrwt>0</asrwt>
<pdfrwt beam="1">  1       21 0.38983467E-03 0.12500000E+03</pdfrwt>
<pdfrwt beam="2">  1       21 0.23716624E+00 0.12500000E+03</pdfrwt>
<totfact> 0.13351163E+06</totfact>
</mgrwt>
</event>
<event>
 3    0  0.1691081E+001  0.1250000E+03  0.7546771E-02  0.1235069E+00
         21   -1    0    0  502  501  0.00000000000E+00  0.00000000000E+00  0.33925641426E+02  0.33925641426E+02  0.00000000000E+00 0. -1.
         21   -1    0    0  501  502 -0.00000000000E+00 -0.00000000000E+00 -0.11514152234E+03  0.11514152234E+03  0.00000000000E+00 0. -1.
         25    1    1    2    0    0  0.00000000000E+00  0.00000000000E+00 -0.81215880911E+02  0.14906716376E+03  0.12500000000E+03 0.  0.
<mgrwt>
<rscale>  2 0.12500000E+03</rscale>
<asrwt>0</asrwt>
<pdfrwt beam="1">  1       21 0.52193295E-02 0.12500000E+03</pdfrwt>
<pdfrwt beam="2">  1       21 0.17714080E-01 0.12500000E+03</pdfrwt>
<totfact> 0.70876579E+06</totfact>
</mgrwt>
</event>
<event>
 3    0  0.1368989E+001  0.1250000E+03  0.7546771E-02  0.1235069E+00
         21   -1    0    0  502  501  0.00000000000E+00  0.00000000000E+00  0.22986376693E+01  0.22986376693E+01  0.00000000000E+00 0. -1.
         21   -1    0    0  501  502 -0.00000000000E+00 -0.00000000000E+00 -0.16993761358E+04  0.16993761358E+04  0.00000000000E+00 0. -1.
         25    1    1    2    0    0  0.00000000000E+00  0.00000000000E+00 -0.16970774981E+04  0.17016747734E+04  0.12500000000E+03 0.  0.
<mgrwt>
<rscale>  2 0.12500000E+03</rscale>
<asrwt>0</asrwt>
<pdfrwt beam="1">  1       21 0.35363610E-03 0.12500000E+03</pdfrwt>
<pdfrwt beam="2">  1       21 0.26144282E+00 0.12500000E+03</pdfrwt>
<totfact> 0.11248794E+06</totfact>
</mgrwt>
</event>
<event>
 3    0  0.1512425E+001  0.1250000E+03  0.7546771E-02  0.1235069E+00
         21   -1    0    0  502  501  0.00000000000E+00  0.00000000000E+00  0.44265355899E+03  0.44265355899E+03  0.00000000000E+00 0. -1.
         21   -1    0    0  501  502 -0.00000000000E+00 -0.00000000000E+00 -0.88246212432E+01  0.88246212432E+01  0.00000000000E+00 0. -1.
         25    1    1    2    0    0  0.00000000000E+00  0.00000000000E+00  0.43382893774E+03  0.45147818023E+03  0.12500000000E+03 0.  0.
<mgrwt>
<rscale>  2 0.12500000E+03</rscale>
<asrwt>0</asrwt>
<pdfrwt beam="1">  1       21 0.68100530E-01 0.12500000E+03</pdfrwt>
<pdfrwt beam="2">  1       21 0.13576344E-02 0.12500000E+03</pdfrwt>
<totfact> 0.44803956E+06</totfact>
</mgrwt>
</event>
<event>
 3    0  0.1724937E+001  0.1250000E+03  0.7546771E-02  0.1235069E+00
         21   -1    0    0  502  501  0.00000000000E+00  0.00000000000E+00  0.10085929302E+03  0.10085929302E+03  0.00000000000E+00 0.  1.
         21   -1    0    0  501  502 -0.00000000000E+00 -0.00000000000E+00 -0.38729698405E+02  0.38729698405E+02  0.00000000000E+00 0.  1.
         25    1    1    2    0    0  0.00000000000E+00  0.00000000000E+00  0.62129594615E+02  0.13958899142E+03  0.12500000000E+03 0.  0.
<mgrwt>
<rscale>  2 0.12500000E+03</rscale>
<asrwt>0</asrwt>
<pdfrwt beam="1">  1       21 0.15516814E-01 0.12500000E+03</pdfrwt>
<pdfrwt beam="2">  1       21 0.59584152E-02 0.12500000E+03</pdfrwt>
<totfact> 0.72093010E+06</totfact>
</mgrwt>
</event>
<event>
 3    0  0.1494247E+001  0.1250000E+03  0.7546771E-02  0.1235069E+00
         21   -1    0    0  502  501  0.00000000000E+00  0.00000000000E+00  0.42398148531E+03  0.42398148531E+03  0.00000000000E+00 0. -1.
         21   -1    0    0  501  502 -0.00000000000E+00 -0.00000000000E+00 -0.92132560863E+01  0.92132560863E+01  0.00000000000E+00 0. -1.
         25    1    1    2    0    0  0.00000000000E+00  0.00000000000E+00  0.41476822922E+03  0.43319474139E+03  0.12500000000E+03 0.  0.
<mgrwt>
<rscale>  2 0.12500000E+03</rscale>
<asrwt>0</asrwt>
<pdfrwt beam="1">  1       21 0.65227905E-01 0.12500000E+03</pdfrwt>
<pdfrwt beam="2">  1       21 0.14174243E-02 0.12500000E+03</pdfrwt>
<totfact> 0.45914797E+06</totfact>
</mgrwt>
</event>
<event>
 3    0  0.1691029E+001  0.1250000E+03  0.7546771E-02  0.1235069E+00
         21   -1    0    0  502  501  0.00000000000E+00  0.00000000000E+00  0.10863485248E+03  0.10863485248E+03  0.00000000000E+00 0. -1.
         21   -1    0    0  501  502 -0.00000000000E+00 -0.00000000000E+00 -0.35957613148E+02  0.35957613148E+02  0.00000000000E+00 0. -1.
         25    1    1    2    0    0  0.00000000000E+00  0.00000000000E+00  0.72677239335E+02  0.14459246563E+03  0.12500000000E+03 0.  0.
<mgrwt>
<rscale>  2 0.12500000E+03</rscale>
<asrwt>0</asrwt>
<pdfrwt beam="1">  1       21 0.16713054E-01 0.12500000E+03</pdfrwt>
<pdfrwt beam="2">  1       21 0.55319405E-02 0.12500000E+03</pdfrwt>
<totfact> 0.71445294E+06</totfact>
</mgrwt>
</event>
<event>
 3    0  0.1596367E+001  0.1250000E+03  0.7546771E-02  0.1235069E+00
         21   -1    0    0  502  501  0.00000000000E+00  0.00000000000E+00  0.13871882989E+02  0.13871882989E+02  0.00000000000E+00 0.  1.
         21   -1    0    0  501  502 -0.00000000000E+00 -0.00000000000E+00 -0.28159479164E+03  0.28159479164E+03  0.00000000000E+00 0.  1.
         25    1    1    2    0    0  0.00000000000E+00  0.00000000000E+00 -0.26772290865E+03  0.29546667463E+03  0.12500000000E+03 0.  0.
<mgrwt>
<rscale>  2 0.12500000E+03</rscale>
<asrwt>0</asrwt>
<pdfrwt beam="1">  1       21 0.21341357E-02 0.12500000E+03</pdfrwt>
<pdfrwt beam="2">  1       21 0.43322279E-01 0.12500000E+03</pdfrwt>
<totfact> 0.55835025E+06</totfact>
</mgrwt>
</event>
<event>
 3    0  0.1581347E+001  0.1250000E+03  0.7546771E-02  0.1235069E+00
         21   -1    0    0  502  501  0.00000000000E+00  0.00000000000E+00  0.12166231226E+02  0.12166231226E+02  0.00000000000E+00 0.  1.
         21   -1    0    0  501  502 -0.00000000000E+00 -0.00000000000E+00 -0.32107313494E+03  0.32107313494E+03  0.00000000000E+00 0.  1.
         25    1    1    2    0    0  0.00000000000E+00  0.00000000000E+00 -0.30890690372E+03  0.33323936617E+03  0.12500000000E+03 0.  0.
<mgrwt>
<rscale>  2 0.12500000E+03</rscale>
<asrwt>0</asrwt>
<pdfrwt beam="1">  1       21 0.18717280E-02 0.12500000E+03</pdfrwt>
<pdfrwt beam="2">  1       21 0.49395864E-01 0.12500000E+03</pdfrwt>
<totfact> 0.52800589E+06</totfact>
</mgrwt>
</event>
<event>
 3    0  0.1712218E+001  0.1250000E+03  0.7546771E-02  0.1235069E+00
         21   -1    0    0  502  501  0.00000000000E+00  0.00000000000E+00  0.59346349451E+02  0.59346349451E+02  0.00000000000E+00 0. -1.
         21   -1    0    0  501  502 -0.00000000000E+00 -0.00000000000E+00 -0.65821234771E+02  0.65821234771E+02  0.00000000000E+00 0. -1.
         25    1    1    2    0    0  0.00000000000E+00  0.00000000000E+00 -0.64748853206E+01  0.12516758422E+03  0.12500000000E+03 0.  0.
<mgrwt>
<rscale>  2 0.12500000E+03</rscale>
<asrwt>0</asrwt>
<pdfrwt beam="1">  1       21 0.91302076E-02 0.12500000E+03</pdfrwt>
<pdfrwt beam="2">  1       21 0.10126344E-01 0.12500000E+03</pdfrwt>
<totfact> 0.74020949E+06</totfact>
</mgrwt>
</event>
<event>
 3    0  0.1711859E+001  0.1250000E+03  0.7546771E-02  0.1235069E+00
         21   -1    0    0  502  501  0.00000000000E+00  0.00000000000E+00  0.58435147036E+02  0.58435147036E+02  0.00000000000E+00 0. -1.
         21   -1    0    0  501  502 -0.00000000000E+00 -0.00000000000E+00 -0.66847611380E+02  0.66847611380E+02  0.00000000000E+00 0. -1.
         25    1    1    2    0    0  0.00000000000E+00  0.00000000000E+00 -0.84124643441E+01  0.12528275842E+03  0.12500000000E+03 0.  0.
<mgrwt>
<rscale>  2 0.12500000E+03</rscale>
<asrwt>0</asrwt>
<pdfrwt beam="1">  1       21 0.89900226E-02 0.12500000E+03</pdfrwt>
<pdfrwt beam="2">  1       21 0.10284248E-01 0.12500000E+03</pdfrwt>
<totfact> 0.74005399E+06</totfact>
</mgrwt>
</event>
<event>
 3    0  0.1519298E+001  0.1250000E+03  0.7546771E-02  0.1235069E+00
         21   -1    0    0  502  501  0.00000000000E+00  0.00000000000E+00  0.37439154496E+03  0.37439154496E+03  0.00000000000E+00 0. -1.
         21   -1    0    0  501  502 -0.00000000000E+00 -0.00000000000E+00 -0.10433595664E+02  0.10433595664E+02  0.00000000000E+00 0. -1.
         25    1    1    2    0    0  0.00000000000E+00  0.00000000000E+00  0.36395794930E+03  0.38482514062E+03  0.12500000000E+03 0.  0.
<mgrwt>
<rscale>  2 0.12500000E+03</rscale>
<asrwt>0</asrwt>
<pdfrwt beam="1">  1       21 0.57598689E-01 0.12500000E+03</pdfrwt>
<pdfrwt beam="2">  1       21 0.16051689E-02 0.12500000E+03</pdfrwt>
<totfact> 0.49064447E+06</totfact>
</mgrwt>
</event>
<event>
 3    0  0.1704979E+001  0.1250000E+03  0.7546771E-02  0.1235069E+00
         21   -1    0    0  502  501  0.00000000000E+00  0.00000000000E+00  0.95558720351E+02  0.95558720351E+02  0.00000000000E+00 0. -1.
         21   -1    0    0  501  502 -0.00000000000E+00 -0.00000000000E+00 -0.40878006587E+02  0.40878006587E+02  0.00000000000E+00 0. -1.
         25    1    1    2    0    0  0.00000000000E+00  0.00000000000E+00  0.54680713764E+02  0.13643672694E+03  0.12500000000E+03 0.  0.
<mgrwt>
<rscale>  2 0.12500000E+03</rscale>
<asrwt>0</asrwt>
<pdfrwt beam="1">  1       21 0.14701342E-01 0.12500000E+03</pdfrwt>
<pdfrwt beam="2">  1       21 0.62889241E-02 0.12500000E+03</pdfrwt>
<totfact> 0.72506794E+06</totfact>
</mgrwt>
</event>
<event>
 3    0  0.1666994E+001  0.1250000E+03  0.7546771E-02  0.1235069E+00
         21   -1    0    0  502  501  0.00000000000E+00  0.00000000000E+00  0.18308249197E+03  0.18308249197E+03  0.00000000000E+00 0.  1.
         21   -1    0    0  501  502 -0.00000000000E+00 -0.00000000000E+00 -0.21336010658E+02  0.21336010658E+02  0.00000000000E+00 0.  1.
         25    1    1    2    0    0  0.00000000000E+00  0.00000000000E+00  0.16174648131E+03  0.20441850263E+03  0.12500000000E+03 0.  0.
<mgrwt>
<rscale>  2 0.12500000E+03</rscale>
<asrwt>0</asrwt>
<pdfrwt beam="1">  1       21 0.28166536E-01 0.12500000E+03</pdfrwt>
<pdfrwt beam="2">  1       21 0.32824633E-02 0.12500000E+03</pdfrwt>
<totfact> 0.64451600E+06</totfact>
</mgrwt>
</event>
<event>
 3    0  0.1667743E+001  0.1250000E+03  0.7546771E-02  0.1235069E+00
         21   -1    0    0  502  501  0.00000000000E+00  0.00000000000E+00  0.20519668895E+02  0.20519668895E+02  0.00000000000E+00 0.  1.
         21   -1    0    0  501  502 -0.00000000000E+00 -0.00000000000E+00 -0.19036613212E+03  0.19036613212E+03  0.00000000000E+00 0.  1.
         25    1    1    2    0    0  0.00000000000E+00  0.00000000000E+00 -0.16984646322E+03  0.21088580101E+03  0.12500000000E+03 0.  0.
<mgrwt>
<rscale>  2 0.12500000E+03</rscale>
<asrwt>0</asrwt>
<pdfrwt beam="1">  1       21 0.31568723E-02 0.12500000E+03</pdfrwt>
<pdfrwt beam="2">  1       21 0.29287096E-01 0.12500000E+03</pdfrwt>
<totfact> 0.63766460E+06</totfact>
</mgrwt>
</event>
<event>
 3    0  0.1712935E+001  0.1250000E+03  0.7546771E-02  0.1235069E+00
         21   -1    0    0  502  501  0.00000000000E+00  0.00000000000E+00  0.10985545903E+03  0.10985545903E+03  0.00000000000E+00 0.  1.
         21   -1    0    0  501  502 -0.00000000000E+00 -0.00000000000E+00 -0.35558087278E+02  0.35558087278E+02  0.00000000000E+00 0.  1.
         25    1    1    2    0    0  0.00000000000E+00  0.00000000000E+00  0.74297371747E+02  0.14541354630E+03  0.12500000000E+03 0.  0.
<mgrwt>
<rscale>  2 0.12500000E+03</rscale>
<asrwt>0</asrwt>
<pdfrwt beam="1">  1       21 0.16900840E-01 0.12500000E+03</pdfrwt>
<pdfrwt beam="2">  1       21 0.54704750E-02 0.12500000E+03</pdfrwt>
<totfact> 0.71340217E+06</totfact>
</mgrwt>
</event>
<event>
 3    0  0.1368989E+001  0.1250000E+03  0.7546771E-02  0.1235069E+00
         21   -1    0    0  502  501  0.00000000000E+00  0.00000000000E+00  0.13375119025E+04  0.13375119025E+04  0.00000000000E+00 0. -1.
         21   -1    0    0  501  502 -0.00000000000E+00 -0.00000000000E+00 -0.29205347576E+01  0.29205347576E+01  0.00000000000E+00 0. -1.
         25    1    1    2    0    0  0.00000000000E+00  0.00000000000E+00  0.13345913677E+04  0.13404324373E+04  0.12500000000E+03 0.  0.
<mgrwt>
<rscale>  2 0.12500000E+03</rscale>
<asrwt>0</asrwt>
<pdfrwt beam="1">  1       21 0.20577057E+00 0.12500000E+03</pdfrwt>
<pdfrwt beam="2">  1       21 0.44931411E-03 0.12500000E+03</pdfrwt>
<totfact> 0.16541689E+06</totfact>
</mgrwt>
</event>
<event>
 3    0  0.1516634E+001  0.1250000E+03  0.7546771E-02  0.1235069E+00
         21   -1    0    0  502  501  0.00000000000E+00  0.00000000000E+00  0.96728018284E+01  0.96728018284E+01  0.00000000000E+00 0.  1.
         21   -1    0    0  501  502 -0.00000000000E+00 -0.00000000000E+00 -0.40383852262E+03  0.40383852262E+03  0.00000000000E+00 0.  1.
         25    1    1    2    0    0  0.00000000000E+00  0.00000000000E+00 -0.39416572079E+03  0.41351132445E+03  0.12500000000E+03 0.  0.
<mgrwt>
<rscale>  2 0.12500000E+03</rscale>
<asrwt>0</asrwt>
<pdfrwt beam="1">  1       21 0.14881235E-02 0.12500000E+03</pdfrwt>
<pdfrwt beam="2">  1       21 0.62128999E-01 0.12500000E+03</pdfrwt>
<totfact> 0.47157887E+06</totfact>
</mgrwt>
</event>
<event>
 3    0  0.1400340E+001  0.1250000E+03  0.7546771E-02  0.1235069E+00
         21   -1    0    0  502  501  0.00000000000E+00  0.00000000000E+00  0.57059400520E+01  0.57059400520E+01  0.00000000000E+00 0.  1.
         21   -1    0    0  501  502 -0.00000000000E+00 -0.00000000000E+00 -0.68459359271E+03  0.68459359271E+03  0.00000000000E+00 0.  1.
         25    1    1    2    0    0  0.00000000000E+00  0.00000000000E+00 -0.67888765266E+03  0.69029953276E+03  0.12500000000E+03 0.  0.
<mgrwt>
<rscale>  2 0.12500000E+03</rscale>
<asrwt>0</asrwt>
<pdfrwt beam="1">  1       21 0.87783725E-03 0.12500000E+03</pdfrwt>
<pdfrwt beam="2">  1       21 0.10532205E+00 0.12500000E+03</pdfrwt>
<totfact> 0.33287503E+06</totfact>
</mgrwt>
</event>
<event>
 3    0  0.1493122E+001  0.1250000E+03  0.7546771E-02  0.1235069E+00
         21   -1    0    0  502  501  0.00000000000E+00  0.00000000000E+00  0.46361294894E+03  0.46361294894E+03  0.00000000000E+00 0.  1.
         21   -1    0    0  501  502 -0.00000000000E+00 -0.00000000000E+00 -0.84256706136E+01  0.84256706136E+01  0.00000000000E+00 0.  1.
         25    1    1    2    0    0  0.00000000000E+00  0.00000000000E+00  0.45518727833E+03  0.47203861956E+03  0.12500000000E+03 0.  0.
<mgrwt>
<rscale>  2 0.12500000E+03</rscale>
<asrwt>0</asrwt>
<pdfrwt beam="1">  1       21 0.71325049E-01 0.12500000E+03</pdfrwt>
<pdfrwt beam="2">  1       21 0.12962574E-02 0.12500000E+03</pdfrwt>
<totfact> 0.43602243E+06</totfact>
</mgrwt>
</event>
<event>
 3    0  0.1696056E+001  0.1250000E+03  0.7546771E-02  0.1235069E+00
         21   -1    0    0  502  501  0.00000000000E+00  0.00000000000E+00  0.15525960592E+03  0.15525960592E+03  0.00000000000E+00 0.  1.
         21   -1    0    0  501  502 -0.00000000000E+00 -0.00000000000E+00 -0.25159473882E+02  0.25159473882E+02  0.00000000000E+00 0.  1.
         25    1    1    2    0    0  0.00000000000E+00  0.00000000000E+00  0.13010013203E+03  0.18041907980E+03  0.12500000000E+03 0.  0.
<mgrwt>
<rscale>  2 0.12500000E+03</rscale>
<asrwt>0</asrwt>
<pdfrwt beam="1">  1       21 0.23886093E-01 0.12500000E+03</pdfrwt>
<pdfrwt beam="2">  1       21 0.38706884E-02 0.12500000E+03</pdfrwt>
<totfact> 0.67103494E+06</totfact>
</mgrwt>
</event>
<event>
 3    0  0.1485094E+001  0.1250000E+03  0.7546771E-02  0.1235069E+00
         21   -1    0    0  502  501  0.00000000000E+00  0.00000000000E+00  0.47775605843E+03  0.47775605843E+03  0.00000000000E+00 0. -1.
         21   -1    0    0  501  502 -0.00000000000E+00 -0.00000000000E+00 -0.81762437777E+01  0.81762437777E+01  0.00000000000E+00 0. -1.
         25    1    1    2    0    0  0.00000000000E+00  0.00000000000E+00  0.46957981465E+03  0.48593230221E+03  0.12500000000E+03 0.  0.
<mgrwt>
<rscale>  2 0.12500000E+03</rscale>
<asrwt>0</asrwt>
<pdfrwt beam="1">  1       21 0.73500910E-01 0.12500000E+03</pdfrwt>
<pdfrwt beam="2">  1       21 0.12578840E-02 0.12500000E+03</pdfrwt>
<totfact> 0.42817422E+06</totfact>
</mgrwt>
</event>
<event>
 3    0  0.1736225E+001  0.1250000E+03  0.7546771E-02  0.1235069E+00
         21   -1    0    0  502  501  0.00000000000E+00  0.00000000000E+00  0.72067155108E+02  0.72067155108E+02  0.00000000000E+00 0.  1.
         21   -1    0    0  501  502 -0.00000000000E+00 -0.00000000000E+00 -0.54202916629E+02  0.54202916629E+02  0.00000000000E+00 0.  1.
         25    1    1    2    0    0  0.00000000000E+00  0.00000000000E+00  0.17864238480E+02  0.12627007174E+03  0.12500000000E+03 0.  0.
<mgrwt>
<rscale>  2 0.12500000E+03</rscale>
<asrwt>0</asrwt>
<pdfrwt beam="1">  1       21 0.11087255E-01 0.12500000E+03</pdfrwt>
<pdfrwt beam="2">  1       21 0.83389102E-02 0.12500000E+03</pdfrwt>
<totfact> 0.73868886E+06</totfact>
</mgrwt>
</event>
<event>
 3    0  0.1645224E+001  0.1250000E+03  0.7546771E-02  0.1235069E+00
         21   -1    0    0  502  501  0.00000000000E+00  0.00000000000E+00  0.16358978562E+02  0.16358978562E+02  0.00000000000E+00 0.  1.
         21   -1    0    0  501  502 -0.00000000000E+00 -0.00000000000E+00 -0.23878324586E+03  0.23878324586E+03  0.00000000000E+00 0.  1.
         25    1    1    2    0    0  0.00000000000E+00  0.00000000000E+00 -0.22242426729E+03  0.25514222442E+03  0.12500000000E+03 0.  0.
<mgrwt>
<rscale>  2 0.12500000E+03</rscale>
<asrwt>0</asrwt>
<pdfrwt beam="1">  1       21 0.25167661E-02 0.12500000E+03</pdfrwt>
<pdfrwt beam="2">  1       21 0.36735881E-01 0.12500000E+03</pdfrwt>
<totfact> 0.59397408E+06</totfact>
</mgrwt>
</event>
<event>
 3    0  0.1368989E+001  0.1250000E+03  0.7546771E-02  0.1235069E+00
         21   -1    0    0  502  501  0.00000000000E+00  0.00000000000E+00  0.83188040079E+03  0.83188040079E+03  0.00000000000E+00 0.  1.
         21   -1    0    0  501  502 -0.00000000000E+00 -0.00000000000E+00 -0.46956870198E+01  0.46956870198E+01  0.00000000000E+00 0.  1.
         25    1    1    2    0    0  0.00000000000E+00  0.00000000000E+00  0.82718471377E+03  0.83657608781E+03  0.12500000000E+03 0.  0.
<mgrwt>
<rscale>  2 0.12500000E+03</rscale>
<asrwt>0</asrwt>
<pdfrwt beam="1">  1       21 0.12798148E+00 0.12500000E+03</pdfrwt>
<pdfrwt beam="2">  1       21 0.72241405E-03 0.12500000E+03</pdfrwt>
<totfact> 0.28186303E+06</totfact>
</mgrwt>
</event>
<event>
 3    0  0.1368989E+001  0.1250000E+03  0.7546771E-02  0.1235069E+00
         21   -1    0    0  502  501  0.00000000000E+00  0.00000000000E+00  0.79054074354E+03  0.79054074354E+03  0.00000000000E+00 0.  1.
         21   -1    0    0  501  502 -0.00000000000E+00 -0.00000000000E+00 -0.49412380474E+01  0.49412380474E+01  0.00000000000E+00 0.  1.
         25    1    1    2    0    0  0.00000000000E+00  0.00000000000E+00  0.78559950549E+03  0.79548198158E+03  0.12500000000E+03 0.  0.
<mgrwt>
<rscale>  2 0.12500000E+03</rscale>
<asrwt>0</asrwt>
<pdfrwt beam="1">  1       21 0.12162155E+00 0.12500000E+03</pdfrwt>
<pdfrwt beam="2">  1       21 0.76019109E-03 0.12500000E+03</pdfrwt>
<totfact> 0.29513080E+06</totfact>
</mgrwt>
</event>
<event>
 3    0  0.1688112E+001  0.1250000E+03  0.7546771E-02  0.1235069E+00
         21   -1    0    0  502  501  0.00000000000E+00  0.00000000000E+00  0.22359874527E+02  0.22359874527E+02  0.00000000000E+00 0.  1.
         21   -1    0    0  501  502 -0.00000000000E+00 -0.00000000000E+00 -0.17469910197E+03  0.17469910197E+03  0.00000000000E+00 0.  1.
         25    1    1    2    0    0  0.00000000000E+00  0.00000000000E+00 -0.15233922744E+03  0.19705897650E+03  0.12500000000E+03 0.  0.
<mgrwt>
<rscale>  2 0.12500000E+03</rscale>
<asrwt>0</asrwt>
<pdfrwt beam="1">  1       21 0.34399806E-02 0.12500000E+03</pdfrwt>
<pdfrwt beam="2">  1       21 0.26876786E-01 0.12500000E+03</pdfrwt>
<totfact> 0.65246375E+06</totfact>
</mgrwt>
</event>
<event>
 3    0  0.1721034E+001  0.1250000E+03  0.7546771E-02  0.1235069E+00
         21   -1    0    0  502  501  0.00000000000E+00  0.00000000000E+00  0.33338005309E+02  0.33338005309E+02  0.00000000000E+00 0.  1.
         21   -1    0    0  501  502 -0.00000000000E+00 -0.00000000000E+00 -0.11717107739E+03  0.11717107739E+03  0.00000000000E+00 0.  1.
         25    1    1    2    0    0  0.00000000000E+00  0.00000000000E+00 -0.83833072078E+02  0.15050908270E+03  0.12500000000E+03 0.  0.
<mgrwt>
<rscale>  2 0.12500000E+03</rscale>
<asrwt>0</asrwt>
<pdfrwt beam="1">  1       21 0.51289240E-02 0.12500000E+03</pdfrwt>
<pdfrwt beam="2">  1       21 0.18026319E-01 0.12500000E+03</pdfrwt>
<totfact> 0.70695310E+06</totfact>
</mgrwt>
</event>
<event>
 3    0  0.1431503E+001  0.1250000E+03  0.7546771E-02  0.1235069E+00
         21   -1    0    0  502  501  0.00000000000E+00  0.00000000000E+00  0.68234008278E+01  0.68234008278E+01  0.00000000000E+00 0. -1.
         21   -1    0    0  501  502 -0.00000000000E+00 -0.00000000000E+00 -0.57247846031E+03  0.57247846031E+03  0.00000000000E+00 0. -1.
         25    1    1    2    0    0  0.00000000000E+00  0.00000000000E+00 -0.56565505949E+03  0.57930186114E+03  0.12500000000E+03 0.  0.
<mgrwt>
<rscale>  2 0.12500000E+03</rscale>
<asrwt>0</asrwt>
<pdfrwt beam="1">  1       21 0.10497539E-02 0.12500000E+03</pdfrwt>
<pdfrwt beam="2">  1       21 0.88073616E-01 0.12500000E+03</pdfrwt>
<totfact> 0.38045723E+06</totfact>
</mgrwt>
</event>
<event>
 3    0  0.1712583E+001  0.1250000E+03  0.7546771E-02  0.1235069E+00
         21   -1    0    0  502  501  0.00000000000E+00  0.00000000000E+00  0.60745400203E+02  0.60745400203E+02  0.00000000000E+00 0. -1.
         21   -1    0    0  501  502 -0.00000000000E+00 -0.00000000000E+00 -0.64305280515E+02  0.64305280515E+02  0.00000000000E+00 0. -1.
         25    1    1    2    0    0  0.00000000000E+00  0.00000000000E+00 -0.35598803122E+01  0.12505068072E+03  0.12500000000E+03 0.  0.
<mgrwt>
<rscale>  2 0.12500000E+03</rscale>
<asrwt>0</asrwt>
<pdfrwt beam="1">  1       21 0.93454462E-02 0.12500000E+03</pdfrwt>
<pdfrwt beam="2">  1       21 0.98931200E-02 0.12500000E+03</pdfrwt>
<totfact> 0.74036736E+06</totfact>
</mgrwt>
</event>
<event>
 3    0  0.1538072E+001  0.1250000E+03  0.7546771E-02  0.1235069E+00
         21   -1    0    0  502  501  0.00000000000E+00  0.00000000000E+00  0.10207070562E+02  0.10207070562E+02  0.00000000000E+00 0. -1.
         21   -1    0    0  501  502 -0.00000000000E+00 -0.00000000000E+00 -0.38270040130E+03  0.38270040130E+03  0.00000000000E+00 0. -1.
         25    1    1    2    0    0  0.00000000000E+00  0.00000000000E+00 -0.37249333074E+03  0.39290747186E+03  0.12500000000E+03 0.  0.
<mgrwt>
<rscale>  2 0.12500000E+03</rscale>
<asrwt>0</asrwt>
<pdfrwt beam="1">  1       21 0.15703189E-02 0.12500000E+03</pdfrwt>
<pdfrwt beam="2">  1       21 0.58876973E-01 0.12500000E+03</pdfrwt>
<totfact> 0.48515380E+06</totfact>
</mgrwt>
</event>
<event>
 3    0  0.1368989E+001  0.1250000E+03  0.7546771E-02  0.1235069E+00
         21   -1    0    0  502  501  0.00000000000E+00  0.00000000000E+00  0.23080185974E+01  0.23080185974E+01  0.00000000000E+00 0. -1.
         21   -1    0    0  501  502 -0.00000000000E+00 -0.00000000000E+00 -0.16924690314E+04  0.16924690314E+04  0.00000000000E+00 0. -1.
         25    1    1    2    0    0  0.00000000000E+00  0.00000000000E+00 -0.16901610128E+04  0.16947770500E+04  0.12500000000E+03 0.  0.
<mgrwt>
<rscale>  2 0.12500000E+03</rscale>
<asrwt>0</asrwt>
<pdfrwt beam="1">  1       21 0.35507907E-03 0.12500000E+03</pdfrwt>
<pdfrwt beam="2">  1       21 0.26038038E+00 0.12500000E+03</pdfrwt>
<totfact> 0.11335078E+06</totfact>
</mgrwt>
</event>
<event>
 3    0  0.1368989E+001  0.1250000E+03  0.7546771E-02  0.1235069E+00
         21   -1    0    0  502  501  0.00000000000E+00  0.00000000000E+00  0.11674144414E+04  0.11674144414E+04  0.00000000000E+00 0.  1.
         21   -1    0    0  501  502 -0.00000000000E+00 -0.00000000000E+00 -0.33460696233E+01  0.33460696233E+01  0.00000000000E+00 0.  1.
         25    1    1    2    0    0  0.00000000000E+00  0.00000000000E+00  0.11640683717E+04  0.11707605110E+04  0.12500000000E+03 0.  0.
<mgrwt>
<rscale>  2 0.12500000E+03</rscale>
<asrwt>0</asrwt>
<pdfrwt beam="1">  1       21 0.17960190E+00 0.12500000E+03</pdfrwt>
<pdfrwt beam="2">  1       21 0.51478088E-03 0.12500000E+03</pdfrwt>
<totfact> 0.19736041E+06</totfact>
</mgrwt>
</event>
<event>
 3    0  0.1539725E+001  0.1250000E+03  0.7546771E-02  0.1235069E+00
         21   -1    0    0  502  501  0.00000000000E+00  0.00000000000E+00  0.34088627639E+03  0.34088627639E+03  0.00000000000E+00 0. -1.
         21   -1    0    0  501  502 -0.00000000000E+00 -0.00000000000E+00 -0.11459100206E+02  0.11459100206E+02  0.00000000000E+00 0. -1.
         25    1    1    2    0    0  0.00000000000E+00  0.00000000000E+00  0.32942717618E+03  0.35234537659E+03  0.12500000000E+03 0.  0.
<mgrwt>
<rscale>  2 0.12500000E+03</rscale>
<asrwt>0</asrwt>
<pdfrwt beam="1">  1       21 0.52444035E-01 0.12500000E+03</pdfrwt>
<pdfrwt beam="2">  1       21 0.17629388E-02 0.12500000E+03</pdfrwt>
<totfact> 0.51365688E+06</totfact>
</mgrwt>
</event>
<event>
 3    0  0.1735109E+001  0.1250000E+03  0.7546771E-02  0.1235069E+00
         21   -1    0    0  502  501  0.00000000000E+00  0.00000000000E+00  0.69982727571E+02  0.69982727571E+02  0.00000000000E+00 0.  1.
         21   -1    0    0  501  502 -0.00000000000E+00 -0.00000000000E+00 -0.55817344301E+02  0.55817344301E+02  0.00000000000E+00 0.  1.
         25    1    1    2    0    0  0.00000000000E+00  0.00000000000E+00  0.14165383270E+02  0.12580007187E+03  0.12500000000E+03 0.  0.
<mgrwt>
<rscale>  2 0.12500000E+03</rscale>
<asrwt>0</asrwt>
<pdfrwt beam="1">  1       21 0.10766573E-01 0.12500000E+03</pdfrwt>
<pdfrwt beam="2">  1       21 0.85872838E-02 0.12500000E+03</pdfrwt>
<totfact> 0.73933662E+06</totfact>
</mgrwt>
</event>
<event>
 3    0  0.1620502E+001  0.1250000E+03  0.7546771E-02  0.1235069E+00
         21   -1    0    0  502  501  0.00000000000E+00  0.00000000000E+00  0.24883338709E+03  0.24883338709E+03  0.00000000000E+00 0.  1.
         21   -1    0    0  501  502 -0.00000000000E+00 -0.00000000000E+00 -0.15698255149E+02  0.15698255149E+02  0.00000000000E+00 0.  1.
         25    1    1    2    0    0  0.00000000000E+00  0.00000000000E+00  0.23313513194E+03  0.26453164223E+03  0.12500000000E+03 0.  0.
<mgrwt>
<rscale>  2 0.12500000E+03</rscale>
<asrwt>0</asrwt>
<pdfrwt beam="1">  1       21 0.38282057E-01 0.12500000E+03</pdfrwt>
<pdfrwt beam="2">  1       21 0.24151164E-02 0.12500000E+03</pdfrwt>
<totfact> 0.58536397E+06</totfact>
</mgrwt>
</event>
<event>
 3    0  0.1368989E+001  0.1250000E+03  0.7546771E-02  0.1235069E+00
         21   -1    0    0  502  501  0.00000000000E+00  0.00000000000E+00  0.45553480121E+01  0.45553480121E+01  0.00000000000E+00 0. -1.
         21   -1    0    0  501  502 -0.00000000000E+00 -0.00000000000E+00 -0.85750857884E+03  0.85750857884E+03  0.00000000000E+00 0. -1.
         25    1    1    2    0    0  0.00000000000E+00  0.00000000000E+00 -0.85295323082E+03  0.86206392685E+03  0.12500000000E+03 0.  0.
<mgrwt>
<rscale>  2 0.12500000E+03</rscale>
<asrwt>0</asrwt>
<pdfrwt beam="1">  1       21 0.70082286E-03 0.12500000E+03</pdfrwt>
<pdfrwt beam="2">  1       21 0.13192438E+00 0.12500000E+03</pdfrwt>
<totfact> 0.27406697E+06</totfact>
</mgrwt>
</event>
<event>
 3    0  0.1368989E+001  0.1250000E+03  0.7546771E-02  0.1235069E+00
         21   -1    0    0  502  501  0.00000000000E+00  0.00000000000E+00  0.90958654964E+03  0.90958654964E+03  0.00000000000E+00 0. -1.
         21   -1    0    0  501  502 -0.00000000000E+00 -0.00000000000E+00 -0.42945336005E+01  0.42945336005E+01  0.00000000000E+00 0. -1.
         25    1    1    2    0    0  0.00000000000E+00  0.00000000000E+00  0.90529201604E+03  0.91388108324E+03  0.12500000000E+03 0.  0.
<mgrwt>
<rscale>  2 0.12500000E+03</rscale>
<asrwt>0</asrwt>
<pdfrwt beam="1">  1       21 0.13993624E+00 0.12500000E+03</pdfrwt>
<pdfrwt beam="2">  1       21 0.66069820E-03 0.12500000E+03</pdfrwt>
<totfact> 0.25903938E+06</totfact>
</mgrwt>
</event>
<event>
 3    0  0.1725998E+001  0.1250000E+03  0.7546771E-02  0.1235069E+00
         21   -1    0    0  502  501  0.00000000000E+00  0.00000000000E+00  0.40192011501E+02  0.40192011501E+02  0.00000000000E+00 0.  1.
         21   -1    0    0  501  502 -0.00000000000E+00 -0.00000000000E+00 -0.97189711440E+02  0.97189711440E+02  0.00000000000E+00 0.  1.
         25    1    1    2    0    0  0.00000000000E+00  0.00000000000E+00 -0.56997699939E+02  0.13738172294E+03  0.12500000000E+03 0.  0.
<mgrwt>
<rscale>  2 0.12500000E+03</rscale>
<asrwt>0</asrwt>
<pdfrwt beam="1">  1       21 0.61833865E-02 0.12500000E+03</pdfrwt>
<pdfrwt beam="2">  1       21 0.14952263E-01 0.12500000E+03</pdfrwt>
<totfact> 0.72382625E+06</totfact>
</mgrwt>
</event>
<event>
 3    0  0.1596534E+001  0.1250000E+03  0.7546771E-02  0.1235069E+00
         21   -1    0    0  502  501  0.00000000000E+00  0.00000000000E+00  0.31457196080E+03  0.31457196080E+03  0.00000000000E+00 0.  1.
         21   -1    0    0  501  502 -0.00000000000E+00 -0.00000000000E+00 -0.12417667455E+02  0.12417667455E+02  0.00000000000E+00 0.  1.
         25    1    1    2    0    0  0.00000000000E+00  0.00000000000E+00  0.30215429335E+03  0.32698962826E+03  0.12500000000E+03 0.  0.
<mgrwt>
<rscale>  2 0.12500000E+03</rscale>
<asrwt>0</asrwt>
<pdfrwt beam="1">  1       21 0.48395680E-01 0.12500000E+03</pdfrwt>
<pdfrwt beam="2">  1       21 0.19104106E-02 0.12500000E+03</pdfrwt>
<totfact> 0.53284060E+06</totfact>
</mgrwt>
</event>
<event>
 3    0  0.1632834E+001  0.1250000E+03  0.7546771E-02  0.1235069E+00
         21   -1    0    0  502  501  0.00000000000E+00  0.00000000000E+00  0.20031639595E+02  0.20031639595E+02  0.00000000000E+00 0. -1.
         21   -1    0    0  501  502 -0.00000000000E+00 -0.00000000000E+00 -0.19500400761E+03  0.19500400761E+03  0.00000000000E+00 0. -1.
         25    1    1    2    0    0  0.00000000000E+00  0.00000000000E+00 -0.17497236802E+03  0.21503564721E+03  0.12500000000E+03 0.  0.
<mgrwt>
<rscale>  2 0.12500000E+03</rscale>
<asrwt>0</asrwt>
<pdfrwt beam="1">  1       21 0.30817905E-02 0.12500000E+03</pdfrwt>
<pdfrwt beam="2">  1       21 0.30000618E-01 0.12500000E+03</pdfrwt>
<totfact> 0.63333591E+06</totfact>
</mgrwt>
</event>
<event>
 3    0  0.1698189E+001  0.1250000E+03  0.7546771E-02  0.1235069E+00
         21   -1    0    0  502  501  0.00000000000E+00  0.00000000000E+00  0.26269433069E+02  0.26269433069E+02  0.00000000000E+00 0.  1.
         21   -1    0    0  501  502 -0.00000000000E+00 -0.00000000000E+00 -0.14869944051E+03  0.14869944051E+03  0.00000000000E+00 0.  1.
         25    1    1    2    0    0  0.00000000000E+00  0.00000000000E+00 -0.12243000744E+03  0.17496887358E+03  0.12500000000E+03 0.  0.
<mgrwt>
<rscale>  2 0.12500000E+03</rscale>
<asrwt>0</asrwt>
<pdfrwt beam="1">  1       21 0.40414511E-02 0.12500000E+03</pdfrwt>
<pdfrwt beam="2">  1       21 0.22876838E-01 0.12500000E+03</pdfrwt>
<totfact> 0.67733431E+06</totfact>
</mgrwt>
</event>
<event>
 3    0  0.1735155E+001  0.1250000E+03  0.7546771E-02  0.1235069E+00
         21   -1    0    0  502  501  0.00000000000E+00  0.00000000000E+00  0.48979861769E+02  0.48979861769E+02  0.00000000000E+00 0.  1.
         21   -1    0    0  501  502 -0.00000000000E+00 -0.00000000000E+00 -0.79752164644E+02  0.79752164644E+02  0.00000000000E+00 0.  1.
         25    1    1    2    0    0  0.00000000000E+00  0.00000000000E+00 -0.30772302875E+02  0.12873202641E+03  0.12500000000E+03 0.  0.
<mgrwt>
<rscale>  2 0.12500000E+03</rscale>
<asrwt>0</asrwt>
<pdfrwt beam="1">  1       21 0.75353634E-02 0.12500000E+03</pdfrwt>
<pdfrwt beam="2">  1       21 0.12269564E-01 0.12500000E+03</pdfrwt>
<totfact> 0.73534895E+06</totfact>
</mgrwt>
</event>
<event>
 3    0  0.1697566E+001  0.1250000E+03  0.7546771E-02  0.1235069E+00
         21   -1    0    0  502  501  0.00000000000E+00  0.00000000000E+00  0.14858122130E+03  0.14858122130E+03  0.00000000000E+00 0.  1.
         21   -1    0    0  501  502 -0.00000000000E+00 -0.00000000000E+00 -0.26290334443E+02  0.26290334443E+02  0.00000000000E+00 0.  1.
         25    1    1    2    0    0  0.00000000000E+00  0.00000000000E+00  0.12229088686E+03  0.17487155574E+03  0.12500000000E+03 0.  0.
<mgrwt>
<rscale>  2 0.12500000E+03</rscale>
<asrwt>0</asrwt>
<pdfrwt beam="1">  1       21 0.22858649E-01 0.12500000E+03</pdfrwt>
<pdfrwt beam="2">  1       21 0.40446669E-02 0.12500000E+03</pdfrwt>
<totfact> 0.67744781E+06</totfact>
</mgrwt>
</event>
<event>
 3    0  0.1713556E+001  0.1250000E+03  0.7546771E-02  0.1235069E+00
         21   -1    0    0  502  501  0.00000000000E+00  0.00000000000E+00  0.11629422828E+03  0.11629422828E+03  0.00000000000E+00 0.  1.
         21   -1    0    0  501  502 -0.00000000000E+00 -0.00000000000E+00 -0.33589371183E+02  0.33589371183E+02  0.00000000000E+00 0.  1.
         25    1    1    2    0    0  0.00000000000E+00  0.00000000000E+00  0.82704857092E+02  0.14988359946E+03  0.12500000000E+03 0.  0.
<mgrwt>
<rscale>  2 0.12500000E+03</rscale>
<asrwt>0</asrwt>
<pdfrwt beam="1">  1       21 0.17891420E-01 0.12500000E+03</pdfrwt>
<pdfrwt beam="2">  1       21 0.51675956E-02 0.12500000E+03</pdfrwt>
<totfact> 0.70773826E+06</totfact>
</mgrwt>
</event>
<event>
 3    0  0.1711230E+001  0.1250000E+03  0.7546771E-02  0.1235069E+00
         21   -1    0    0  502  501  0.00000000000E+00  0.00000000000E+00  0.67666703705E+02  0.67666703705E+02  0.00000000000E+00 0. -1.
         21   -1    0    0  501  502 -0.00000000000E+00 -0.00000000000E+00 -0.57727800914E+02  0.57727800914E+02  0.00000000000E+00 0. -1.
         25    1    1    2    0    0  0.00000000000E+00  0.00000000000E+00  0.99389027904E+01  0.12539450462E+03  0.12500000000E+03 0.  0.
<mgrwt>
<rscale>  2 0.12500000E+03</rscale>
<asrwt>0</asrwt>
<pdfrwt beam="1">  1       21 0.10410262E-01 0.12500000E+03</pdfrwt>
<pdfrwt beam="2">  1       21 0.88812002E-02 0.12500000E+03</pdfrwt>
<totfact> 0.73990184E+06</totfact>
</mgrwt>
</event>
<event>
 3    0  0.1712668E+001  0.1250000E+03  0.7546771E-02  0.1235069E+00
         21   -1    0    0  502  501  0.00000000000E+00  0.00000000000E+00  0.12435861455E+03  0.12435861455E+03  0.00000000000E+00 0.  1.
         21   -1    0    0  501  502 -0.00000000000E+00 -0.00000000000E+00 -0.31411173356E+02  0.31411173356E+02  0.00000000000E+00 0.  1.
         25    1    1    2    0    0  0.00000000000E+00  0.00000000000E+00  0.92947441197E+02  0.15576978791E+03  0.12500000000E+03 0.  0.
<mgrwt>
<rscale>  2 0.12500000E+03</rscale>
<asrwt>0</asrwt>
<pdfrwt beam="1">  1       21 0.19132094E-01 0.12500000E+03</pdfrwt>
<pdfrwt beam="2">  1       21 0.48324883E-02 0.12500000E+03</pdfrwt>
<totfact> 0.70040110E+06</totfact>
</mgrwt>
</event>
<event>
 3    0  0.1693620E+001  0.1250000E+03  0.7546771E-02  0.1235069E+00
         21   -1    0    0  502  501  0.00000000000E+00  0.00000000000E+00  0.10435651975E+03  0.10435651975E+03  0.00000000000E+00 0. -1.
         21   -1    0    0  501  502 -0.00000000000E+00 -0.00000000000E+00 -0.37431777232E+02  0.37431777232E+02  0.00000000000E+00 0. -1.
         25    1    1    2    0    0  0.00000000000E+00  0.00000000000E+00  0.66924742520E+02  0.14178829698E+03  0.12500000000E+03 0.  0.
<mgrwt>
<rscale>  2 0.12500000E+03</rscale>
<asrwt>0</asrwt>
<pdfrwt beam="1">  1       21 0.16054849E-01 0.12500000E+03</pdfrwt>
<pdfrwt beam="2">  1       21 0.57587350E-02 0.12500000E+03</pdfrwt>
<totfact> 0.71806702E+06</totfact>
</mgrwt>
</event>
<event>
 3    0  0.1471413E+001  0.1250000E+03  0.7546771E-02  0.1235069E+00
         21   -1    0    0  502  501  0.00000000000E+00  0.00000000000E+00  0.47500838842E+03  0.47500838842E+03  0.00000000000E+00 0.  1.
         21   -1    0    0  501  502 -0.00000000000E+00 -0.00000000000E+00 -0.82235389842E+01  0.82235389842E+01  0.00000000000E+00 0.  1.
         25    1    1    2    0    0  0.00000000000E+00  0.00000000000E+00  0.46678484944E+03  0.48323192740E+03  0.12500000000E+03 0.  0.
<mgrwt>
<rscale>  2 0.12500000E+03</rscale>
<asrwt>0</asrwt>
<pdfrwt beam="1">  1       21 0.73078192E-01 0.12500000E+03</pdfrwt>
<pdfrwt beam="2">  1       21 0.12651602E-02 0.12500000E+03</pdfrwt>
<totfact> 0.42968295E+06</totfact>
</mgrwt>
</event>
<event>
 3    0  0.1712224E+001  0.1250000E+03  0.7546771E-02  0.1235069E+00
         21   -1    0    0  502  501  0.00000000000E+00  0.00000000000E+00  0.64024120736E+02  0.64024120736E+02  0.00000000000E+00 0. -1.
         21   -1    0    0  501  502 -0.00000000000E+00 -0.00000000000E+00 -0.61012161590E+02  0.61012161590E+02  0.00000000000E+00 0. -1.
         25    1    1    2    0    0  0.00000000000E+00  0.00000000000E+00  0.30119591462E+01  0.12503628233E+03  0.12500000000E+03 0.  0.
<mgrwt>
<rscale>  2 0.12500000E+03</rscale>
<asrwt>0</asrwt>
<pdfrwt beam="1">  1       21 0.98498647E-02 0.12500000E+03</pdfrwt>
<pdfrwt beam="2">  1       21 0.93864864E-02 0.12500000E+03</pdfrwt>
<totfact> 0.74038681E+06</totfact>
</mgrwt>
</event>
<event>
 3    0  0.1368989E+001  0.1250000E+03  0.7546771E-02  0.1235069E+00
         21   -1    0    0  502  501  0.00000000000E+00  0.00000000000E+00  0.55161612422E+01  0.55161612422E+01  0.00000000000E+00 0. -1.
         21   -1    0    0  501  502 -0.00000000000E+00 -0.00000000000E+00 -0.70814644977E+03  0.70814644977E+03  0.00000000000E+00 0. -1.
         25    1    1    2    0    0  0.00000000000E+00  0.00000000000E+00 -0.70263028853E+03  0.71366261101E+03  0.12500000000E+03 0.  0.
<mgrwt>
<rscale>  2 0.12500000E+03</rscale>
<asrwt>0</asrwt>
<pdfrwt beam="1">  1       21 0.84864037E-03 0.12500000E+03</pdfrwt>
<pdfrwt beam="2">  1       21 0.10894558E+00 0.12500000E+03</pdfrwt>
<totfact> 0.32390020E+06</totfact>
</mgrwt>
</event>
<event>
 3    0  0.1697839E+001  0.1250000E+03  0.7546771E-02  0.1235069E+00
         21   -1    0    0  502  501  0.00000000000E+00  0.00000000000E+00  0.13632944029E+03  0.13632944029E+03  0.00000000000E+00 0.  1.
         21   -1    0    0  501  502 -0.00000000000E+00 -0.00000000000E+00 -0.28653018684E+02  0.28653018684E+02  0.00000000000E+00 0.  1.
         25    1    1    2    0    0  0.00000000000E+00  0.00000000000E+00  0.10767642161E+03  0.16498245898E+03  0.12500000000E+03 0.  0.
<mgrwt>
<rscale>  2 0.12500000E+03</rscale>
<asrwt>0</asrwt>
<pdfrwt beam="1">  1       21 0.20973760E-01 0.12500000E+03</pdfrwt>
<pdfrwt beam="2">  1       21 0.44081568E-02 0.12500000E+03</pdfrwt>
<totfact> 0.68915761E+06</totfact>
</mgrwt>
</event>
<event>
 3    0  0.1369238E+001  0.1250000E+03  0.7546771E-02  0.1235069E+00
         21   -1    0    0  502  501  0.00000000000E+00  0.00000000000E+00  0.55492639690E+01  0.55492639690E+01  0.00000000000E+00 0.  1.
         21   -1    0    0  501  502 -0.00000000000E+00 -0.00000000000E+00 -0.70392218173E+03  0.70392218173E+03  0.00000000000E+00 0.  1.
         25    1    1    2    0    0  0.00000000000E+00  0.00000000000E+00 -0.69837291776E+03  0.70947144569E+03  0.12500000000E+03 0.  0.
<mgrwt>
<rscale>  2 0.12500000E+03</rscale>
<asrwt>0</asrwt>
<pdfrwt beam="1">  1       21 0.85373327E-03 0.12500000E+03</pdfrwt>
<pdfrwt beam="2">  1       21 0.10829568E+00 0.12500000E+03</pdfrwt>
<totfact> 0.32548180E+06</totfact>
</mgrwt>
</event>
<event>
 3    0  0.1718237E+001  0.1250000E+03  0.7546771E-02  0.1235069E+00
         21   -1    0    0  502  501  0.00000000000E+00  0.00000000000E+00  0.37516585841E+02  0.37516585841E+02  0.00000000000E+00 0.  1.
         21   -1    0    0  501  502 -0.00000000000E+00 -0.00000000000E+00 -0.10412061525E+03  0.10412061525E+03  0.00000000000E+00 0.  1.
         25    1    1    2    0    0  0.00000000000E+00  0.00000000000E+00 -0.66604029414E+02  0.14163720110E+03  0.12500000000E+03 0.  0.
<mgrwt>
<rscale>  2 0.12500000E+03</rscale>
<asrwt>0</asrwt>
<pdfrwt beam="1">  1       21 0.57717825E-02 0.12500000E+03</pdfrwt>
<pdfrwt beam="2">  1       21 0.16018556E-01 0.12500000E+03</pdfrwt>
<totfact> 0.71826290E+06</totfact>
</mgrwt>
</event>
<event>
 3    0  0.1710296E+001  0.1250000E+03  0.7546771E-02  0.1235069E+00
         21   -1    0    0  502  501  0.00000000000E+00  0.00000000000E+00  0.52993416543E+02  0.52993416543E+02  0.00000000000E+00 0. -1.
         21   -1    0    0  501  502 -0.00000000000E+00 -0.00000000000E+00 -0.73711986410E+02  0.73711986410E+02  0.00000000000E+00 0. -1.
         25    1    1    2    0    0  0.00000000000E+00  0.00000000000E+00 -0.20718569867E+02  0.12670540295E+03  0.12500000000E+03 0.  0.
<mgrwt>
<rscale>  2 0.12500000E+03</rscale>
<asrwt>0</asrwt>
<pdfrwt beam="1">  1       21 0.81528334E-02 0.12500000E+03</pdfrwt>
<pdfrwt beam="2">  1       21 0.11340305E-01 0.12500000E+03</pdfrwt>
<totfact> 0.73809297E+06</totfact>
</mgrwt>
</event>
<event>
 3    0  0.1631634E+001  0.1250000E+03  0.7546771E-02  0.1235069E+00
         21   -1    0    0  502  501  0.00000000000E+00  0.00000000000E+00  0.15184346390E+02  0.15184346390E+02  0.00000000000E+00 0.  1.
         21   -1    0    0  501  502 -0.00000000000E+00 -0.00000000000E+00 -0.25725506384E+03  0.25725506384E+03  0.00000000000E+00 0.  1.
         25    1    1    2    0    0  0.00000000000E+00  0.00000000000E+00 -0.24207071745E+03  0.27243941023E+03  0.12500000000E+03 0.  0.
<mgrwt>
<rscale>  2 0.12500000E+03</rscale>
<asrwt>0</asrwt>
<pdfrwt beam="1">  1       21 0.23360534E-02 0.12500000E+03</pdfrwt>
<pdfrwt beam="2">  1       21 0.39577701E-01 0.12500000E+03</pdfrwt>
<totfact> 0.57827261E+06</totfact>
</mgrwt>
</event>
<event>
 3    0  0.1703352E+001  0.1250000E+03  0.7546771E-02  0.1235069E+00
         21   -1    0    0  502  501  0.00000000000E+00  0.00000000000E+00  0.96471733591E+02  0.96471733591E+02  0.00000000000E+00 0. -1.
         21   -1    0    0  501  502 -0.00000000000E+00 -0.00000000000E+00 -0.40491135119E+02  0.40491135119E+02  0.00000000000E+00 0. -1.
         25    1    1    2    0    0  0.00000000000E+00  0.00000000000E+00  0.55980598472E+02  0.13696286871E+03  0.12500000000E+03 0.  0.
<mgrwt>
<rscale>  2 0.12500000E+03</rscale>
<asrwt>0</asrwt>
<pdfrwt beam="1">  1       21 0.14841805E-01 0.12500000E+03</pdfrwt>
<pdfrwt beam="2">  1       21 0.62294054E-02 0.12500000E+03</pdfrwt>
<totfact> 0.72437604E+06</totfact>
</mgrwt>
</event>
<event>
 3    0  0.1532878E+001  0.1250000E+03  0.7546771E-02  0.1235069E+00
         21   -1    0    0  502  501  0.00000000000E+00  0.00000000000E+00  0.39495326836E+03  0.39495326836E+03  0.00000000000E+00 0.  1.
         21   -1    0    0  501  502 -0.00000000000E+00 -0.00000000000E+00 -0.98904106205E+01  0.98904106205E+01  0.00000000000E+00 0.  1.
         25    1    1    2    0    0  0.00000000000E+00  0.00000000000E+00  0.38506285774E+03  0.40484367898E+03  0.12500000000E+03 0.  0.
<mgrwt>
<rscale>  2 0.12500000E+03</rscale>
<asrwt>0</asrwt>
<pdfrwt beam="1">  1       21 0.60762029E-01 0.12500000E+03</pdfrwt>
<pdfrwt beam="2">  1       21 0.15216019E-02 0.12500000E+03</pdfrwt>
<totfact> 0.47721731E+06</totfact>
</mgrwt>
</event>
<event>
 3    0  0.1586969E+001  0.1250000E+03  0.7546771E-02  0.1235069E+00
         21   -1    0    0  502  501  0.00000000000E+00  0.00000000000E+00  0.14168080603E+02  0.14168080603E+02  0.00000000000E+00 0. -1.
         21   -1    0    0  501  502 -0.00000000000E+00 -0.00000000000E+00 -0.27570777648E+03  0.27570777648E+03  0.00000000000E+00 0. -1.
         25    1    1    2    0    0  0.00000000000E+00  0.00000000000E+00 -0.26153969588E+03  0.28987585709E+03  0.12500000000E+03 0.  0.
<mgrwt>
<rscale>  2 0.12500000E+03</rscale>
<asrwt>0</asrwt>
<pdfrwt beam="1">  1       21 0.21797048E-02 0.12500000E+03</pdfrwt>
<pdfrwt beam="2">  1       21 0.42416580E-01 0.12500000E+03</pdfrwt>
<totfact> 0.56308166E+06</totfact>
</mgrwt>
</event>
<event>
 3    0  0.1624415E+001  0.1250000E+03  0.7546771E-02  0.1235069E+00
         21   -1    0    0  502  501  0.00000000000E+00  0.00000000000E+00  0.20826982129E+03  0.20826982129E+03  0.00000000000E+00 0. -1.
         21   -1    0    0  501  502 -0.00000000000E+00 -0.00000000000E+00 -0.18755717827E+02  0.18755717827E+02  0.00000000000E+00 0. -1.
         25    1    1    2    0    0  0.00000000000E+00  0.00000000000E+00  0.18951410346E+03  0.22702553912E+03  0.12500000000E+03 0.  0.
<mgrwt>
<rscale>  2 0.12500000E+03</rscale>
<asrwt>0</asrwt>
<pdfrwt beam="1">  1       21 0.32041509E-01 0.12500000E+03</pdfrwt>
<pdfrwt beam="2">  1       21 0.28854952E-02 0.12500000E+03</pdfrwt>
<totfact> 0.62111242E+06</totfact>
</mgrwt>
</event>
<event>
 3    0  0.1368989E+001  0.1250000E+03  0.7546771E-02  0.1235069E+00
         21   -1    0    0  502  501  0.00000000000E+00  0.00000000000E+00  0.40201458745E+01  0.40201458745E+01  0.00000000000E+00 0. -1.
         21   -1    0    0  501  502 -0.00000000000E+00 -0.00000000000E+00 -0.97166872098E+03  0.97166872098E+03  0.00000000000E+00 0. -1.
         25    1    1    2    0    0  0.00000000000E+00  0.00000000000E+00 -0.96764857511E+03  0.97568886686E+03  0.12500000000E+03 0.  0.
<mgrwt>
<rscale>  2 0.12500000E+03</rscale>
<asrwt>0</asrwt>
<pdfrwt beam="1">  1       21 0.61848358E-03 0.12500000E+03</pdfrwt>
<pdfrwt beam="2">  1       21 0.14948759E+00 0.12500000E+03</pdfrwt>
<totfact> 0.24235988E+06</totfact>
</mgrwt>
</event>
<event>
 3    0  0.1541430E+001  0.1250000E+03  0.7546771E-02  0.1235069E+00
         21   -1    0    0  502  501  0.00000000000E+00  0.00000000000E+00  0.35049227818E+03  0.35049227818E+03  0.00000000000E+00 0.  1.
         21   -1    0    0  501  502 -0.00000000000E+00 -0.00000000000E+00 -0.11145038688E+02  0.11145038688E+02  0.00000000000E+00 0.  1.
         25    1    1    2    0    0  0.00000000000E+00  0.00000000000E+00  0.33934723949E+03  0.36163731687E+03  0.12500000000E+03 0.  0.
<mgrwt>
<rscale>  2 0.12500000E+03</rscale>
<asrwt>0</asrwt>
<pdfrwt beam="1">  1       21 0.53921881E-01 0.12500000E+03</pdfrwt>
<pdfrwt beam="2">  1       21 0.17146216E-02 0.12500000E+03</pdfrwt>
<totfact> 0.50690304E+06</totfact>
</mgrwt>
</event>
<event>
 3    0  0.1722199E+001  0.1250000E+03  0.7546771E-02  0.1235069E+00
         21   -1    0    0  502  501  0.00000000000E+00  0.00000000000E+00  0.10532296490E+03  0.10532296490E+03  0.00000000000E+00 0.  1.
         21   -1    0    0  501  502 -0.00000000000E+00 -0.00000000000E+00 -0.37088302667E+02  0.37088302667E+02  0.00000000000E+00 0.  1.
         25    1    1    2    0    0  0.00000000000E+00  0.00000000000E+00  0.68234662233E+02  0.14241126757E+03  0.12500000000E+03 0.  0.
<mgrwt>
<rscale>  2 0.12500000E+03</rscale>
<asrwt>0</asrwt>
<pdfrwt beam="1">  1       21 0.16203533E-01 0.12500000E+03</pdfrwt>
<pdfrwt beam="2">  1       21 0.57058928E-02 0.12500000E+03</pdfrwt>
<totfact> 0.71726065E+06</totfact>
</mgrwt>
</event>
<event>
 3    0  0.1368989E+001  0.1250000E+03  0.7546771E-02  0.1235069E+00
         21   -1    0    0  502  501  0.00000000000E+00  0.00000000000E+00  0.26847455208E+01  0.26847455208E+01  0.00000000000E+00 0. -1.
         21   -1    0    0  501  502 -0.00000000000E+00 -0.00000000000E+00 -0.14549796134E+04  0.14549796134E+04  0.00000000000E+00 0. -1.
         25    1    1    2    0    0  0.00000000000E+00  0.00000000000E+00 -0.14522948679E+04  0.14576643590E+04  0.12500000000E+03 0.  0.
<mgrwt>
<rscale>  2 0.12500000E+03</rscale>
<asrwt>0</asrwt>
<pdfrwt beam="1">  1       21 0.41303697E-03 0.12500000E+03</pdfrwt>
<pdfrwt beam="2">  1       21 0.22384345E+00 0.12500000E+03</pdfrwt>
<totfact> 0.14632264E+06</totfact>
</mgrwt>
</event>
<event>
 3    0  0.1571971E+001  0.1250000E+03  0.7546771E-02  0.1235069E+00
         21   -1    0    0  502  501  0.00000000000E+00  0.00000000000E+00  0.11630453575E+02  0.11630453575E+02  0.00000000000E+00 0.  1.
         21   -1    0    0  501  502 -0.00000000000E+00 -0.00000000000E+00 -0.33586394329E+03  0.33586394329E+03  0.00000000000E+00 0.  1.
         25    1    1    2    0    0  0.00000000000E+00  0.00000000000E+00 -0.32423348971E+03  0.34749439686E+03  0.12500000000E+03 0.  0.
<mgrwt>
<rscale>  2 0.12500000E+03</rscale>
<asrwt>0</asrwt>
<pdfrwt beam="1">  1       21 0.17893005E-02 0.12500000E+03</pdfrwt>
<pdfrwt beam="2">  1       21 0.51671377E-01 0.12500000E+03</pdfrwt>
<totfact> 0.51724010E+06</totfact>
</mgrwt>
</event>
<event>
 3    0  0.1368989E+001  0.1250000E+03  0.7546771E-02  0.1235069E+00
         21   -1    0    0  502  501  0.00000000000E+00  0.00000000000E+00  0.19371439269E+04  0.19371439269E+04  0.00000000000E+00 0. -1.
         21   -1    0    0  501  502 -0.00000000000E+00 -0.00000000000E+00 -0.20164996239E+01  0.20164996239E+01  0.00000000000E+00 0. -1.
         25    1    1    2    0    0  0.00000000000E+00  0.00000000000E+00  0.19351274273E+04  0.19391604266E+04  0.12500000000E+03 0.  0.
<mgrwt>
<rscale>  2 0.12500000E+03</rscale>
<asrwt>0</asrwt>
<pdfrwt beam="1">  1       21 0.29802065E+00 0.12500000E+03</pdfrwt>
<pdfrwt beam="2">  1       21 0.31023226E-03 0.12500000E+03</pdfrwt>
<totfact> 0.85567057E+05</totfact>
</mgrwt>
</event>
<event>
 3    0  0.1723723E+001  0.1250000E+03  0.7546771E-02  0.1235069E+00
         21   -1    0    0  502  501  0.00000000000E+00  0.00000000000E+00  0.39690470789E+02  0.39690470789E+02  0.00000000000E+00 0.  1.
         21   -1    0    0  501  502 -0.00000000000E+00 -0.00000000000E+00 -0.98417829829E+02  0.98417829829E+02  0.00000000000E+00 0.  1.
         25    1    1    2    0    0  0.00000000000E+00  0.00000000000E+00 -0.58727359040E+02  0.13810830062E+03  0.12500000000E+03 0.  0.
<mgrwt>
<rscale>  2 0.12500000E+03</rscale>
<asrwt>0</asrwt>
<pdfrwt beam="1">  1       21 0.61062263E-02 0.12500000E+03</pdfrwt>
<pdfrwt beam="2">  1       21 0.15141204E-01 0.12500000E+03</pdfrwt>
<totfact> 0.72287238E+06</totfact>
</mgrwt>
</event>
<event>
 3    0  0.1392918E+001  0.1250000E+03  0.7546771E-02  0.1235069E+00
         21   -1    0    0  502  501  0.00000000000E+00  0.00000000000E+00  0.73979014149E+03  0.73979014149E+03  0.00000000000E+00 0.  1.
         21   -1    0    0  501  502 -0.00000000000E+00 -0.00000000000E+00 -0.52802136456E+01  0.52802136456E+01  0.00000000000E+00 0.  1.
         25    1    1    2    0    0  0.00000000000E+00  0.00000000000E+00  0.73450992785E+03  0.74507035514E+03  0.12500000000E+03 0.  0.
<mgrwt>
<rscale>  2 0.12500000E+03</rscale>
<asrwt>0</asrwt>
<pdfrwt beam="1">  1       21 0.11381379E+00 0.12500000E+03</pdfrwt>
<pdfrwt beam="2">  1       21 0.81234115E-03 0.12500000E+03</pdfrwt>
<totfact> 0.31243024E+06</totfact>
</mgrwt>
</event>
<event>
 3    0  0.1412305E+001  0.1250000E+03  0.7546771E-02  0.1235069E+00
         21   -1    0    0  502  501  0.00000000000E+00  0.00000000000E+00  0.67749596976E+03  0.67749596976E+03  0.00000000000E+00 0.  1.
         21   -1    0    0  501  502 -0.00000000000E+00 -0.00000000000E+00 -0.57657169553E+01  0.57657169553E+01  0.00000000000E+00 0.  1.
         25    1    1    2    0    0  0.00000000000E+00  0.00000000000E+00  0.67173025281E+03  0.68326168672E+03  0.12500000000E+03 0.  0.
<mgrwt>
<rscale>  2 0.12500000E+03</rscale>
<asrwt>0</asrwt>
<pdfrwt beam="1">  1       21 0.10423009E+00 0.12500000E+03</pdfrwt>
<pdfrwt beam="2">  1       21 0.88703392E-03 0.12500000E+03</pdfrwt>
<totfact> 0.33565524E+06</totfact>
</mgrwt>
</event>
<event>
 3    0  0.1639054E+001  0.1250000E+03  0.7546771E-02  0.1235069E+00
         21   -1    0    0  502  501  0.00000000000E+00  0.00000000000E+00  0.22884458570E+03  0.22884458570E+03  0.00000000000E+00 0.  1.
         21   -1    0    0  501  502 -0.00000000000E+00 -0.00000000000E+00 -0.17069444698E+02  0.17069444698E+02  0.00000000000E+00 0.  1.
         25    1    1    2    0    0  0.00000000000E+00  0.00000000000E+00  0.21177514100E+03  0.24591403040E+03  0.12500000000E+03 0.  0.
<mgrwt>
<rscale>  2 0.12500000E+03</rscale>
<asrwt>0</asrwt>
<pdfrwt beam="1">  1       21 0.35206857E-01 0.12500000E+03</pdfrwt>
<pdfrwt beam="2">  1       21 0.26260686E-02 0.12500000E+03</pdfrwt>
<totfact> 0.60265025E+06</totfact>
</mgrwt>
</event>
<event>
 3    0  0.1368989E+001  0.1250000E+03  0.7546771E-02  0.1235069E+00
         21   -1    0    0  502  501  0.00000000000E+00  0.00000000000E+00  0.10093514361E+04  0.10093514361E+04  0.00000000000E+00 0.  1.
         21   -1    0    0  501  502 -0.00000000000E+00 -0.00000000000E+00 -0.38700593871E+01  0.38700593871E+01  0.00000000000E+00 0.  1.
         25    1    1    2    0    0  0.00000000000E+00  0.00000000000E+00  0.10054813767E+04  0.10132214954E+04  0.12500000000E+03 0.  0.
<mgrwt>
<rscale>  2 0.12500000E+03</rscale>
<asrwt>0</asrwt>
<pdfrwt beam="1">  1       21 0.15528463E+00 0.12500000E+03</pdfrwt>
<pdfrwt beam="2">  1       21 0.59539456E-03 0.12500000E+03</pdfrwt>
<totfact> 0.23291028E+06</totfact>
</mgrwt>
</event>
<event>
 3    0  0.1635791E+001  0.1250000E+03  0.7546771E-02  0.1235069E+00
         21   -1    0    0  502  501  0.00000000000E+00  0.00000000000E+00  0.25522665191E+03  0.25522665191E+03  0.00000000000E+00 0.  1.
         21   -1    0    0  501  502 -0.00000000000E+00 -0.00000000000E+00 -0.15305023871E+02  0.15305023871E+02  0.00000000000E+00 0.  1.
         25    1    1    2    0    0  0.00000000000E+00  0.00000000000E+00  0.23992162804E+03  0.27053167578E+03  0.12500000000E+03 0.  0.
<mgrwt>
<rscale>  2 0.12500000E+03</rscale>
<asrwt>0</asrwt>
<pdfrwt beam="1">  1       21 0.39265635E-01 0.12500000E+03</pdfrwt>
<pdfrwt beam="2">  1       21 0.23546193E-02 0.12500000E+03</pdfrwt>
<totfact> 0.57997228E+06</totfact>
</mgrwt>
</event>
<event>
 3    0  0.1368989E+001  0.1250000E+03  0.7546771E-02  0.1235069E+00
         21   -1    0    0  502  501  0.00000000000E+00  0.00000000000E+00  0.41997551470E+01  0.41997551470E+01  0.00000000000E+00 0. -1.
         21   -1    0    0  501  502 -0.00000000000E+00 -0.00000000000E+00 -0.93011374789E+03  0.93011374789E+03  0.00000000000E+00 0. -1.
         25    1    1    2    0    0  0.00000000000E+00  0.00000000000E+00 -0.92591399274E+03  0.93431350303E+03  0.12500000000E+03 0.  0.
<mgrwt>
<rscale>  2 0.12500000E+03</rscale>
<asrwt>0</asrwt>
<pdfrwt beam="1">  1       21 0.64611602E-03 0.12500000E+03</pdfrwt>
<pdfrwt beam="2">  1       21 0.14309446E+00 0.12500000E+03</pdfrwt>
<totfact> 0.25336142E+06</totfact>
</mgrwt>
</event>
<event>
 3    0  0.1368989E+001  0.1250000E+03  0.7546771E-02  0.1235069E+00
         21   -1    0    0  502  501  0.00000000000E+00  0.00000000000E+00  0.13879023095E+04  0.13879023095E+04  0.00000000000E+00 0. -1.
         21   -1    0    0  501  502 -0.00000000000E+00 -0.00000000000E+00 -0.28144992435E+01  0.28144992435E+01  0.00000000000E+00 0. -1.
         25    1    1    2    0    0  0.00000000000E+00  0.00000000000E+00  0.13850878102E+04  0.13907168087E+04  0.12500000000E+03 0.  0.
<mgrwt>
<rscale>  2 0.12500000E+03</rscale>
<asrwt>0</asrwt>
<pdfrwt beam="1">  1       21 0.21352289E+00 0.12500000E+03</pdfrwt>
<pdfrwt beam="2">  1       21 0.43300099E-03 0.12500000E+03</pdfrwt>
<totfact> 0.15696618E+06</totfact>
</mgrwt>
</event>
<event>
 3    0  0.1576664E+001  0.1250000E+03  0.7546771E-02  0.1235069E+00
         21   -1    0    0  502  501  0.00000000000E+00  0.00000000000E+00  0.31327746319E+03  0.31327746319E+03  0.00000000000E+00 0. -1.
         21   -1    0    0  501  502 -0.00000000000E+00 -0.00000000000E+00 -0.12468978650E+02  0.12468978650E+02  0.00000000000E+00 0. -1.
         25    1    1    2    0    0  0.00000000000E+00  0.00000000000E+00  0.30080848454E+03  0.32574644184E+03  0.12500000000E+03 0.  0.
<mgrwt>
<rscale>  2 0.12500000E+03</rscale>
<asrwt>0</asrwt>
<pdfrwt beam="1">  1       21 0.48196527E-01 0.12500000E+03</pdfrwt>
<pdfrwt beam="2">  1       21 0.19183046E-02 0.12500000E+03</pdfrwt>
<totfact> 0.53381088E+06</totfact>
</mgrwt>
</event>
<event>
 3    0  0.1702127E+001  0.1250000E+03  0.7546771E-02  0.1235069E+00
         21   -1    0    0  502  501  0.00000000000E+00  0.00000000000E+00  0.92505489703E+02  0.92505489703E+02  0.00000000000E+00 0. -1.
         21   -1    0    0  501  502 -0.00000000000E+00 -0.00000000000E+00 -0.42227223623E+02  0.42227223623E+02  0.00000000000E+00 0. -1.
         25    1    1    2    0    0  0.00000000000E+00  0.00000000000E+00  0.50278266080E+02  0.13473271333E+03  0.12500000000E+03 0.  0.
<mgrwt>
<rscale>  2 0.12500000E+03</rscale>
<asrwt>0</asrwt>
<pdfrwt beam="1">  1       21 0.14231614E-01 0.12500000E+03</pdfrwt>
<pdfrwt beam="2">  1       21 0.64964960E-02 0.12500000E+03</pdfrwt>
<totfact> 0.72731882E+06</totfact>
</mgrwt>
</event>
<event>
 3    0  0.1516587E+001  0.1250000E+03  0.7546771E-02  0.1235069E+00
         21   -1    0    0  502  501  0.00000000000E+00  0.00000000000E+00  0.99359038716E+01  0.99359038716E+01  0.00000000000E+00 0. -1.
         21   -1    0    0  501  502 -0.00000000000E+00 -0.00000000000E+00 -0.39314490664E+03  0.39314490664E+03  0.00000000000E+00 0. -1.
         25    1    1    2    0    0  0.00000000000E+00  0.00000000000E+00 -0.38320900277E+03  0.40308081051E+03  0.12500000000E+03 0.  0.
<mgrwt>
<rscale>  2 0.12500000E+03</rscale>
<asrwt>0</asrwt>
<pdfrwt beam="1">  1       21 0.15286009E-02 0.12500000E+03</pdfrwt>
<pdfrwt beam="2">  1       21 0.60483820E-01 0.12500000E+03</pdfrwt>
<totfact> 0.47837678E+06</totfact>
</mgrwt>
</event>
<event>
 3    0  0.1682156E+001  0.1250000E+03  0.7546771E-02  0.1235069E+00
         21   -1    0    0  502  501  0.00000000000E+00  0.00000000000E+00  0.17107892992E+03  0.17107892992E+03  0.00000000000E+00 0.  1.
         21   -1    0    0  501  502 -0.00000000000E+00 -0.00000000000E+00 -0.22833028017E+02  0.22833028017E+02  0.00000000000E+00 0.  1.
         25    1    1    2    0    0  0.00000000000E+00  0.00000000000E+00  0.14824590190E+03  0.19391195794E+03  0.12500000000E+03 0.  0.
<mgrwt>
<rscale>  2 0.12500000E+03</rscale>
<asrwt>0</asrwt>
<pdfrwt beam="1">  1       21 0.26319835E-01 0.12500000E+03</pdfrwt>
<pdfrwt beam="2">  1       21 0.35127736E-02 0.12500000E+03</pdfrwt>
<totfact> 0.65590303E+06</totfact>
</mgrwt>
</event>
<event>
 3    0  0.1368989E+001  0.1250000E+03  0.7546771E-02  0.1235069E+00
         21   -1    0    0  502  501  0.00000000000E+00  0.00000000000E+00  0.11770726419E+04  0.11770726419E+04  0.00000000000E+00 0.  1.
         21   -1    0    0  501  502 -0.00000000000E+00 -0.00000000000E+00 -0.33186142137E+01  0.33186142137E+01  0.00000000000E+00 0.  1.
         25    1    1    2    0    0  0.00000000000E+00  0.00000000000E+00  0.11737540277E+04  0.11803912561E+04  0.12500000000E+03 0.  0.
<mgrwt>
<rscale>  2 0.12500000E+03</rscale>
<asrwt>0</asrwt>
<pdfrwt beam="1">  1       21 0.18108777E+00 0.12500000E+03</pdfrwt>
<pdfrwt beam="2">  1       21 0.51055697E-03 0.12500000E+03</pdfrwt>
<totfact> 0.19538624E+06</totfact>
</mgrwt>
</event>
<event>
 3    0  0.1368989E+001  0.1250000E+03  0.7546771E-02  0.1235069E+00
         21   -1    0    0  502  501  0.00000000000E+00  0.00000000000E+00  0.55318588624E+01  0.55318588624E+01  0.00000000000E+00 0.  1.
         21   -1    0    0  501  502 -0.00000000000E+00 -0.00000000000E+00 -0.70613695995E+03  0.70613695995E+03  0.00000000000E+00 0.  1.
         25    1    1    2    0    0  0.00000000000E+00  0.00000000000E+00 -0.70060510109E+03  0.71166881882E+03  0.12500000000E+03 0.  0.
<mgrwt>
<rscale>  2 0.12500000E+03</rscale>
<asrwt>0</asrwt>
<pdfrwt beam="1">  1       21 0.85105506E-03 0.12500000E+03</pdfrwt>
<pdfrwt beam="2">  1       21 0.10863647E+00 0.12500000E+03</pdfrwt>
<totfact> 0.32465092E+06</totfact>
</mgrwt>
</event>
<event>
 3    0  0.1539917E+001  0.1250000E+03  0.7546771E-02  0.1235069E+00
         21   -1    0    0  502  501  0.00000000000E+00  0.00000000000E+00  0.34079579803E+03  0.34079579803E+03  0.00000000000E+00 0. -1.
         21   -1    0    0  501  502 -0.00000000000E+00 -0.00000000000E+00 -0.11462142499E+02  0.11462142499E+02  0.00000000000E+00 0. -1.
         25    1    1    2    0    0  0.00000000000E+00  0.00000000000E+00  0.32933365553E+03  0.35225794052E+03  0.12500000000E+03 0.  0.
<mgrwt>
<rscale>  2 0.12500000E+03</rscale>
<asrwt>0</asrwt>
<pdfrwt beam="1">  1       21 0.52430115E-01 0.12500000E+03</pdfrwt>
<pdfrwt beam="2">  1       21 0.17634068E-02 0.12500000E+03</pdfrwt>
<totfact> 0.51372111E+06</totfact>
</mgrwt>
</event>
<event>
 3    0  0.1648658E+001  0.1250000E+03  0.7546771E-02  0.1235069E+00
         21   -1    0    0  502  501  0.00000000000E+00  0.00000000000E+00  0.20794968523E+03  0.20794968523E+03  0.00000000000E+00 0.  1.
         21   -1    0    0  501  502 -0.00000000000E+00 -0.00000000000E+00 -0.18784592031E+02  0.18784592031E+02  0.00000000000E+00 0.  1.
         25    1    1    2    0    0  0.00000000000E+00  0.00000000000E+00  0.18916509320E+03  0.22673427726E+03  0.12500000000E+03 0.  0.
<mgrwt>
<rscale>  2 0.12500000E+03</rscale>
<asrwt>0</asrwt>
<pdfrwt beam="1">  1       21 0.31992258E-01 0.12500000E+03</pdfrwt>
<pdfrwt beam="2">  1       21 0.28899374E-02 0.12500000E+03</pdfrwt>
<totfact> 0.62140485E+06</totfact>
</mgrwt>
</event>
<event>
 3    0  0.1500156E+001  0.1250000E+03  0.7546771E-02  0.1235069E+00
         21   -1    0    0  502  501  0.00000000000E+00  0.00000000000E+00  0.75743234159E+01  0.75743234159E+01  0.00000000000E+00 0.  1.
         21   -1    0    0  501  502 -0.00000000000E+00 -0.00000000000E+00 -0.51572263099E+03  0.51572263099E+03  0.00000000000E+00 0.  1.
         25    1    1    2    0    0  0.00000000000E+00  0.00000000000E+00 -0.50814830757E+03  0.52329695441E+03  0.12500000000E+03 0.  0.
<mgrwt>
<rscale>  2 0.12500000E+03</rscale>
<asrwt>0</asrwt>
<pdfrwt beam="1">  1       21 0.11652804E-02 0.12500000E+03</pdfrwt>
<pdfrwt beam="2">  1       21 0.79341953E-01 0.12500000E+03</pdfrwt>
<totfact> 0.40808163E+06</totfact>
</mgrwt>
</event>
<event>
 3    0  0.1376581E+001  0.1250000E+03  0.7546771E-02  0.1235069E+00
         21   -1    0    0  502  501  0.00000000000E+00  0.00000000000E+00  0.64581809823E+01  0.64581809823E+01  0.00000000000E+00 0. -1.
         21   -1    0    0  501  502 -0.00000000000E+00 -0.00000000000E+00 -0.60485297806E+03  0.60485297806E+03  0.00000000000E+00 0. -1.
         25    1    1    2    0    0  0.00000000000E+00  0.00000000000E+00 -0.59839479708E+03  0.61131115904E+03  0.12500000000E+03 0.  0.
<mgrwt>
<rscale>  2 0.12500000E+03</rscale>
<asrwt>0</asrwt>
<pdfrwt beam="1">  1       21 0.99356615E-03 0.12500000E+03</pdfrwt>
<pdfrwt beam="2">  1       21 0.93054319E-01 0.12500000E+03</pdfrwt>
<totfact> 0.36586039E+06</totfact>
</mgrwt>
</event>
<event>
 3    0  0.1368989E+001  0.1250000E+03  0.7546771E-02  0.1235069E+00
         21   -1    0    0  502  501  0.00000000000E+00  0.00000000000E+00  0.48386071441E+01  0.48386071441E+01  0.00000000000E+00 0.  1.
         21   -1    0    0  501  502 -0.00000000000E+00 -0.00000000000E+00 -0.80730877371E+03  0.80730877371E+03  0.00000000000E+00 0.  1.
         25    1    1    2    0    0  0.00000000000E+00  0.00000000000E+00 -0.80247016657E+03  0.81214738086E+03  0.12500000000E+03 0.  0.
<mgrwt>
<rscale>  2 0.12500000E+03</rscale>
<asrwt>0</asrwt>
<pdfrwt beam="1">  1       21 0.74440153E-03 0.12500000E+03</pdfrwt>
<pdfrwt beam="2">  1       21 0.12420128E+00 0.12500000E+03</pdfrwt>
<totfact> 0.28964291E+06</totfact>
</mgrwt>
</event>
<event>
 3    0  0.1368989E+001  0.1250000E+03  0.7546771E-02  0.1235069E+00
         21   -1    0    0  502  501  0.00000000000E+00  0.00000000000E+00  0.16596580932E+04  0.16596580932E+04  0.00000000000E+00 0.  1.
         21   -1    0    0  501  502 -0.00000000000E+00 -0.00000000000E+00 -0.23536474265E+01  0.23536474265E+01  0.00000000000E+00 0.  1.
         25    1    1    2    0    0  0.00000000000E+00  0.00000000000E+00  0.16573044458E+04  0.16620117407E+04  0.12500000000E+03 0.  0.
<mgrwt>
<rscale>  2 0.12500000E+03</rscale>
<asrwt>0</asrwt>
<pdfrwt beam="1">  1       21 0.25533108E+00 0.12500000E+03</pdfrwt>
<pdfrwt beam="2">  1       21 0.36210093E-03 0.12500000E+03</pdfrwt>
<totfact> 0.11752148E+06</totfact>
</mgrwt>
</event>
<event>
 3    0  0.1655210E+001  0.1250000E+03  0.7546771E-02  0.1235069E+00
         21   -1    0    0  502  501  0.00000000000E+00  0.00000000000E+00  0.17544100409E+02  0.17544100409E+02  0.00000000000E+00 0.  1.
         21   -1    0    0  501  502 -0.00000000000E+00 -0.00000000000E+00 -0.22265319446E+03  0.22265319446E+03  0.00000000000E+00 0.  1.
         25    1    1    2    0    0  0.00000000000E+00  0.00000000000E+00 -0.20510909405E+03  0.24019729487E+03  0.12500000000E+03 0.  0.
<mgrwt>
<rscale>  2 0.12500000E+03</rscale>
<asrwt>0</asrwt>
<pdfrwt beam="1">  1       21 0.26990923E-02 0.12500000E+03</pdfrwt>
<pdfrwt beam="2">  1       21 0.34254338E-01 0.12500000E+03</pdfrwt>
<totfact> 0.60813576E+06</totfact>
</mgrwt>
</event>
<event>
 3    0  0.1534988E+001  0.1250000E+03  0.7546771E-02  0.1235069E+00
         21   -1    0    0  502  501  0.00000000000E+00  0.00000000000E+00  0.10344131578E+02  0.10344131578E+02  0.00000000000E+00 0.  1.
         21   -1    0    0  501  502 -0.00000000000E+00 -0.00000000000E+00 -0.37762957389E+03  0.37762957389E+03  0.00000000000E+00 0.  1.
         25    1    1    2    0    0  0.00000000000E+00  0.00000000000E+00 -0.36728544232E+03  0.38797370547E+03  0.12500000000E+03 0.  0.
<mgrwt>
<rscale>  2 0.12500000E+03</rscale>
<asrwt>0</asrwt>
<pdfrwt beam="1">  1       21 0.15914047E-02 0.12500000E+03</pdfrwt>
<pdfrwt beam="2">  1       21 0.58096864E-01 0.12500000E+03</pdfrwt>
<totfact> 0.48849403E+06</totfact>
</mgrwt>
</event>
<event>
 3    0  0.1526637E+001  0.1250000E+03  0.7546771E-02  0.1235069E+00
         21   -1    0    0  502  501  0.00000000000E+00  0.00000000000E+00  0.37084322555E+03  0.37084322555E+03  0.00000000000E+00 0. -1.
         21   -1    0    0  501  502 -0.00000000000E+00 -0.00000000000E+00 -0.10533426879E+02  0.10533426879E+02  0.00000000000E+00 0. -1.
         25    1    1    2    0    0  0.00000000000E+00  0.00000000000E+00  0.36030979867E+03  0.38137665243E+03  0.12500000000E+03 0.  0.
<mgrwt>
<rscale>  2 0.12500000E+03</rscale>
<asrwt>0</asrwt>
<pdfrwt beam="1">  1       21 0.57052794E-01 0.12500000E+03</pdfrwt>
<pdfrwt beam="2">  1       21 0.16205275E-02 0.12500000E+03</pdfrwt>
<totfact> 0.49301433E+06</totfact>
</mgrwt>
</event>
<event>
 3    0  0.1640291E+001  0.1250000E+03  0.7546771E-02  0.1235069E+00
         21   -1    0    0  502  501  0.00000000000E+00  0.00000000000E+00  0.20355494603E+02  0.20355494603E+02  0.00000000000E+00 0. -1.
         21   -1    0    0  501  502 -0.00000000000E+00 -0.00000000000E+00 -0.19190150258E+03  0.19190150258E+03  0.00000000000E+00 0. -1.
         25    1    1    2    0    0  0.00000000000E+00  0.00000000000E+00 -0.17154600798E+03  0.21225699718E+03  0.12500000000E+03 0.  0.
<mgrwt>
<rscale>  2 0.12500000E+03</rscale>
<asrwt>0</asrwt>
<pdfrwt beam="1">  1       21 0.31316145E-02 0.12500000E+03</pdfrwt>
<pdfrwt beam="2">  1       21 0.29523308E-01 0.12500000E+03</pdfrwt>
<totfact> 0.63622853E+06</totfact>
</mgrwt>
</event>
<event>
 3    0  0.1699329E+001  0.1250000E+03  0.7546771E-02  0.1235069E+00
         21   -1    0    0  502  501  0.00000000000E+00  0.00000000000E+00  0.30043321388E+02  0.30043321388E+02  0.00000000000E+00 0.  1.
         21   -1    0    0  501  502 -0.00000000000E+00 -0.00000000000E+00 -0.13002057760E+03  0.13002057760E+03  0.00000000000E+00 0.  1.
         25    1    1    2    0    0  0.00000000000E+00  0.00000000000E+00 -0.99977256216E+02  0.16006389899E+03  0.12500000000E+03 0.  0.
<mgrwt>
<rscale>  2 0.12500000E+03</rscale>
<asrwt>0</asrwt>
<pdfrwt beam="1">  1       21 0.46220495E-02 0.12500000E+03</pdfrwt>
<pdfrwt beam="2">  1       21 0.20003166E-01 0.12500000E+03</pdfrwt>
<totfact> 0.69511689E+06</totfact>
</mgrwt>
</event>
<event>
 3    0  0.1368989E+001  0.1250000E+03  0.7546771E-02  0.1235069E+00
         21   -1    0    0  502  501  0.00000000000E+00  0.00000000000E+00  0.46445684742E+01  0.46445684742E+01  0.00000000000E+00 0.  1.
         21   -1    0    0  501  502 -0.00000000000E+00 -0.00000000000E+00 -0.84103615260E+03  0.84103615260E+03  0.00000000000E+00 0.  1.
         25    1    1    2    0    0  0.00000000000E+00  0.00000000000E+00 -0.83639158413E+03  0.84568072107E+03  0.12500000000E+03 0.  0.
<mgrwt>
<rscale>  2 0.12500000E+03</rscale>
<asrwt>0</asrwt>
<pdfrwt beam="1">  1       21 0.71454923E-03 0.12500000E+03</pdfrwt>
<pdfrwt beam="2">  1       21 0.12939014E+00 0.12500000E+03</pdfrwt>
<totfact> 0.27904138E+06</totfact>
</mgrwt>
</event>
<event>
 3    0  0.1602086E+001  0.1250000E+03  0.7546771E-02  0.1235069E+00
         21   -1    0    0  502  501  0.00000000000E+00  0.00000000000E+00  0.13995993038E+02  0.13995993038E+02  0.00000000000E+00 0.  1.
         21   -1    0    0  501  502 -0.00000000000E+00 -0.00000000000E+00 -0.27909773814E+03  0.27909773814E+03  0.00000000000E+00 0.  1.
         25    1    1    2    0    0  0.00000000000E+00  0.00000000000E+00 -0.26510174510E+03  0.29309373118E+03  0.12500000000E+03 0.  0.
<mgrwt>
<rscale>  2 0.12500000E+03</rscale>
<asrwt>0</asrwt>
<pdfrwt beam="1">  1       21 0.21532298E-02 0.12500000E+03</pdfrwt>
<pdfrwt beam="2">  1       21 0.42938111E-01 0.12500000E+03</pdfrwt>
<totfact> 0.56035041E+06</totfact>
</mgrwt>
</event>
<event>
 3    0  0.1368989E+001  0.1250000E+03  0.7546771E-02  0.1235069E+00
         21   -1    0    0  502  501  0.00000000000E+00  0.00000000000E+00  0.95621367355E+03  0.95621367355E+03  0.00000000000E+00 0.  1.
         21   -1    0    0  501  502 -0.00000000000E+00 -0.00000000000E+00 -0.40851225077E+01  0.40851225077E+01  0.00000000000E+00 0.  1.
         25    1    1    2    0    0  0.00000000000E+00  0.00000000000E+00  0.95212855105E+03  0.96029879606E+03  0.12500000000E+03 0.  0.
<mgrwt>
<rscale>  2 0.12500000E+03</rscale>
<asrwt>0</asrwt>
<pdfrwt beam="1">  1       21 0.14710962E+00 0.12500000E+03</pdfrwt>
<pdfrwt beam="2">  1       21 0.62848115E-03 0.12500000E+03</pdfrwt>
<totfact> 0.24637710E+06</totfact>
</mgrwt>
</event>
<event>
 3    0  0.1368989E+001  0.1250000E+03  0.7546771E-02  0.1235069E+00
         21   -1    0    0  502  501  0.00000000000E+00  0.00000000000E+00  0.25540136055E+01  0.25540136055E+01  0.00000000000E+00 0.  1.
         21   -1    0    0  501  502 -0.00000000000E+00 -0.00000000000E+00 -0.15294554389E+04  0.15294554389E+04  0.00000000000E+00 0.  1.
         25    1    1    2    0    0  0.00000000000E+00  0.00000000000E+00 -0.15269014253E+04  0.15320094525E+04  0.12500000000E+03 0.  0.
<mgrwt>
<rscale>  2 0.12500000E+03</rscale>
<asrwt>0</asrwt>
<pdfrwt beam="1">  1       21 0.39292538E-03 0.12500000E+03</pdfrwt>
<pdfrwt beam="2">  1       21 0.23530071E+00 0.12500000E+03</pdfrwt>
<totfact> 0.13524762E+06</totfact>
</mgrwt>
</event>
<event>
 3    0  0.1546771E+001  0.1250000E+03  0.7546771E-02  0.1235069E+00
         21   -1    0    0  502  501  0.00000000000E+00  0.00000000000E+00  0.38823961774E+03  0.38823961774E+03  0.00000000000E+00 0.  1.
         21   -1    0    0  501  502 -0.00000000000E+00 -0.00000000000E+00 -0.10061440980E+02  0.10061440980E+02  0.00000000000E+00 0.  1.
         25    1    1    2    0    0  0.00000000000E+00  0.00000000000E+00  0.37817817676E+03  0.39830105872E+03  0.12500000000E+03 0.  0.
<mgrwt>
<rscale>  2 0.12500000E+03</rscale>
<asrwt>0</asrwt>
<pdfrwt beam="1">  1       21 0.59729160E-01 0.12500000E+03</pdfrwt>
<pdfrwt beam="2">  1       21 0.15479143E-02 0.12500000E+03</pdfrwt>
<totfact> 0.48154249E+06</totfact>
</mgrwt>
</event>
<event>
 3    0  0.1400419E+001  0.1250000E+03  0.7546771E-02  0.1235069E+00
         21   -1    0    0  502  501  0.00000000000E+00  0.00000000000E+00  0.64265382146E+03  0.64265382146E+03  0.00000000000E+00 0.  1.
         21   -1    0    0  501  502 -0.00000000000E+00 -0.00000000000E+00 -0.60783113234E+01  0.60783113234E+01  0.00000000000E+00 0.  1.
         25    1    1    2    0    0  0.00000000000E+00  0.00000000000E+00  0.63657551014E+03  0.64873213279E+03  0.12500000000E+03 0.  0.
<mgrwt>
<rscale>  2 0.12500000E+03</rscale>
<asrwt>0</asrwt>
<pdfrwt beam="1">  1       21 0.98869765E-01 0.12500000E+03</pdfrwt>
<pdfrwt beam="2">  1       21 0.93512533E-03 0.12500000E+03</pdfrwt>
<totfact> 0.34977331E+06</totfact>
</mgrwt>
</event>
<event>
 3    0  0.1687529E+001  0.1250000E+03  0.7546771E-02  0.1235069E+00
         21   -1    0    0  502  501  0.00000000000E+00  0.00000000000E+00  0.11034969944E+03  0.11034969944E+03  0.00000000000E+00 0. -1.
         21   -1    0    0  501  502 -0.00000000000E+00 -0.00000000000E+00 -0.35398827724E+02  0.35398827724E+02  0.00000000000E+00 0. -1.
         25    1    1    2    0    0  0.00000000000E+00  0.00000000000E+00  0.74950871719E+02  0.14574852717E+03  0.12500000000E+03 0.  0.
<mgrwt>
<rscale>  2 0.12500000E+03</rscale>
<asrwt>0</asrwt>
<pdfrwt beam="1">  1       21 0.16976877E-01 0.12500000E+03</pdfrwt>
<pdfrwt beam="2">  1       21 0.54459736E-02 0.12500000E+03</pdfrwt>
<totfact> 0.71297443E+06</totfact>
</mgrwt>
</event>
<event>
 3    0  0.1675790E+001  0.1250000E+03  0.7546771E-02  0.1235069E+00
         21   -1    0    0  502  501  0.00000000000E+00  0.00000000000E+00  0.18700720256E+03  0.18700720256E+03  0.00000000000E+00 0.  1.
         21   -1    0    0  501  502 -0.00000000000E+00 -0.00000000000E+00 -0.20888232894E+02  0.20888232894E+02  0.00000000000E+00 0.  1.
         25    1    1    2    0    0  0.00000000000E+00  0.00000000000E+00  0.16611896967E+03  0.20789543545E+03  0.12500000000E+03 0.  0.
<mgrwt>
<rscale>  2 0.12500000E+03</rscale>
<asrwt>0</asrwt>
<pdfrwt beam="1">  1       21 0.28770338E-01 0.12500000E+03</pdfrwt>
<pdfrwt beam="2">  1       21 0.32135744E-02 0.12500000E+03</pdfrwt>
<totfact> 0.64081643E+06</totfact>
</mgrwt>
</event>
<event>
 3    0  0.1703297E+001  0.1250000E+03  0.7546771E-02  0.1235069E+00
         21   -1    0    0  502  501  0.00000000000E+00  0.00000000000E+00  0.44753664444E+02  0.44753664444E+02  0.00000000000E+00 0. -1.
         21   -1    0    0  501  502 -0.00000000000E+00 -0.00000000000E+00 -0.87283355419E+02  0.87283355419E+02  0.00000000000E+00 0. -1.
         25    1    1    2    0    0  0.00000000000E+00  0.00000000000E+00 -0.42529690975E+02  0.13203701986E+03  0.12500000000E+03 0.  0.
<mgrwt>
<rscale>  2 0.12500000E+03</rscale>
<asrwt>0</asrwt>
<pdfrwt beam="1">  1       21 0.68851792E-02 0.12500000E+03</pdfrwt>
<pdfrwt beam="2">  1       21 0.13428208E-01 0.12500000E+03</pdfrwt>
<totfact> 0.73091264E+06</totfact>
</mgrwt>
</event>
<event>
 3    0  0.1368989E+001  0.1250000E+03  0.7546771E-02  0.1235069E+00
         21   -1    0    0  502  501  0.00000000000E+00  0.00000000000E+00  0.43894355617E+01  0.43894355617E+01  0.00000000000E+00 0. -1.
         21   -1    0    0  501  502 -0.00000000000E+00 -0.00000000000E+00 -0.88992079849E+03  0.88992079849E+03  0.00000000000E+00 0. -1.
         25    1    1    2    0    0  0.00000000000E+00  0.00000000000E+00 -0.88553136293E+03  0.89431023405E+03  0.12500000000E+03 0.  0.
<mgrwt>
<rscale>  2 0.12500000E+03</rscale>
<asrwt>0</asrwt>
<pdfrwt beam="1">  1       21 0.67529825E-03 0.12500000E+03</pdfrwt>
<pdfrwt beam="2">  1       21 0.13691080E+00 0.12500000E+03</pdfrwt>
<totfact> 0.26463387E+06</totfact>
</mgrwt>
</event>
<event>
 3    0  0.1736918E+001  0.1250000E+03  0.7546771E-02  0.1235069E+00
         21   -1    0    0  502  501  0.00000000000E+00  0.00000000000E+00  0.64921255100E+02  0.64921255100E+02  0.00000000000E+00 0.  1.
         21   -1    0    0  501  502 -0.00000000000E+00 -0.00000000000E+00 -0.60169046239E+02  0.60169046239E+02  0.00000000000E+00 0.  1.
         25    1    1    2    0    0  0.00000000000E+00  0.00000000000E+00  0.47522088606E+01  0.12509030134E+03  0.12500000000E+03 0.  0.
<mgrwt>
<rscale>  2 0.12500000E+03</rscale>
<asrwt>0</asrwt>
<pdfrwt beam="1">  1       21 0.99878854E-02 0.12500000E+03</pdfrwt>
<pdfrwt beam="2">  1       21 0.92567764E-02 0.12500000E+03</pdfrwt>
<totfact> 0.74031385E+06</totfact>
</mgrwt>
</event>
<event>
 3    0  0.1632241E+001  0.1250000E+03  0.7546771E-02  0.1235069E+00
         21   -1    0    0  502  501  0.00000000000E+00  0.00000000000E+00  0.23169509741E+03  0.23169509741E+03  0.00000000000E+00 0.  1.
         21   -1    0    0  501  502 -0.00000000000E+00 -0.00000000000E+00 -0.16859441756E+02  0.16859441756E+02  0.00000000000E+00 0.  1.
         25    1    1    2    0    0  0.00000000000E+00  0.00000000000E+00  0.21483565566E+03  0.24855453917E+03  0.12500000000E+03 0.  0.
<mgrwt>
<rscale>  2 0.12500000E+03</rscale>
<asrwt>0</asrwt>
<pdfrwt beam="1">  1       21 0.35645397E-01 0.12500000E+03</pdfrwt>
<pdfrwt beam="2">  1       21 0.25937604E-02 0.12500000E+03</pdfrwt>
<totfact> 0.60014546E+06</totfact>
</mgrwt>
</event>
<event>
 3    0  0.1368989E+001  0.1250000E+03  0.7546771E-02  0.1235069E+00
         21   -1    0    0  502  501  0.00000000000E+00  0.00000000000E+00  0.44815043460E+01  0.44815043460E+01  0.00000000000E+00 0. -1.
         21   -1    0    0  501  502 -0.00000000000E+00 -0.00000000000E+00 -0.87163811489E+03  0.87163811489E+03  0.00000000000E+00 0. -1.
         25    1    1    2    0    0  0.00000000000E+00  0.00000000000E+00 -0.86715661055E+03  0.87611961924E+03  0.12500000000E+03 0.  0.
<mgrwt>
<rscale>  2 0.12500000E+03</rscale>
<asrwt>0</asrwt>
<pdfrwt beam="1">  1       21 0.68946197E-03 0.12500000E+03</pdfrwt>
<pdfrwt beam="2">  1       21 0.13409822E+00 0.12500000E+03</pdfrwt>
<totfact> 0.26990033E+06</totfact>
</mgrwt>
</event>
<event>
 3    0  0.1720102E+001  0.1250000E+03  0.7546771E-02  0.1235069E+00
         21   -1    0    0  502  501  0.00000000000E+00  0.00000000000E+00  0.10333893823E+03  0.10333893823E+03  0.00000000000E+00 0.  1.
         21   -1    0    0  501  502 -0.00000000000E+00 -0.00000000000E+00 -0.37800369028E+02  0.37800369028E+02  0.00000000000E+00 0.  1.
         25    1    1    2    0    0  0.00000000000E+00  0.00000000000E+00  0.65538569200E+02  0.14113930726E+03  0.12500000000E+03 0.  0.
<mgrwt>
<rscale>  2 0.12500000E+03</rscale>
<asrwt>0</asrwt>
<pdfrwt beam="1">  1       21 0.15898298E-01 0.12500000E+03</pdfrwt>
<pdfrwt beam="2">  1       21 0.58154414E-02 0.12500000E+03</pdfrwt>
<totfact> 0.71890921E+06</totfact>
</mgrwt>
</event>
<event>
 3    0  0.1710566E+001  0.1250000E+03  0.7546771E-02  0.1235069E+00
         21   -1    0    0  502  501  0.00000000000E+00  0.00000000000E+00  0.73200793996E+02  0.73200793996E+02  0.00000000000E+00 0. -1.
         21   -1    0    0  501  502 -0.00000000000E+00 -0.00000000000E+00 -0.53363492208E+02  0.53363492208E+02  0.00000000000E+00 0. -1.
         25    1    1    2    0    0  0.00000000000E+00  0.00000000000E+00  0.19837301788E+02  0.12656428620E+03  0.12500000000E+03 0.  0.
<mgrwt>
<rscale>  2 0.12500000E+03</rscale>
<asrwt>0</asrwt>
<pdfrwt beam="1">  1       21 0.11261661E-01 0.12500000E+03</pdfrwt>
<pdfrwt beam="2">  1       21 0.82097681E-02 0.12500000E+03</pdfrwt>
<totfact> 0.73828579E+06</totfact>
</mgrwt>
</event>
<event>
 3    0  0.1702091E+001  0.1250000E+03  0.7546771E-02  0.1235069E+00
         21   -1    0    0  502  501  0.00000000000E+00  0.00000000000E+00  0.26559037097E+02  0.26559037097E+02  0.00000000000E+00 0.  1.
         21   -1    0    0  501  502 -0.00000000000E+00 -0.00000000000E+00 -0.14707799781E+03  0.14707799781E+03  0.00000000000E+00 0.  1.
         25    1    1    2    0    0  0.00000000000E+00  0.00000000000E+00 -0.12051896071E+03  0.17363703491E+03  0.12500000000E+03 0.  0.
<mgrwt>
<rscale>  2 0.12500000E+03</rscale>
<asrwt>0</asrwt>
<pdfrwt beam="1">  1       21 0.40860058E-02 0.12500000E+03</pdfrwt>
<pdfrwt beam="2">  1       21 0.22627384E-01 0.12500000E+03</pdfrwt>
<totfact> 0.67889080E+06</totfact>
</mgrwt>
</event>
<event>
 3    0  0.1634066E+001  0.1250000E+03  0.7546771E-02  0.1235069E+00
         21   -1    0    0  502  501  0.00000000000E+00  0.00000000000E+00  0.20423889682E+03  0.20423889682E+03  0.00000000000E+00 0. -1.
         21   -1    0    0  501  502 -0.00000000000E+00 -0.00000000000E+00 -0.19125886699E+02  0.19125886699E+02  0.00000000000E+00 0. -1.
         25    1    1    2    0    0  0.00000000000E+00  0.00000000000E+00  0.18511301012E+03  0.22336478352E+03  0.12500000000E+03 0.  0.
<mgrwt>
<rscale>  2 0.12500000E+03</rscale>
<asrwt>0</asrwt>
<pdfrwt beam="1">  1       21 0.31421367E-01 0.12500000E+03</pdfrwt>
<pdfrwt beam="2">  1       21 0.29424442E-02 0.12500000E+03</pdfrwt>
<totfact> 0.62480257E+06</totfact>
</mgrwt>
</event>
<event>
 3    0  0.1573662E+001  0.1250000E+03  0.7546771E-02  0.1235069E+00
         21   -1    0    0  502  501  0.00000000000E+00  0.00000000000E+00  0.30646789176E+03  0.30646789176E+03  0.00000000000E+00 0.  1.
         21   -1    0    0  501  502 -0.00000000000E+00 -0.00000000000E+00 -0.12746033451E+02  0.12746033451E+02  0.00000000000E+00 0.  1.
         25    1    1    2    0    0  0.00000000000E+00  0.00000000000E+00  0.29372185831E+03  0.31921392521E+03  0.12500000000E+03 0.  0.
<mgrwt>
<rscale>  2 0.12500000E+03</rscale>
<asrwt>0</asrwt>
<pdfrwt beam="1">  1       21 0.47148901E-01 0.12500000E+03</pdfrwt>
<pdfrwt beam="2">  1       21 0.19609284E-02 0.12500000E+03</pdfrwt>
<totfact> 0.53895696E+06</totfact>
</mgrwt>
</event>
<event>
 3    0  0.1368989E+001  0.1250000E+03  0.7546771E-02  0.1235069E+00
         21   -1    0    0  502  501  0.00000000000E+00  0.00000000000E+00  0.19251280150E+01  0.19251280150E+01  0.00000000000E+00 0.  1.
         21   -1    0    0  501  502 -0.00000000000E+00 -0.00000000000E+00 -0.20290858424E+04  0.20290858424E+04  0.00000000000E+00 0.  1.
         25    1    1    2    0    0  0.00000000000E+00  0.00000000000E+00 -0.20271607144E+04  0.20310109704E+04  0.12500000000E+03 0.  0.
<mgrwt>
<rscale>  2 0.12500000E+03</rscale>
<asrwt>0</asrwt>
<pdfrwt beam="1">  1       21 0.29617308E-03 0.12500000E+03</pdfrwt>
<pdfrwt beam="2">  1       21 0.31216754E+00 0.12500000E+03</pdfrwt>
<totfact> 0.76494574E+05</totfact>
</mgrwt>
</event>
<event>
 3    0  0.1547711E+001  0.1250000E+03  0.7546771E-02  0.1235069E+00
         21   -1    0    0  502  501  0.00000000000E+00  0.00000000000E+00  0.95631038683E+01  0.95631038683E+01  0.00000000000E+00 0.  1.
         21   -1    0    0  501  502 -0.00000000000E+00 -0.00000000000E+00 -0.40847093724E+03  0.40847093724E+03  0.00000000000E+00 0.  1.
         25    1    1    2    0    0  0.00000000000E+00  0.00000000000E+00 -0.39890783337E+03  0.41803404111E+03  0.12500000000E+03 0.  0.
<mgrwt>
<rscale>  2 0.12500000E+03</rscale>
<asrwt>0</asrwt>
<pdfrwt beam="1">  1       21 0.14712471E-02 0.12500000E+03</pdfrwt>
<pdfrwt beam="2">  1       21 0.62841667E-01 0.12500000E+03</pdfrwt>
<totfact> 0.46867739E+06</totfact>
</mgrwt>
</event>
<event>
 3    0  0.1718131E+001  0.1250000E+03  0.7546771E-02  0.1235069E+00
         21   -1    0    0  502  501  0.00000000000E+00  0.00000000000E+00  0.10733068794E+03  0.10733068794E+03  0.00000000000E+00 0.  1.
         21   -1    0    0  501  502 -0.00000000000E+00 -0.00000000000E+00 -0.36394530540E+02  0.36394530540E+02  0.00000000000E+00 0.  1.
         25    1    1    2    0    0  0.00000000000E+00  0.00000000000E+00  0.70936157396E+02  0.14372521848E+03  0.12500000000E+03 0.  0.
<mgrwt>
<rscale>  2 0.12500000E+03</rscale>
<asrwt>0</asrwt>
<pdfrwt beam="1">  1       21 0.16512413E-01 0.12500000E+03</pdfrwt>
<pdfrwt beam="2">  1       21 0.55991586E-02 0.12500000E+03</pdfrwt>
<totfact> 0.71556641E+06</totfact>
</mgrwt>
</event>
<event>
 3    0  0.1650828E+001  0.1250000E+03  0.7546771E-02  0.1235069E+00
         21   -1    0    0  502  501  0.00000000000E+00  0.00000000000E+00  0.23819145141E+02  0.23819145141E+02  0.00000000000E+00 0. -1.
         21   -1    0    0  501  502 -0.00000000000E+00 -0.00000000000E+00 -0.16399622979E+03  0.16399622979E+03  0.00000000000E+00 0. -1.
         25    1    1    2    0    0  0.00000000000E+00  0.00000000000E+00 -0.14017708465E+03  0.18781537493E+03  0.12500000000E+03 0.  0.
<mgrwt>
<rscale>  2 0.12500000E+03</rscale>
<asrwt>0</asrwt>
<pdfrwt beam="1">  1       21 0.36644837E-02 0.12500000E+03</pdfrwt>
<pdfrwt beam="2">  1       21 0.25230190E-01 0.12500000E+03</pdfrwt>
<totfact> 0.66266091E+06</totfact>
</mgrwt>
</event>
<event>
 3    0  0.1736214E+001  0.1250000E+03  0.7546771E-02  0.1235069E+00
         21   -1    0    0  502  501  0.00000000000E+00  0.00000000000E+00  0.67078626898E+02  0.67078626898E+02  0.00000000000E+00 0.  1.
         21   -1    0    0  501  502 -0.00000000000E+00 -0.00000000000E+00 -0.58233899241E+02  0.58233899241E+02  0.00000000000E+00 0.  1.
         25    1    1    2    0    0  0.00000000000E+00  0.00000000000E+00  0.88447276573E+01  0.12531252614E+03  0.12500000000E+03 0.  0.
<mgrwt>
<rscale>  2 0.12500000E+03</rscale>
<asrwt>0</asrwt>
<pdfrwt beam="1">  1       21 0.10319789E-01 0.12500000E+03</pdfrwt>
<pdfrwt beam="2">  1       21 0.89590614E-02 0.12500000E+03</pdfrwt>
<totfact> 0.74001381E+06</totfact>
</mgrwt>
</event>
<event>
 3    0  0.1701263E+001  0.1250000E+03  0.7546771E-02  0.1235069E+00
         21   -1    0    0  502  501  0.00000000000E+00  0.00000000000E+00  0.40156522761E+02  0.40156522761E+02  0.00000000000E+00 0. -1.
         21   -1    0    0  501  502 -0.00000000000E+00 -0.00000000000E+00 -0.97275603849E+02  0.97275603849E+02  0.00000000000E+00 0. -1.
         25    1    1    2    0    0  0.00000000000E+00  0.00000000000E+00 -0.57119081088E+02  0.13743212661E+03  0.12500000000E+03 0.  0.
<mgrwt>
<rscale>  2 0.12500000E+03</rscale>
<asrwt>0</asrwt>
<pdfrwt beam="1">  1       21 0.61779266E-02 0.12500000E+03</pdfrwt>
<pdfrwt beam="2">  1       21 0.14965477E-01 0.12500000E+03</pdfrwt>
<totfact> 0.72376015E+06</totfact>
</mgrwt>
</event>
<event>
 3    0  0.1582844E+001  0.1250000E+03  0.7546771E-02  0.1235069E+00
         21   -1    0    0  502  501  0.00000000000E+00  0.00000000000E+00  0.33130837059E+03  0.33130837059E+03  0.00000000000E+00 0.  1.
         21   -1    0    0  501  502 -0.00000000000E+00 -0.00000000000E+00 -0.11790375211E+02  0.11790375211E+02  0.00000000000E+00 0.  1.
         25    1    1    2    0    0  0.00000000000E+00  0.00000000000E+00  0.31951799538E+03  0.34309874581E+03  0.12500000000E+03 0.  0.
<mgrwt>
<rscale>  2 0.12500000E+03</rscale>
<asrwt>0</asrwt>
<pdfrwt beam="1">  1       21 0.50970512E-01 0.12500000E+03</pdfrwt>
<pdfrwt beam="2">  1       21 0.18139041E-02 0.12500000E+03</pdfrwt>
<totfact> 0.52052185E+06</totfact>
</mgrwt>
</event>
<event>
 3    0  0.1712040E+001  0.1250000E+03  0.7546771E-02  0.1235069E+00
         21   -1    0    0  502  501  0.00000000000E+00  0.00000000000E+00  0.65483362676E+02  0.65483362676E+02  0.00000000000E+00 0. -1.
         21   -1    0    0  501  502 -0.00000000000E+00 -0.00000000000E+00 -0.59652556625E+02  0.59652556625E+02  0.00000000000E+00 0. -1.
         25    1    1    2    0    0  0.00000000000E+00  0.00000000000E+00  0.58308060506E+01  0.12513591930E+03  0.12500000000E+03 0.  0.
<mgrwt>
<rscale>  2 0.12500000E+03</rscale>
<asrwt>0</asrwt>
<pdfrwt beam="1">  1       21 0.10074363E-01 0.12500000E+03</pdfrwt>
<pdfrwt beam="2">  1       21 0.91773164E-02 0.12500000E+03</pdfrwt>
<totfact> 0.74025225E+06</totfact>
</mgrwt>
</event>
<event>
 3    0  0.1368989E+001  0.1250000E+03  0.7546771E-02  0.1235069E+00
         21   -1    0    0  502  501  0.00000000000E+00  0.00000000000E+00  0.27598853274E+01  0.27598853274E+01  0.00000000000E+00 0.  1.
         21   -1    0    0  501  502 -0.00000000000E+00 -0.00000000000E+00 -0.14153667767E+04  0.14153667767E+04  0.00000000000E+00 0.  1.
         25    1    1    2    0    0  0.00000000000E+00  0.00000000000E+00 -0.14126068914E+04  0.14181266621E+04  0.12500000000E+03 0.  0.
<mgrwt>
<rscale>  2 0.12500000E+03</rscale>
<asrwt>0</asrwt>
<pdfrwt beam="1">  1       21 0.42459734E-03 0.12500000E+03</pdfrwt>
<pdfrwt beam="2">  1       21 0.21774894E+00 0.12500000E+03</pdfrwt>
<totfact> 0.15252359E+06</totfact>
</mgrwt>
</event>
<event>
 3    0  0.1736392E+001  0.1250000E+03  0.7546771E-02  0.1235069E+00
         21   -1    0    0  502  501  0.00000000000E+00  0.00000000000E+00  0.54191109310E+02  0.54191109310E+02  0.00000000000E+00 0.  1.
         21   -1    0    0  501  502 -0.00000000000E+00 -0.00000000000E+00 -0.72082857313E+02  0.72082857313E+02  0.00000000000E+00 0.  1.
         25    1    1    2    0    0  0.00000000000E+00  0.00000000000E+00 -0.17891748003E+02  0.12627396662E+03  0.12500000000E+03 0.  0.
<mgrwt>
<rscale>  2 0.12500000E+03</rscale>
<asrwt>0</asrwt>
<pdfrwt beam="1">  1       21 0.83370938E-02 0.12500000E+03</pdfrwt>
<pdfrwt beam="2">  1       21 0.11089670E-01 0.12500000E+03</pdfrwt>
<totfact> 0.73868351E+06</totfact>
</mgrwt>
</event>
<event>
 3    0  0.1644019E+001  0.1250000E+03  0.7546771E-02  0.1235069E+00
         21   -1    0    0  502  501  0.00000000000E+00  0.00000000000E+00  0.15499289310E+02  0.15499289310E+02  0.00000000000E+00 0.  1.
         21   -1    0    0  501  502 -0.00000000000E+00 -0.00000000000E+00 -0.25202768475E+03  0.25202768475E+03  0.00000000000E+00 0.  1.
         25    1    1    2    0    0  0.00000000000E+00  0.00000000000E+00 -0.23652839544E+03  0.26752697406E+03  0.12500000000E+03 0.  0.
<mgrwt>
<rscale>  2 0.12500000E+03</rscale>
<asrwt>0</asrwt>
<pdfrwt beam="1">  1       21 0.23845062E-02 0.12500000E+03</pdfrwt>
<pdfrwt beam="2">  1       21 0.38773487E-01 0.12500000E+03</pdfrwt>
<totfact> 0.58266180E+06</totfact>
</mgrwt>
</event>
<event>
 3    0  0.1700433E+001  0.1250000E+03  0.7546771E-02  0.1235069E+00
         21   -1    0    0  502  501  0.00000000000E+00  0.00000000000E+00  0.30154925179E+02  0.30154925179E+02  0.00000000000E+00 0.  1.
         21   -1    0    0  501  502 -0.00000000000E+00 -0.00000000000E+00 -0.12953936966E+03  0.12953936966E+03  0.00000000000E+00 0.  1.
         25    1    1    2    0    0  0.00000000000E+00  0.00000000000E+00 -0.99384444485E+02  0.15969429484E+03  0.12500000000E+03 0.  0.
<mgrwt>
<rscale>  2 0.12500000E+03</rscale>
<asrwt>0</asrwt>
<pdfrwt beam="1">  1       21 0.46392193E-02 0.12500000E+03</pdfrwt>
<pdfrwt beam="2">  1       21 0.19929134E-01 0.12500000E+03</pdfrwt>
<totfact> 0.69556869E+06</totfact>
</mgrwt>
</event>
<event>
 3    0  0.1736606E+001  0.1250000E+03  0.7546771E-02  0.1235069E+00
         21   -1    0    0  502  501  0.00000000000E+00  0.00000000000E+00  0.54395292161E+02  0.54395292161E+02  0.00000000000E+00 0.  1.
         21   -1    0    0  501  502 -0.00000000000E+00 -0.00000000000E+00 -0.71812280894E+02  0.71812280894E+02  0.00000000000E+00 0.  1.
         25    1    1    2    0    0  0.00000000000E+00  0.00000000000E+00 -0.17416988733E+02  0.12620757306E+03  0.12500000000E+03 0.  0.
<mgrwt>
<rscale>  2 0.12500000E+03</rscale>
<asrwt>0</asrwt>
<pdfrwt beam="1">  1       21 0.83685065E-02 0.12500000E+03</pdfrwt>
<pdfrwt beam="2">  1       21 0.11048043E-01 0.12500000E+03</pdfrwt>
<totfact> 0.73877469E+06</totfact>
</mgrwt>
</event>
<event>
 3    0  0.1447684E+001  0.1250000E+03  0.7546771E-02  0.1235069E+00
         21   -1    0    0  502  501  0.00000000000E+00  0.00000000000E+00  0.73320032055E+01  0.73320032055E+01  0.00000000000E+00 0. -1.
         21   -1    0    0  501  502 -0.00000000000E+00 -0.00000000000E+00 -0.53276708841E+03  0.53276708841E+03  0.00000000000E+00 0. -1.
         25    1    1    2    0    0  0.00000000000E+00  0.00000000000E+00 -0.52543508520E+03  0.54009909161E+03  0.12500000000E+03 0.  0.
<mgrwt>
<rscale>  2 0.12500000E+03</rscale>
<asrwt>0</asrwt>
<pdfrwt beam="1">  1       21 0.11280007E-02 0.12500000E+03</pdfrwt>
<pdfrwt beam="2">  1       21 0.81964155E-01 0.12500000E+03</pdfrwt>
<totfact> 0.39949690E+06</totfact>
</mgrwt>
</event>
<event>
 3    0  0.1380157E+001  0.1250000E+03  0.7546771E-02  0.1235069E+00
         21   -1    0    0  502  501  0.00000000000E+00  0.00000000000E+00  0.52146302358E+01  0.52146302358E+01  0.00000000000E+00 0.  1.
         21   -1    0    0  501  502 -0.00000000000E+00 -0.00000000000E+00 -0.74909434099E+03  0.74909434099E+03  0.00000000000E+00 0.  1.
         25    1    1    2    0    0  0.00000000000E+00  0.00000000000E+00 -0.74387971075E+03  0.75430897122E+03  0.12500000000E+03 0.  0.
<mgrwt>
<rscale>  2 0.12500000E+03</rscale>
<asrwt>0</asrwt>
<pdfrwt beam="1">  1       21 0.80225100E-03 0.12500000E+03</pdfrwt>
<pdfrwt beam="2">  1       21 0.11524526E+00 0.12500000E+03</pdfrwt>
<totfact> 0.30917891E+06</totfact>
</mgrwt>
</event>
<event>
 3    0  0.1689422E+001  0.1250000E+03  0.7546771E-02  0.1235069E+00
         21   -1    0    0  502  501  0.00000000000E+00  0.00000000000E+00  0.10942428358E+03  0.10942428358E+03  0.00000000000E+00 0. -1.
         21   -1    0    0  501  502 -0.00000000000E+00 -0.00000000000E+00 -0.35698200364E+02  0.35698200364E+02  0.00000000000E+00 0. -1.
         25    1    1    2    0    0  0.00000000000E+00  0.00000000000E+00  0.73726083216E+02  0.14512248395E+03  0.12500000000E+03 0.  0.
<mgrwt>
<rscale>  2 0.12500000E+03</rscale>
<asrwt>0</asrwt>
<pdfrwt beam="1">  1       21 0.16834505E-01 0.12500000E+03</pdfrwt>
<pdfrwt beam="2">  1       21 0.54920309E-02 0.12500000E+03</pdfrwt>
<totfact> 0.71377427E+06</totfact>
</mgrwt>
</event>
<event>
 3    0  0.1368989E+001  0.1250000E+03  0.7546771E-02  0.1235069E+00
         21   -1    0    0  502  501  0.00000000000E+00  0.00000000000E+00  0.18094826974E+04  0.18094826974E+04  0.00000000000E+00 0.  1.
         21   -1    0    0  501  502 -0.00000000000E+00 -0.00000000000E+00 -0.21587661521E+01  0.21587661521E+01  0.00000000000E+00 0.  1.
         25    1    1    2    0    0  0.00000000000E+00  0.00000000000E+00  0.18073239313E+04  0.18116414636E+04  0.12500000000E+03 0.  0.
<mgrwt>
<rscale>  2 0.12500000E+03</rscale>
<asrwt>0</asrwt>
<pdfrwt beam="1">  1       21 0.27838074E+00 0.12500000E+03</pdfrwt>
<pdfrwt beam="2">  1       21 0.33211932E-03 0.12500000E+03</pdfrwt>
<totfact> 0.99366878E+05</totfact>
</mgrwt>
</event>
<event>
 3    0  0.1368989E+001  0.1250000E+03  0.7546771E-02  0.1235069E+00
         21   -1    0    0  502  501  0.00000000000E+00  0.00000000000E+00  0.40282718110E+01  0.40282718110E+01  0.00000000000E+00 0.  1.
         21   -1    0    0  501  502 -0.00000000000E+00 -0.00000000000E+00 -0.96970864513E+03  0.96970864513E+03  0.00000000000E+00 0.  1.
         25    1    1    2    0    0  0.00000000000E+00  0.00000000000E+00 -0.96568037332E+03  0.97373691694E+03  0.12500000000E+03 0.  0.
<mgrwt>
<rscale>  2 0.12500000E+03</rscale>
<asrwt>0</asrwt>
<pdfrwt beam="1">  1       21 0.61973320E-03 0.12500000E+03</pdfrwt>
<pdfrwt beam="2">  1       21 0.14918617E+00 0.12500000E+03</pdfrwt>
<totfact> 0.24286433E+06</totfact>
</mgrwt>
</event>
<event>
 3    0  0.1695094E+001  0.1250000E+03  0.7546771E-02  0.1235069E+00
         21   -1    0    0  502  501  0.00000000000E+00  0.00000000000E+00  0.37763093945E+02  0.37763093945E+02  0.00000000000E+00 0. -1.
         21   -1    0    0  501  502 -0.00000000000E+00 -0.00000000000E+00 -0.10344094172E+03  0.10344094172E+03  0.00000000000E+00 0. -1.
         25    1    1    2    0    0  0.00000000000E+00  0.00000000000E+00 -0.65677847778E+02  0.14120403567E+03  0.12500000000E+03 0.  0.
<mgrwt>
<rscale>  2 0.12500000E+03</rscale>
<asrwt>0</asrwt>
<pdfrwt beam="1">  1       21 0.58097068E-02 0.12500000E+03</pdfrwt>
<pdfrwt beam="2">  1       21 0.15913991E-01 0.12500000E+03</pdfrwt>
<totfact> 0.71882512E+06</totfact>
</mgrwt>
</event>
<event>
 3    0  0.1710070E+001  0.1250000E+03  0.7546771E-02  0.1235069E+00
         21   -1    0    0  502  501  0.00000000000E+00  0.00000000000E+00  0.52812705838E+02  0.52812705838E+02  0.00000000000E+00 0. -1.
         21   -1    0    0  501  502 -0.00000000000E+00 -0.00000000000E+00 -0.73964208764E+02  0.73964208764E+02  0.00000000000E+00 0. -1.
         25    1    1    2    0    0  0.00000000000E+00  0.00000000000E+00 -0.21151502925E+02  0.12677691460E+03  0.12500000000E+03 0.  0.
<mgrwt>
<rscale>  2 0.12500000E+03</rscale>
<asrwt>0</asrwt>
<pdfrwt beam="1">  1       21 0.81250317E-02 0.12500000E+03</pdfrwt>
<pdfrwt beam="2">  1       21 0.11379109E-01 0.12500000E+03</pdfrwt>
<totfact> 0.73799537E+06</totfact>
</mgrwt>
</event>
<event>
 3    0  0.1688455E+001  0.1250000E+03  0.7546771E-02  0.1235069E+00
         21   -1    0    0  502  501  0.00000000000E+00  0.00000000000E+00  0.13913611408E+03  0.13913611408E+03  0.00000000000E+00 0. -1.
         21   -1    0    0  501  502 -0.00000000000E+00 -0.00000000000E+00 -0.28075025854E+02  0.28075025854E+02  0.00000000000E+00 0. -1.
         25    1    1    2    0    0  0.00000000000E+00  0.00000000000E+00  0.11106108822E+03  0.16721113993E+03  0.12500000000E+03 0.  0.
<mgrwt>
<rscale>  2 0.12500000E+03</rscale>
<asrwt>0</asrwt>
<pdfrwt beam="1">  1       21 0.21405556E-01 0.12500000E+03</pdfrwt>
<pdfrwt beam="2">  1       21 0.43192348E-02 0.12500000E+03</pdfrwt>
<totfact> 0.68648932E+06</totfact>
</mgrwt>
</event>
<event>
 3    0  0.1368989E+001  0.1250000E+03  0.7546771E-02  0.1235069E+00
         21   -1    0    0  502  501  0.00000000000E+00  0.00000000000E+00  0.37623224529E+01  0.37623224529E+01  0.00000000000E+00 0.  1.
         21   -1    0    0  501  502 -0.00000000000E+00 -0.00000000000E+00 -0.10382549739E+04  0.10382549739E+04  0.00000000000E+00 0.  1.
         25    1    1    2    0    0  0.00000000000E+00  0.00000000000E+00 -0.10344926514E+04  0.10420172963E+04  0.12500000000E+03 0.  0.
<mgrwt>
<rscale>  2 0.12500000E+03</rscale>
<asrwt>0</asrwt>
<pdfrwt beam="1">  1       21 0.57881774E-03 0.12500000E+03</pdfrwt>
<pdfrwt beam="2">  1       21 0.15973184E+00 0.12500000E+03</pdfrwt>
<totfact> 0.22589035E+06</totfact>
</mgrwt>
</event>
<event>
 3    0  0.1695959E+001  0.1250000E+03  0.7546771E-02  0.1235069E+00
         21   -1    0    0  502  501  0.00000000000E+00  0.00000000000E+00  0.34620930071E+02  0.34620930071E+02  0.00000000000E+00 0. -1.
         21   -1    0    0  501  502 -0.00000000000E+00 -0.00000000000E+00 -0.11282914676E+03  0.11282914676E+03  0.00000000000E+00 0. -1.
         25    1    1    2    0    0  0.00000000000E+00  0.00000000000E+00 -0.78208216692E+02  0.14745007683E+03  0.12500000000E+03 0.  0.
<mgrwt>
<rscale>  2 0.12500000E+03</rscale>
<asrwt>0</asrwt>
<pdfrwt beam="1">  1       21 0.53262969E-02 0.12500000E+03</pdfrwt>
<pdfrwt beam="2">  1       21 0.17358330E-01 0.12500000E+03</pdfrwt>
<totfact> 0.71081006E+06</totfact>
</mgrwt>
</event>
<event>
 3    0  0.1665261E+001  0.1250000E+03  0.7546771E-02  0.1235069E+00
         21   -1    0    0  502  501  0.00000000000E+00  0.00000000000E+00  0.23212847410E+02  0.23212847410E+02  0.00000000000E+00 0. -1.
         21   -1    0    0  501  502 -0.00000000000E+00 -0.00000000000E+00 -0.16827965700E+03  0.16827965700E+03  0.00000000000E+00 0. -1.
         25    1    1    2    0    0  0.00000000000E+00  0.00000000000E+00 -0.14506680959E+03  0.19149250441E+03  0.12500000000E+03 0.  0.
<mgrwt>
<rscale>  2 0.12500000E+03</rscale>
<asrwt>0</asrwt>
<pdfrwt beam="1">  1       21 0.35712072E-02 0.12500000E+03</pdfrwt>
<pdfrwt beam="2">  1       21 0.25889179E-01 0.12500000E+03</pdfrwt>
<totfact> 0.65856969E+06</totfact>
</mgrwt>
</event>
<event>
 3    0  0.1712199E+001  0.1250000E+03  0.7546771E-02  0.1235069E+00
         21   -1    0    0  502  501  0.00000000000E+00  0.00000000000E+00  0.64186345664E+02  0.64186345664E+02  0.00000000000E+00 0. -1.
         21   -1    0    0  501  502 -0.00000000000E+00 -0.00000000000E+00 -0.60857959113E+02  0.60857959113E+02  0.00000000000E+00 0. -1.
         25    1    1    2    0    0  0.00000000000E+00  0.00000000000E+00  0.33283865506E+01  0.12504430478E+03  0.12500000000E+03 0.  0.
<mgrwt>
<rscale>  2 0.12500000E+03</rscale>
<asrwt>0</asrwt>
<pdfrwt beam="1">  1       21 0.98748224E-02 0.12500000E+03</pdfrwt>
<pdfrwt beam="2">  1       21 0.93627629E-02 0.12500000E+03</pdfrwt>
<totfact> 0.74037597E+06</totfact>
</mgrwt>
</event>
<event>
 3    0  0.1591277E+001  0.1250000E+03  0.7546771E-02  0.1235069E+00
         21   -1    0    0  502  501  0.00000000000E+00  0.00000000000E+00  0.31692134000E+03  0.31692134000E+03  0.00000000000E+00 0.  1.
         21   -1    0    0  501  502 -0.00000000000E+00 -0.00000000000E+00 -0.12325613668E+02  0.12325613668E+02  0.00000000000E+00 0.  1.
         25    1    1    2    0    0  0.00000000000E+00  0.00000000000E+00  0.30459572633E+03  0.32924695367E+03  0.12500000000E+03 0.  0.
<mgrwt>
<rscale>  2 0.12500000E+03</rscale>
<asrwt>0</asrwt>
<pdfrwt beam="1">  1       21 0.48757123E-01 0.12500000E+03</pdfrwt>
<pdfrwt beam="2">  1       21 0.18962485E-02 0.12500000E+03</pdfrwt>
<totfact> 0.53108612E+06</totfact>
</mgrwt>
</event>
<event>
 3    0  0.1582992E+001  0.1250000E+03  0.7546771E-02  0.1235069E+00
         21   -1    0    0  502  501  0.00000000000E+00  0.00000000000E+00  0.12596075333E+02  0.12596075333E+02  0.00000000000E+00 0. -1.
         21   -1    0    0  501  502 -0.00000000000E+00 -0.00000000000E+00 -0.31011643681E+03  0.31011643681E+03  0.00000000000E+00 0. -1.
         25    1    1    2    0    0  0.00000000000E+00  0.00000000000E+00 -0.29752036147E+03  0.32271251214E+03  0.12500000000E+03 0.  0.
<mgrwt>
<rscale>  2 0.12500000E+03</rscale>
<asrwt>0</asrwt>
<pdfrwt beam="1">  1       21 0.19378579E-02 0.12500000E+03</pdfrwt>
<pdfrwt beam="2">  1       21 0.47710216E-01 0.12500000E+03</pdfrwt>
<totfact> 0.53619090E+06</totfact>
</mgrwt>
</event>
<event>
 3    0  0.1710496E+001  0.1250000E+03  0.7546771E-02  0.1235069E+00
         21   -1    0    0  502  501  0.00000000000E+00  0.00000000000E+00  0.55555428871E+02  0.55555428871E+02  0.00000000000E+00 0. -1.
         21   -1    0    0  501  502 -0.00000000000E+00 -0.00000000000E+00 -0.70312660335E+02  0.70312660335E+02  0.00000000000E+00 0. -1.
         25    1    1    2    0    0  0.00000000000E+00  0.00000000000E+00 -0.14757231464E+02  0.12586808921E+03  0.12500000000E+03 0.  0.
<mgrwt>
<rscale>  2 0.12500000E+03</rscale>
<asrwt>0</asrwt>
<pdfrwt beam="1">  1       21 0.85469891E-02 0.12500000E+03</pdfrwt>
<pdfrwt beam="2">  1       21 0.10817332E-01 0.12500000E+03</pdfrwt>
<totfact> 0.73924251E+06</totfact>
</mgrwt>
</event>
