<event>
 7    1  0.3113151E-004  0.1493369E+03  0.7546771E-02  0.1234030E+00
         -1   -1    0    0    0  501  0.00000000000E+00  0.00000000000E+00  0.15253458823E+04  0.15253458823E+04  0.00000000000E+00 0.  1.
         -3   -1    0    0    0  502 -0.00000000000E+00 -0.00000000000E+00 -0.83218757002E+03  0.83218757002E+03  0.00000000000E+00 0.  1.
         25    2    1    2    0    0 -0.38517329222E+02  0.78763495544E+02 -0.12090531647E+03  0.19475967027E+03  0.12500384287E+03 0.  0.
          4    1    3    3  503    0 -0.54392368332E+02  0.10691727172E+03 -0.10065350958E+03  0.15659685379E+03  0.12700000000E+01 0. -1.
         -4    1    3    3    0  503  0.15875039110E+02 -0.28153776175E+02 -0.20251806885E+02  0.38162816481E+02  0.12700000000E+01 0. -1.
         -1    1    1    2    0  501  0.14137675962E+03 -0.54210085293E+02  0.14803874715E+04  0.14881106099E+04  0.00000000000E+00 0.  1.
         -3    1    1    2    0  502 -0.10285943039E+03 -0.24553410251E+02 -0.66632384278E+03  0.67466317214E+03  0.00000000000E+00 0.  1.
<mgrwt>
<rscale>  0 0.12566734E+03</rscale>
<asrwt>0</asrwt>
<pdfrwt beam="1">  1       -1 0.23466860E+00 0.14933685E+03</pdfrwt>
<pdfrwt beam="2">  1       -3 0.12802886E+00 0.10574938E+03</pdfrwt>
<totfact> 0.24428876E-01</totfact>
</mgrwt>
</event>
<event>
 7    1  0.3113151E-004  0.6351654E+02  0.7546771E-02  0.1508814E+00
         -2   -1    0    0    0  501 -0.00000000000E+00  0.00000000000E+00  0.13074591577E+02  0.13074591577E+02  0.00000000000E+00 0.  1.
          1   -1    0    0  503    0  0.00000000000E+00 -0.00000000000E+00 -0.13643807757E+04  0.13643807757E+04  0.00000000000E+00 0. -1.
         25    2    1    2    0    0  0.78834511371E+02  0.29528108746E+02 -0.74467766146E+03  0.75977494014E+03  0.12500540306E+03 0.  0.
          4    1    3    3  502    0  0.68552933057E+02 -0.13506783714E+02 -0.66471448641E+03  0.66837781171E+03  0.12700000000E+01 0.  1.
         -4    1    3    3    0  502  0.10281578314E+02  0.43034892459E+02 -0.79963175050E+02  0.91397128433E+02  0.12700000000E+01 0.  1.
          1    1    1    2  503    0 -0.54494618777E+02 -0.23449372933E+02 -0.57117941477E+03  0.57425208787E+03  0.00000000000E+00 0. -1.
         -2    1    1    2    0  501 -0.24339892594E+02 -0.60787358122E+01 -0.35449107849E+02  0.43428339225E+02  0.00000000000E+00 0.  1.
<mgrwt>
<rscale>  0 0.39918287E+02</rscale>
<asrwt>0</asrwt>
<pdfrwt beam="2">  1        1 0.20990469E+00 0.63516541E+02</pdfrwt>
<pdfrwt beam="1">  1       -2 0.20114761E-02 0.25087475E+02</pdfrwt>
<totfact> 0.48161884E+03</totfact>
</mgrwt>
</event>
<event>
 7    1  0.3113151E-004  0.8799103E+02  0.7546771E-02  0.1397418E+00
          1   -1    0    0  503    0 -0.00000000000E+00  0.00000000000E+00  0.19307088953E+03  0.19307088953E+03  0.00000000000E+00 0. -1.
          2   -1    0    0  502    0  0.00000000000E+00 -0.00000000000E+00 -0.21989941773E+04  0.21989941773E+04  0.00000000000E+00 0. -1.
         25    2    1    2    0    0  0.45752893537E+02 -0.16980710396E+02 -0.15811032327E+03  0.20737327748E+03  0.12499252017E+03 0.  0.
          4    1    3    3  501    0  0.75611227074E+02  0.14608748332E+02 -0.14095640914E+03  0.16062625989E+03  0.12700000000E+01 0. -1.
         -4    1    3    3    0  501 -0.29858333538E+02 -0.31589458728E+02 -0.17153914123E+02  0.46747017596E+02  0.12700000000E+01 0. -1.
          2    1    1    2  502    0 -0.81558899250E+02  0.37052522316E+02 -0.20127404257E+04  0.20147329264E+04  0.00000000000E+00 0. -1.
          1    1    1    2  503    0  0.35806005713E+02 -0.20071811920E+02  0.16492746114E+03  0.16995886301E+03  0.00000000000E+00 0. -1.
<mgrwt>
<rscale>  0 0.60098800E+02</rscale>
<asrwt>0</asrwt>
<pdfrwt beam="2">  1        2 0.33830679E+00 0.87991027E+02</pdfrwt>
<pdfrwt beam="1">  1        1 0.29703214E-01 0.41048114E+02</pdfrwt>
<totfact> 0.13399646E+02</totfact>
</mgrwt>
</event>
<event>
 7    1  0.3113151E-004  0.1214539E+03  0.7546771E-02  0.1252951E+00
          2   -1    0    0  502    0  0.00000000000E+00  0.00000000000E+00  0.96429419872E+03  0.96429419872E+03  0.00000000000E+00 0. -1.
          1   -1    0    0  503    0 -0.00000000000E+00 -0.00000000000E+00 -0.94046858053E+03  0.94046858053E+03  0.00000000000E+00 0. -1.
         25    2    1    2    0    0 -0.36302715671E+02 -0.76550495312E+02 -0.21523153624E+03  0.26292962903E+03  0.12501803922E+03 0.  0.
          4    1    3    3  501    0 -0.29458596059E+02 -0.92142545140E+02 -0.22380680975E+03  0.24382198116E+03  0.12700000000E+01 0. -1.
         -4    1    3    3    0  501 -0.68441196121E+01  0.15592049828E+02  0.85752735120E+01  0.19107647864E+02  0.12700000000E+01 0. -1.
          2    1    1    2  502    0  0.12065504204E+03 -0.13907342742E+02  0.93101728477E+03  0.93890587275E+03  0.00000000000E+00 0. -1.
          1    1    1    2  503    0 -0.84352326369E+02  0.90457838053E+02 -0.69196013034E+03  0.70292727747E+03  0.00000000000E+00 0. -1.
<mgrwt>
<rscale>  0 0.11421858E+03</rscale>
<asrwt>0</asrwt>
<pdfrwt beam="1">  1        2 0.14835295E+00 0.12145391E+03</pdfrwt>
<pdfrwt beam="2">  1        1 0.14468747E+00 0.10741428E+03</pdfrwt>
<totfact> 0.73963170E+01</totfact>
</mgrwt>
</event>
<event>
 7    1  0.3113151E-004  0.8820459E+02  0.7546771E-02  0.1445903E+00
          2   -1    0    0  502    0  0.00000000000E+00  0.00000000000E+00  0.48706689215E+03  0.48706689215E+03  0.00000000000E+00 0. -1.
          2   -1    0    0  503    0 -0.00000000000E+00 -0.00000000000E+00 -0.15127367486E+04  0.15127367486E+04  0.00000000000E+00 0. -1.
         25    2    1    2    0    0  0.63837976826E+02  0.31275595386E+02 -0.83491889095E+02  0.16627853224E+03  0.12499681831E+03 0.  0.
          4    1    3    3  501    0  0.13375622199E+02 -0.42191531452E+02 -0.59130728245E+02  0.73872109204E+02  0.12700000000E+01 0. -1.
         -4    1    3    3    0  501  0.50462354627E+02  0.73467126838E+02 -0.24361160851E+02  0.92406423036E+02  0.12700000000E+01 0. -1.
          2    1    1    2  502    0 -0.66144183146E+02 -0.59406694560E+02  0.44109431341E+03  0.44996488934E+03  0.00000000000E+00 0. -1.
          2    1    1    2  503    0  0.23062063206E+01  0.28131099174E+02 -0.13832722807E+04  0.13835602191E+04  0.00000000000E+00 0. -1.
<mgrwt>
<rscale>  0 0.49896055E+02</rscale>
<asrwt>0</asrwt>
<pdfrwt beam="1">  1        2 0.74933369E-01 0.88204591E+02</pdfrwt>
<pdfrwt beam="2">  1        2 0.23272873E+00 0.28225473E+02</pdfrwt>
<totfact> 0.16489240E+02</totfact>
</mgrwt>
</event>
<event>
 7    1  0.3113151E-004  0.1354360E+03  0.7546771E-02  0.1249282E+00
         -1   -1    0    0    0  501 -0.00000000000E+00  0.00000000000E+00  0.10116106093E+04  0.10116106093E+04  0.00000000000E+00 0.  1.
          2   -1    0    0  503    0  0.00000000000E+00 -0.00000000000E+00 -0.16930825760E+03  0.16930825760E+03  0.00000000000E+00 0.  1.
         25    2    1    2    0    0  0.13218771477E+03  0.12009536598E+01  0.16498600644E+03  0.24560157534E+03  0.12499886906E+03 0.  0.
          4    1    3    3  502    0  0.19866389360E+02  0.30287625933E+02 -0.81789250651E+01  0.37155368739E+02  0.12700000000E+01 0.  1.
         -4    1    3    3    0  502  0.11232132541E+03 -0.29086672273E+02  0.17316493150E+03  0.20844620661E+03  0.12700000000E+01 0.  1.
          2    1    1    2  503    0 -0.10364360050E+03 -0.96951793757E+02 -0.85698359517E+02  0.16578858544E+03  0.00000000000E+00 0.  1.
         -1    1    1    2    0  501 -0.28544114273E+02  0.95750840097E+02  0.76301470474E+03  0.76952870608E+03  0.00000000000E+00 0.  1.
<mgrwt>
<rscale>  0 0.11632743E+03</rscale>
<asrwt>0</asrwt>
<pdfrwt beam="2">  1        2 0.26047425E-01 0.13543596E+03</pdfrwt>
<pdfrwt beam="1">  1       -1 0.15563240E+00 0.99914913E+02</pdfrwt>
<totfact> 0.84967484E+01</totfact>
</mgrwt>
</event>
<event>
 7    1  0.3113151E-004  0.1348560E+03  0.7546771E-02  0.1397719E+00
          1   -1    0    0  503    0 -0.00000000000E+00  0.00000000000E+00  0.16574301302E+04  0.16574301302E+04  0.00000000000E+00 0. -1.
          2   -1    0    0  502    0  0.00000000000E+00 -0.00000000000E+00 -0.12379394372E+04  0.12379394372E+04  0.00000000000E+00 0. -1.
         25    2    1    2    0    0  0.20622058406E+02  0.12944682684E+03  0.88402260966E+03  0.90238797483E+03  0.12500532973E+03 0.  0.
          4    1    3    3  501    0 -0.20856432324E+02 -0.14414860943E+02  0.64793425808E+02  0.69588647876E+02  0.12700000000E+01 0.  1.
         -4    1    3    3    0  501  0.41478490729E+02  0.14386168778E+03  0.81922918385E+03  0.83279932696E+03  0.12700000000E+01 0.  1.
          2    1    1    2  502    0  0.55618225262E+01 -0.13476762187E+03 -0.12248198156E+04  0.12322243410E+04  0.00000000000E+00 0. -1.
          1    1    1    2  503    0 -0.26183880932E+02  0.53207950322E+01  0.76028789901E+03  0.76075725160E+03  0.00000000000E+00 0. -1.
<mgrwt>
<rscale>  0 0.60026834E+02</rscale>
<asrwt>0</asrwt>
<pdfrwt beam="2">  1        2 0.19045222E+00 0.13485598E+03</pdfrwt>
<pdfrwt beam="1">  1        1 0.25498925E+00 0.26719028E+02</pdfrwt>
<totfact> 0.19817591E+01</totfact>
</mgrwt>
</event>
<event>
 7    1  0.3113151E-004  0.1755753E+03  0.7546771E-02  0.1228770E+00
          1   -1    0    0  503    0 -0.00000000000E+00  0.00000000000E+00  0.16883401483E+04  0.16883401483E+04  0.00000000000E+00 0. -1.
          2   -1    0    0  502    0  0.00000000000E+00 -0.00000000000E+00 -0.17651656943E+04  0.17651656943E+04  0.00000000000E+00 0. -1.
         25    2    1    2    0    0  0.10171194007E+03 -0.60598911488E+02  0.83015316711E+02  0.19113799681E+03  0.12499857674E+03 0.  0.
          4    1    3    3  501    0  0.12652018760E+02  0.25946523089E+02 -0.15342637974E+02  0.32715517405E+02  0.12700000000E+01 0.  1.
         -4    1    3    3    0  501  0.89059921311E+02 -0.86545434576E+02  0.98357954685E+02  0.15842247940E+03  0.12700000000E+01 0.  1.
          2    1    1    2  502    0 -0.59327816241E+01 -0.94767813121E+02 -0.17044097275E+04  0.17070526223E+04  0.00000000000E+00 0. -1.
          1    1    1    2  503    0 -0.95779158447E+02  0.15536672461E+03  0.15445688648E+04  0.15553152235E+04  0.00000000000E+00 0. -1.
<mgrwt>
<rscale>  0 0.12911802E+03</rscale>
<asrwt>0</asrwt>
<pdfrwt beam="2">  1        2 0.27156395E+00 0.94953337E+02</pdfrwt>
<pdfrwt beam="1">  1        1 0.25974464E+00 0.17557532E+03</pdfrwt>
<totfact> 0.84268810E+00</totfact>
</mgrwt>
</event>
<event>
 7    1  0.3113151E-004  0.6915895E+02  0.7546771E-02  0.1406737E+00
         -3   -1    0    0    0  501 -0.00000000000E+00  0.00000000000E+00  0.80742280423E+03  0.80742280423E+03  0.00000000000E+00 0.  1.
          1   -1    0    0  503    0  0.00000000000E+00 -0.00000000000E+00 -0.15958957628E+03  0.15958957628E+03  0.00000000000E+00 0. -1.
         25    2    1    2    0    0 -0.62251031391E+02  0.97415052462E+02  0.13209705754E+03  0.21549882620E+03  0.12500091251E+03 0.  0.
          4    1    3    3  502    0 -0.62888683998E+02  0.10641924783E+03  0.50730922350E+02  0.13362365908E+03  0.12700000000E+01 0. -1.
         -4    1    3    3    0  502  0.63765260688E+00 -0.90041953691E+01  0.81366135189E+02  0.81875167119E+02  0.12700000000E+01 0. -1.
          1    1    1    2  503    0  0.24339246256E+02 -0.41975503240E+02 -0.11102467839E+03  0.12116443782E+03  0.00000000000E+00 0. -1.
         -3    1    1    2    0  501  0.37911785135E+02 -0.55439549222E+02  0.62676084880E+03  0.63034911649E+03  0.00000000000E+00 0.  1.
<mgrwt>
<rscale>  0 0.57928404E+02</rscale>
<asrwt>0</asrwt>
<pdfrwt beam="2">  1        1 0.24552243E-01 0.48521560E+02</pdfrwt>
<pdfrwt beam="1">  1       -3 0.12421889E+00 0.69158948E+02</pdfrwt>
<totfact> 0.54824823E+01</totfact>
</mgrwt>
</event>
<event>
 7    1  0.3113151E-004  0.1044992E+03  0.7546771E-02  0.1399508E+00
          2   -1    0    0  503    0  0.00000000000E+00  0.00000000000E+00  0.39785991878E+03  0.39785991878E+03  0.00000000000E+00 0. -1.
          2   -1    0    0  502    0 -0.00000000000E+00 -0.00000000000E+00 -0.29673198141E+03  0.29673198141E+03  0.00000000000E+00 0. -1.
         25    2    1    2    0    0  0.50167563818E+02 -0.80007212341E+02 -0.13754319234E+03  0.20847113244E+03  0.12499657922E+03 0.  0.
          4    1    3    3  501    0  0.48880733985E+02 -0.10308604046E+03 -0.14467191101E+03  0.18424883345E+03  0.12700000000E+01 0. -1.
         -4    1    3    3    0  501  0.12868298331E+01  0.23078828120E+02  0.71287186705E+01  0.24222298989E+02  0.12700000000E+01 0. -1.
          2    1    1    2  502    0 -0.25691516941E+02 -0.22262148337E+02 -0.11355387785E+03  0.11853328843E+03  0.00000000000E+00 0. -1.
          2    1    1    2  503    0 -0.24476046877E+02  0.10226936068E+03  0.35222500755E+03  0.36758747932E+03  0.00000000000E+00 0. -1.
<mgrwt>
<rscale>  0 0.59602395E+02</rscale>
<asrwt>0</asrwt>
<pdfrwt beam="1">  1        2 0.61209218E-01 0.10449918E+03</pdfrwt>
<pdfrwt beam="2">  1        2 0.45651074E-01 0.33994960E+02</pdfrwt>
<totfact> 0.13579458E+03</totfact>
</mgrwt>
</event>
<event>
 7    1  0.3113151E-004  0.1154627E+03  0.7546771E-02  0.1303774E+00
          2   -1    0    0  503    0  0.00000000000E+00  0.00000000000E+00  0.29021019466E+04  0.29021019466E+04  0.00000000000E+00 0. -1.
         -3   -1    0    0    0  501 -0.00000000000E+00 -0.00000000000E+00 -0.37861074507E+02  0.37861074507E+02  0.00000000000E+00 0.  1.
         25    2    1    2    0    0  0.53627597966E+02  0.17479681743E+02  0.72807598732E+03  0.74087869890E+03  0.12500057855E+03 0.  0.
          4    1    3    3  502    0  0.16116572043E+02 -0.52364790059E+02  0.37684093344E+03  0.38080509076E+03  0.12700000000E+01 0.  1.
         -4    1    3    3    0  502  0.37511025923E+02  0.69844471801E+02  0.35123505387E+03  0.36007360814E+03  0.12700000000E+01 0.  1.
          2    1    1    2  503    0  0.63414488100E+02  0.28590635836E+02  0.20388886065E+04  0.20400748936E+04  0.00000000000E+00 0. -1.
         -3    1    1    2    0  501 -0.11704208607E+03 -0.46070317579E+02  0.97276278275E+02  0.15900942861E+03  0.00000000000E+00 0.  1.
<mgrwt>
<rscale>  0 0.89620165E+02</rscale>
<asrwt>0</asrwt>
<pdfrwt beam="1">  1        2 0.44647705E+00 0.69561640E+02</pdfrwt>
<pdfrwt beam="2">  1       -3 0.58247830E-02 0.11546269E+03</pdfrwt>
<totfact> 0.30202448E+02</totfact>
</mgrwt>
</event>
<event>
 7    1  0.3113151E-004  0.1415475E+03  0.7546771E-02  0.1262012E+00
         -2   -1    0    0    0  501 -0.00000000000E+00  0.00000000000E+00  0.18050653703E+04  0.18050653703E+04  0.00000000000E+00 0.  1.
          2   -1    0    0  503    0  0.00000000000E+00 -0.00000000000E+00 -0.92075255669E+03  0.92075255669E+03  0.00000000000E+00 0. -1.
         25    2    1    2    0    0  0.10917003998E+03 -0.49222962508E+02  0.19915517259E+02  0.17425521906E+03  0.12500902318E+03 0.  0.
          4    1    3    3  502    0  0.20996046453E+02 -0.34348575807E+02 -0.47488816962E+02  0.62269248133E+02  0.12700000000E+01 0.  1.
         -4    1    3    3    0  502  0.88173993523E+02 -0.14874386702E+02  0.67404334222E+02  0.11198597093E+03  0.12700000000E+01 0.  1.
          2    1    1    2  503    0 -0.14143142579E+03 -0.28641092047E+02 -0.83636047116E+03  0.84871785540E+03  0.00000000000E+00 0. -1.
         -2    1    1    2    0  501  0.32261385817E+02  0.77864054556E+02  0.17007577675E+04  0.17028448525E+04  0.00000000000E+00 0.  1.
<mgrwt>
<rscale>  0 0.10922471E+03</rscale>
<asrwt>0</asrwt>
<pdfrwt beam="2">  1        2 0.14165424E+00 0.14154753E+03</pdfrwt>
<pdfrwt beam="1">  1       -2 0.27770236E+00 0.84282905E+02</pdfrwt>
<totfact> 0.17109775E+00</totfact>
</mgrwt>
</event>
<event>
 7    1  0.3113151E-004  0.7004262E+02  0.7546771E-02  0.1500258E+00
          2   -1    0    0  502    0  0.00000000000E+00  0.00000000000E+00  0.97438763402E+03  0.97438763402E+03  0.00000000000E+00 0. -1.
          1   -1    0    0  503    0 -0.00000000000E+00 -0.00000000000E+00 -0.73870558726E+02  0.73870558726E+02  0.00000000000E+00 0. -1.
         25    2    1    2    0    0  0.88639821728E+02 -0.41038683420E+01  0.36323410054E+03  0.39426023673E+03  0.12501305029E+03 0.  0.
          4    1    3    3  501    0  0.73397607465E+02  0.47590205886E+02  0.14397408256E+03  0.16847013333E+03  0.12700000000E+01 0.  1.
         -4    1    3    3    0  501  0.15242214263E+02 -0.51694074228E+02  0.21926001799E+03  0.22579010340E+03  0.12700000000E+01 0.  1.
          2    1    1    2  502    0 -0.20148095172E+02  0.13257809949E+02  0.57484312943E+03  0.57534888435E+03  0.00000000000E+00 0. -1.
          1    1    1    2  503    0 -0.68491726556E+02 -0.91539416065E+01 -0.37560154683E+02  0.78649071663E+02  0.00000000000E+00 0. -1.
<mgrwt>
<rscale>  0 0.41101607E+02</rscale>
<asrwt>0</asrwt>
<pdfrwt beam="1">  1        2 0.14990578E+00 0.24118774E+02</pdfrwt>
<pdfrwt beam="2">  1        1 0.11364702E-01 0.70042620E+02</pdfrwt>
<totfact> 0.20914009E+03</totfact>
</mgrwt>
</event>
<event>
 7    1  0.5695128E-004  0.1634596E+03  0.7546771E-02  0.1387531E+00
         -1   -1    0    0    0  501 -0.00000000000E+00  0.00000000000E+00  0.22269271787E+02  0.22269271787E+02  0.00000000000E+00 0.  1.
          2   -1    0    0  503    0  0.00000000000E+00 -0.00000000000E+00 -0.18464333746E+04  0.18464333746E+04  0.00000000000E+00 0. -1.
         25    2    1    2    0    0  0.16418337911E+03  0.55649564435E+02 -0.10263833241E+04  0.10483990783E+04  0.12499937286E+03 0.  0.
          4    1    3    3  502    0  0.36663730460E+02  0.73550273705E+02 -0.48466865654E+03  0.49158843703E+03  0.12700000000E+01 0.  1.
         -4    1    3    3    0  502  0.12751964865E+03 -0.17900709270E+02 -0.54171466761E+03  0.55681064123E+03  0.12700000000E+01 0.  1.
          2    1    1    2  503    0 -0.96142871586E+01 -0.21898949184E+02 -0.21854455143E+03  0.21984931078E+03  0.00000000000E+00 0. -1.
         -1    1    1    2    0  501 -0.15456909195E+03 -0.33750615251E+02 -0.57923622723E+03  0.60045425734E+03  0.00000000000E+00 0.  1.
<mgrwt>
<rscale>  0 0.62525034E+02</rscale>
<asrwt>0</asrwt>
<pdfrwt beam="2">  1        2 0.28406679E+00 0.23916490E+02</pdfrwt>
<pdfrwt beam="1">  1       -1 0.34260404E-02 0.16345960E+03</pdfrwt>
<totfact> 0.38700954E+03</totfact>
</mgrwt>
</event>
<event>
 7    1  0.3113151E-004  0.1306207E+03  0.7546771E-02  0.1421876E+00
          2   -1    0    0  503    0  0.00000000000E+00  0.00000000000E+00  0.81782725687E+03  0.81782725687E+03  0.00000000000E+00 0. -1.
         -2   -1    0    0    0  501 -0.00000000000E+00 -0.00000000000E+00 -0.25838567069E+03  0.25838567069E+03  0.00000000000E+00 0.  1.
         25    2    1    2    0    0  0.12988866357E+03 -0.64213362039E+02  0.22970918458E+03  0.29897567330E+03  0.12500289179E+03 0.  0.
          4    1    3    3  502    0  0.13827173510E+02  0.23877841300E+02  0.81047782741E+00  0.27633526860E+02  0.12700000000E+01 0.  1.
         -4    1    3    3    0  502  0.11606149006E+03 -0.88091203340E+02  0.22889870675E+03  0.27134214644E+03  0.12700000000E+01 0.  1.
          2    1    1    2  503    0 -0.74077193999E+01  0.21610309324E+02  0.53443100182E+03  0.53491903638E+03  0.00000000000E+00 0. -1.
         -2    1    1    2    0  501 -0.12248094417E+03  0.42603052715E+02 -0.20469860021E+03  0.24231821788E+03  0.00000000000E+00 0.  1.
<mgrwt>
<rscale>  0 0.54625903E+02</rscale>
<asrwt>0</asrwt>
<pdfrwt beam="1">  1        2 0.12581958E+00 0.22844688E+02</pdfrwt>
<pdfrwt beam="2">  1       -2 0.39751642E-01 0.13062071E+03</pdfrwt>
<totfact> 0.23024773E+02</totfact>
</mgrwt>
</event>
<event>
 7    1  0.3113151E-004  0.1792304E+03  0.7546771E-02  0.1215599E+00
          3   -1    0    0  503    0 -0.00000000000E+00  0.00000000000E+00  0.19109307990E+03  0.19109307990E+03  0.00000000000E+00 0. -1.
          2   -1    0    0  502    0  0.00000000000E+00 -0.00000000000E+00 -0.22270775805E+04  0.22270775805E+04  0.00000000000E+00 0. -1.
         25    2    1    2    0    0 -0.18157859166E+02 -0.25175124491E+03 -0.44180295391E+03  0.52394968008E+03  0.12500008006E+03 0.  0.
          4    1    3    3  501    0  0.15030274464E+02  0.95033318994E+01 -0.21198244431E+02  0.27698392274E+02  0.12700000000E+01 0. -1.
         -4    1    3    3    0  501 -0.33188133630E+02 -0.26125457681E+03 -0.42060470948E+03  0.49625128781E+03  0.12700000000E+01 0. -1.
          2    1    1    2  502    0 -0.51540610037E+02  0.93491325655E+02 -0.16921203912E+04  0.16954847332E+04  0.00000000000E+00 0. -1.
          3    1    1    2  503    0  0.69698469203E+02  0.15825991925E+03  0.97938844460E+02  0.19873624708E+03  0.00000000000E+00 0. -1.
<mgrwt>
<rscale>  0 0.13832608E+03</rscale>
<asrwt>0</asrwt>
<pdfrwt beam="2">  1        2 0.34262730E+00 0.10675703E+03</pdfrwt>
<pdfrwt beam="1">  1        3 0.29398937E-01 0.17923040E+03</pdfrwt>
<totfact> 0.42982031E+01</totfact>
</mgrwt>
</event>
<event>
 7    1  0.3113151E-004  0.8065392E+02  0.7546771E-02  0.1360966E+00
          1   -1    0    0  503    0  0.00000000000E+00  0.00000000000E+00  0.23791835703E+03  0.23791835703E+03  0.00000000000E+00 0. -1.
         -3   -1    0    0    0  501 -0.00000000000E+00 -0.00000000000E+00 -0.41241035999E+03  0.41241035999E+03  0.00000000000E+00 0.  1.
         25    2    1    2    0    0  0.12717131231E+03 -0.71682491350E+01 -0.17275377200E+03  0.24838031465E+03  0.12499995398E+03 0.  0.
          4    1    3    3  502    0  0.10412446246E+03  0.47898041012E+02 -0.13762659544E+03  0.17910560764E+03  0.12700000000E+01 0.  1.
         -4    1    3    3    0  502  0.23046849848E+02 -0.55066290147E+02 -0.35127176559E+02  0.69274707011E+02  0.12700000000E+01 0.  1.
          1    1    1    2  503    0 -0.58081658337E+02 -0.16241953262E+02  0.18865402265E+03  0.19805963835E+03  0.00000000000E+00 0. -1.
         -3    1    1    2    0  501 -0.69089653974E+02  0.23410202397E+02 -0.19039225360E+03  0.20388876402E+03  0.00000000000E+00 0.  1.
<mgrwt>
<rscale>  0 0.69744012E+02</rscale>
<asrwt>0</asrwt>
<pdfrwt beam="1">  1        1 0.36602824E-01 0.60309867E+02</pdfrwt>
<pdfrwt beam="2">  1       -3 0.63447747E-01 0.80653921E+02</pdfrwt>
<totfact> 0.14864442E+02</totfact>
</mgrwt>
</event>
<event>
 7    1  0.3113151E-004  0.4000371E+02  0.7546771E-02  0.1531285E+00
         -2   -1    0    0    0  501 -0.00000000000E+00  0.00000000000E+00  0.11055319495E+03  0.11055319495E+03  0.00000000000E+00 0.  1.
          1   -1    0    0  503    0  0.00000000000E+00 -0.00000000000E+00 -0.12700209583E+03  0.12700209583E+03  0.00000000000E+00 0. -1.
         25    2    1    2    0    0  0.44364258700E+02  0.27422744472E+02  0.15219372025E+02  0.13631004640E+03  0.12501441957E+03 0.  0.
          4    1    3    3  502    0 -0.25577776117E+02  0.36622819278E+00 -0.36941726171E+02  0.44951760663E+02  0.12700000000E+01 0. -1.
         -4    1    3    3    0  502  0.69942034817E+02  0.27056516280E+02  0.52161098196E+02  0.91358285735E+02  0.12700000000E+01 0. -1.
          1    1    1    2  503    0 -0.53254871053E+01 -0.33859655710E+02 -0.47545647147E+02  0.58612504301E+02  0.00000000000E+00 0. -1.
         -2    1    1    2    0  501 -0.39038771594E+02  0.64369112381E+01  0.15877374243E+02  0.42632740080E+02  0.00000000000E+00 0.  1.
<mgrwt>
<rscale>  0 0.37029218E+02</rscale>
<asrwt>0</asrwt>
<pdfrwt beam="2">  1        1 0.19538784E-01 0.34275897E+02</pdfrwt>
<pdfrwt beam="1">  1       -2 0.17008184E-01 0.40003710E+02</pdfrwt>
<totfact> 0.54080266E+03</totfact>
</mgrwt>
</event>
<event>
 7    1  0.3113151E-004  0.4653723E+03  0.7546771E-02  0.1161853E+00
          2   -1    0    0  502    0  0.00000000000E+00  0.00000000000E+00  0.31354287950E+04  0.31354287950E+04  0.00000000000E+00 0.  1.
          1   -1    0    0  503    0 -0.00000000000E+00 -0.00000000000E+00 -0.13637326076E+04  0.13637326076E+04  0.00000000000E+00 0. -1.
         25    2    1    2    0    0  0.20327675063E+03  0.41062544506E+03  0.16525569114E+04  0.17194491357E+04  0.12500516500E+03 0.  0.
          4    1    3    3  501    0  0.91467630877E+02  0.30907027341E+03  0.10583707332E+04  0.11063638566E+04  0.12700000000E+01 0. -1.
         -4    1    3    3    0  501  0.11180911975E+03  0.10155517164E+03  0.59418617823E+03  0.61308527910E+03  0.12700000000E+01 0. -1.
          2    1    1    2  502    0 -0.14320690444E+03 -0.45481042566E+03  0.14091041731E+04  0.14875937992E+04  0.00000000000E+00 0.  1.
          1    1    1    2  503    0 -0.60069846187E+02  0.44184980609E+02 -0.12899648971E+04  0.12921184677E+04  0.00000000000E+00 0. -1.
<mgrwt>
<rscale>  0 0.18628702E+03</rscale>
<asrwt>0</asrwt>
<pdfrwt beam="1">  1        2 0.48237366E+00 0.46537225E+03</pdfrwt>
<pdfrwt beam="2">  1        1 0.20980502E+00 0.74570094E+02</pdfrwt>
<totfact> 0.21743612E+00</totfact>
</mgrwt>
</event>
<event>
 7    1  0.3113151E-004  0.2469704E+02  0.7546771E-02  0.1688140E+00
         -2   -1    0    0    0  501 -0.00000000000E+00  0.00000000000E+00  0.33396217692E+02  0.33396217692E+02  0.00000000000E+00 0.  1.
          1   -1    0    0  503    0  0.00000000000E+00 -0.00000000000E+00 -0.49189536988E+03  0.49189536988E+03  0.00000000000E+00 0. -1.
         25    2    1    2    0    0  0.92868510655E+01  0.40594445050E+02 -0.13470896660E+03  0.18842645929E+03  0.12499548114E+03 0.  0.
          4    1    3    3  502    0  0.69192718994E+01  0.67711499208E+01 -0.15063058180E+03  0.15094671202E+03  0.12700000000E+01 0. -1.
         -4    1    3    3    0  502  0.23675791661E+01  0.33823295129E+02  0.15921615203E+02  0.37479747267E+02  0.12700000000E+01 0. -1.
          1    1    1    2  503    0  0.32201355422E+01 -0.21572121058E+02 -0.30888505479E+03  0.30965416637E+03  0.00000000000E+00 0. -1.
         -2    1    1    2    0  501 -0.12506986608E+02 -0.19022323992E+02 -0.14905130794E+02  0.27210961910E+02  0.00000000000E+00 0.  1.
<mgrwt>
<rscale>  0 0.23209277E+02</rscale>
<asrwt>0</asrwt>
<pdfrwt beam="2">  1        1 0.75676209E-01 0.21811137E+02</pdfrwt>
<pdfrwt beam="1">  1       -2 0.51378797E-02 0.24697041E+02</pdfrwt>
<totfact> 0.62819809E+03</totfact>
</mgrwt>
</event>
<event>
 7    1  0.3113151E-004  0.1139745E+03  0.7546771E-02  0.1330724E+00
         -1   -1    0    0    0  501 -0.00000000000E+00  0.00000000000E+00  0.15385609115E+02  0.15385609115E+02  0.00000000000E+00 0.  1.
          2   -1    0    0  503    0  0.00000000000E+00 -0.00000000000E+00 -0.21897771730E+04  0.21897771730E+04  0.00000000000E+00 0. -1.
         25    2    1    2    0    0  0.76835920256E+02  0.12463843687E+03 -0.10563547932E+04  0.10737548835E+04  0.12500240826E+03 0.  0.
          4    1    3    3  502    0  0.47494217169E+02  0.10192104920E+03 -0.37768113891E+03  0.39406630981E+03  0.12700000000E+01 0. -1.
         -4    1    3    3    0  502  0.29341703087E+02  0.22717387669E+02 -0.67867365430E+03  0.67968857367E+03  0.12700000000E+01 0. -1.
          2    1    1    2  503    0 -0.26882736769E+02 -0.10083934473E+03 -0.91617694015E+03  0.92210164334E+03  0.00000000000E+00 0. -1.
         -1    1    1    2    0  501 -0.49953183487E+02 -0.23799092142E+02 -0.20185983051E+03  0.20930625528E+03  0.00000000000E+00 0.  1.
<mgrwt>
<rscale>  0 0.79413646E+02</rscale>
<asrwt>0</asrwt>
<pdfrwt beam="2">  1        2 0.33688889E+00 0.11397451E+03</pdfrwt>
<pdfrwt beam="1">  1       -1 0.23670161E-02 0.55332787E+02</pdfrwt>
<totfact> 0.32716000E+03</totfact>
</mgrwt>
</event>
<event>
 7    1  0.3113151E-004  0.9305690E+02  0.7546771E-02  0.1475103E+00
         -2   -1    0    0    0  501 -0.00000000000E+00  0.00000000000E+00  0.26859346021E+03  0.26859346021E+03  0.00000000000E+00 0.  1.
          1   -1    0    0  503    0  0.00000000000E+00 -0.00000000000E+00 -0.17327446153E+03  0.17327446153E+03  0.00000000000E+00 0. -1.
         25    2    1    2    0    0  0.56661716829E+02  0.79666988569E+02 -0.11544096173E+03  0.19623825545E+03  0.12500183213E+03 0.  0.
          4    1    3    3  502    0  0.13599193547E+02  0.15516856965E+02  0.27108791489E+02  0.34091206948E+02  0.12700000000E+01 0. -1.
         -4    1    3    3    0  502  0.43062523281E+02  0.64150131604E+02 -0.14254975322E+03  0.16214704850E+03  0.12700000000E+01 0. -1.
          1    1    1    2  503    0 -0.35829170905E+02 -0.73798681571E+02  0.85416050322E+02  0.11843089353E+03  0.00000000000E+00 0. -1.
         -2    1    1    2    0  501 -0.20832545924E+02 -0.58683069982E+01  0.12534391009E+03  0.12719877276E+03  0.00000000000E+00 0.  1.
<mgrwt>
<rscale>  0 0.44878252E+02</rscale>
<asrwt>0</asrwt>
<pdfrwt beam="2">  1        1 0.26657610E-01 0.93056902E+02</pdfrwt>
<pdfrwt beam="1">  1       -2 0.41322071E-01 0.21643290E+02</pdfrwt>
<totfact> 0.82280327E+02</totfact>
</mgrwt>
</event>
<event>
 7    1  0.3113151E-004  0.8717173E+02  0.7546771E-02  0.1468926E+00
          2   -1    0    0  503    0  0.00000000000E+00  0.00000000000E+00  0.40530456343E+02  0.40530456343E+02  0.00000000000E+00 0. -1.
         -1   -1    0    0    0  501 -0.00000000000E+00 -0.00000000000E+00 -0.47091591905E+03  0.47091591905E+03  0.00000000000E+00 0.  1.
         25    2    1    2    0    0 -0.74984386461E+02 -0.44280705012E+02 -0.18685434456E+03  0.24108604132E+03  0.12499797673E+03 0.  0.
          4    1    3    3  502    0 -0.63047479991E+02 -0.85431724562E+02 -0.10875522740E+03  0.15199630483E+03  0.12700000000E+01 0. -1.
         -4    1    3    3    0  502 -0.11936906470E+02  0.41151019550E+02 -0.78099117165E+02  0.89089736491E+02  0.12700000000E+01 0. -1.
          2    1    1    2  503    0  0.61253031756E+02  0.64142932268E+02 -0.15485446817E+03  0.17845491299E+03  0.00000000000E+00 0. -1.
         -1    1    1    2    0  501  0.13731354705E+02 -0.19862227256E+02 -0.88676649975E+02  0.91905421083E+02  0.00000000000E+00 0.  1.
<mgrwt>
<rscale>  0 0.45879196E+02</rscale>
<asrwt>0</asrwt>
<pdfrwt beam="1">  1        2 0.62354544E-02 0.87171729E+02</pdfrwt>
<pdfrwt beam="2">  1       -1 0.72448607E-01 0.24146598E+02</pdfrwt>
<totfact> 0.25998027E+03</totfact>
</mgrwt>
</event>
<event>
 7    1  0.3113151E-004  0.5065305E+02  0.7546771E-02  0.1523834E+00
          2   -1    0    0  503    0  0.00000000000E+00  0.00000000000E+00  0.30470664427E+03  0.30470664427E+03  0.00000000000E+00 0. -1.
         -1   -1    0    0    0  501 -0.00000000000E+00 -0.00000000000E+00 -0.38364968989E+02  0.38364968989E+02  0.00000000000E+00 0.  1.
         25    2    1    2    0    0  0.30556714306E+02  0.12072346977E+02  0.14732843868E+03  0.19598383997E+03  0.12499816932E+03 0.  0.
          4    1    3    3  502    0  0.64388488891E+01  0.68004278793E+02  0.78082244532E+02  0.10375206273E+03  0.12700000000E+01 0.  1.
         -4    1    3    3    0  502  0.24117865417E+02 -0.55931931816E+02  0.69246194151E+02  0.92231777243E+02  0.12700000000E+01 0.  1.
          2    1    1    2  503    0 -0.57848841427E+02 -0.40804778230E+01  0.80350774759E+02  0.99092813857E+02  0.00000000000E+00 0. -1.
         -1    1    1    2    0  501  0.27292127121E+02 -0.79918691537E+01  0.38662461836E+02  0.47994959429E+02  0.00000000000E+00 0.  1.
<mgrwt>
<rscale>  0 0.37953665E+02</rscale>
<asrwt>0</asrwt>
<pdfrwt beam="1">  1        2 0.46877944E-01 0.50653053E+02</pdfrwt>
<pdfrwt beam="2">  1       -1 0.59023031E-02 0.28438182E+02</pdfrwt>
<totfact> 0.13362781E+04</totfact>
</mgrwt>
</event>
<event>
 7    1  0.3113151E-004  0.9721676E+02  0.7546771E-02  0.1389023E+00
          3   -1    0    0  503    0 -0.00000000000E+00  0.00000000000E+00  0.62245605995E+03  0.62245605995E+03  0.00000000000E+00 0. -1.
          1   -1    0    0  502    0  0.00000000000E+00 -0.00000000000E+00 -0.44744725996E+02  0.44744725996E+02  0.00000000000E+00 0. -1.
         25    2    1    2    0    0 -0.38941139468E+02  0.63387167243E+02  0.23138660294E+03  0.27332044062E+03  0.12501983013E+03 0.  0.
          4    1    3    3  501    0 -0.56958200359E+02  0.87690704809E+02  0.21454072509E+03  0.23866971304E+03  0.12700000000E+01 0.  1.
         -4    1    3    3    0  501  0.18017060892E+02 -0.24303537566E+02  0.16845877849E+02  0.34650727581E+02  0.12700000000E+01 0.  1.
          1    1    1    2  502    0  0.38828721594E+02 -0.10311955571E+03  0.11537990325E+03  0.15954257884E+03  0.00000000000E+00 0. -1.
          3    1    1    2  503    0  0.11241787360E+00  0.39732388462E+02  0.23094482776E+03  0.23433776648E+03  0.00000000000E+00 0. -1.
<mgrwt>
<rscale>  0 0.62150379E+02</rscale>
<asrwt>0</asrwt>
<pdfrwt beam="2">  1        1 0.68838044E-02 0.97216761E+02</pdfrwt>
<pdfrwt beam="1">  1        3 0.95762465E-01 0.39732547E+02</pdfrwt>
<totfact> 0.51344103E+02</totfact>
</mgrwt>
</event>
<event>
 7    1  0.3113151E-004  0.6297680E+02  0.7546771E-02  0.1393419E+00
          2   -1    0    0  502    0  0.00000000000E+00  0.00000000000E+00  0.68002123889E+03  0.68002123889E+03  0.00000000000E+00 0. -1.
          1   -1    0    0  503    0 -0.00000000000E+00 -0.00000000000E+00 -0.67092615737E+02  0.67092615737E+02  0.00000000000E+00 0. -1.
         25    2    1    2    0    0 -0.16859630135E+00 -0.72288389326E+02  0.29906904078E+03  0.33210356974E+03  0.12499940090E+03 0.  0.
          4    1    3    3  501    0 -0.55044068449E+01 -0.48312647000E+02  0.30327534094E+03  0.30715135630E+03  0.12700000000E+01 0.  1.
         -4    1    3    3    0  501  0.53358105436E+01 -0.23975742325E+02 -0.42063001662E+01  0.24952213435E+02  0.12700000000E+01 0.  1.
          2    1    1    2  502    0 -0.49734448913E+02  0.32129203621E+02  0.34051924923E+03  0.34562864498E+03  0.00000000000E+00 0. -1.
          1    1    1    2  503    0  0.49903045215E+02  0.40159185704E+02 -0.26659666863E+02  0.69381639901E+02  0.00000000000E+00 0. -1.
<mgrwt>
<rscale>  0 0.61064262E+02</rscale>
<asrwt>0</asrwt>
<pdfrwt beam="1">  1        2 0.10461865E+00 0.59209806E+02</pdfrwt>
<pdfrwt beam="2">  1        1 0.10321941E-01 0.62976799E+02</pdfrwt>
<totfact> 0.34666631E+03</totfact>
</mgrwt>
</event>
<event>
 7    1  0.3113151E-004  0.4355078E+02  0.7546771E-02  0.1553371E+00
         -2   -1    0    0    0  501 -0.00000000000E+00  0.00000000000E+00  0.93006739807E+02  0.93006739807E+02  0.00000000000E+00 0.  1.
          1   -1    0    0  503    0  0.00000000000E+00 -0.00000000000E+00 -0.12775231561E+03  0.12775231561E+03  0.00000000000E+00 0. -1.
         25    2    1    2    0    0  0.47170636550E+01  0.24923271243E+02 -0.45866107906E+02  0.13554594083E+03  0.12500232831E+03 0.  0.
          4    1    3    3  502    0  0.58436768972E+02  0.34153833054E+02 -0.59184745677E+01  0.67955732071E+02  0.12700000000E+01 0. -1.
         -4    1    3    3    0  502 -0.53719705317E+02 -0.92305618111E+01 -0.39947633338E+02  0.67590208758E+02  0.12700000000E+01 0. -1.
          1    1    1    2  503    0  0.24876444595E+02  0.11197307173E+02 -0.15587107038E+02  0.31419342600E+02  0.00000000000E+00 0. -1.
         -2    1    1    2    0  501 -0.29593508250E+02 -0.36120578415E+02  0.26707639145E+02  0.53793771984E+02  0.00000000000E+00 0.  1.
<mgrwt>
<rscale>  0 0.34468542E+02</rscale>
<asrwt>0</asrwt>
<pdfrwt beam="2">  1        1 0.19654202E-01 0.27280344E+02</pdfrwt>
<pdfrwt beam="1">  1       -2 0.14308729E-01 0.43550784E+02</pdfrwt>
<totfact> 0.70214178E+03</totfact>
</mgrwt>
</event>
<event>
 7    1  0.3113151E-004  0.3189852E+03  0.7546771E-02  0.1189145E+00
          2   -1    0    0  502    0  0.00000000000E+00  0.00000000000E+00  0.99907930384E+03  0.99907930384E+03  0.00000000000E+00 0. -1.
          1   -1    0    0  503    0 -0.00000000000E+00 -0.00000000000E+00 -0.66811370171E+03  0.66811370171E+03  0.00000000000E+00 0.  1.
         25    2    1    2    0    0 -0.34020132830E+03  0.10668717923E+03  0.14321838747E+03  0.40406755100E+03  0.12505991073E+03 0.  0.
          4    1    3    3  501    0 -0.23301575802E+03  0.12749408543E+03  0.12423673855E+03  0.29323619389E+03  0.12700000000E+01 0. -1.
         -4    1    3    3    0  501 -0.10718557028E+03 -0.20806906197E+02  0.18981648927E+02  0.11083135711E+03  0.12700000000E+01 0. -1.
          2    1    1    2  502    0  0.30894996840E+03 -0.33198684184E+02  0.68885523107E+03  0.75569422717E+03  0.00000000000E+00 0. -1.
          1    1    1    2  503    0  0.31251359899E+02 -0.73488495048E+02 -0.50110801642E+03  0.50743122738E+03  0.00000000000E+00 0.  1.
<mgrwt>
<rscale>  0 0.15960367E+03</rscale>
<asrwt>0</asrwt>
<pdfrwt beam="1">  1        2 0.15370451E+00 0.31898519E+03</pdfrwt>
<pdfrwt beam="2">  1        1 0.10278672E+00 0.79857413E+02</pdfrwt>
<totfact> 0.11333673E+02</totfact>
</mgrwt>
</event>
<event>
 7    1  0.3113151E-004  0.2508848E+02  0.7546771E-02  0.1681959E+00
          2   -1    0    0  503    0  0.00000000000E+00  0.00000000000E+00  0.17053374383E+04  0.17053374383E+04  0.00000000000E+00 0. -1.
         -1   -1    0    0    0  501 -0.00000000000E+00 -0.00000000000E+00 -0.62183779924E+01  0.62183779924E+01  0.00000000000E+00 0.  1.
         25    2    1    2    0    0  0.20838595225E+01 -0.22079728033E+02  0.10123421027E+04  0.10202704553E+04  0.12499364901E+03 0.  0.
          4    1    3    3  502    0  0.17953384761E+02 -0.71503107793E+02  0.52083684249E+03  0.52603008264E+03  0.12700000000E+01 0.  1.
         -4    1    3    3    0  502 -0.15869525239E+02  0.49423379760E+02  0.49150526020E+03  0.49424037270E+03  0.12700000000E+01 0.  1.
          2    1    1    2  503    0  0.19524867125E+02  0.16987849100E+02  0.62675747796E+03  0.62729159379E+03  0.00000000000E+00 0. -1.
         -1    1    1    2    0  501 -0.21608726647E+02  0.50918789333E+01  0.60019479650E+02  0.63993767164E+02  0.00000000000E+00 0.  1.
<mgrwt>
<rscale>  0 0.23600381E+02</rscale>
<asrwt>0</asrwt>
<pdfrwt beam="1">  1        2 0.26235923E+00 0.25088479E+02</pdfrwt>
<pdfrwt beam="2">  1       -1 0.95667490E-03 0.22200547E+02</pdfrwt>
<totfact> 0.19683278E+04</totfact>
</mgrwt>
</event>
<event>
 7    1  0.3113151E-004  0.8986239E+02  0.7546771E-02  0.1331608E+00
          2   -1    0    0  503    0  0.00000000000E+00  0.00000000000E+00  0.10076175076E+04  0.10076175076E+04  0.00000000000E+00 0.  1.
          2   -1    0    0  502    0 -0.00000000000E+00 -0.00000000000E+00 -0.22406587036E+04  0.22406587036E+04  0.00000000000E+00 0. -1.
         25    2    1    2    0    0 -0.10147721580E+03  0.32501196586E+02  0.59507853135E+01  0.16435914076E+03  0.12499824878E+03 0.  0.
          4    1    3    3  501    0  0.55013758839E+01 -0.70309327065E+01  0.43388640963E+02  0.44315755844E+02  0.12700000000E+01 0. -1.
         -4    1    3    3    0  501 -0.10697859169E+03  0.39532129293E+02 -0.37437855650E+02  0.12004338491E+03  0.12700000000E+01 0. -1.
          2    1    1    2  502    0  0.83016393697E+02  0.34644192703E+02 -0.21592024550E+04  0.21610754692E+04  0.00000000000E+00 0. -1.
          2    1    1    2  503    0  0.18460822106E+02 -0.67145389289E+02  0.92021047371E+03  0.92284160135E+03  0.00000000000E+00 0.  1.
<mgrwt>
<rscale>  0 0.79105897E+02</rscale>
<asrwt>0</asrwt>
<pdfrwt beam="1">  1        2 0.15501808E+00 0.69636953E+02</pdfrwt>
<pdfrwt beam="2">  1        2 0.34471672E+00 0.89862389E+02</pdfrwt>
<totfact> 0.27446786E+01</totfact>
</mgrwt>
</event>
<event>
 7    1  0.3113151E-004  0.7160258E+02  0.7546771E-02  0.1360760E+00
          2   -1    0    0  503    0  0.00000000000E+00  0.00000000000E+00  0.91431916320E+03  0.91431916320E+03  0.00000000000E+00 0. -1.
         -3   -1    0    0    0  501 -0.00000000000E+00 -0.00000000000E+00 -0.93340645597E+03  0.93340645597E+03  0.00000000000E+00 0.  1.
         25    2    1    2    0    0 -0.47992455073E+02 -0.54220802921E+02 -0.42378606774E+03  0.44773079738E+03  0.12500025799E+03 0.  0.
          4    1    3    3  502    0 -0.34334169212E+02 -0.95067414390E+02 -0.30966067168E+03  0.32574221854E+03  0.12700000000E+01 0.  1.
         -4    1    3    3    0  502 -0.13658285861E+02  0.40846611469E+02 -0.11412539606E+03  0.12198857884E+03  0.12700000000E+01 0.  1.
          2    1    1    2  503    0 -0.18363748782E+02  0.69314137675E+02  0.89858545994E+03  0.90144190371E+03  0.00000000000E+00 0. -1.
         -3    1    1    2    0  501  0.66356203854E+02 -0.15093334754E+02 -0.49388668497E+03  0.49855291809E+03  0.00000000000E+00 0.  1.
<mgrwt>
<rscale>  0 0.69804266E+02</rscale>
<asrwt>0</asrwt>
<pdfrwt beam="1">  1        2 0.14066449E+00 0.71602579E+02</pdfrwt>
<pdfrwt beam="2">  1       -3 0.14360099E+00 0.68051117E+02</pdfrwt>
<totfact> 0.75171179E+00</totfact>
</mgrwt>
</event>
<event>
 7    1  0.3113151E-004  0.2736524E+02  0.7546771E-02  0.1674237E+00
         -3   -1    0    0    0  501  0.00000000000E+00  0.00000000000E+00  0.17028429633E+02  0.17028429633E+02  0.00000000000E+00 0.  1.
         -3   -1    0    0    0  502 -0.00000000000E+00 -0.00000000000E+00 -0.76277032098E+03  0.76277032098E+03  0.00000000000E+00 0.  1.
         25    2    1    2    0    0  0.11510791742E+02  0.32418882688E+02 -0.47306722249E+03  0.49051300127E+03  0.12500770032E+03 0.  0.
          4    1    3    3  503    0  0.17244237207E+02 -0.45399609589E+02 -0.23541824954E+03  0.24037856265E+03  0.12700000000E+01 0.  1.
         -4    1    3    3    0  503 -0.57334454645E+01  0.77818492277E+02 -0.23764897296E+03  0.25013443862E+03  0.12700000000E+01 0.  1.
         -3    1    1    2    0  501  0.11584997377E+02 -0.17789112922E+02 -0.72142240762E+01  0.22421189348E+02  0.00000000000E+00 0.  1.
         -3    1    1    2    0  502 -0.23095789119E+02 -0.14629769766E+02 -0.26546044478E+03  0.26686455999E+03  0.00000000000E+00 0.  1.
<mgrwt>
<rscale>  0 0.24102553E+02</rscale>
<asrwt>0</asrwt>
<pdfrwt beam="1">  1       -3 0.26197587E-02 0.21228865E+02</pdfrwt>
<pdfrwt beam="2">  1       -3 0.11734926E+00 0.27365244E+02</pdfrwt>
<totfact> 0.59497099E+02</totfact>
</mgrwt>
</event>
<event>
 7    1  0.3113151E-004  0.7386582E+02  0.7546771E-02  0.1393415E+00
         -2   -1    0    0    0  501 -0.00000000000E+00  0.00000000000E+00  0.19047707996E+03  0.19047707996E+03  0.00000000000E+00 0.  1.
          1   -1    0    0  503    0  0.00000000000E+00 -0.00000000000E+00 -0.87975520898E+03  0.87975520898E+03  0.00000000000E+00 0. -1.
         25    2    1    2    0    0  0.41756513883E+02 -0.34238963732E+01 -0.11088213388E+03  0.17226500201E+03  0.12500021513E+03 0.  0.
          4    1    3    3  502    0  0.26477416331E+02  0.26458128262E+02  0.16209959024E+02  0.40810069814E+02  0.12700000000E+01 0. -1.
         -4    1    3    3    0  502  0.15279097552E+02 -0.29882024635E+02 -0.12709209291E+03  0.13145493219E+03  0.12700000000E+01 0. -1.
          1    1    1    2  503    0 -0.56328930121E+02  0.51757927254E+02 -0.73215111832E+03  0.73613659837E+03  0.00000000000E+00 0. -1.
         -2    1    1    2    0  501  0.14572416238E+02 -0.48334030881E+02  0.15375512319E+03  0.16183068857E+03  0.00000000000E+00 0.  1.
<mgrwt>
<rscale>  0 0.61065283E+02</rscale>
<asrwt>0</asrwt>
<pdfrwt beam="2">  1        1 0.13534695E+00 0.73865825E+02</pdfrwt>
<pdfrwt beam="1">  1       -2 0.29304166E-01 0.50483006E+02</pdfrwt>
<totfact> 0.19422172E+02</totfact>
</mgrwt>
</event>
<event>
 7    1  0.3113151E-004  0.8568315E+02  0.7546771E-02  0.1382168E+00
          2   -1    0    0  502    0  0.00000000000E+00  0.00000000000E+00  0.15130706656E+04  0.15130706656E+04  0.00000000000E+00 0. -1.
          1   -1    0    0  503    0 -0.00000000000E+00 -0.00000000000E+00 -0.14270062191E+04  0.14270062191E+04  0.00000000000E+00 0. -1.
         25    2    1    2    0    0 -0.11308284813E+03 -0.40797989547E+02 -0.55338780815E+03  0.57992632794E+03  0.12499709254E+03 0.  0.
          4    1    3    3  501    0 -0.52324675369E+02  0.33891563824E+02 -0.34204090307E+03  0.34767815868E+03  0.12700000000E+01 0.  1.
         -4    1    3    3    0  501 -0.60758172758E+02 -0.74689553371E+02 -0.21134690508E+03  0.23224816927E+03  0.12700000000E+01 0.  1.
          2    1    1    2  502    0  0.67077873758E+02  0.53213798579E+02  0.14979181150E+04  0.15003632323E+04  0.00000000000E+00 0. -1.
          1    1    1    2  503    0  0.46004974369E+02 -0.12415809032E+02 -0.85846586032E+03  0.85978732447E+03  0.00000000000E+00 0. -1.
<mgrwt>
<rscale>  0 0.63897424E+02</rscale>
<asrwt>0</asrwt>
<pdfrwt beam="1">  1        2 0.23278010E+00 0.85683151E+02</pdfrwt>
<pdfrwt beam="2">  1        1 0.21953942E+00 0.47650918E+02</pdfrwt>
<totfact> 0.19025311E+01</totfact>
</mgrwt>
</event>
<event>
 7    1  0.3113151E-004  0.7181750E+02  0.7546771E-02  0.1423462E+00
         -2   -1    0    0    0  501 -0.00000000000E+00  0.00000000000E+00  0.45024570184E+03  0.45024570184E+03  0.00000000000E+00 0.  1.
          2   -1    0    0  503    0  0.00000000000E+00 -0.00000000000E+00 -0.53706533100E+02  0.53706533100E+02  0.00000000000E+00 0. -1.
         25    2    1    2    0    0 -0.68849733914E+01 -0.70481974799E+02  0.74226712015E+02  0.16170423793E+03  0.12499417650E+03 0.  0.
          4    1    3    3  502    0  0.20776915460E+02  0.17666278776E+01  0.81363260472E+02  0.84002346662E+02  0.12700000000E+01 0. -1.
         -4    1    3    3    0  502 -0.27661888851E+02 -0.72248602676E+02 -0.71365484563E+01  0.77701891273E+02  0.12700000000E+01 0. -1.
          2    1    1    2  503    0  0.40718692296E+02  0.51896438795E+01  0.13139301574E+03  0.13765561700E+03  0.00000000000E+00 0. -1.
         -2    1    1    2    0  501 -0.33833718905E+02  0.65292330919E+02  0.19091944099E+03  0.20459238001E+03  0.00000000000E+00 0.  1.
<mgrwt>
<rscale>  0 0.54295210E+02</rscale>
<asrwt>0</asrwt>
<pdfrwt beam="2">  1        2 0.82625438E-02 0.41048073E+02</pdfrwt>
<pdfrwt beam="1">  1       -2 0.69268567E-01 0.71817496E+02</pdfrwt>
<totfact> 0.14199526E+03</totfact>
</mgrwt>
</event>
<event>
 7    1  0.3113151E-004  0.1338608E+03  0.7546771E-02  0.1251187E+00
          1   -1    0    0  502    0  0.00000000000E+00  0.00000000000E+00  0.64933626945E+03  0.64933626945E+03  0.00000000000E+00 0. -1.
          1   -1    0    0  503    0 -0.00000000000E+00 -0.00000000000E+00 -0.20480213979E+04  0.20480213979E+04  0.00000000000E+00 0. -1.
         25    2    1    2    0    0 -0.65405340403E+02  0.56990837632E+02 -0.15546437839E+03  0.21753032421E+03  0.12499781948E+03 0.  0.
          4    1    3    3  501    0 -0.45750196415E+02  0.86431370108E+02 -0.57714990229E+02  0.11356097573E+03  0.12700000000E+01 0. -1.
         -4    1    3    3    0  501 -0.19655143988E+02 -0.29440532475E+02 -0.97749388164E+02  0.10396934848E+03  0.12700000000E+01 0. -1.
          1    1    1    2  502    0  0.13628112258E+03  0.12395398702E+02  0.60938879903E+03  0.62456456725E+03  0.00000000000E+00 0. -1.
          1    1    1    2  503    0 -0.70875782173E+02 -0.69386236335E+02 -0.18526095491E+04  0.18552627759E+04  0.00000000000E+00 0. -1.
<mgrwt>
<rscale>  0 0.11522629E+03</rscale>
<asrwt>0</asrwt>
<pdfrwt beam="1">  1        1 0.99897889E-01 0.13386084E+03</pdfrwt>
<pdfrwt beam="2">  1        1 0.31508021E+00 0.99185817E+02</pdfrwt>
<totfact> 0.13807798E+01</totfact>
</mgrwt>
</event>
<event>
 7    1  0.3113151E-004  0.2373088E+03  0.7546771E-02  0.1212704E+00
          2   -1    0    0  502    0  0.00000000000E+00  0.00000000000E+00  0.41546598971E+03  0.41546598971E+03  0.00000000000E+00 0. -1.
          1   -1    0    0  503    0 -0.00000000000E+00 -0.00000000000E+00 -0.21555920449E+04  0.21555920449E+04  0.00000000000E+00 0. -1.
         25    2    1    2    0    0  0.15349255345E+03  0.59509308048E+02 -0.26292125268E+03  0.33448121803E+03  0.12509507743E+03 0.  0.
          4    1    3    3  501    0  0.12174032312E+03 -0.17887410516E+02 -0.15324563311E+03  0.19653626306E+03  0.12700000000E+01 0. -1.
         -4    1    3    3    0  501  0.31752230325E+02  0.77396718564E+02 -0.10967561956E+03  0.13794495497E+03  0.12700000000E+01 0. -1.
          2    1    1    2  502    0 -0.22564598817E+03 -0.10082072643E+03  0.33841558228E+03  0.41905374022E+03  0.00000000000E+00 0. -1.
          1    1    1    2  503    0  0.72153434726E+02  0.41311418385E+02 -0.18156203848E+04  0.18175230763E+04  0.00000000000E+00 0. -1.
<mgrwt>
<rscale>  0 0.14046548E+03</rscale>
<asrwt>0</asrwt>
<pdfrwt beam="1">  1        2 0.63917846E-01 0.23730876E+03</pdfrwt>
<pdfrwt beam="2">  1        1 0.33162954E+00 0.83142958E+02</pdfrwt>
<totfact> 0.32543331E+01</totfact>
</mgrwt>
</event>
<event>
 7    1  0.3113151E-004  0.6553843E+02  0.7546771E-02  0.1529114E+00
          3   -1    0    0  503    0 -0.00000000000E+00  0.00000000000E+00  0.12352696495E+04  0.12352696495E+04  0.00000000000E+00 0. -1.
          1   -1    0    0  502    0  0.00000000000E+00 -0.00000000000E+00 -0.14402477142E+03  0.14402477142E+03  0.00000000000E+00 0. -1.
         25    2    1    2    0    0 -0.47439380344E+02 -0.32288204175E+02  0.74440920014E+02  0.15639804781E+03  0.12500350335E+03 0.  0.
          4    1    3    3  501    0 -0.84571479263E+02 -0.13927742356E+02  0.20078359213E+02  0.88040164247E+02  0.12700000000E+01 0. -1.
         -4    1    3    3    0  501  0.37132098919E+02 -0.18360461819E+02  0.54362560801E+02  0.68357883562E+02  0.12700000000E+01 0. -1.
          1    1    1    2  502    0  0.40901523509E+02  0.52479418437E+02 -0.92193698871E+02  0.11369565557E+03  0.00000000000E+00 0. -1.
          3    1    1    2  503    0  0.65378568358E+01 -0.20191214262E+02  0.11089976569E+04  0.11092007175E+04  0.00000000000E+00 0. -1.
<mgrwt>
<rscale>  0 0.37295335E+02</rscale>
<asrwt>0</asrwt>
<pdfrwt beam="2">  1        1 0.22157658E-01 0.65538426E+02</pdfrwt>
<pdfrwt beam="1">  1        3 0.19004148E+00 0.21223306E+02</pdfrwt>
<totfact> 0.22358191E+01</totfact>
</mgrwt>
</event>
<event>
 7    1  0.3113151E-004  0.9043728E+02  0.7546771E-02  0.1466491E+00
          2   -1    0    0  503    0  0.00000000000E+00  0.00000000000E+00  0.13596092974E+03  0.13596092974E+03  0.00000000000E+00 0. -1.
          2   -1    0    0  502    0 -0.00000000000E+00 -0.00000000000E+00 -0.39057219962E+04  0.39057219962E+04  0.00000000000E+00 0. -1.
         25    2    1    2    0    0 -0.74772687472E+02  0.55613785801E+01  0.42093397337E+02  0.15170858370E+03  0.12498702551E+03 0.  0.
          4    1    3    3  501    0 -0.10022313663E+03 -0.27569275830E+02  0.29711804948E+02  0.10811635556E+03  0.12700000000E+01 0. -1.
         -4    1    3    3    0  501  0.25450449161E+02  0.33130654410E+02  0.12381592389E+02  0.43592228140E+02  0.12700000000E+01 0. -1.
          2    1    1    2  502    0  0.89607694495E+02  0.12902820008E+02 -0.38467415195E+04  0.38478066921E+04  0.00000000000E+00 0. -1.
          2    1    1    2  503    0 -0.14835007023E+02 -0.18464198588E+02  0.34887055721E+02  0.42167650157E+02  0.00000000000E+00 0. -1.
<mgrwt>
<rscale>  0 0.46282333E+02</rscale>
<asrwt>0</asrwt>
<pdfrwt beam="1">  1        2 0.20917065E-01 0.23685524E+02</pdfrwt>
<pdfrwt beam="2">  1        2 0.60088033E+00 0.90437278E+02</pdfrwt>
<totfact> 0.24388963E+01</totfact>
</mgrwt>
</event>
<event>
 7    1  0.3113151E-004  0.1564737E+03  0.7546771E-02  0.1380934E+00
          1   -1    0    0  503    0 -0.00000000000E+00  0.00000000000E+00  0.95947337242E+03  0.95947337242E+03  0.00000000000E+00 0. -1.
          2   -1    0    0  502    0  0.00000000000E+00 -0.00000000000E+00 -0.92770461768E+03  0.92770461768E+03  0.00000000000E+00 0. -1.
         25    2    1    2    0    0 -0.13101311097E+03 -0.20467194389E+02  0.20822672717E+03  0.27670849716E+03  0.12500352476E+03 0.  0.
          4    1    3    3  501    0 -0.32916694243E+02 -0.65317360614E+02  0.68787659346E+02  0.10041524454E+03  0.12700000000E+01 0. -1.
         -4    1    3    3    0  501 -0.98096416728E+02  0.44850166225E+02  0.13943906782E+03  0.17629325262E+03  0.12700000000E+01 0. -1.
          2    1    1    2  502    0  0.15654439851E+03  0.13924138783E+02 -0.88630596118E+03  0.90013237202E+03  0.00000000000E+00 0. -1.
          1    1    1    2  503    0 -0.25531287537E+02  0.65430556057E+01  0.70984798875E+03  0.71033712091E+03  0.00000000000E+00 0. -1.
<mgrwt>
<rscale>  0 0.64218992E+02</rscale>
<asrwt>0</asrwt>
<pdfrwt beam="2">  1        2 0.14272379E+00 0.15647371E+03</pdfrwt>
<pdfrwt beam="1">  1        1 0.14761129E+00 0.26356370E+02</pdfrwt>
<totfact> 0.81593217E+01</totfact>
</mgrwt>
</event>
<event>
 7    1  0.3113151E-004  0.9930194E+02  0.7546771E-02  0.1355748E+00
         -1   -1    0    0    0  501 -0.00000000000E+00  0.00000000000E+00  0.42167423770E+02  0.42167423770E+02  0.00000000000E+00 0.  1.
          2   -1    0    0  503    0  0.00000000000E+00 -0.00000000000E+00 -0.21375617768E+04  0.21375617768E+04  0.00000000000E+00 0. -1.
         25    2    1    2    0    0 -0.12519340459E+02 -0.56368589521E+02 -0.45386607500E+03  0.47429213849E+03  0.12499786731E+03 0.  0.
          4    1    3    3  502    0 -0.63381188144E+02 -0.24704023045E+01 -0.21961508681E+03  0.22859500684E+03  0.12700000000E+01 0. -1.
         -4    1    3    3    0  502  0.50861847685E+02 -0.53898187216E+02 -0.23425098819E+03  0.24569713165E+03  0.12700000000E+01 0. -1.
          2    1    1    2  503    0  0.43323964829E+02  0.97246486066E+02 -0.16501071742E+04  0.16535378832E+04  0.00000000000E+00 0. -1.
         -1    1    1    2    0  501 -0.30804624370E+02 -0.40877896546E+02  0.85788961290E+01  0.51899178870E+02  0.00000000000E+00 0.  1.
<mgrwt>
<rscale>  0 0.71293705E+02</rscale>
<asrwt>0</asrwt>
<pdfrwt beam="2">  1        2 0.32885569E+00 0.99301944E+02</pdfrwt>
<pdfrwt beam="1">  1       -1 0.64872953E-02 0.51185225E+02</pdfrwt>
<totfact> 0.82886090E+02</totfact>
</mgrwt>
</event>
<event>
 7    1  0.3113151E-004  0.1243009E+03  0.7546771E-02  0.1281556E+00
          2   -1    0    0  503    0  0.00000000000E+00  0.00000000000E+00  0.39416114482E+04  0.39416114482E+04  0.00000000000E+00 0. -1.
         -1   -1    0    0    0  501 -0.00000000000E+00 -0.00000000000E+00 -0.11879973486E+02  0.11879973486E+02  0.00000000000E+00 0.  1.
         25    2    1    2    0    0 -0.15365015631E+03 -0.10171392419E+03  0.19386776760E+04  0.19514214735E+04  0.12498216994E+03 0.  0.
          4    1    3    3  502    0 -0.14962222072E+03 -0.42637185614E+02  0.16054518316E+04  0.16129730112E+04  0.12700000000E+01 0. -1.
         -4    1    3    3    0  502 -0.40279355888E+01 -0.59076738574E+02  0.33322584443E+03  0.33844846225E+03  0.12700000000E+01 0. -1.
          2    1    1    2  503    0  0.64903559533E+02  0.45898260549E+02  0.13638206648E+04  0.13661353989E+04  0.00000000000E+00 0. -1.
         -1    1    1    2    0  501  0.88746596773E+02  0.55815663638E+02  0.62723313391E+03  0.63593454932E+03  0.00000000000E+00 0.  1.
<mgrwt>
<rscale>  0 0.99403406E+02</rscale>
<asrwt>0</asrwt>
<pdfrwt beam="1">  1        2 0.60640072E+00 0.79492908E+02</pdfrwt>
<pdfrwt beam="2">  1       -1 0.18276914E-02 0.12430086E+03</pdfrwt>
<totfact> 0.51687574E+02</totfact>
</mgrwt>
</event>
<event>
 7    1  0.3113151E-004  0.1218582E+03  0.7546771E-02  0.1246996E+00
          1   -1    0    0  503    0  0.00000000000E+00  0.00000000000E+00  0.77960746242E+03  0.77960746242E+03  0.00000000000E+00 0. -1.
         -3   -1    0    0    0  501 -0.00000000000E+00 -0.00000000000E+00 -0.14891895416E+03  0.14891895416E+03  0.00000000000E+00 0.  1.
         25    2    1    2    0    0  0.10522092485E+03  0.51182172096E+02  0.29839814105E+03  0.34403263212E+03  0.12500377440E+03 0.  0.
          4    1    3    3  502    0  0.42479586579E+02 -0.39559211638E+02  0.74729023856E+02  0.94633431766E+02  0.12700000000E+01 0.  1.
         -4    1    3    3    0  502  0.62741338272E+02  0.90741383734E+02  0.22366911719E+03  0.24939920035E+03  0.12700000000E+01 0.  1.
          1    1    1    2  503    0 -0.85658971291E+02  0.74645961045E+02  0.41657195516E+03  0.43178892146E+03  0.00000000000E+00 0. -1.
         -3    1    1    2    0  501 -0.19561953561E+02 -0.12582813314E+03 -0.84281587956E+02  0.15270486300E+03  0.00000000000E+00 0.  1.
<mgrwt>
<rscale>  0 0.11766695E+03</rscale>
<asrwt>0</asrwt>
<pdfrwt beam="1">  1        1 0.11993961E+00 0.11361989E+03</pdfrwt>
<pdfrwt beam="2">  1       -3 0.22910609E-01 0.12185817E+03</pdfrwt>
<totfact> 0.23036867E+02</totfact>
</mgrwt>
</event>
<event>
 7    1  0.3113151E-004  0.1051336E+03  0.7546771E-02  0.1317175E+00
          3   -1    0    0  503    0 -0.00000000000E+00  0.00000000000E+00  0.39395476279E+03  0.39395476279E+03  0.00000000000E+00 0. -1.
          1   -1    0    0  502    0  0.00000000000E+00 -0.00000000000E+00 -0.16697005688E+04  0.16697005688E+04  0.00000000000E+00 0.  1.
         25    2    1    2    0    0 -0.41422951897E+02 -0.14698579655E+02 -0.54986051499E+02  0.14345857773E+03  0.12499995391E+03 0.  0.
          4    1    3    3  501    0  0.19838371904E+02  0.20746645120E+02 -0.65846321558E+02  0.71842433466E+02  0.12700000000E+01 0.  1.
         -4    1    3    3    0  501 -0.61261323802E+02 -0.35445224775E+02  0.10860270060E+02  0.71616144263E+02  0.12700000000E+01 0.  1.
          1    1    1    2  502    0 -0.55147122422E+02 -0.39190353484E+02 -0.15609845973E+04  0.15624499999E+04  0.00000000000E+00 0.  1.
          3    1    1    2  503    0  0.96570074319E+02  0.53888933139E+02  0.34022484279E+03  0.35774675403E+03  0.00000000000E+00 0. -1.
<mgrwt>
<rscale>  0 0.84337004E+02</rscale>
<asrwt>0</asrwt>
<pdfrwt beam="2">  1        1 0.25687702E+00 0.67654186E+02</pdfrwt>
<pdfrwt beam="1">  1        3 0.60608423E-01 0.10513363E+03</pdfrwt>
<totfact> 0.91685267E+00</totfact>
</mgrwt>
</event>
<event>
 7    1  0.3113151E-004  0.5767589E+02  0.7546771E-02  0.1471301E+00
          1   -1    0    0  503    0  0.00000000000E+00  0.00000000000E+00  0.98844013859E+02  0.98844013859E+02  0.00000000000E+00 0. -1.
          1   -1    0    0  502    0 -0.00000000000E+00 -0.00000000000E+00 -0.79489721997E+03  0.79489721997E+03  0.00000000000E+00 0. -1.
         25    2    1    2    0    0  0.49776080843E+02  0.46594647442E+02 -0.53661351787E+03  0.55517161616E+03  0.12495093614E+03 0.  0.
          4    1    3    3  501    0  0.43067502112E+01  0.74099422635E+02 -0.42634255128E+03  0.43275727200E+03  0.12700000000E+01 0.  1.
         -4    1    3    3    0  501  0.45469330632E+02 -0.27504775194E+02 -0.11027096658E+03  0.12241434417E+03  0.12700000000E+01 0.  1.
          1    1    1    2  502    0 -0.14793887073E+02 -0.54570378234E+02 -0.24201724372E+03  0.24853396455E+03  0.00000000000E+00 0. -1.
          1    1    1    2  503    0 -0.34982193770E+02  0.79757307922E+01  0.82577555479E+02  0.90035653114E+02  0.00000000000E+00 0. -1.
<mgrwt>
<rscale>  0 0.45490705E+02</rscale>
<asrwt>0</asrwt>
<pdfrwt beam="1">  1        1 0.15206772E-01 0.35879885E+02</pdfrwt>
<pdfrwt beam="2">  1        1 0.12229188E+00 0.57675888E+02</pdfrwt>
<totfact> 0.99647143E+02</totfact>
</mgrwt>
</event>
<event>
 7    1  0.3113151E-004  0.1716471E+03  0.7546771E-02  0.1350816E+00
          2   -1    0    0  502    0  0.00000000000E+00  0.00000000000E+00  0.17421890251E+04  0.17421890251E+04  0.00000000000E+00 0. -1.
          2   -1    0    0  503    0 -0.00000000000E+00 -0.00000000000E+00 -0.72190800071E+03  0.72190800071E+03  0.00000000000E+00 0. -1.
         25    2    1    2    0    0 -0.16060716284E+02 -0.14449597021E+03  0.24796544363E+03  0.31345019592E+03  0.12500852800E+03 0.  0.
          4    1    3    3  501    0 -0.18545861780E+02 -0.13798991514E+03  0.26257952969E+03  0.29721168884E+03  0.12700000000E+01 0.  1.
         -4    1    3    3    0  501  0.24851454969E+01 -0.65060550789E+01 -0.14614086062E+02  0.16238507082E+02  0.12700000000E+01 0.  1.
          2    1    1    2  502    0  0.24573888603E+02  0.17417729383E+03  0.14558385418E+04  0.14664267678E+04  0.00000000000E+00 0. -1.
          2    1    1    2  503    0 -0.85131723200E+01 -0.29681323616E+02 -0.68352296102E+03  0.68422006205E+03  0.00000000000E+00 0. -1.
<mgrwt>
<rscale>  0 0.72801992E+02</rscale>
<asrwt>0</asrwt>
<pdfrwt beam="1">  1        2 0.26802908E+00 0.17164708E+03</pdfrwt>
<pdfrwt beam="2">  1        2 0.11106277E+00 0.30878068E+02</pdfrwt>
<totfact> 0.71525599E+01</totfact>
</mgrwt>
</event>
<event>
 7    1  0.3113151E-004  0.6247429E+02  0.7546771E-02  0.1542526E+00
          1   -1    0    0  502    0  0.00000000000E+00  0.00000000000E+00  0.55064814989E+03  0.55064814989E+03  0.00000000000E+00 0. -1.
          3   -1    0    0  503    0 -0.00000000000E+00 -0.00000000000E+00 -0.34892974777E+02  0.34892974777E+02  0.00000000000E+00 0. -1.
         25    2    1    2    0    0 -0.51772786857E+02 -0.44296155712E+02  0.24079976878E+03  0.27973158028E+03  0.12499062961E+03 0.  0.
          4    1    3    3  501    0 -0.90514677161E+02 -0.27221739264E+02  0.19856051252E+03  0.21991320994E+03  0.12700000000E+01 0.  1.
         -4    1    3    3    0  501  0.38741890304E+02 -0.17074416447E+02  0.42239256260E+02  0.59818370345E+02  0.12700000000E+01 0.  1.
          1    1    1    2  502    0  0.18824403695E+02 -0.78431993171E+01  0.22638999808E+03  0.22730663250E+03  0.00000000000E+00 0. -1.
          3    1    1    2  503    0  0.32948383162E+02  0.52139355029E+02  0.48565408253E+02  0.78502911886E+02  0.00000000000E+00 0. -1.
<mgrwt>
<rscale>  0 0.35693662E+02</rscale>
<asrwt>0</asrwt>
<pdfrwt beam="1">  1        1 0.84715094E-01 0.20392988E+02</pdfrwt>
<pdfrwt beam="2">  1        3 0.53681504E-02 0.62474294E+02</pdfrwt>
<totfact> 0.39961255E+03</totfact>
</mgrwt>
</event>
<event>
 7    1  0.3113151E-004  0.1174476E+03  0.7546771E-02  0.1266157E+00
          2   -1    0    0  503    0  0.00000000000E+00  0.00000000000E+00  0.11865705888E+04  0.11865705888E+04  0.00000000000E+00 0. -1.
         -1   -1    0    0    0  501 -0.00000000000E+00 -0.00000000000E+00 -0.27180813089E+03  0.27180813089E+03  0.00000000000E+00 0.  1.
         25    2    1    2    0    0  0.24402974033E+01  0.20418589860E+03  0.44172945326E+03  0.50244019641E+03  0.12499361926E+03 0.  0.
          4    1    3    3  502    0 -0.57833967676E+02  0.70056824873E+02  0.19672892363E+03  0.21669473649E+03  0.12700000000E+01 0. -1.
         -4    1    3    3    0  502  0.60274265079E+02  0.13412907373E+03  0.24500052963E+03  0.28574545993E+03  0.12700000000E+01 0. -1.
          2    1    1    2  503    0  0.28419765336E+02 -0.93317455751E+02  0.69718145918E+03  0.70397288132E+03  0.00000000000E+00 0. -1.
         -1    1    1    2    0  501 -0.30860062739E+02 -0.11086844285E+03 -0.22414845449E+03  0.25196564199E+03  0.00000000000E+00 0.  1.
<mgrwt>
<rscale>  0 0.10703694E+03</rscale>
<asrwt>0</asrwt>
<pdfrwt beam="1">  1        2 0.18254932E+00 0.97549119E+02</pdfrwt>
<pdfrwt beam="2">  1       -1 0.41816636E-01 0.11744756E+03</pdfrwt>
<totfact> 0.14223663E+02</totfact>
</mgrwt>
</event>
<event>
 7    1  0.3113151E-004  0.2051295E+02  0.7546771E-02  0.1739418E+00
         -2   -1    0    0    0  501 -0.00000000000E+00  0.00000000000E+00  0.15017121811E+03  0.15017121811E+03  0.00000000000E+00 0.  1.
          1   -1    0    0  503    0  0.00000000000E+00 -0.00000000000E+00 -0.10595838952E+03  0.10595838952E+03  0.00000000000E+00 0. -1.
         25    2    1    2    0    0 -0.58584572836E+01  0.71435550809E+01  0.97303103440E+02  0.15867645671E+03  0.12499988830E+03 0.  0.
          4    1    3    3  502    0  0.36871266477E+02 -0.17107378128E+02  0.10150570239E+03  0.10934886005E+03  0.12700000000E+01 0. -1.
         -4    1    3    3    0  502 -0.42729723761E+02  0.24250933209E+02 -0.42025989469E+01  0.49327596658E+02  0.12700000000E+01 0. -1.
          1    1    1    2  503    0 -0.17938819310E+02 -0.90452038195E+01 -0.66915131923E+02  0.69865956164E+02  0.00000000000E+00 0. -1.
         -2    1    1    2    0  501  0.23797276594E+02  0.19016487386E+01  0.13824857073E+02  0.27587194752E+02  0.00000000000E+00 0.  1.
<mgrwt>
<rscale>  0 0.20300484E+02</rscale>
<asrwt>0</asrwt>
<pdfrwt beam="2">  1        1 0.16301291E-01 0.20090220E+02</pdfrwt>
<pdfrwt beam="1">  1       -2 0.23103264E-01 0.20512948E+02</pdfrwt>
<totfact> 0.38016802E+03</totfact>
</mgrwt>
</event>
<event>
 7    1  0.3113151E-004  0.1466347E+03  0.7546771E-02  0.1257565E+00
         -1   -1    0    0    0  501 -0.00000000000E+00  0.00000000000E+00  0.63247685060E+03  0.63247685060E+03  0.00000000000E+00 0.  1.
          1   -1    0    0  503    0  0.00000000000E+00 -0.00000000000E+00 -0.17550135508E+03  0.17550135508E+03  0.00000000000E+00 0. -1.
         25    2    1    2    0    0 -0.16632889753E+03  0.12630127126E+03  0.11581347453E+03  0.26954445729E+03  0.12499656113E+03 0.  0.
          4    1    3    3  502    0 -0.11262296234E+03  0.13593165720E+03  0.48864999639E+02  0.18316863313E+03  0.12700000000E+01 0. -1.
         -4    1    3    3    0  502 -0.53705935196E+02 -0.96303859326E+01  0.66948474892E+02  0.86375824157E+02  0.12700000000E+01 0. -1.
          1    1    1    2  503    0  0.84991016237E+02 -0.10163926349E+03 -0.47376573214E+02  0.14070732892E+03  0.00000000000E+00 0. -1.
         -1    1    1    2    0  501  0.81337881295E+02 -0.24662007774E+02  0.38853859420E+03  0.39772641947E+03  0.00000000000E+00 0.  1.
<mgrwt>
<rscale>  0 0.11163846E+03</rscale>
<asrwt>0</asrwt>
<pdfrwt beam="2">  1        1 0.27000209E-01 0.14663474E+03</pdfrwt>
<pdfrwt beam="1">  1       -1 0.97304130E-01 0.84994503E+02</pdfrwt>
<totfact> 0.19379001E+02</totfact>
</mgrwt>
</event>
<event>
 7    1  0.3113151E-004  0.6452029E+02  0.7546771E-02  0.1461962E+00
         -2   -1    0    0    0  501 -0.00000000000E+00  0.00000000000E+00  0.11482286316E+02  0.11482286316E+02  0.00000000000E+00 0.  1.
          1   -1    0    0  503    0  0.00000000000E+00 -0.00000000000E+00 -0.14927296464E+04  0.14927296464E+04  0.00000000000E+00 0. -1.
         25    2    1    2    0    0 -0.43484864203E+01  0.59959628592E+02 -0.11270539366E+04  0.11355569884E+04  0.12500012629E+03 0.  0.
          4    1    3    3  502    0 -0.42538212199E+02  0.37855526457E+02 -0.98852775893E+03  0.99016730074E+03  0.12700000000E+01 0.  1.
         -4    1    3    3    0  502  0.38189725779E+02  0.22104102134E+02 -0.13852617763E+03  0.14538968765E+03  0.12700000000E+01 0.  1.
          1    1    1    2  503    0 -0.33891486092E+02 -0.53003955699E+01 -0.14869190502E+03  0.15259754140E+03  0.00000000000E+00 0. -1.
         -2    1    1    2    0  501  0.38239972513E+02 -0.54659233022E+02 -0.20550151856E+03  0.21605740298E+03  0.00000000000E+00 0.  1.
<mgrwt>
<rscale>  0 0.47045391E+02</rscale>
<asrwt>0</asrwt>
<pdfrwt beam="2">  1        1 0.22965063E+00 0.34303455E+02</pdfrwt>
<pdfrwt beam="1">  1       -2 0.17665062E-02 0.64520290E+02</pdfrwt>
<totfact> 0.59898662E+03</totfact>
</mgrwt>
</event>
<event>
 7    1  0.3113151E-004  0.2337753E+02  0.7546771E-02  0.1698142E+00
         -1   -1    0    0    0  501 -0.00000000000E+00  0.00000000000E+00  0.35123005892E+02  0.35123005892E+02  0.00000000000E+00 0.  1.
          1   -1    0    0  503    0  0.00000000000E+00 -0.00000000000E+00 -0.39472690722E+03  0.39472690722E+03  0.00000000000E+00 0. -1.
         25    2    1    2    0    0  0.15353124546E+02  0.30261155602E+02 -0.15061272185E+03  0.19866795556E+03  0.12503323003E+03 0.  0.
          4    1    3    3  502    0  0.68214459173E+02  0.78197962348E+01 -0.59003942681E+02  0.90539713967E+02  0.12700000000E+01 0.  1.
         -4    1    3    3    0  502 -0.52861334627E+02  0.22441359367E+02 -0.91608779166E+02  0.10812824159E+03  0.12700000000E+01 0.  1.
          1    1    1    2  503    0  0.51448315745E+01 -0.22720871998E+02 -0.20801910022E+03  0.20931950070E+03  0.00000000000E+00 0. -1.
         -1    1    1    2    0  501 -0.20497956120E+02 -0.75402836033E+01 -0.97207926392E+00  0.21862456862E+02  0.00000000000E+00 0.  1.
<mgrwt>
<rscale>  0 0.22596125E+02</rscale>
<asrwt>0</asrwt>
<pdfrwt beam="2">  1        1 0.60727216E-01 0.23377535E+02</pdfrwt>
<pdfrwt beam="1">  1       -1 0.54035394E-02 0.21840835E+02</pdfrwt>
<totfact> 0.76472291E+03</totfact>
</mgrwt>
</event>
<event>
 7    1  0.3113151E-004  0.8957380E+02  0.7546771E-02  0.1363236E+00
          1   -1    0    0  503    0 -0.00000000000E+00  0.00000000000E+00  0.74655000770E+03  0.74655000770E+03  0.00000000000E+00 0. -1.
          2   -1    0    0  502    0  0.00000000000E+00 -0.00000000000E+00 -0.87671269034E+03  0.87671269034E+03  0.00000000000E+00 0. -1.
         25    2    1    2    0    0  0.74395227213E+02 -0.99141023143E+02  0.41866823844E+03  0.45417255401E+03  0.12500409049E+03 0.  0.
          4    1    3    3  501    0  0.55270790969E+02 -0.38819175424E+02  0.36496981927E+03  0.37116892460E+03  0.12700000000E+01 0.  1.
         -4    1    3    3    0  501  0.19124436244E+02 -0.60321847718E+02  0.53698419169E+02  0.83003629409E+02  0.12700000000E+01 0.  1.
          2    1    1    2  502    0 -0.85755209762E+01  0.52586584561E+02 -0.85287572692E+03  0.85453840991E+03  0.00000000000E+00 0. -1.
          1    1    1    2  503    0 -0.65819706237E+02  0.46554438582E+02  0.30404480584E+03  0.31455173412E+03  0.00000000000E+00 0. -1.
<mgrwt>
<rscale>  0 0.69084016E+02</rscale>
<asrwt>0</asrwt>
<pdfrwt beam="2">  1        2 0.13487888E+00 0.53281220E+02</pdfrwt>
<pdfrwt beam="1">  1        1 0.11485385E+00 0.89573797E+02</pdfrwt>
<totfact> 0.12456309E+02</totfact>
</mgrwt>
</event>
<event>
 7    1  0.3113151E-004  0.5739068E+02  0.7546771E-02  0.1509238E+00
          2   -1    0    0  503    0  0.00000000000E+00  0.00000000000E+00  0.99656307325E+03  0.99656307325E+03  0.00000000000E+00 0. -1.
         -3   -1    0    0    0  501 -0.00000000000E+00 -0.00000000000E+00 -0.22151168968E+03  0.22151168968E+03  0.00000000000E+00 0.  1.
         25    2    1    2    0    0  0.58963571312E+02 -0.48344189275E+01 -0.93439248824E+02  0.16688390904E+03  0.12497708401E+03 0.  0.
          4    1    3    3  502    0  0.39617310132E+02  0.10144366653E+02  0.23650194232E+02  0.47258692577E+02  0.12700000000E+01 0. -1.
         -4    1    3    3    0  502  0.19346261181E+02 -0.14978785580E+02 -0.11708944306E+03  0.11962521646E+03  0.12700000000E+01 0. -1.
          2    1    1    2  503    0 -0.95103368076E+01 -0.26000780692E+02  0.95032349392E+03  0.95072668533E+03  0.00000000000E+00 0. -1.
         -3    1    1    2    0  501 -0.49453234505E+02  0.30835199619E+02 -0.81832861531E+02  0.10046416856E+03  0.00000000000E+00 0.  1.
<mgrwt>
<rscale>  0 0.39860883E+02</rscale>
<asrwt>0</asrwt>
<pdfrwt beam="1">  1        2 0.15331739E+00 0.27685503E+02</pdfrwt>
<pdfrwt beam="2">  1       -3 0.34078722E-01 0.57390683E+02</pdfrwt>
<totfact> 0.14249230E+02</totfact>
</mgrwt>
</event>
<event>
 7    1  0.3113151E-004  0.1167624E+03  0.7546771E-02  0.1434669E+00
         -1   -1    0    0    0  501 -0.00000000000E+00  0.00000000000E+00  0.91080379442E+02  0.91080379442E+02  0.00000000000E+00 0.  1.
          1   -1    0    0  503    0  0.00000000000E+00 -0.00000000000E+00 -0.25533254275E+04  0.25533254275E+04  0.00000000000E+00 0. -1.
         25    2    1    2    0    0 -0.14133220546E+02  0.98311592846E+02 -0.35273389349E+02  0.16350496661E+03  0.12499897959E+03 0.  0.
          4    1    3    3  502    0 -0.17230363607E+02  0.39216962680E+02  0.46061059872E+02  0.62913350955E+02  0.12700000000E+01 0. -1.
         -4    1    3    3    0  502  0.30971430616E+01  0.59094630166E+02 -0.81334449220E+02  0.10059161565E+03  0.12700000000E+01 0. -1.
          1    1    1    2  503    0  0.32400989147E+02 -0.11259444132E+03 -0.24472760769E+04  0.24500790862E+04  0.00000000000E+00 0. -1.
         -1    1    1    2    0  501 -0.18267768602E+02  0.14282848478E+02  0.20304418156E+02  0.30821754119E+02  0.00000000000E+00 0.  1.
<mgrwt>
<rscale>  0 0.52034182E+02</rscale>
<asrwt>0</asrwt>
<pdfrwt beam="2">  1        1 0.39281922E+00 0.11676238E+03</pdfrwt>
<pdfrwt beam="1">  1       -1 0.14012369E-01 0.23188599E+02</pdfrwt>
<totfact> 0.51455391E+01</totfact>
</mgrwt>
</event>
<event>
 7    1  0.3113151E-004  0.4869038E+02  0.7546771E-02  0.1521333E+00
          1   -1    0    0  503    0  0.00000000000E+00  0.00000000000E+00  0.99792993373E+02  0.99792993373E+02  0.00000000000E+00 0. -1.
         -2   -1    0    0    0  501 -0.00000000000E+00 -0.00000000000E+00 -0.11732928326E+03  0.11732928326E+03  0.00000000000E+00 0.  1.
         25    2    1    2    0    0 -0.13482983819E+02  0.26163342870E+02 -0.27575600774E+02  0.13134954840E+03  0.12500391492E+03 0.  0.
          4    1    3    3  502    0 -0.49447648784E+02  0.47316327533E+02  0.16741414072E+02  0.70468380616E+02  0.12700000000E+01 0.  1.
         -4    1    3    3    0  502  0.35964664965E+02 -0.21152984663E+02 -0.44317014846E+02  0.60881167787E+02  0.12700000000E+01 0.  1.
          1    1    1    2  503    0  0.42095140889E+02 -0.35450444473E+02  0.81219093248E+01  0.55630030657E+02  0.00000000000E+00 0. -1.
         -2    1    1    2    0  501 -0.28612157070E+02  0.92871016032E+01  0.19174015610E+01  0.30142697576E+02  0.00000000000E+00 0.  1.
<mgrwt>
<rscale>  0 0.38271230E+02</rscale>
<asrwt>0</asrwt>
<pdfrwt beam="1">  1        1 0.15352768E-01 0.48690380E+02</pdfrwt>
<pdfrwt beam="2">  1       -2 0.18050659E-01 0.30081652E+02</pdfrwt>
<totfact> 0.66202685E+03</totfact>
</mgrwt>
</event>
<event>
 7    1  0.3113151E-004  0.6502121E+02  0.7546771E-02  0.1451855E+00
          1   -1    0    0  503    0  0.00000000000E+00  0.00000000000E+00  0.13833446271E+04  0.13833446271E+04  0.00000000000E+00 0. -1.
         -3   -1    0    0    0  501 -0.00000000000E+00 -0.00000000000E+00 -0.12296876679E+03  0.12296876679E+03  0.00000000000E+00 0.  1.
         25    2    1    2    0    0  0.54885126359E+01 -0.68570751887E+02  0.21447789612E+03  0.25759752832E+03  0.12499458744E+03 0.  0.
          4    1    3    3  502    0  0.40414995057E+02 -0.35868038451E+02  0.20509990628E+02  0.57811422948E+02  0.12700000000E+01 0. -1.
         -4    1    3    3    0  502 -0.34926482421E+02 -0.32702713436E+02  0.19396790549E+03  0.19978610537E+03  0.12700000000E+01 0. -1.
          1    1    1    2  503    0  0.29645899770E+02  0.58160953690E+02  0.11430345795E+04  0.11448972119E+04  0.00000000000E+00 0. -1.
         -3    1    1    2    0  501 -0.35134412406E+02  0.10409798196E+02 -0.97136615262E+02  0.10381865371E+03  0.00000000000E+00 0.  1.
<mgrwt>
<rscale>  0 0.48812340E+02</rscale>
<asrwt>0</asrwt>
<pdfrwt beam="1">  1        1 0.21282224E+00 0.65021213E+02</pdfrwt>
<pdfrwt beam="2">  1       -3 0.18918273E-01 0.36644110E+02</pdfrwt>
<totfact> 0.11018423E+02</totfact>
</mgrwt>
</event>
<event>
 7    1  0.3113151E-004  0.9639393E+02  0.7546771E-02  0.1343205E+00
          1   -1    0    0  503    0 -0.00000000000E+00  0.00000000000E+00  0.95947277612E+02  0.95947277612E+02  0.00000000000E+00 0. -1.
          2   -1    0    0  502    0  0.00000000000E+00 -0.00000000000E+00 -0.36946372894E+03  0.36946372894E+03  0.00000000000E+00 0. -1.
         25    2    1    2    0    0 -0.56647517672E+02  0.93931356388E+02 -0.13848058950E+03  0.21641419738E+03  0.12500476067E+03 0.  0.
          4    1    3    3  501    0 -0.60686905256E+02 -0.71601493816E+01 -0.75877046786E+02  0.97432578421E+02  0.12700000000E+01 0. -1.
         -4    1    3    3    0  501  0.40393875848E+01  0.10109150577E+03 -0.62603542713E+02  0.11898161896E+03  0.12700000000E+01 0. -1.
          2    1    1    2  502    0  0.85894311498E+02 -0.43047715272E+02 -0.15886122814E+03  0.18565513283E+03  0.00000000000E+00 0. -1.
          1    1    1    2  503    0 -0.29246793826E+02 -0.50883641116E+02  0.23825366310E+02  0.63341676345E+02  0.00000000000E+00 0. -1.
<mgrwt>
<rscale>  0 0.75215442E+02</rscale>
<asrwt>0</asrwt>
<pdfrwt beam="2">  1        2 0.56840575E-01 0.96393926E+02</pdfrwt>
<pdfrwt beam="1">  1        1 0.14761119E-01 0.58690032E+02</pdfrwt>
<totfact> 0.41932414E+03</totfact>
</mgrwt>
</event>
<event>
 7    1  0.3113151E-004  0.1009215E+03  0.7546771E-02  0.1328693E+00
          2   -1    0    0  503    0  0.00000000000E+00  0.00000000000E+00  0.22697032647E+03  0.22697032647E+03  0.00000000000E+00 0. -1.
         -1   -1    0    0    0  501 -0.00000000000E+00 -0.00000000000E+00 -0.22443712051E+03  0.22443712051E+03  0.00000000000E+00 0.  1.
         25    2    1    2    0    0  0.83601348808E+02 -0.22132248765E+02 -0.12386375912E+03  0.19607844474E+03  0.12500201482E+03 0.  0.
          4    1    3    3  502    0  0.87094737921E+02 -0.51387792448E+02 -0.42798986859E+02  0.10981604966E+03  0.12700000000E+01 0. -1.
         -4    1    3    3    0  502 -0.34933891128E+01  0.29255543683E+02 -0.81064772257E+02  0.86262395079E+02  0.12700000000E+01 0. -1.
          2    1    1    2  503    0 -0.95904416453E+02 -0.40282852318E+02  0.15411639241E+03  0.18593608497E+03  0.00000000000E+00 0. -1.
         -1    1    1    2    0  501  0.12303067645E+02  0.62415101083E+02 -0.27719427333E+02  0.69392917278E+02  0.00000000000E+00 0.  1.
<mgrwt>
<rscale>  0 0.80126353E+02</rscale>
<asrwt>0</asrwt>
<pdfrwt beam="1">  1        2 0.34918512E-01 0.10092148E+03</pdfrwt>
<pdfrwt beam="2">  1       -1 0.34528787E-01 0.63616117E+02</pdfrwt>
<totfact> 0.13167419E+03</totfact>
</mgrwt>
</event>
<event>
 7    1  0.3113151E-004  0.7803056E+02  0.7546771E-02  0.1354737E+00
          2   -1    0    0  503    0  0.00000000000E+00  0.00000000000E+00  0.12637393397E+04  0.12637393397E+04  0.00000000000E+00 0. -1.
         -1   -1    0    0    0  501 -0.00000000000E+00 -0.00000000000E+00 -0.48046801720E+02  0.48046801720E+02  0.00000000000E+00 0.  1.
         25    2    1    2    0    0  0.10352445035E+03 -0.64254061461E+02  0.35312081022E+03  0.39390373929E+03  0.12497981028E+03 0.  0.
          4    1    3    3  502    0  0.40972754178E+02  0.23449167764E+02  0.20725286252E+03  0.21256526522E+03  0.12700000000E+01 0.  1.
         -4    1    3    3    0  502  0.62551696174E+02 -0.87703229225E+02  0.14586794770E+03  0.18133847407E+03  0.12700000000E+01 0.  1.
          2    1    1    2  503    0 -0.75313476624E+02  0.49208268733E+01  0.84701009817E+03  0.85036606276E+03  0.00000000000E+00 0. -1.
         -1    1    1    2    0  501 -0.28210973728E+02  0.59333234588E+02  0.15561629575E+02  0.67516339358E+02  0.00000000000E+00 0.  1.
<mgrwt>
<rscale>  0 0.71599514E+02</rscale>
<asrwt>0</asrwt>
<pdfrwt beam="1">  1        2 0.19442141E+00 0.78030564E+02</pdfrwt>
<pdfrwt beam="2">  1       -1 0.73918166E-02 0.65698491E+02</pdfrwt>
<totfact> 0.19901103E+03</totfact>
</mgrwt>
</event>
<event>
 7    1  0.3113151E-004  0.5932525E+02  0.7546771E-02  0.1415915E+00
         -1   -1    0    0    0  501 -0.00000000000E+00  0.00000000000E+00  0.65821076342E+03  0.65821076342E+03  0.00000000000E+00 0.  1.
          2   -1    0    0  503    0  0.00000000000E+00 -0.00000000000E+00 -0.29526347961E+02  0.29526347961E+02  0.00000000000E+00 0. -1.
         25    2    1    2    0    0 -0.72009303362E+02  0.44120253680E+02  0.25677817949E+03  0.29781066158E+03  0.12499688050E+03 0.  0.
          4    1    3    3  502    0  0.33290370826E+02  0.18436540703E+01  0.33123355680E+02  0.47015076747E+02  0.12700000000E+01 0.  1.
         -4    1    3    3    0  502 -0.10529967419E+03  0.42276599610E+02  0.22365482381E+03  0.25079558483E+03  0.12700000000E+01 0.  1.
          2    1    1    2  503    0  0.52129491224E+02  0.74720842736E+01  0.25788349518E+03  0.26320564770E+03  0.00000000000E+00 0. -1.
         -1    1    1    2    0  501  0.19879812138E+02 -0.51592337954E+02  0.11402274080E+03  0.12672080210E+03  0.00000000000E+00 0.  1.
<mgrwt>
<rscale>  0 0.55894569E+02</rscale>
<asrwt>0</asrwt>
<pdfrwt beam="2">  1        2 0.45425156E-02 0.52662282E+02</pdfrwt>
<pdfrwt beam="1">  1       -1 0.10126318E+00 0.59325247E+02</pdfrwt>
<totfact> 0.18331329E+03</totfact>
</mgrwt>
</event>
<event>
 7    1  0.3113151E-004  0.4525552E+02  0.7546771E-02  0.1492918E+00
          1   -1    0    0  503    0  0.00000000000E+00  0.00000000000E+00  0.15997931510E+04  0.15997931510E+04  0.00000000000E+00 0.  1.
         -1   -1    0    0    0  501 -0.00000000000E+00 -0.00000000000E+00 -0.81163966341E+01  0.81163966341E+01  0.00000000000E+00 0. -1.
         25    2    1    2    0    0  0.14914926771E+02  0.33061568892E+02  0.95211480827E+03  0.96097057025E+03  0.12500522541E+03 0.  0.
          4    1    3    3  502    0 -0.65370049004E+01 -0.46849257997E+02  0.36382771211E+03  0.36689208550E+03  0.12700000000E+01 0.  1.
         -4    1    3    3    0  502  0.21451931672E+02  0.79910826888E+02  0.58828709616E+03  0.59407848474E+03  0.12700000000E+01 0.  1.
          1    1    1    2  503    0 -0.45090815912E+02  0.38575038016E+01  0.21522935355E+03  0.21993575573E+03  0.00000000000E+00 0. -1.
         -1    1    1    2    0  501  0.30175889141E+02 -0.36919072693E+02  0.42433259253E+03  0.42700322165E+03  0.00000000000E+00 0.  1.
<mgrwt>
<rscale>  0 0.42156197E+02</rscale>
<asrwt>0</asrwt>
<pdfrwt beam="1">  1        1 0.24612177E+00 0.45255519E+02</pdfrwt>
<pdfrwt beam="2">  1       -1 0.12486777E-02 0.39269132E+02</pdfrwt>
<totfact> 0.75113326E+03</totfact>
</mgrwt>
</event>
<event>
 7    1  0.3113151E-004  0.5006191E+02  0.7546771E-02  0.1504166E+00
         -2   -1    0    0    0  501 -0.00000000000E+00  0.00000000000E+00  0.99865924315E+01  0.99865924315E+01  0.00000000000E+00 0.  1.
          1   -1    0    0  503    0  0.00000000000E+00 -0.00000000000E+00 -0.18076256577E+04  0.18076256577E+04  0.00000000000E+00 0. -1.
         25    2    1    2    0    0  0.35900934245E+01 -0.28895242934E+02 -0.15532884212E+04  0.15585826885E+04  0.12500901371E+03 0.  0.
          4    1    3    3  502    0  0.57386620271E+02 -0.12618800555E+02 -0.44430658138E+03  0.44817676141E+03  0.12700000000E+01 0. -1.
         -4    1    3    3    0  502 -0.53796526847E+02 -0.16276442379E+02 -0.11089818398E+04  0.11104059271E+04  0.12700000000E+01 0. -1.
          1    1    1    2  503    0  0.31228319543E+02 -0.10205778929E+02 -0.11131749440E+03  0.11606442359E+03  0.00000000000E+00 0. -1.
         -2    1    1    2    0  501 -0.34818412967E+02  0.39101021863E+02 -0.13303314961E+03  0.14296513802E+03  0.00000000000E+00 0.  1.
<mgrwt>
<rscale>  0 0.40555139E+02</rscale>
<asrwt>0</asrwt>
<pdfrwt beam="2">  1        1 0.27809643E+00 0.32853704E+02</pdfrwt>
<pdfrwt beam="1">  1       -2 0.15363979E-02 0.50061913E+02</pdfrwt>
<totfact> 0.45425741E+03</totfact>
</mgrwt>
</event>
<event>
 7    1  0.3113151E-004  0.9003183E+02  0.7546771E-02  0.1314724E+00
          2   -1    0    0  502    0  0.00000000000E+00  0.00000000000E+00  0.10446789382E+04  0.10446789382E+04  0.00000000000E+00 0. -1.
          1   -1    0    0  503    0 -0.00000000000E+00 -0.00000000000E+00 -0.66533219118E+03  0.66533219118E+03  0.00000000000E+00 0. -1.
         25    2    1    2    0    0  0.10578787756E+03  0.11541609948E+03  0.57733220879E+03  0.61110536285E+03  0.12500133658E+03 0.  0.
          4    1    3    3  501    0  0.35463539849E+02  0.12425121801E+03  0.35845891614E+03  0.38103862705E+03  0.12700000000E+01 0. -1.
         -4    1    3    3    0  501  0.70324337710E+02 -0.88351185305E+01  0.21887329264E+03  0.23006673581E+03  0.12700000000E+01 0. -1.
          2    1    1    2  502    0 -0.74439266379E+02 -0.31327582455E+02  0.44369238463E+03  0.45098287549E+03  0.00000000000E+00 0. -1.
          1    1    1    2  503    0 -0.31348611180E+02 -0.84088517029E+02 -0.64167784642E+03  0.64792289102E+03  0.00000000000E+00 0. -1.
<mgrwt>
<rscale>  0 0.85271437E+02</rscale>
<asrwt>0</asrwt>
<pdfrwt beam="1">  1        2 0.16071984E+00 0.80762750E+02</pdfrwt>
<pdfrwt beam="2">  1        1 0.10235880E+00 0.90031828E+02</pdfrwt>
<totfact> 0.11426571E+02</totfact>
</mgrwt>
</event>
<event>
 7    1  0.3113151E-004  0.3856880E+03  0.7546771E-02  0.1048851E+00
          2   -1    0    0  503    0  0.00000000000E+00  0.00000000000E+00  0.61013536360E+03  0.61013536360E+03  0.00000000000E+00 0. -1.
         -1   -1    0    0    0  501 -0.00000000000E+00 -0.00000000000E+00 -0.60951722527E+02  0.60951722527E+02  0.00000000000E+00 0.  1.
         25    2    1    2    0    0 -0.15540611680E+03 -0.46949440024E+02  0.32763064630E+03  0.38642171505E+03  0.12499836164E+03 0.  0.
          4    1    3    3  502    0 -0.95673696525E+02  0.10819453190E+02  0.26618408811E+03  0.28306553735E+03  0.12700000000E+01 0.  1.
         -4    1    3    3    0  502 -0.59732420278E+02 -0.57768893215E+02  0.61446558189E+02  0.10335617770E+03  0.12700000000E+01 0.  1.
          2    1    1    2  503    0  0.10870168741E+03  0.57291333313E+02  0.19348004362E+03  0.22920052574E+03  0.00000000000E+00 0. -1.
         -1    1    1    2    0  501  0.46704429398E+02 -0.10341893289E+02  0.28072951154E+02  0.55464845340E+02  0.00000000000E+00 0.  1.
<mgrwt>
<rscale>  0 0.38568796E+03</rscale>
<asrwt>0</asrwt>
<pdfrwt beam="1">  1        2 0.93866975E-01 0.38568796E+03</pdfrwt>
<pdfrwt beam="2">  1       -1 0.93771885E-02 0.38568796E+03</pdfrwt>
<totfact> 0.38119380E+03</totfact>
</mgrwt>
</event>
<event>
 7    1  0.3113151E-004  0.8937552E+02  0.7546771E-02  0.1324063E+00
          1   -1    0    0  503    0 -0.00000000000E+00  0.00000000000E+00  0.14832597462E+04  0.14832597462E+04  0.00000000000E+00 0. -1.
          2   -1    0    0  502    0  0.00000000000E+00 -0.00000000000E+00 -0.92322424517E+03  0.92322424517E+03  0.00000000000E+00 0. -1.
         25    2    1    2    0    0 -0.11284292899E+03  0.10824822253E+03 -0.79835561071E+02  0.21551359902E+03  0.12498476006E+03 0.  0.
          4    1    3    3  501    0 -0.79741124972E+02  0.11776137692E+03 -0.10156815782E+03  0.17476868281E+03  0.12700000000E+01 0. -1.
         -4    1    3    3    0  501 -0.33101804013E+02 -0.95131543910E+01  0.21732596752E+02  0.40744916210E+02  0.12700000000E+01 0. -1.
          2    1    1    2  502    0  0.46463224205E+02 -0.73687894802E+02 -0.77210935042E+03  0.77700809909E+03  0.00000000000E+00 0. -1.
          1    1    1    2  503    0  0.66379704781E+02 -0.34560327732E+02  0.14119804125E+04  0.14139622932E+04  0.00000000000E+00 0. -1.
<mgrwt>
<rscale>  0 0.81784218E+02</rscale>
<asrwt>0</asrwt>
<pdfrwt beam="2">  1        2 0.14203450E+00 0.89375518E+02</pdfrwt>
<pdfrwt beam="1">  1        1 0.22819381E+00 0.74837701E+02</pdfrwt>
<totfact> 0.35090605E+01</totfact>
</mgrwt>
</event>
<event>
 7    1  0.3113151E-004  0.4541864E+02  0.7546771E-02  0.1540862E+00
         -1   -1    0    0    0  501 -0.00000000000E+00  0.00000000000E+00  0.10077546908E+03  0.10077546908E+03  0.00000000000E+00 0.  1.
          1   -1    0    0  503    0  0.00000000000E+00 -0.00000000000E+00 -0.66853077065E+03  0.66853077065E+03  0.00000000000E+00 0.  1.
         25    2    1    2    0    0  0.53437867149E+02  0.15425084508E+02 -0.38310252972E+03  0.40679955808E+03  0.12499917318E+03 0.  0.
          4    1    3    3  502    0 -0.90807448489E+01  0.22318424188E+02 -0.65137783357E+01  0.24992282678E+02  0.12700000000E+01 0. -1.
         -4    1    3    3    0  502  0.62518611998E+02 -0.68933396799E+01 -0.37658875139E+03  0.38180727540E+03  0.12700000000E+01 0. -1.
          1    1    1    2  503    0 -0.22267450438E+02  0.17555736941E+02 -0.26699028310E+03  0.26849181462E+03  0.00000000000E+00 0.  1.
         -1    1    1    2    0  501 -0.31170416711E+02 -0.32980821449E+02  0.82337511263E+02  0.94014867028E+02  0.00000000000E+00 0.  1.
<mgrwt>
<rscale>  0 0.35886981E+02</rscale>
<asrwt>0</asrwt>
<pdfrwt beam="2">  1        1 0.10285089E+00 0.28355656E+02</pdfrwt>
<pdfrwt beam="1">  1       -1 0.15503918E-01 0.45418643E+02</pdfrwt>
<totfact> 0.92602437E+02</totfact>
</mgrwt>
</event>
<event>
 7    1  0.3113151E-004  0.4305995E+02  0.7546771E-02  0.1491291E+00
          1   -1    0    0  503    0 -0.00000000000E+00  0.00000000000E+00  0.26217927029E+02  0.26217927029E+02  0.00000000000E+00 0. -1.
          2   -1    0    0  502    0  0.00000000000E+00 -0.00000000000E+00 -0.19072787045E+04  0.19072787045E+04  0.00000000000E+00 0. -1.
         25    2    1    2    0    0 -0.22316657907E+02 -0.46933252408E+02 -0.14206549832E+04  0.14270901441E+04  0.12499973866E+03 0.  0.
          4    1    3    3  501    0 -0.49098596671E+02  0.47289607915E+01 -0.11058002331E+04  0.11069005392E+04  0.12700000000E+01 0. -1.
         -4    1    3    3    0  501  0.26781938764E+02 -0.51662213200E+02 -0.31485475012E+03  0.32018960490E+03  0.12700000000E+01 0. -1.
          2    1    1    2  502    0  0.43454140702E+02  0.10940346867E+02 -0.46244988613E+03  0.46461580979E+03  0.00000000000E+00 0. -1.
          1    1    1    2  503    0 -0.21137482795E+02  0.35992905541E+02  0.20440918354E+01  0.41790677664E+02  0.00000000000E+00 0. -1.
<mgrwt>
<rscale>  0 0.42395172E+02</rscale>
<asrwt>0</asrwt>
<pdfrwt beam="2">  1        2 0.29342757E+00 0.43059950E+02</pdfrwt>
<pdfrwt beam="1">  1        1 0.40335262E-02 0.41740657E+02</pdfrwt>
<totfact> 0.25391992E+03</totfact>
</mgrwt>
</event>
<event>
 7    1  0.3113151E-004  0.1122311E+03  0.7546771E-02  0.1354662E+00
          1   -1    0    0  503    0 -0.00000000000E+00  0.00000000000E+00  0.30775661825E+03  0.30775661825E+03  0.00000000000E+00 0. -1.
          2   -1    0    0  502    0  0.00000000000E+00 -0.00000000000E+00 -0.30329716177E+04  0.30329716177E+04  0.00000000000E+00 0. -1.
         25    2    1    2    0    0 -0.43635177331E+02  0.79241410541E+02 -0.38244573871E+02  0.15897608487E+03  0.12501007273E+03 0.  0.
          4    1    3    3  501    0  0.40428590350E+00  0.96640392986E+02 -0.51866882314E+02  0.10968735289E+03  0.12700000000E+01 0. -1.
         -4    1    3    3    0  501 -0.44039463235E+02 -0.17398982446E+02  0.13622308442E+02  0.49288731972E+02  0.12700000000E+01 0. -1.
          2    1    1    2  502    0  0.11883172080E+02 -0.11211900641E+03 -0.29311570368E+04  0.29333246421E+04  0.00000000000E+00 0. -1.
          1    1    1    2  503    0  0.31752005251E+02  0.32877595870E+02  0.24418661121E+03  0.24842750903E+03  0.00000000000E+00 0. -1.
<mgrwt>
<rscale>  0 0.71622208E+02</rscale>
<asrwt>0</asrwt>
<pdfrwt beam="2">  1        2 0.46661100E+00 0.11223106E+03</pdfrwt>
<pdfrwt beam="1">  1        1 0.47347174E-01 0.45706960E+02</pdfrwt>
<totfact> 0.26524788E+01</totfact>
</mgrwt>
</event>
<event>
 7    1  0.3113151E-004  0.2438254E+02  0.7546771E-02  0.1698547E+00
         -1   -1    0    0    0  501 -0.00000000000E+00  0.00000000000E+00  0.79945691818E+02  0.79945691818E+02  0.00000000000E+00 0.  1.
          1   -1    0    0  503    0  0.00000000000E+00 -0.00000000000E+00 -0.52967134940E+03  0.52967134940E+03  0.00000000000E+00 0. -1.
         25    2    1    2    0    0 -0.50729595554E+01 -0.14208532568E+01 -0.33827390920E+02  0.12960144782E+03  0.12499795661E+03 0.  0.
          4    1    3    3  502    0  0.30709649448E+02  0.28231588409E+02 -0.62373130332E+02  0.75047487904E+02  0.12700000000E+01 0.  1.
         -4    1    3    3    0  502 -0.35782609004E+02 -0.29652441666E+02  0.28545739412E+02  0.54553959915E+02  0.12700000000E+01 0.  1.
          1    1    1    2  503    0 -0.20296740516E+02  0.49664491592E+01 -0.44255363835E+03  0.44304666358E+03  0.00000000000E+00 0. -1.
         -1    1    1    2    0  501  0.25369700071E+02 -0.35455959023E+01  0.26655371688E+02  0.36968929817E+02  0.00000000000E+00 0.  1.
<mgrwt>
<rscale>  0 0.22571799E+02</rscale>
<asrwt>0</asrwt>
<pdfrwt beam="2">  1        1 0.81487899E-01 0.20895533E+02</pdfrwt>
<pdfrwt beam="1">  1       -1 0.12299337E-01 0.24382537E+02</pdfrwt>
<totfact> 0.16895483E+03</totfact>
</mgrwt>
</event>
<event>
 7    1  0.3113151E-004  0.1181344E+03  0.7546771E-02  0.1353253E+00
          2   -1    0    0  503    0  0.00000000000E+00  0.00000000000E+00  0.20614975563E+04  0.20614975563E+04  0.00000000000E+00 0. -1.
         -1   -1    0    0    0  501 -0.00000000000E+00 -0.00000000000E+00 -0.13933772885E+02  0.13933772885E+02  0.00000000000E+00 0.  1.
         25    2    1    2    0    0 -0.43060958514E+02 -0.12264745592E+03  0.97200049032E+03  0.98858826232E+03  0.12500061848E+03 0.  0.
          4    1    3    3  502    0 -0.78274781915E+02 -0.41429545586E+02  0.57929337583E+03  0.58602540637E+03  0.12700000000E+01 0. -1.
         -4    1    3    3    0  502  0.35213823402E+02 -0.81217910335E+02  0.39270711449E+03  0.40256285595E+03  0.12700000000E+01 0. -1.
          2    1    1    2  503    0 -0.25912515095E+02  0.35492199558E+02  0.25021845756E+03  0.25404808830E+03  0.00000000000E+00 0. -1.
         -1    1    1    2    0  501  0.68973473609E+02  0.87155256363E+02  0.82534483557E+03  0.83279497859E+03  0.00000000000E+00 0.  1.
<mgrwt>
<rscale>  0 0.72051403E+02</rscale>
<asrwt>0</asrwt>
<pdfrwt beam="1">  1        2 0.31715323E+00 0.43944905E+02</pdfrwt>
<pdfrwt beam="2">  1       -1 0.21436590E-02 0.11813439E+03</pdfrwt>
<totfact> 0.54177884E+03</totfact>
</mgrwt>
</event>
<event>
 7    1  0.3113151E-004  0.4429030E+03  0.7546771E-02  0.1171769E+00
          2   -1    0    0  502    0  0.00000000000E+00  0.00000000000E+00  0.21523801939E+04  0.21523801939E+04  0.00000000000E+00 0. -1.
          1   -1    0    0  503    0 -0.00000000000E+00 -0.00000000000E+00 -0.11228584253E+04  0.11228584253E+04  0.00000000000E+00 0. -1.
         25    2    1    2    0    0  0.26570244933E+03  0.36095942519E+03  0.59959976827E+03  0.75896914800E+03  0.12499914913E+03 0.  0.
          4    1    3    3  501    0  0.78313199473E+02  0.30477271181E+02  0.13204026884E+03  0.15651858281E+03  0.12700000000E+01 0. -1.
         -4    1    3    3    0  501  0.18738924986E+03  0.33048215401E+03  0.46755949943E+03  0.60245056519E+03  0.12700000000E+01 0. -1.
          2    1    1    2  502    0  0.49267683606E+02 -0.49597677024E+02  0.14251917698E+04  0.14269053279E+04  0.00000000000E+00 0. -1.
          1    1    1    2  503    0 -0.31497013294E+03 -0.31136174817E+03 -0.99526976937E+03  0.10893641433E+04  0.00000000000E+00 0. -1.
<mgrwt>
<rscale>  0 0.17596250E+03</rscale>
<asrwt>0</asrwt>
<pdfrwt beam="1">  1        2 0.33113541E+00 0.69908756E+02</pdfrwt>
<pdfrwt beam="2">  1        1 0.17274745E+00 0.44290305E+03</pdfrwt>
<totfact> 0.12501822E+01</totfact>
</mgrwt>
</event>
<event>
 7    1  0.3113151E-004  0.3261765E+02  0.7546771E-02  0.1613136E+00
         -2   -1    0    0    0  501 -0.00000000000E+00  0.00000000000E+00  0.96173898984E+01  0.96173898984E+01  0.00000000000E+00 0.  1.
          1   -1    0    0  503    0  0.00000000000E+00 -0.00000000000E+00 -0.15524087329E+04  0.15524087329E+04  0.00000000000E+00 0. -1.
         25    2    1    2    0    0 -0.76013372469E+01  0.67369541920E+00 -0.47840482300E+03  0.49452450053E+03  0.12500029104E+03 0.  0.
          4    1    3    3  502    0 -0.20167505323E+01  0.30980167700E+02 -0.24489284783E+02  0.39562305831E+02  0.12700000000E+01 0.  1.
         -4    1    3    3    0  502 -0.55845867146E+01 -0.30306472281E+02 -0.45391553821E+03  0.45496219470E+03  0.12700000000E+01 0.  1.
          1    1    1    2  503    0 -0.12320141334E+02  0.30201410816E+02 -0.78908060331E+03  0.78975446160E+03  0.00000000000E+00 0. -1.
         -2    1    1    2    0  501  0.19921478581E+02 -0.30875106236E+02 -0.27530591670E+03  0.27774716067E+03  0.00000000000E+00 0.  1.
<mgrwt>
<rscale>  0 0.28681651E+02</rscale>
<asrwt>0</asrwt>
<pdfrwt beam="2">  1        1 0.23883193E+00 0.32617650E+02</pdfrwt>
<pdfrwt beam="1">  1       -2 0.14795996E-02 0.25220613E+02</pdfrwt>
<totfact> 0.60080326E+03</totfact>
</mgrwt>
</event>
<event>
 7    1  0.3113151E-004  0.1448247E+03  0.7546771E-02  0.1239987E+00
          2   -1    0    0  502    0  0.00000000000E+00  0.00000000000E+00  0.21461391319E+04  0.21461391319E+04  0.00000000000E+00 0. -1.
          1   -1    0    0  503    0 -0.00000000000E+00 -0.00000000000E+00 -0.35659462993E+03  0.35659462993E+03  0.00000000000E+00 0. -1.
         25    2    1    2    0    0  0.14943935618E+03  0.14696765632E+01 -0.88627569255E+02  0.21404234216E+03  0.12499998832E+03 0.  0.
          4    1    3    3  501    0  0.12055970060E+03  0.89372357197E+01 -0.12027429842E+03  0.17053455765E+03  0.12700000000E+01 0. -1.
         -4    1    3    3    0  501  0.28879655586E+02 -0.74675591565E+01  0.31646729168E+02  0.43507784517E+02  0.12700000000E+01 0. -1.
          2    1    1    2  502    0 -0.10923815532E+03 -0.95879326567E+02  0.20678950983E+04  0.20729968542E+04  0.00000000000E+00 0. -1.
          1    1    1    2  503    0 -0.40201200863E+02  0.94409650004E+02 -0.18972302710E+03  0.21569456548E+03  0.00000000000E+00 0. -1.
<mgrwt>
<rscale>  0 0.12190498E+03</rscale>
<asrwt>0</asrwt>
<pdfrwt beam="1">  1        2 0.33017524E+00 0.14482474E+03</pdfrwt>
<pdfrwt beam="2">  1        1 0.54860714E-01 0.10261247E+03</pdfrwt>
<totfact> 0.64677430E+01</totfact>
</mgrwt>
</event>
<event>
 7    1  0.3113151E-004  0.5624273E+02  0.7546771E-02  0.1496690E+00
         -1   -1    0    0    0  501 -0.00000000000E+00  0.00000000000E+00  0.75361688471E+01  0.75361688471E+01  0.00000000000E+00 0.  1.
          2   -1    0    0  503    0  0.00000000000E+00 -0.00000000000E+00 -0.19097560993E+04  0.19097560993E+04  0.00000000000E+00 0. -1.
         25    2    1    2    0    0  0.19334805963E+02  0.51290892137E+02 -0.12997101931E+04  0.13068597442E+04  0.12502485674E+03 0.  0.
          4    1    3    3  502    0 -0.31391149351E+02  0.64249431224E+02 -0.46086319544E+03  0.46637955732E+03  0.12700000000E+01 0. -1.
         -4    1    3    3    0  502  0.50725955314E+02 -0.12958539087E+02 -0.83884699762E+03  0.84048018691E+03  0.12700000000E+01 0. -1.
          2    1    1    2  503    0 -0.47450981283E+02 -0.38756148450E+02 -0.28945722682E+03  0.29587010803E+03  0.00000000000E+00 0. -1.
         -1    1    1    2    0  501  0.28116175319E+02 -0.12534743687E+02 -0.31305251061E+03  0.31456241592E+03  0.00000000000E+00 0.  1.
<mgrwt>
<rscale>  0 0.41609638E+02</rscale>
<asrwt>0</asrwt>
<pdfrwt beam="2">  1        2 0.29380919E+00 0.56242729E+02</pdfrwt>
<pdfrwt beam="1">  1       -1 0.11594084E-02 0.30783748E+02</pdfrwt>
<totfact> 0.11909447E+04</totfact>
</mgrwt>
</event>
<event>
 7    1  0.3113151E-004  0.3343616E+03  0.7546771E-02  0.1162975E+00
          2   -1    0    0  502    0  0.00000000000E+00  0.00000000000E+00  0.27269941139E+04  0.27269941139E+04  0.00000000000E+00 0. -1.
          2   -1    0    0  503    0 -0.00000000000E+00 -0.00000000000E+00 -0.83566201333E+02  0.83566201333E+02  0.00000000000E+00 0.  1.
         25    2    1    2    0    0 -0.26307045369E+03  0.52860185718E+02  0.11308639565E+04  0.11689647149E+04  0.12499981472E+03 0.  0.
          4    1    3    3  501    0 -0.85602628865E+02  0.68516428525E+01  0.62556174610E+03  0.63143001684E+03  0.12700000000E+01 0.  1.
         -4    1    3    3    0  501 -0.17746782483E+03  0.46008542865E+02  0.50530221044E+03  0.53753469809E+03  0.12700000000E+01 0.  1.
          2    1    1    2  502    0 -0.10100815035E+03 -0.17114183748E+02  0.10347901831E+04  0.10398491548E+04  0.00000000000E+00 0. -1.
          2    1    1    2  503    0  0.36407860404E+03 -0.35746001970E+02  0.47777377292E+03  0.60174644550E+03  0.00000000000E+00 0.  1.
<mgrwt>
<rscale>  0 0.18507996E+03</rscale>
<asrwt>0</asrwt>
<pdfrwt beam="1">  1        2 0.41953749E+00 0.10244775E+03</pdfrwt>
<pdfrwt beam="2">  1        2 0.12856341E-01 0.33436159E+03</pdfrwt>
<totfact> 0.25082101E+02</totfact>
</mgrwt>
</event>
<event>
 7    1  0.3113151E-004  0.9613148E+02  0.7546771E-02  0.1451616E+00
         -2   -1    0    0    0  501 -0.00000000000E+00  0.00000000000E+00  0.19769993905E+03  0.19769993905E+03  0.00000000000E+00 0.  1.
          1   -1    0    0  503    0  0.00000000000E+00 -0.00000000000E+00 -0.20068978176E+03  0.20068978176E+03  0.00000000000E+00 0. -1.
         25    2    1    2    0    0 -0.72878549137E+02 -0.75590810682E+02 -0.64151410989E+02  0.17539475936E+03  0.12499065764E+03 0.  0.
          4    1    3    3  502    0  0.29617028397E+02 -0.62694846642E+01  0.90481564887E+01  0.31622094252E+02  0.12700000000E+01 0.  1.
         -4    1    3    3    0  502 -0.10249557753E+03 -0.69321326018E+02 -0.73199567478E+02  0.14377266511E+03  0.12700000000E+01 0.  1.
          1    1    1    2  503    0  0.24044547112E+02 -0.61908961591E+01 -0.62296806363E+02  0.67062355491E+02  0.00000000000E+00 0. -1.
         -2    1    1    2    0  501  0.48834002025E+02  0.81781706841E+02  0.12345837465E+03  0.15593260595E+03  0.00000000000E+00 0.  1.
<mgrwt>
<rscale>  0 0.48855149E+02</rscale>
<asrwt>0</asrwt>
<pdfrwt beam="2">  1        1 0.30875351E-01 0.24828762E+02</pdfrwt>
<pdfrwt beam="1">  1       -2 0.30415375E-01 0.96131476E+02</pdfrwt>
<totfact> 0.11999175E+03</totfact>
</mgrwt>
</event>
<event>
 7    1  0.3113151E-004  0.3873111E+02  0.7546771E-02  0.1558989E+00
          2   -1    0    0  503    0  0.00000000000E+00  0.00000000000E+00  0.45624626361E+04  0.45624626361E+04  0.00000000000E+00 0. -1.
         -1   -1    0    0    0  501 -0.00000000000E+00 -0.00000000000E+00 -0.28447875209E+01  0.28447875209E+01  0.00000000000E+00 0.  1.
         25    2    1    2    0    0  0.33057866376E+02 -0.32686611004E+02  0.29976773042E+04  0.30006426045E+04  0.12500233111E+03 0.  0.
          4    1    3    3  502    0  0.13503462172E+02  0.43595317423E+02  0.62828982712E+03  0.62994651754E+03  0.12700000000E+01 0.  1.
         -4    1    3    3    0  502  0.19554404203E+02 -0.76281928427E+02  0.23693874771E+04  0.23706960870E+04  0.12700000000E+01 0.  1.
          2    1    1    2  503    0 -0.38745082744E+02  0.36414855877E+01  0.13610052177E+04  0.13615614729E+04  0.00000000000E+00 0. -1.
         -1    1    1    2    0  501  0.56872163683E+01  0.29045125416E+02  0.20093532668E+03  0.20310334623E+03  0.00000000000E+00 0.  1.
<mgrwt>
<rscale>  0 0.33857236E+02</rscale>
<asrwt>0</asrwt>
<pdfrwt beam="1">  1        2 0.70191147E+00 0.38731108E+02</pdfrwt>
<pdfrwt beam="2">  1       -1 0.43766327E-03 0.29596685E+02</pdfrwt>
<totfact> 0.11085806E+03</totfact>
</mgrwt>
</event>
<event>
 7    1  0.3113151E-004  0.5841991E+02  0.7546771E-02  0.1462929E+00
          2   -1    0    0  502    0  0.00000000000E+00  0.00000000000E+00  0.16051501211E+04  0.16051501211E+04  0.00000000000E+00 0. -1.
          2   -1    0    0  503    0 -0.00000000000E+00 -0.00000000000E+00 -0.81221975696E+02  0.81221975696E+02  0.00000000000E+00 0. -1.
         25    2    1    2    0    0  0.20449456551E+02 -0.52345969276E+02  0.10249430930E+04  0.10340657271E+04  0.12500121341E+03 0.  0.
          4    1    3    3  501    0  0.13107252900E+02  0.25312626188E+02  0.65362591916E+02  0.71319074903E+02  0.12700000000E+01 0.  1.
         -4    1    3    3    0  501  0.73422036509E+01 -0.77658595464E+02  0.95958050106E+03  0.96274665219E+03  0.12700000000E+01 0.  1.
          2    1    1    2  502    0  0.16339123495E+02  0.60217395045E+02  0.56922033960E+03  0.57262980768E+03  0.00000000000E+00 0. -1.
          2    1    1    2  503    0 -0.36788580046E+02 -0.78714257698E+01 -0.70235287192E+02  0.79676562001E+02  0.00000000000E+00 0. -1.
<mgrwt>
<rscale>  0 0.46881023E+02</rscale>
<asrwt>0</asrwt>
<pdfrwt beam="1">  1        2 0.24694615E+00 0.58419907E+02</pdfrwt>
<pdfrwt beam="2">  1        2 0.12495690E-01 0.37621257E+02</pdfrwt>
<totfact> 0.92206571E+02</totfact>
</mgrwt>
</event>
<event>
 7    1  0.3113151E-004  0.1301790E+03  0.7546771E-02  0.1417504E+00
          2   -1    0    0  503    0  0.00000000000E+00  0.00000000000E+00  0.10315017861E+03  0.10315017861E+03  0.00000000000E+00 0. -1.
         -1   -1    0    0    0  501 -0.00000000000E+00 -0.00000000000E+00 -0.27622479836E+03  0.27622479836E+03  0.00000000000E+00 0.  1.
         25    2    1    2    0    0  0.10022752802E+03  0.72318182382E+02 -0.10342455146E+03  0.20395472236E+03  0.12500165619E+03 0.  0.
          4    1    3    3  502    0 -0.47835520269E+01 -0.15747313443E+02  0.15389357979E+02  0.22567797625E+02  0.12700000000E+01 0.  1.
         -4    1    3    3    0  502  0.10501108005E+03  0.88065495825E+02 -0.11881390944E+03  0.18138692474E+03  0.12700000000E+01 0.  1.
          2    1    1    2  503    0  0.21368626402E+02 -0.10265170840E+02 -0.43914347382E+01  0.24109679088E+02  0.00000000000E+00 0. -1.
         -1    1    1    2    0  501 -0.12159615443E+03 -0.62053011542E+02 -0.65258633543E+02  0.15131057552E+03  0.00000000000E+00 0.  1.
<mgrwt>
<rscale>  0 0.55552425E+02</rscale>
<asrwt>0</asrwt>
<pdfrwt beam="1">  1        2 0.15869258E-01 0.23706369E+02</pdfrwt>
<pdfrwt beam="2">  1       -1 0.42496123E-01 0.13017902E+03</pdfrwt>
<totfact> 0.20344194E+03</totfact>
</mgrwt>
</event>
<event>
 7    1  0.3113151E-004  0.3985475E+02  0.7546771E-02  0.1588367E+00
          1   -1    0    0  503    0 -0.00000000000E+00  0.00000000000E+00  0.22795917460E+03  0.22795917460E+03  0.00000000000E+00 0. -1.
          2   -1    0    0  502    0  0.00000000000E+00 -0.00000000000E+00 -0.17445728712E+04  0.17445728712E+04  0.00000000000E+00 0. -1.
         25    2    1    2    0    0  0.47688875947E+02  0.41620754295E+02  0.59874184232E+01  0.14023702964E+03  0.12499623685E+03 0.  0.
          4    1    3    3  501    0  0.12480905309E+02 -0.25897103506E+02  0.45961594827E+02  0.54226507045E+02  0.12700000000E+01 0.  1.
         -4    1    3    3    0  501  0.35207970638E+02  0.67517857800E+02 -0.39974176403E+02  0.86010522598E+02  0.12700000000E+01 0.  1.
          2    1    1    2  502    0 -0.27474178247E+02 -0.28768253073E+02 -0.16762842482E+04  0.16767561908E+04  0.00000000000E+00 0. -1.
          1    1    1    2  503    0 -0.20214697700E+02 -0.12852501222E+02  0.15368313311E+03  0.15553882535E+03  0.00000000000E+00 0. -1.
<mgrwt>
<rscale>  0 0.30898268E+02</rscale>
<asrwt>0</asrwt>
<pdfrwt beam="2">  1        2 0.26839584E+00 0.39854753E+02</pdfrwt>
<pdfrwt beam="1">  1        1 0.35070641E-01 0.23954557E+02</pdfrwt>
<totfact> 0.19895316E+02</totfact>
</mgrwt>
</event>
<event>
 7    1  0.3113151E-004  0.4367940E+02  0.7546771E-02  0.1533413E+00
          1   -1    0    0  503    0  0.00000000000E+00  0.00000000000E+00  0.47532709649E+02  0.47532709649E+02  0.00000000000E+00 0. -1.
          1   -1    0    0  502    0 -0.00000000000E+00 -0.00000000000E+00 -0.37531581130E+03  0.37531581130E+03  0.00000000000E+00 0. -1.
         25    2    1    2    0    0  0.35156576275E+02 -0.33723263647E+02 -0.19034044769E+03  0.23287599549E+03  0.12501399876E+03 0.  0.
          4    1    3    3  501    0 -0.28538960210E+01  0.40332455101E+02 -0.10991269530E+03  0.11712072893E+03  0.12700000000E+01 0. -1.
         -4    1    3    3    0  501  0.38010472296E+02 -0.74055718748E+02 -0.80427752391E+02  0.11575526657E+03  0.12700000000E+01 0. -1.
          1    1    1    2  502    0  0.87751916326E+01  0.29685506091E+02 -0.14226406432E+03  0.14559291623E+03  0.00000000000E+00 0. -1.
          1    1    1    2  503    0 -0.43931767908E+02  0.40377575561E+01  0.48214103485E+01  0.44379609229E+02  0.00000000000E+00 0. -1.
<mgrwt>
<rscale>  0 0.36771060E+02</rscale>
<asrwt>0</asrwt>
<pdfrwt beam="1">  1        1 0.73127245E-02 0.43679403E+02</pdfrwt>
<pdfrwt beam="2">  1        1 0.57740895E-01 0.30955343E+02</pdfrwt>
<totfact> 0.68106998E+03</totfact>
</mgrwt>
</event>
<event>
 7    1  0.3113151E-004  0.4956339E+02  0.7546771E-02  0.1546545E+00
          3   -1    0    0  503    0 -0.00000000000E+00  0.00000000000E+00  0.29821104012E+03  0.29821104012E+03  0.00000000000E+00 0. -1.
          2   -1    0    0  502    0  0.00000000000E+00 -0.00000000000E+00 -0.10300702334E+04  0.10300702334E+04  0.00000000000E+00 0. -1.
         25    2    1    2    0    0  0.22138189318E+02 -0.71105513966E+02  0.22096745567E+03  0.26457910730E+03  0.12501757481E+03 0.  0.
          4    1    3    3  501    0  0.47696091102E+02 -0.71061621574E+02  0.22304593160E+03  0.23890536132E+03  0.12700000000E+01 0. -1.
         -4    1    3    3    0  501 -0.25557901784E+02 -0.43892391629E-01 -0.20784759300E+01  0.25673745974E+02  0.12700000000E+01 0. -1.
          2    1    1    2  502    0 -0.13207260042E+02  0.47706544204E+02 -0.10047949513E+04  0.10060135388E+04  0.00000000000E+00 0. -1.
          3    1    1    2  503    0 -0.89309292764E+01  0.23398969762E+02  0.51968302363E+02  0.57688627425E+02  0.00000000000E+00 0. -1.
<mgrwt>
<rscale>  0 0.35232601E+02</rscale>
<asrwt>0</asrwt>
<pdfrwt beam="2">  1        2 0.15847235E+00 0.49563391E+02</pdfrwt>
<pdfrwt beam="1">  1        3 0.45878621E-01 0.25045424E+02</pdfrwt>
<totfact> 0.70100299E+01</totfact>
</mgrwt>
</event>
<event>
 7    1  0.3113151E-004  0.4586967E+02  0.7546771E-02  0.1562289E+00
          1   -1    0    0  503    0  0.00000000000E+00  0.00000000000E+00  0.44172773726E+03  0.44172773726E+03  0.00000000000E+00 0. -1.
         -2   -1    0    0    0  501 -0.00000000000E+00 -0.00000000000E+00 -0.28840774679E+02  0.28840774679E+02  0.00000000000E+00 0.  1.
         25    2    1    2    0    0 -0.30437255206E+02  0.18986357985E+02  0.29176351617E+03  0.31943456472E+03  0.12500233390E+03 0.  0.
          4    1    3    3  502    0 -0.77152535696E+02  0.13131041945E-01  0.20548150281E+03  0.21949208376E+03  0.12700000000E+01 0.  1.
         -4    1    3    3    0  502  0.46715280491E+02  0.18973226943E+02  0.86282013359E+02  0.99942480964E+02  0.12700000000E+01 0.  1.
          1    1    1    2  503    0 -0.17402978260E+02 -0.17207570175E+02  0.91771737756E+02  0.94979029130E+02  0.00000000000E+00 0. -1.
         -2    1    1    2    0  501  0.47840233466E+02 -0.17787878103E+01  0.29351708659E+02  0.56154918087E+02  0.00000000000E+00 0.  1.
<mgrwt>
<rscale>  0 0.33505260E+02</rscale>
<asrwt>0</asrwt>
<pdfrwt beam="1">  1        1 0.67958109E-01 0.24473744E+02</pdfrwt>
<pdfrwt beam="2">  1       -2 0.44370426E-02 0.45869666E+02</pdfrwt>
<totfact> 0.95427360E+03</totfact>
</mgrwt>
</event>
<event>
 7    1  0.3113151E-004  0.5276854E+02  0.7546771E-02  0.1437596E+00
          2   -1    0    0  503    0  0.00000000000E+00  0.00000000000E+00  0.23817810730E+03  0.23817810730E+03  0.00000000000E+00 0.  1.
          2   -1    0    0  502    0 -0.00000000000E+00 -0.00000000000E+00 -0.53573085941E+03  0.53573085941E+03  0.00000000000E+00 0. -1.
         25    2    1    2    0    0  0.20659492015E+02 -0.14406257063E+02 -0.20751116093E+02  0.12918078879E+03  0.12499084974E+03 0.  0.
          4    1    3    3  501    0  0.59721542151E+02 -0.32843264151E+02  0.18679586171E+02  0.70681556552E+02  0.12700000000E+01 0.  1.
         -4    1    3    3    0  501 -0.39062050136E+02  0.18437007089E+02 -0.39430702264E+02  0.58499232237E+02  0.12700000000E+01 0.  1.
          2    1    1    2  502    0  0.26763314007E+02  0.42463402934E+02 -0.45522832025E+03  0.45798716044E+03  0.00000000000E+00 0. -1.
          2    1    1    2  503    0 -0.47422806022E+02 -0.28057145872E+02  0.17842668423E+03  0.18674101748E+03  0.00000000000E+00 0.  1.
<mgrwt>
<rscale>  0 0.51465063E+02</rscale>
<asrwt>0</asrwt>
<pdfrwt beam="1">  1        2 0.36642786E-01 0.52768545E+02</pdfrwt>
<pdfrwt beam="2">  1        2 0.82420131E-01 0.50193780E+02</pdfrwt>
<totfact> 0.12580392E+03</totfact>
</mgrwt>
</event>
<event>
 7    1  0.3113151E-004  0.5618989E+02  0.7546771E-02  0.1484722E+00
          1   -1    0    0  502    0  0.00000000000E+00  0.00000000000E+00  0.17160923863E+04  0.17160923863E+04  0.00000000000E+00 0. -1.
          3   -1    0    0  503    0 -0.00000000000E+00 -0.00000000000E+00 -0.11093576706E+03  0.11093576706E+03  0.00000000000E+00 0. -1.
         25    2    1    2    0    0 -0.31224119329E+01 -0.42038071944E+02  0.13650857043E+03  0.18985064233E+03  0.12502690768E+03 0.  0.
          4    1    3    3  501    0 -0.25604617431E+02 -0.48302092929E+02  0.34907568119E+01  0.54794953219E+02  0.12700000000E+01 0. -1.
         -4    1    3    3    0  501  0.22482205498E+02  0.62640209850E+01  0.13301781362E+03  0.13505568912E+03  0.12700000000E+01 0. -1.
          1    1    1    2  502    0 -0.33407029775E+02 -0.23431094561E+01  0.15429071907E+04  0.15432705916E+04  0.00000000000E+00 0. -1.
          3    1    1    2  503    0  0.36529441708E+02  0.44381181400E+02 -0.74259141850E+02  0.93906919459E+02  0.00000000000E+00 0. -1.
<mgrwt>
<rscale>  0 0.43379127E+02</rscale>
<asrwt>0</asrwt>
<pdfrwt beam="1">  1        1 0.26401419E+00 0.33489100E+02</pdfrwt>
<pdfrwt beam="2">  1        3 0.17067042E-01 0.56189886E+02</pdfrwt>
<totfact> 0.92723042E+01</totfact>
</mgrwt>
</event>
<event>
 7    1  0.3741129E-004  0.1398700E+03  0.7546771E-02  0.1329278E+00
          1   -1    0    0  503    0  0.00000000000E+00  0.00000000000E+00  0.32060587213E+03  0.32060587213E+03  0.00000000000E+00 0. -1.
         -2   -1    0    0    0  501 -0.00000000000E+00 -0.00000000000E+00 -0.24972034757E+03  0.24972034757E+03  0.00000000000E+00 0.  1.
         25    2    1    2    0    0  0.39445217308E+02  0.17122786921E+03  0.23358120862E+03  0.31789768814E+03  0.12499540289E+03 0.  0.
          4    1    3    3  502    0 -0.26453219722E+02  0.10883068795E+03  0.18143339191E+03  0.21322190336E+03  0.12700000000E+01 0.  1.
         -4    1    3    3    0  502  0.65898437029E+02  0.62397181257E+02  0.52147816710E+02  0.10467578478E+03  0.12700000000E+01 0.  1.
          1    1    1    2  503    0 -0.29420026410E+02 -0.34925651531E+02 -0.86200341533E+01  0.46471970882E+02  0.00000000000E+00 0. -1.
         -2    1    1    2    0  501 -0.10025190897E+02 -0.13630221767E+03 -0.15407564990E+03  0.20595656068E+03  0.00000000000E+00 0.  1.
<mgrwt>
<rscale>  0 0.79920173E+02</rscale>
<asrwt>0</asrwt>
<pdfrwt beam="1">  1        1 0.49323980E-01 0.45665513E+02</pdfrwt>
<pdfrwt beam="2">  1       -2 0.38418515E-01 0.13986997E+03</pdfrwt>
<totfact> 0.45814611E+02</totfact>
</mgrwt>
</event>
<event>
 7    1  0.3113151E-004  0.4344988E+02  0.7546771E-02  0.1570127E+00
          2   -1    0    0  503    0  0.00000000000E+00  0.00000000000E+00  0.25158056145E+04  0.25158056145E+04  0.00000000000E+00 0. -1.
         -1   -1    0    0    0  501 -0.00000000000E+00 -0.00000000000E+00 -0.52406695746E+01  0.52406695746E+01  0.00000000000E+00 0.  1.
         25    2    1    2    0    0 -0.15552725525E+02 -0.48080816273E+02  0.14048812588E+04  0.14113365650E+04  0.12500358407E+03 0.  0.
          4    1    3    3  502    0 -0.83836167667E+01  0.38600401741E+02  0.69890663298E+03  0.70002312145E+03  0.12700000000E+01 0.  1.
         -4    1    3    3    0  502 -0.71691087584E+01 -0.86681218014E+02  0.70597462585E+03  0.71131344351E+03  0.12700000000E+01 0.  1.
          2    1    1    2  503    0  0.23908964962E+02  0.57662394279E+01  0.85420696709E+03  0.85456095789E+03  0.00000000000E+00 0. -1.
         -1    1    1    2    0  501 -0.83562394365E+01  0.42314576845E+02  0.25147671900E+03  0.25514876122E+03  0.00000000000E+00 0.  1.
<mgrwt>
<rscale>  0 0.32689858E+02</rscale>
<asrwt>0</asrwt>
<pdfrwt beam="1">  1        2 0.38704605E+00 0.24594473E+02</pdfrwt>
<pdfrwt beam="2">  1       -1 0.80625887E-03 0.43449877E+02</pdfrwt>
<totfact> 0.11916110E+04</totfact>
</mgrwt>
</event>
<event>
 7    1  0.3113151E-004  0.4918506E+02  0.7546771E-02  0.1496161E+00
          2   -1    0    0  502    0  0.00000000000E+00  0.00000000000E+00  0.20627991970E+03  0.20627991970E+03  0.00000000000E+00 0. -1.
          1   -1    0    0  503    0 -0.00000000000E+00 -0.00000000000E+00 -0.13753761827E+04  0.13753761827E+04  0.00000000000E+00 0. -1.
         25    2    1    2    0    0 -0.67524168032E+02 -0.31945127743E+02 -0.11106531789E+03  0.18313619734E+03  0.12499342975E+03 0.  0.
          4    1    3    3  501    0 -0.69396526353E+02 -0.22962153719E+02 -0.13717031910E+03  0.15543631402E+03  0.12700000000E+01 0.  1.
         -4    1    3    3    0  501  0.18723583218E+01 -0.89829740243E+01  0.26105001205E+02  0.27699883319E+02  0.12700000000E+01 0.  1.
          2    1    1    2  502    0  0.18643616139E+02  0.30010010180E+02  0.16791847669E+03  0.17159487157E+03  0.00000000000E+00 0. -1.
          1    1    1    2  503    0  0.48880551892E+02  0.19351175629E+01 -0.12259494217E+04  0.12269250335E+04  0.00000000000E+00 0. -1.
<mgrwt>
<rscale>  0 0.41685628E+02</rscale>
<asrwt>0</asrwt>
<pdfrwt beam="1">  1        2 0.31735373E-01 0.35329664E+02</pdfrwt>
<pdfrwt beam="2">  1        1 0.21159633E+00 0.49185058E+02</pdfrwt>
<totfact> 0.21690191E+02</totfact>
</mgrwt>
</event>
<event>
 7    1  0.3113151E-004  0.1683082E+03  0.7546771E-02  0.1372436E+00
          2   -1    0    0  502    0  0.00000000000E+00  0.00000000000E+00  0.23767757984E+03  0.23767757984E+03  0.00000000000E+00 0. -1.
          1   -1    0    0  503    0 -0.00000000000E+00 -0.00000000000E+00 -0.21767106429E+04  0.21767106429E+04  0.00000000000E+00 0. -1.
         25    2    1    2    0    0  0.21370982857E+02 -0.18903828974E+03 -0.33619520348E+03  0.40600945800E+03  0.12499708497E+03 0.  0.
          4    1    3    3  501    0  0.34315498643E+02 -0.60373006734E+02 -0.34051617207E+02  0.77353596708E+02  0.12700000000E+01 0.  1.
         -4    1    3    3    0  501 -0.12944515786E+02 -0.12866528300E+03 -0.30214358627E+03  0.32865586129E+03  0.12700000000E+01 0.  1.
          2    1    1    2  502    0 -0.28732321146E+02  0.16382026884E+03  0.16855082716E+03  0.23679528733E+03  0.00000000000E+00 0. -1.
          1    1    1    2  503    0  0.73613382892E+01  0.25218020893E+02 -0.17713886867E+04  0.17715834774E+04  0.00000000000E+00 0. -1.
<mgrwt>
<rscale>  0 0.66494632E+02</rscale>
<asrwt>0</asrwt>
<pdfrwt beam="1">  1        2 0.36565781E-01 0.16830818E+03</pdfrwt>
<pdfrwt beam="2">  1        1 0.33487856E+00 0.26270475E+02</pdfrwt>
<totfact> 0.68185037E+01</totfact>
</mgrwt>
</event>
<event>
 7    1  0.3113151E-004  0.5882794E+02  0.7546771E-02  0.1536679E+00
          1   -1    0    0  503    0 -0.00000000000E+00  0.00000000000E+00  0.17755714450E+03  0.17755714450E+03  0.00000000000E+00 0. -1.
          2   -1    0    0  502    0  0.00000000000E+00 -0.00000000000E+00 -0.35976246035E+04  0.35976246035E+04  0.00000000000E+00 0. -1.
         25    2    1    2    0    0 -0.43283411755E+02  0.10200448837E+01  0.46739097071E+02  0.14030087641E+03  0.12500119400E+03 0.  0.
          4    1    3    3  501    0  0.34250678176E+02 -0.20639340034E+02  0.44382580297E+02  0.59753808635E+02  0.12700000000E+01 0.  1.
         -4    1    3    3    0  501 -0.77534089931E+02  0.21659384918E+02  0.23565167739E+01  0.80547067779E+02  0.12700000000E+01 0.  1.
          2    1    1    2  502    0  0.55376391789E+02 -0.19991021977E+02 -0.35490894858E+04  0.35495777727E+04  0.00000000000E+00 0. -1.
          1    1    1    2  503    0 -0.12092980034E+02  0.18970977093E+02  0.82282929818E+02  0.85303098874E+02  0.00000000000E+00 0. -1.
<mgrwt>
<rscale>  0 0.36379698E+02</rscale>
<asrwt>0</asrwt>
<pdfrwt beam="2">  1        2 0.55348069E+00 0.58827943E+02</pdfrwt>
<pdfrwt beam="1">  1        1 0.27316485E-01 0.22497514E+02</pdfrwt>
<totfact> 0.25455782E+01</totfact>
</mgrwt>
</event>
<event>
 7    1  0.3113151E-004  0.3590750E+02  0.7546771E-02  0.1544806E+00
          2   -1    0    0  503    0  0.00000000000E+00  0.00000000000E+00  0.48193728671E+03  0.48193728671E+03  0.00000000000E+00 0. -1.
         -1   -1    0    0    0  501 -0.00000000000E+00 -0.00000000000E+00 -0.46927150816E+02  0.46927150816E+02  0.00000000000E+00 0.  1.
         25    2    1    2    0    0 -0.13336842435E+02  0.43947781112E+02  0.40776560821E+03  0.42895929240E+03  0.12499601783E+03 0.  0.
          4    1    3    3  502    0  0.53297368880E+01  0.17529637099E+02  0.39291345328E+03  0.39334245758E+03  0.12700000000E+01 0.  1.
         -4    1    3    3    0  502 -0.18666579323E+02  0.26418144013E+02  0.14852154930E+02  0.35616834823E+02  0.12700000000E+01 0.  1.
          2    1    1    2  503    0  0.32459543171E+02 -0.14680432960E+02  0.47596336828E+02  0.59452067535E+02  0.00000000000E+00 0. -1.
         -1    1    1    2    0  501 -0.19122700736E+02 -0.29267348153E+02 -0.20351809136E+02  0.40453077589E+02  0.00000000000E+00 0.  1.
<mgrwt>
<rscale>  0 0.35430974E+02</rscale>
<asrwt>0</asrwt>
<pdfrwt beam="1">  1        2 0.74144194E-01 0.35907503E+02</pdfrwt>
<pdfrwt beam="2">  1       -1 0.72195620E-02 0.34960769E+02</pdfrwt>
<totfact> 0.64236660E+03</totfact>
</mgrwt>
</event>
<event>
 7    1  0.3113151E-004  0.1886380E+03  0.7546771E-02  0.1174401E+00
         -2   -1    0    0    0  501 -0.00000000000E+00  0.00000000000E+00  0.20094047081E+03  0.20094047081E+03  0.00000000000E+00 0.  1.
          1   -1    0    0  503    0  0.00000000000E+00 -0.00000000000E+00 -0.12852803960E+04  0.12852803960E+04  0.00000000000E+00 0. -1.
         25    2    1    2    0    0  0.10836216866E+03 -0.38238048166E+02 -0.17054192140E+03  0.24065285544E+03  0.12499896780E+03 0.  0.
          4    1    3    3  502    0 -0.94382626852E+01 -0.13310954564E+02  0.13160669667E+02  0.21001867536E+02  0.12700000000E+01 0.  1.
         -4    1    3    3    0  502  0.11780043134E+03 -0.24927093601E+02 -0.18370259107E+03  0.21965098790E+03  0.12700000000E+01 0.  1.
          1    1    1    2  503    0 -0.10336226117E+03  0.19745701400E+03 -0.10265108922E+04  0.10504273612E+04  0.00000000000E+00 0. -1.
         -2    1    1    2    0  501 -0.49999074884E+01 -0.15921896583E+03  0.11271288837E+03  0.19514065020E+03  0.00000000000E+00 0.  1.
<mgrwt>
<rscale>  0 0.17334807E+03</rscale>
<asrwt>0</asrwt>
<pdfrwt beam="2">  1        1 0.19773544E+00 0.18863801E+03</pdfrwt>
<pdfrwt beam="1">  1       -2 0.30913919E-01 0.15929745E+03</pdfrwt>
<totfact> 0.87725838E+01</totfact>
</mgrwt>
</event>
<event>
 7    1  0.3113151E-004  0.8663619E+02  0.7546771E-02  0.1381655E+00
         -2   -1    0    0    0  501 -0.00000000000E+00  0.00000000000E+00  0.35228953440E+02  0.35228953440E+02  0.00000000000E+00 0. -1.
          2   -1    0    0  503    0  0.00000000000E+00 -0.00000000000E+00 -0.43172365463E+04  0.43172365463E+04  0.00000000000E+00 0. -1.
         25    2    1    2    0    0 -0.34197929147E+02  0.30746537878E+02 -0.55747146416E+03  0.57316132406E+03  0.12499848835E+03 0.  0.
          4    1    3    3  502    0 -0.10310545584E+02 -0.21137058745E+02 -0.15517872303E+02  0.28204607132E+02  0.12700000000E+01 0. -1.
         -4    1    3    3    0  502 -0.23887383564E+02  0.51883596623E+02 -0.54195359186E+03  0.54495671692E+03  0.12700000000E+01 0. -1.
          2    1    1    2  503    0  0.46747761826E+02 -0.76375687478E+02 -0.37305282129E+04  0.37316027851E+04  0.00000000000E+00 0. -1.
         -2    1    1    2    0  501 -0.12549832679E+02  0.45629149600E+02  0.59920841331E+01  0.47701390606E+02  0.00000000000E+00 0. -1.
<mgrwt>
<rscale>  0 0.64030708E+02</rscale>
<asrwt>0</asrwt>
<pdfrwt beam="2">  1        2 0.66418970E+00 0.86636194E+02</pdfrwt>
<pdfrwt beam="1">  1       -2 0.54198434E-02 0.47323542E+02</pdfrwt>
<totfact> 0.47337974E+01</totfact>
</mgrwt>
</event>
<event>
 7    1  0.3113151E-004  0.1157425E+03  0.7546771E-02  0.1349490E+00
          1   -1    0    0  502    0  0.00000000000E+00  0.00000000000E+00  0.74216063099E+03  0.74216063099E+03  0.00000000000E+00 0. -1.
          1   -1    0    0  503    0 -0.00000000000E+00 -0.00000000000E+00 -0.11213622278E+04  0.11213622278E+04  0.00000000000E+00 0. -1.
         25    2    1    2    0    0  0.10248216257E+03 -0.18626215876E+02 -0.66612154875E+02  0.17581269492E+03  0.12499357966E+03 0.  0.
          4    1    3    3  501    0  0.56933320439E+02 -0.72384943997E+02 -0.41238232656E+02  0.10091178240E+03  0.12700000000E+01 0. -1.
         -4    1    3    3    0  501  0.45548842129E+02  0.53758728121E+02 -0.25373922219E+02  0.74900912526E+02  0.12700000000E+01 0. -1.
          1    1    1    2  502    0 -0.50110778849E+01 -0.46041322756E+02  0.68335376293E+03  0.68492136746E+03  0.00000000000E+00 0. -1.
          1    1    1    2  503    0 -0.97471084683E+02  0.64667538632E+02 -0.99594320482E+03  0.10027887964E+04  0.00000000000E+00 0. -1.
<mgrwt>
<rscale>  0 0.73214797E+02</rscale>
<asrwt>0</asrwt>
<pdfrwt beam="1">  1        1 0.11417856E+00 0.46313220E+02</pdfrwt>
<pdfrwt beam="2">  1        1 0.17251727E+00 0.11574247E+03</pdfrwt>
<totfact> 0.46734460E+01</totfact>
</mgrwt>
</event>
<event>
 7    1  0.3113151E-004  0.4712014E+02  0.7546771E-02  0.1541558E+00
         -1   -1    0    0    0  501 -0.00000000000E+00  0.00000000000E+00  0.26133142711E+02  0.26133142711E+02  0.00000000000E+00 0.  1.
          2   -1    0    0  503    0  0.00000000000E+00 -0.00000000000E+00 -0.48175414389E+03  0.48175414389E+03  0.00000000000E+00 0. -1.
         25    2    1    2    0    0  0.16197090301E+02  0.32381396283E+02 -0.33056716416E+03  0.35525935084E+03  0.12499462302E+03 0.  0.
          4    1    3    3  502    0 -0.54673046277E+02  0.12236900796E+02 -0.15679864856E+03  0.16651220021E+03  0.12700000000E+01 0. -1.
         -4    1    3    3    0  502  0.70870136578E+02  0.20144495486E+02 -0.17376851560E+03  0.18874715063E+03  0.12700000000E+01 0. -1.
          2    1    1    2  503    0 -0.17394693143E+00 -0.54371321347E+02 -0.10685952851E+03  0.11989674589E+03  0.00000000000E+00 0. -1.
         -1    1    1    2    0  501 -0.16023143370E+02  0.21989925065E+02 -0.18194308515E+02  0.32731189867E+02  0.00000000000E+00 0.  1.
<mgrwt>
<rscale>  0 0.35805925E+02</rscale>
<asrwt>0</asrwt>
<pdfrwt beam="2">  1        2 0.74116020E-01 0.47120136E+02</pdfrwt>
<pdfrwt beam="1">  1       -1 0.40204836E-02 0.27208416E+02</pdfrwt>
<totfact> 0.14239387E+04</totfact>
</mgrwt>
</event>
<event>
 7    1  0.3113151E-004  0.6396330E+02  0.7546771E-02  0.1508891E+00
         -2   -1    0    0    0  501 -0.00000000000E+00  0.00000000000E+00  0.15384761320E+02  0.15384761320E+02  0.00000000000E+00 0.  1.
          1   -1    0    0  503    0  0.00000000000E+00 -0.00000000000E+00 -0.13666281433E+04  0.13666281433E+04  0.00000000000E+00 0. -1.
         25    2    1    2    0    0  0.58744590392E+02 -0.50144749942E+02 -0.10656108855E+04  0.10756936201E+04  0.12499912838E+03 0.  0.
          4    1    3    3  502    0  0.23080165482E+02  0.36549204645E+02 -0.17944905855E+03  0.18458633728E+03  0.12700000000E+01 0. -1.
         -4    1    3    3    0  502  0.35664424910E+02 -0.86693954587E+02 -0.88616182696E+03  0.89110728278E+03  0.12700000000E+01 0. -1.
          1    1    1    2  503    0 -0.50107293271E+02  0.26791649274E+02 -0.27212186352E+03  0.27799072271E+03  0.00000000000E+00 0. -1.
         -2    1    1    2    0  501 -0.86372971207E+01  0.23353100668E+02 -0.13510632929E+02  0.28328561815E+02  0.00000000000E+00 0.  1.
<mgrwt>
<rscale>  0 0.39907834E+02</rscale>
<asrwt>0</asrwt>
<pdfrwt beam="2">  1        1 0.21025051E+00 0.63963305E+02</pdfrwt>
<pdfrwt beam="1">  1       -2 0.23668861E-02 0.24899201E+02</pdfrwt>
<totfact> 0.38272194E+03</totfact>
</mgrwt>
</event>
<event>
 7    1  0.3113151E-004  0.3646014E+02  0.7546771E-02  0.1574113E+00
         -2   -1    0    0    0  501 -0.00000000000E+00  0.00000000000E+00  0.26672734749E+03  0.26672734749E+03  0.00000000000E+00 0.  1.
          1   -1    0    0  503    0  0.00000000000E+00 -0.00000000000E+00 -0.16545402932E+04  0.16545402932E+04  0.00000000000E+00 0. -1.
         25    2    1    2    0    0 -0.41163562402E+02 -0.88391662554E+01  0.90590093845E+02  0.16001217469E+03  0.12499904486E+03 0.  0.
          4    1    3    3  502    0 -0.10008996857E+02 -0.17604890962E+02  0.11667431102E+03  0.11842558827E+03  0.12700000000E+01 0. -1.
         -4    1    3    3    0  502 -0.31154565545E+02  0.87657247061E+01 -0.26084217179E+02  0.41586586417E+02  0.12700000000E+01 0. -1.
          1    1    1    2  503    0  0.31648066576E+02 -0.18120504620E+02 -0.16181768386E+04  0.16185877281E+04  0.00000000000E+00 0. -1.
         -2    1    1    2    0  501  0.95154958259E+01  0.26959670876E+02  0.13977379905E+03  0.14266773783E+03  0.00000000000E+00 0.  1.
<mgrwt>
<rscale>  0 0.32285954E+02</rscale>
<asrwt>0</asrwt>
<pdfrwt beam="2">  1        1 0.25454466E+00 0.36460137E+02</pdfrwt>
<pdfrwt beam="1">  1       -2 0.41034976E-01 0.28589657E+02</pdfrwt>
<totfact> 0.34439088E+01</totfact>
</mgrwt>
</event>
<event>
 7    1  0.3113151E-004  0.6120237E+02  0.7546771E-02  0.1496785E+00
         -1   -1    0    0    0  501 -0.00000000000E+00  0.00000000000E+00  0.27859772838E+02  0.27859772838E+02  0.00000000000E+00 0.  1.
          2   -1    0    0  503    0  0.00000000000E+00 -0.00000000000E+00 -0.96633502060E+03  0.96633502060E+03  0.00000000000E+00 0. -1.
         25    2    1    2    0    0 -0.60969071564E+02 -0.52903274669E+02 -0.37530673032E+03  0.40372900488E+03  0.12500393351E+03 0.  0.
          4    1    3    3  502    0 -0.16376722469E+02  0.20738482664E+02 -0.25172549989E+03  0.25311187625E+03  0.12700000000E+01 0. -1.
         -4    1    3    3    0  502 -0.44592349094E+02 -0.73641757333E+02 -0.12358123043E+03  0.15061712863E+03  0.12700000000E+01 0. -1.
          2    1    1    2  503    0  0.53495998211E+02  0.25638436059E+02 -0.55870451039E+03  0.56184506864E+03  0.00000000000E+00 0. -1.
         -1    1    1    2    0  501  0.74730733524E+01  0.27264838610E+02 -0.44640070492E+01  0.28620719920E+02  0.00000000000E+00 0.  1.
<mgrwt>
<rscale>  0 0.41595896E+02</rscale>
<asrwt>0</asrwt>
<pdfrwt beam="2">  1        2 0.14866694E+00 0.61202374E+02</pdfrwt>
<pdfrwt beam="1">  1       -1 0.42861184E-02 0.28270448E+02</pdfrwt>
<totfact> 0.58636089E+03</totfact>
</mgrwt>
</event>
<event>
 7    1  0.3113151E-004  0.5198693E+02  0.7546771E-02  0.1503798E+00
         -3   -1    0    0    0  501 -0.00000000000E+00  0.00000000000E+00  0.19835007261E+03  0.19835007261E+03  0.00000000000E+00 0.  1.
          1   -1    0    0  503    0  0.00000000000E+00 -0.00000000000E+00 -0.26690775083E+04  0.26690775083E+04  0.00000000000E+00 0. -1.
         25    2    1    2    0    0 -0.10537191793E+01 -0.26521047440E+02 -0.40460602819E+03  0.42430578706E+03  0.12499954640E+03 0.  0.
          4    1    3    3  502    0  0.61301786362E+02 -0.59028335707E+01 -0.17711743083E+03  0.18752319765E+03  0.12700000000E+01 0. -1.
         -4    1    3    3    0  502 -0.62355505541E+02 -0.20618213869E+02 -0.22748859737E+03  0.23678258941E+03  0.12700000000E+01 0. -1.
          1    1    1    2  503    0 -0.22353978469E+02  0.47922808052E+02 -0.22529749973E+04  0.22535954904E+04  0.00000000000E+00 0. -1.
         -3    1    1    2    0  501  0.23407697648E+02 -0.21401760612E+02  0.18685358981E+03  0.18952630343E+03  0.00000000000E+00 0.  1.
<mgrwt>
<rscale>  0 0.40606149E+02</rscale>
<asrwt>0</asrwt>
<pdfrwt beam="2">  1        1 0.41062735E+00 0.51986932E+02</pdfrwt>
<pdfrwt beam="1">  1       -3 0.30515393E-01 0.31716804E+02</pdfrwt>
<totfact> 0.76598125E+00</totfact>
</mgrwt>
</event>
<event>
 7    1  0.3113151E-004  0.3563636E+02  0.7546771E-02  0.1622688E+00
          3   -1    0    0  503    0  0.00000000000E+00  0.00000000000E+00  0.97285343758E+02  0.97285343758E+02  0.00000000000E+00 0. -1.
         -3   -1    0    0    0  501 -0.00000000000E+00 -0.00000000000E+00 -0.16311944720E+03  0.16311944720E+03  0.00000000000E+00 0.  1.
         25    2    1    2    0    0 -0.75781587942E+01  0.53059819500E+02 -0.70581901628E+02  0.15323252616E+03  0.12500251717E+03 0.  0.
          4    1    3    3  502    0 -0.46694985201E+02 -0.91707851707E+01 -0.63521694184E+02  0.79379742224E+02  0.12700000000E+01 0. -1.
         -4    1    3    3    0  502  0.39116826407E+02  0.62230604671E+02 -0.70602074440E+01  0.73852783935E+02  0.12700000000E+01 0. -1.
          3    1    1    2  503    0 -0.40224698372E+01 -0.34575139718E+02  0.47666975221E+02  0.59023394318E+02  0.00000000000E+00 0. -1.
         -3    1    1    2    0  501  0.11600628631E+02 -0.18484679782E+02 -0.42919177039E+02  0.48148870485E+02  0.00000000000E+00 0.  1.
<mgrwt>
<rscale>  0 0.27887347E+02</rscale>
<asrwt>0</asrwt>
<pdfrwt beam="1">  1        3 0.14966976E-01 0.35636355E+02</pdfrwt>
<pdfrwt beam="2">  1       -3 0.25095299E-01 0.21823335E+02</pdfrwt>
<totfact> 0.89741626E+02</totfact>
</mgrwt>
</event>
<event>
 7    1  0.3113151E-004  0.2237463E+03  0.7546771E-02  0.1257527E+00
         -1   -1    0    0    0  501 -0.00000000000E+00  0.00000000000E+00  0.12224138656E+03  0.12224138656E+03  0.00000000000E+00 0.  1.
          2   -1    0    0  503    0  0.00000000000E+00 -0.00000000000E+00 -0.24580562306E+04  0.24580562306E+04  0.00000000000E+00 0. -1.
         25    2    1    2    0    0  0.51459543305E+02  0.26007057933E+03 -0.60484167456E+03  0.67211845162E+03  0.12499988355E+03 0.  0.
          4    1    3    3  502    0  0.54423800891E+02  0.15986357100E+03 -0.49682717015E+03  0.52474485356E+03  0.12700000000E+01 0.  1.
         -4    1    3    3    0  502 -0.29642575865E+01  0.10020700833E+03 -0.10801450441E+03  0.14737359806E+03  0.12700000000E+01 0.  1.
          2    1    1    2  503    0  0.12463390534E+02 -0.54311427994E+02 -0.16874469421E+04  0.16883667403E+04  0.00000000000E+00 0. -1.
         -1    1    1    2    0  501 -0.63922933838E+02 -0.20575915134E+03 -0.43526227396E+02  0.21981242526E+03  0.00000000000E+00 0.  1.
<mgrwt>
<rscale>  0 0.11165951E+03</rscale>
<asrwt>0</asrwt>
<pdfrwt beam="2">  1        2 0.37816248E+00 0.55723131E+02</pdfrwt>
<pdfrwt beam="1">  1       -1 0.18806368E-01 0.22374635E+03</pdfrwt>
<totfact> 0.13203888E+02</totfact>
</mgrwt>
</event>
<event>
 7    1  0.3113151E-004  0.9288751E+02  0.7546771E-02  0.1423244E+00
          1   -1    0    0  503    0 -0.00000000000E+00  0.00000000000E+00  0.81756718661E+02  0.81756718661E+02  0.00000000000E+00 0. -1.
          2   -1    0    0  502    0  0.00000000000E+00 -0.00000000000E+00 -0.41243749515E+03  0.41243749515E+03  0.00000000000E+00 0.  1.
         25    2    1    2    0    0  0.71101718144E+02  0.10894434144E+02 -0.24329125085E+03  0.28282123086E+03  0.12499229123E+03 0.  0.
          4    1    3    3  501    0  0.19074684024E+02 -0.52867004992E+02 -0.13919461491E+03  0.15011834501E+03  0.12700000000E+01 0.  1.
         -4    1    3    3    0  501  0.52027034119E+02  0.63761439136E+02 -0.10409663595E+03  0.13270288586E+03  0.12700000000E+01 0.  1.
          2    1    1    2  502    0  0.17624745887E+02  0.26456836889E+02 -0.10829228352E+03  0.11286192695E+03  0.00000000000E+00 0.  1.
          1    1    1    2  503    0 -0.88726464031E+02 -0.37351271033E+02  0.20902757878E+02  0.98511056000E+02  0.00000000000E+00 0. -1.
<mgrwt>
<rscale>  0 0.54340427E+02</rscale>
<asrwt>0</asrwt>
<pdfrwt beam="2">  1        2 0.63451921E-01 0.31789871E+02</pdfrwt>
<pdfrwt beam="1">  1        1 0.12577957E-01 0.92887511E+02</pdfrwt>
<totfact> 0.47114257E+03</totfact>
</mgrwt>
</event>
<event>
 7    1  0.3113151E-004  0.7192577E+02  0.7546771E-02  0.1438311E+00
          2   -1    0    0  503    0  0.00000000000E+00  0.00000000000E+00  0.10222489082E+04  0.10222489082E+04  0.00000000000E+00 0. -1.
         -3   -1    0    0    0  501 -0.00000000000E+00 -0.00000000000E+00 -0.27171650267E+03  0.27171650267E+03  0.00000000000E+00 0.  1.
         25    2    1    2    0    0 -0.38834132682E+02 -0.33671509428E+02  0.11989031775E+03  0.18065578524E+03  0.12498385513E+03 0.  0.
          4    1    3    3  502    0  0.34431942974E+02  0.28186312855E+01  0.84829786656E+02  0.91603542417E+02  0.12700000000E+01 0.  1.
         -4    1    3    3    0  502 -0.73266075655E+02 -0.36490140713E+02  0.35060531091E+02  0.89052242822E+02  0.12700000000E+01 0.  1.
          2    1    1    2  503    0  0.26681323659E+02  0.68224535463E+02  0.86903607643E+03  0.87211821584E+03  0.00000000000E+00 0. -1.
         -3    1    1    2    0  501  0.12152809023E+02 -0.34553026035E+02 -0.23839398860E+03  0.24119140983E+03  0.00000000000E+00 0.  1.
<mgrwt>
<rscale>  0 0.51327276E+02</rscale>
<asrwt>0</asrwt>
<pdfrwt beam="1">  1        2 0.15726906E+00 0.71925770E+02</pdfrwt>
<pdfrwt beam="2">  1       -3 0.41802539E-01 0.36627891E+02</pdfrwt>
<totfact> 0.85955462E+01</totfact>
</mgrwt>
</event>
<event>
 7    1  0.3113151E-004  0.5457439E+02  0.7546771E-02  0.1454200E+00
         -2   -1    0    0    0  501 -0.00000000000E+00  0.00000000000E+00  0.22969833633E+02  0.22969833633E+02  0.00000000000E+00 0.  1.
          1   -1    0    0  503    0  0.00000000000E+00 -0.00000000000E+00 -0.62323406146E+03  0.62323406146E+03  0.00000000000E+00 0. -1.
         25    2    1    2    0    0 -0.28624599488E+02  0.52759814704E+02 -0.32778881688E+03  0.35591365452E+03  0.12500422096E+03 0.  0.
          4    1    3    3  502    0 -0.64270798472E+01  0.78445565137E+02 -0.10871882725E+03  0.13422522246E+03  0.12700000000E+01 0.  1.
         -4    1    3    3    0  502 -0.22197519641E+02 -0.25685750433E+02 -0.21906998963E+03  0.22168843207E+03  0.12700000000E+01 0.  1.
          1    1    1    2  503    0  0.42831753291E+02  0.26531952999E+01 -0.11868240718E+03  0.12620266364E+03  0.00000000000E+00 0. -1.
         -2    1    1    2    0  501 -0.14207153802E+02 -0.55413010004E+02 -0.15379300376E+03  0.16408757693E+03  0.00000000000E+00 0.  1.
<mgrwt>
<rscale>  0 0.48394185E+02</rscale>
<asrwt>0</asrwt>
<pdfrwt beam="2">  1        1 0.95882167E-01 0.42913850E+02</pdfrwt>
<pdfrwt beam="1">  1       -2 0.35338204E-02 0.54574390E+02</pdfrwt>
<totfact> 0.87188585E+03</totfact>
</mgrwt>
</event>
<event>
 7    1  0.3113151E-004  0.3262167E+02  0.7546771E-02  0.1580022E+00
          2   -1    0    0  503    0  0.00000000000E+00  0.00000000000E+00  0.17234354845E+04  0.17234354845E+04  0.00000000000E+00 0. -1.
          2   -1    0    0  502    0 -0.00000000000E+00 -0.00000000000E+00 -0.12641190202E+02  0.12641190202E+02  0.00000000000E+00 0. -1.
         25    2    1    2    0    0 -0.12230936558E+02 -0.21887970091E+01  0.54580881966E+03  0.56007640541E+03  0.12499570250E+03 0.  0.
          4    1    3    3  501    0  0.40606466996E+02  0.40505742236E+02  0.26925532481E+03  0.27529918844E+03  0.12700000000E+01 0. -1.
         -4    1    3    3    0  501 -0.52837403554E+02 -0.42694539245E+02  0.27655349485E+03  0.28477721698E+03  0.12700000000E+01 0. -1.
          2    1    1    2  502    0  0.23493541206E+02 -0.26483193660E+02  0.53892114204E+02  0.64479965867E+02  0.00000000000E+00 0. -1.
          2    1    1    2  503    0 -0.11262604648E+02  0.28671990669E+02  0.11110933605E+04  0.11115203035E+04  0.00000000000E+00 0. -1.
<mgrwt>
<rscale>  0 0.31700166E+02</rscale>
<asrwt>0</asrwt>
<pdfrwt beam="1">  1        2 0.26514373E+00 0.30804696E+02</pdfrwt>
<pdfrwt beam="2">  1        2 0.19447999E-02 0.32621666E+02</pdfrwt>
<totfact> 0.84860990E+03</totfact>
</mgrwt>
</event>
<event>
 7    1  0.3113151E-004  0.6393608E+02  0.7546771E-02  0.1481571E+00
         -2   -1    0    0    0  501 -0.00000000000E+00  0.00000000000E+00  0.10827003884E+03  0.10827003884E+03  0.00000000000E+00 0.  1.
          1   -1    0    0  503    0  0.00000000000E+00 -0.00000000000E+00 -0.30158914988E+03  0.30158914988E+03  0.00000000000E+00 0. -1.
         25    2    1    2    0    0  0.48655664127E+02 -0.40441443246E+02 -0.25486820291E+03  0.29083593545E+03  0.12499942604E+03 0.  0.
          4    1    3    3  502    0 -0.26718344633E+02 -0.23007407320E+02 -0.14194385694E+02  0.38030306556E+02  0.12700000000E+01 0.  1.
         -4    1    3    3    0  502  0.75374008760E+02 -0.17434035926E+02 -0.24067381722E+03  0.25280562889E+03  0.12700000000E+01 0.  1.
          1    1    1    2  503    0 -0.30700543197E+02  0.64588810619E+02  0.47199909588E+02  0.85685875586E+02  0.00000000000E+00 0. -1.
         -2    1    1    2    0  501 -0.17955120930E+02 -0.24147367373E+02  0.14349182283E+02  0.33337377684E+02  0.00000000000E+00 0.  1.
<mgrwt>
<rscale>  0 0.43862454E+02</rscale>
<asrwt>0</asrwt>
<pdfrwt beam="2">  1        1 0.46398330E-01 0.63936080E+02</pdfrwt>
<pdfrwt beam="1">  1       -2 0.16656929E-01 0.30091223E+02</pdfrwt>
<totfact> 0.19709992E+03</totfact>
</mgrwt>
</event>
<event>
 7    1  0.3113151E-004  0.8515072E+02  0.7546771E-02  0.1409640E+00
         -3   -1    0    0    0  501 -0.00000000000E+00  0.00000000000E+00  0.43613477551E+02  0.43613477551E+02  0.00000000000E+00 0.  1.
          2   -1    0    0  503    0  0.00000000000E+00 -0.00000000000E+00 -0.76567504609E+03  0.76567504609E+03  0.00000000000E+00 0. -1.
         25    2    1    2    0    0  0.59009007308E+02  0.10350036547E+03 -0.19212488296E+03  0.25832451985E+03  0.12500079323E+03 0.  0.
          4    1    3    3  502    0 -0.39236528614E+02  0.25322399457E+02 -0.44421283431E+02  0.64463884568E+02  0.12700000000E+01 0.  1.
         -4    1    3    3    0  502  0.98245535922E+02  0.78177966017E+02 -0.14770359953E+03  0.19386063528E+03  0.12700000000E+01 0.  1.
          2    1    1    2  503    0 -0.33810238534E+02 -0.74360784069E+02 -0.48475029204E+03  0.49158468657E+03  0.00000000000E+00 0. -1.
         -3    1    1    2    0  501 -0.25198768773E+02 -0.29139581405E+02 -0.45186393543E+02  0.59379317220E+02  0.00000000000E+00 0.  1.
<mgrwt>
<rscale>  0 0.57274257E+02</rscale>
<asrwt>0</asrwt>
<pdfrwt beam="2">  1        2 0.11779616E+00 0.85150724E+02</pdfrwt>
<pdfrwt beam="1">  1       -3 0.67097658E-02 0.38523930E+02</pdfrwt>
<totfact> 0.27096168E+03</totfact>
</mgrwt>
</event>
<event>
 7    1  0.3113151E-004  0.4455802E+02  0.7546771E-02  0.1499383E+00
          1   -1    0    0  503    0  0.00000000000E+00  0.00000000000E+00  0.69674014916E+03  0.69674014916E+03  0.00000000000E+00 0. -1.
         -3   -1    0    0    0  501 -0.00000000000E+00 -0.00000000000E+00 -0.32902420404E+03  0.32902420404E+03  0.00000000000E+00 0.  1.
         25    2    1    2    0    0 -0.19251792448E+02  0.35534330428E+02 -0.34316197060E+02  0.13572895163E+03  0.12494569532E+03 0.  0.
          4    1    3    3  502    0 -0.68778509357E+02  0.16664592454E+01 -0.51466543723E+01  0.69002618697E+02  0.12700000000E+01 0. -1.
         -4    1    3    3    0  502  0.49526716908E+02  0.33867871183E+02 -0.29169542687E+02  0.66726332933E+02  0.12700000000E+01 0. -1.
          1    1    1    2  503    0  0.44234918976E+02 -0.67133930105E+01  0.64376200041E+03  0.64531489281E+03  0.00000000000E+00 0. -1.
         -3    1    1    2    0  501 -0.24983126528E+02 -0.28820937417E+02 -0.24172985824E+03  0.24472050876E+03  0.00000000000E+00 0.  1.
<mgrwt>
<rscale>  0 0.41225315E+02</rscale>
<asrwt>0</asrwt>
<pdfrwt beam="1">  1        1 0.10719079E+00 0.44558017E+02</pdfrwt>
<pdfrwt beam="2">  1       -3 0.50619108E-01 0.38141880E+02</pdfrwt>
<totfact> 0.59038001E+01</totfact>
</mgrwt>
</event>
<event>
 7    1  0.3113151E-004  0.5148956E+02  0.7546771E-02  0.1449237E+00
          3   -1    0    0  503    0  0.00000000000E+00  0.00000000000E+00  0.17807810730E+03  0.17807810730E+03  0.00000000000E+00 0. -1.
         -1   -1    0    0    0  501 -0.00000000000E+00 -0.00000000000E+00 -0.29709163472E+03  0.29709163472E+03  0.00000000000E+00 0.  1.
         25    2    1    2    0    0 -0.65200789922E+02  0.69412919043E+02 -0.56464631151E+02  0.16698413261E+03  0.12500459847E+03 0.  0.
          4    1    3    3  502    0 -0.35164087145E+02  0.10488857832E+03 -0.38752612927E+02  0.11722416472E+03  0.12700000000E+01 0. -1.
         -4    1    3    3    0  502 -0.30036702777E+02 -0.35475659277E+02 -0.17712018223E+02  0.49759967890E+02  0.12700000000E+01 0. -1.
          3    1    1    2  503    0  0.27339304041E+02 -0.38444796177E+02  0.11485310559E+03  0.12416390684E+03  0.00000000000E+00 0. -1.
         -1    1    1    2    0  501  0.37861485881E+02 -0.30968122866E+02 -0.17740200186E+03  0.18402170256E+03  0.00000000000E+00 0.  1.
<mgrwt>
<rscale>  0 0.49284866E+02</rscale>
<asrwt>0</asrwt>
<pdfrwt beam="1">  1        3 0.27396632E-01 0.47174568E+02</pdfrwt>
<pdfrwt beam="2">  1       -1 0.45706405E-01 0.51489564E+02</pdfrwt>
<totfact> 0.25104562E+02</totfact>
</mgrwt>
</event>
<event>
 7    1  0.3113151E-004  0.1108734E+03  0.7546771E-02  0.1460318E+00
          1   -1    0    0  503    0  0.00000000000E+00  0.00000000000E+00  0.12823076309E+04  0.12823076309E+04  0.00000000000E+00 0. -1.
         -3   -1    0    0    0  501 -0.00000000000E+00 -0.00000000000E+00 -0.46625536294E+02  0.46625536294E+02  0.00000000000E+00 0.  1.
         25    2    1    2    0    0  0.80889252010E+02  0.91198019019E+02  0.44467321510E+03  0.47772332793E+03  0.12500064026E+03 0.  0.
          4    1    3    3  502    0  0.90224163746E-01  0.93738010796E+02  0.24053659613E+03  0.25815942707E+03  0.12700000000E+01 0. -1.
         -4    1    3    3    0  502  0.80799027847E+02 -0.25399917773E+01  0.20413661896E+03  0.21956390086E+03  0.12700000000E+01 0. -1.
          1    1    1    2  503    0 -0.20175208989E+02 -0.10329669595E+01  0.72236818037E+03  0.72265060305E+03  0.00000000000E+00 0. -1.
         -3    1    1    2    0  501 -0.60714043022E+02 -0.90165052060E+02  0.68640699115E+02  0.12855923618E+03  0.00000000000E+00 0.  1.
<mgrwt>
<rscale>  0 0.47326772E+02</rscale>
<asrwt>0</asrwt>
<pdfrwt beam="1">  1        1 0.19727807E+00 0.20201636E+02</pdfrwt>
<pdfrwt beam="2">  1       -3 0.71731604E-02 0.11087337E+03</pdfrwt>
<totfact> 0.81319362E+02</totfact>
</mgrwt>
</event>
<event>
 7    1  0.5799680E-004  0.1401458E+03  0.7546771E-02  0.1329126E+00
          1   -1    0    0  503    0  0.00000000000E+00  0.00000000000E+00  0.32076003843E+03  0.32076003843E+03  0.00000000000E+00 0. -1.
         -2   -1    0    0    0  501 -0.00000000000E+00 -0.00000000000E+00 -0.13000037095E+03  0.13000037095E+03  0.00000000000E+00 0.  1.
         25    2    1    2    0    0  0.16800294414E+03 -0.42338469006E+02  0.13179488642E+03  0.25102508016E+03  0.12500465425E+03 0.  0.
          4    1    3    3  502    0  0.96422642153E+02 -0.65837172607E-01  0.13721207952E+03  0.16770837165E+03  0.12700000000E+01 0. -1.
         -4    1    3    3    0  502  0.71580301991E+02 -0.42272631834E+02 -0.54171931071E+01  0.83316708507E+02  0.12700000000E+01 0. -1.
          1    1    1    2  503    0 -0.41404910326E+02  0.19192441855E+02  0.54331902199E+02  0.70955422767E+02  0.00000000000E+00 0. -1.
         -2    1    1    2    0  501 -0.12659803382E+03  0.23146027151E+02  0.46328788627E+01  0.12877990645E+03  0.00000000000E+00 0.  1.
<mgrwt>
<rscale>  0 0.79973761E+02</rscale>
<asrwt>0</asrwt>
<pdfrwt beam="1">  1        1 0.49347698E-01 0.45636788E+02</pdfrwt>
<pdfrwt beam="2">  1       -2 0.20000057E-01 0.14014576E+03</pdfrwt>
<totfact> 0.14630532E+03</totfact>
</mgrwt>
</event>
<event>
 7    1  0.3113151E-004  0.6518510E+02  0.7546771E-02  0.1461218E+00
          1   -1    0    0  503    0  0.00000000000E+00  0.00000000000E+00  0.69633432910E+02  0.69633432910E+02  0.00000000000E+00 0. -1.
         -2   -1    0    0    0  501 -0.00000000000E+00 -0.00000000000E+00 -0.32163793498E+03  0.32163793498E+03  0.00000000000E+00 0.  1.
         25    2    1    2    0    0  0.67351829376E+02  0.10522371202E+02 -0.24825322980E+03  0.28618423340E+03  0.12499904049E+03 0.  0.
          4    1    3    3  502    0  0.87683126894E+02 -0.84388631215E+01 -0.24217107359E+03  0.25769747174E+03  0.12700000000E+01 0. -1.
         -4    1    3    3    0  502 -0.20331297518E+02  0.18961234324E+02 -0.60821562061E+01  0.28486761662E+02  0.12700000000E+01 0. -1.
          1    1    1    2  503    0 -0.15383155211E+02  0.30474757811E+02  0.13457006727E+02  0.36693914453E+02  0.00000000000E+00 0. -1.
         -2    1    1    2    0  501 -0.51968674165E+02 -0.40997129013E+02 -0.17208279000E+02  0.68393220043E+02  0.00000000000E+00 0.  1.
<mgrwt>
<rscale>  0 0.47172454E+02</rscale>
<asrwt>0</asrwt>
<pdfrwt beam="1">  1        1 0.10712836E-01 0.34137257E+02</pdfrwt>
<pdfrwt beam="2">  1       -2 0.49482758E-01 0.65185096E+02</pdfrwt>
<totfact> 0.17712403E+03</totfact>
</mgrwt>
</event>
<event>
 7    1  0.3113151E-004  0.3920794E+02  0.7546771E-02  0.1537893E+00
         -2   -1    0    0    0  501 -0.00000000000E+00  0.00000000000E+00  0.18328550013E+02  0.18328550013E+02  0.00000000000E+00 0.  1.
          1   -1    0    0  503    0  0.00000000000E+00 -0.00000000000E+00 -0.74944111666E+03  0.74944111666E+03  0.00000000000E+00 0. -1.
         25    2    1    2    0    0  0.28062810815E+02 -0.17077829498E+02 -0.27898412241E+03  0.30746687503E+03  0.12499826028E+03 0.  0.
          4    1    3    3  502    0 -0.40120838853E+02 -0.24044838451E+02 -0.50165231061E+02  0.68600286252E+02  0.12700000000E+01 0. -1.
         -4    1    3    3    0  502  0.68183649668E+02  0.69670089528E+01 -0.22881889135E+03  0.23886658878E+03  0.12700000000E+01 0. -1.
          1    1    1    2  503    0  0.22516487758E+02  0.24789436901E+02 -0.13610581739E+03  0.14016526649E+03  0.00000000000E+00 0. -1.
         -2    1    1    2    0  501 -0.50579298573E+02 -0.77116074033E+01 -0.31602262685E+03  0.32013752515E+03  0.00000000000E+00 0.  1.
<mgrwt>
<rscale>  0 0.36235784E+02</rscale>
<asrwt>0</asrwt>
<pdfrwt beam="2">  1        1 0.11529863E+00 0.33488930E+02</pdfrwt>
<pdfrwt beam="1">  1       -2 0.28197771E-02 0.39207943E+02</pdfrwt>
<totfact> 0.90683540E+03</totfact>
</mgrwt>
</event>
<event>
 7    1  0.3113151E-004  0.9575274E+02  0.7546771E-02  0.1405813E+00
          2   -1    0    0  502    0  0.00000000000E+00  0.00000000000E+00  0.20325573926E+03  0.20325573926E+03  0.00000000000E+00 0.  1.
          1   -1    0    0  503    0 -0.00000000000E+00 -0.00000000000E+00 -0.12209807641E+04  0.12209807641E+04  0.00000000000E+00 0. -1.
         25    2    1    2    0    0  0.63326515384E+02  0.21607795225E+02 -0.47919672689E+02  0.14965906632E+03  0.12499758692E+03 0.  0.
          4    1    3    3  501    0  0.36497909717E+02 -0.35876790602E+01  0.40033610229E+02  0.54307197522E+02  0.12700000000E+01 0.  1.
         -4    1    3    3    0  501  0.26828605667E+02  0.25195474285E+02 -0.87953282918E+02  0.95351868795E+02  0.12700000000E+01 0.  1.
          2    1    1    2  502    0 -0.98606676705E+02 -0.20412029592E+02  0.13543816671E+03  0.16877033106E+03  0.00000000000E+00 0.  1.
          1    1    1    2  503    0  0.35280161320E+02 -0.11957656328E+01 -0.11052435188E+04  0.11058071060E+04  0.00000000000E+00 0. -1.
<mgrwt>
<rscale>  0 0.58138731E+02</rscale>
<asrwt>0</asrwt>
<pdfrwt beam="1">  1        2 0.31270114E-01 0.95752743E+02</pdfrwt>
<pdfrwt beam="2">  1        1 0.18784319E+00 0.35300420E+02</pdfrwt>
<totfact> 0.29207982E+02</totfact>
</mgrwt>
</event>
<event>
 7    1  0.3113151E-004  0.6024462E+02  0.7546771E-02  0.1508480E+00
         -2   -1    0    0    0  501 -0.00000000000E+00  0.00000000000E+00  0.13409625738E+02  0.13409625738E+02  0.00000000000E+00 0.  1.
          2   -1    0    0  503    0  0.00000000000E+00 -0.00000000000E+00 -0.24487363383E+04  0.24487363383E+04  0.00000000000E+00 0. -1.
         25    2    1    2    0    0  0.10780467575E+02  0.84859210413E+02 -0.20775795716E+04  0.20830934199E+04  0.12499606323E+03 0.  0.
          4    1    3    3  502    0  0.13163553405E+02  0.34402146721E+02 -0.13744124110E+03  0.14229720479E+03  0.12700000000E+01 0. -1.
         -4    1    3    3    0  502 -0.23830858300E+01  0.50457063692E+02 -0.19401383305E+04  0.19407962151E+04  0.12700000000E+01 0. -1.
          2    1    1    2  503    0 -0.97290702841E+00 -0.26492064511E+02 -0.28044305114E+03  0.28169323911E+03  0.00000000000E+00 0. -1.
         -2    1    1    2    0  501 -0.98075605468E+01 -0.58367145902E+02 -0.77304089883E+02  0.97359305037E+02  0.00000000000E+00 0.  1.
<mgrwt>
<rscale>  0 0.39963487E+02</rscale>
<asrwt>0</asrwt>
<pdfrwt beam="2">  1        2 0.37672843E+00 0.26509923E+02</pdfrwt>
<pdfrwt beam="1">  1       -2 0.20630207E-02 0.60244622E+02</pdfrwt>
<totfact> 0.36015801E+03</totfact>
</mgrwt>
</event>
<event>
 7    1  0.3113151E-004  0.4967538E+02  0.7546771E-02  0.1510038E+00
         -2   -1    0    0    0  501  0.00000000000E+00  0.00000000000E+00  0.95703978174E+03  0.95703978174E+03  0.00000000000E+00 0.  1.
         -1   -1    0    0    0  502 -0.00000000000E+00 -0.00000000000E+00 -0.70002845416E+02  0.70002845416E+02  0.00000000000E+00 0.  1.
         25    2    1    2    0    0  0.92674316738E+00  0.46040429734E+02  0.40800004645E+03  0.42919542598E+03  0.12499638299E+03 0.  0.
          4    1    3    3  503    0 -0.60655792131E+02  0.36267535127E+02  0.20622236191E+03  0.21799939146E+03  0.12700000000E+01 0.  1.
         -4    1    3    3    0  503  0.61582535298E+02  0.97728946069E+01  0.20177768453E+03  0.21119603452E+03  0.12700000000E+01 0.  1.
         -2    1    1    2    0  501  0.30487498682E+02 -0.41023089912E+02  0.53287071496E+03  0.53531633670E+03  0.00000000000E+00 0.  1.
         -1    1    1    2    0  502 -0.31414241850E+02 -0.50173398212E+01 -0.53833825075E+02  0.62530864476E+02  0.00000000000E+00 0.  1.
<mgrwt>
<rscale>  0 0.39752894E+02</rscale>
<asrwt>0</asrwt>
<pdfrwt beam="1">  1       -2 0.14723688E+00 0.49675377E+02</pdfrwt>
<pdfrwt beam="2">  1       -1 0.10769669E-01 0.31812392E+02</pdfrwt>
<totfact> 0.12580997E+02</totfact>
</mgrwt>
</event>
<event>
 7    1  0.3113151E-004  0.6418270E+02  0.7546771E-02  0.1540388E+00
         -2   -1    0    0    0  501 -0.00000000000E+00  0.00000000000E+00  0.51579378993E+02  0.51579378993E+02  0.00000000000E+00 0.  1.
          1   -1    0    0  503    0  0.00000000000E+00 -0.00000000000E+00 -0.32471175933E+03  0.32471175933E+03  0.00000000000E+00 0. -1.
         25    2    1    2    0    0  0.29283537683E+02 -0.51222930041E+02 -0.22775252955E+03  0.26641588133E+03  0.12499957189E+03 0.  0.
          4    1    3    3  502    0  0.71369265222E+02 -0.60072318981E+02 -0.13418489341E+03  0.16343027274E+03  0.12700000000E+01 0. -1.
         -4    1    3    3    0  502 -0.42085727539E+02  0.88493889402E+01 -0.93567636132E+02  0.10298560860E+03  0.12700000000E+01 0. -1.
          1    1    1    2  503    0 -0.17575122452E+02  0.67594792735E+02 -0.53695527895E+02  0.88097392981E+02  0.00000000000E+00 0. -1.
         -2    1    1    2    0  501 -0.11708415231E+02 -0.16371862694E+02  0.83156771000E+01  0.21777864012E+02  0.00000000000E+00 0.  1.
<mgrwt>
<rscale>  0 0.35942331E+02</rscale>
<asrwt>0</asrwt>
<pdfrwt beam="2">  1        1 0.49955654E-01 0.64182705E+02</pdfrwt>
<pdfrwt beam="1">  1       -2 0.79352893E-02 0.20127714E+02</pdfrwt>
<totfact> 0.53343495E+03</totfact>
</mgrwt>
</event>
<event>
 7    1  0.3113151E-004  0.6302772E+02  0.7546771E-02  0.1472707E+00
         -3   -1    0    0    0  501 -0.00000000000E+00  0.00000000000E+00  0.88335697934E+02  0.88335697934E+02  0.00000000000E+00 0.  1.
          3   -1    0    0  503    0  0.00000000000E+00 -0.00000000000E+00 -0.16556840446E+03  0.16556840446E+03  0.00000000000E+00 0. -1.
         25    2    1    2    0    0 -0.32406700487E+02  0.46656575477E+02 -0.34378696747E+02  0.14154298803E+03  0.12500196958E+03 0.  0.
          4    1    3    3  502    0 -0.33032606097E+02  0.74084925662E+02 -0.62368584326E+02  0.10232879598E+03  0.12700000000E+01 0. -1.
         -4    1    3    3    0  502  0.62590561012E+00 -0.27428350185E+02  0.27989887579E+02  0.39214192053E+02  0.12700000000E+01 0. -1.
          3    1    1    2  503    0  0.24502932716E+02  0.21358804921E+02 -0.26558916960E+02  0.41975806477E+02  0.00000000000E+00 0. -1.
         -3    1    1    2    0  501  0.79037677709E+01 -0.68015380398E+02 -0.16295092817E+02  0.70385307882E+02  0.00000000000E+00 0.  1.
<mgrwt>
<rscale>  0 0.45262928E+02</rscale>
<asrwt>0</asrwt>
<pdfrwt beam="2">  1        3 0.25472062E-01 0.32505265E+02</pdfrwt>
<pdfrwt beam="1">  1       -3 0.13590107E-01 0.63027717E+02</pdfrwt>
<totfact> 0.11756047E+03</totfact>
</mgrwt>
</event>
<event>
 7    1  0.3113151E-004  0.1053123E+03  0.7546771E-02  0.1330563E+00
          1   -1    0    0  503    0  0.00000000000E+00  0.00000000000E+00  0.19457203078E+03  0.19457203078E+03  0.00000000000E+00 0. -1.
         -1   -1    0    0    0  501 -0.00000000000E+00 -0.00000000000E+00 -0.42673739581E+03  0.42673739581E+03  0.00000000000E+00 0.  1.
         25    2    1    2    0    0 -0.52218098349E+02  0.23467900324E+00  0.11328782917E+03  0.17656861236E+03  0.12496222535E+03 0.  0.
          4    1    3    3  502    0 -0.38910536803E+02  0.59652060206E+02  0.80170133194E+02  0.10724393371E+03  0.12700000000E+01 0.  1.
         -4    1    3    3    0  502 -0.13307561546E+02 -0.59417381203E+02  0.33117695975E+02  0.69324678650E+02  0.12700000000E+01 0.  1.
          1    1    1    2  503    0 -0.51892629191E+02 -0.30056365539E+02  0.20284326478E+02  0.63306271210E+02  0.00000000000E+00 0. -1.
         -1    1    1    2    0  501  0.10411072754E+03  0.29821686536E+02 -0.36573752067E+03  0.38143454302E+03  0.00000000000E+00 0.  1.
<mgrwt>
<rscale>  0 0.79469682E+02</rscale>
<asrwt>0</asrwt>
<pdfrwt beam="1">  1        1 0.29934159E-01 0.59968576E+02</pdfrwt>
<pdfrwt beam="2">  1       -1 0.65651907E-01 0.10531233E+03</pdfrwt>
<totfact> 0.37035930E+02</totfact>
</mgrwt>
</event>
<event>
 7    1  0.3113151E-004  0.4269512E+02  0.7546771E-02  0.1584586E+00
          1   -1    0    0  503    0  0.00000000000E+00  0.00000000000E+00  0.40805153876E+02  0.40805153876E+02  0.00000000000E+00 0. -1.
         -2   -1    0    0    0  501 -0.00000000000E+00 -0.00000000000E+00 -0.31054840704E+03  0.31054840704E+03  0.00000000000E+00 0.  1.
         25    2    1    2    0    0 -0.35106244678E+02 -0.13209745762E+02 -0.11180134999E+03  0.17181292935E+03  0.12495277122E+03 0.  0.
          4    1    3    3  502    0 -0.78193324712E+02 -0.15904999650E+02 -0.98185930813E+02  0.12652768453E+03  0.12700000000E+01 0. -1.
         -4    1    3    3    0  502  0.43087080034E+02  0.26952538883E+01 -0.13615419174E+02  0.45285244823E+02  0.12700000000E+01 0. -1.
          1    1    1    2  503    0  0.45619201694E+02 -0.71171097521E+01 -0.45605796652E+02  0.64897253430E+02  0.00000000000E+00 0. -1.
         -2    1    1    2    0  501 -0.10512957016E+02  0.20326855514E+02 -0.11233610652E+03  0.11464337813E+03  0.00000000000E+00 0.  1.
<mgrwt>
<rscale>  0 0.31257946E+02</rscale>
<asrwt>0</asrwt>
<pdfrwt beam="1">  1        1 0.62777159E-02 0.42695116E+02</pdfrwt>
<pdfrwt beam="2">  1       -2 0.47776679E-01 0.22884565E+02</pdfrwt>
<totfact> 0.37878194E+03</totfact>
</mgrwt>
</event>
<event>
 7    1  0.3113151E-004  0.7023587E+02  0.7546771E-02  0.1443356E+00
          1   -1    0    0  503    0  0.00000000000E+00  0.00000000000E+00  0.96007669606E+02  0.96007669606E+02  0.00000000000E+00 0. -1.
         -1   -1    0    0    0  501 -0.00000000000E+00 -0.00000000000E+00 -0.11656355601E+04  0.11656355601E+04  0.00000000000E+00 0.  1.
         25    2    1    2    0    0  0.89688388459E+02 -0.74496788620E+01 -0.93072714215E+03  0.94338395795E+03  0.12498309584E+03 0.  0.
          4    1    3    3  502    0  0.29677662371E+02 -0.64600575530E+02 -0.43920326126E+03  0.44492147127E+03  0.12700000000E+01 0.  1.
         -4    1    3    3    0  502  0.60010726088E+02  0.57150896668E+02 -0.49152388090E+03  0.49846248668E+03  0.12700000000E+01 0.  1.
          1    1    1    2  503    0 -0.33997395808E+02 -0.12209104805E+02  0.81997811172E+02  0.89602043497E+02  0.00000000000E+00 0. -1.
         -1    1    1    2    0  501 -0.55690992650E+02  0.19658783667E+02 -0.22089855948E+03  0.22865722822E+03  0.00000000000E+00 0.  1.
<mgrwt>
<rscale>  0 0.50370071E+02</rscale>
<asrwt>0</asrwt>
<pdfrwt beam="1">  1        1 0.14770410E-01 0.36123194E+02</pdfrwt>
<pdfrwt beam="2">  1       -1 0.17932855E+00 0.70235873E+02</pdfrwt>
<totfact> 0.89037384E+01</totfact>
</mgrwt>
</event>
<event>
 7    1  0.3113151E-004  0.9955615E+02  0.7546771E-02  0.1335842E+00
         -1   -1    0    0    0  501 -0.00000000000E+00  0.00000000000E+00  0.23559579461E+03  0.23559579461E+03  0.00000000000E+00 0.  1.
          1   -1    0    0  503    0  0.00000000000E+00 -0.00000000000E+00 -0.16864084709E+03  0.16864084709E+03  0.00000000000E+00 0. -1.
         25    2    1    2    0    0 -0.84832215102E+02 -0.74109436620E+02 -0.89647446426E+02  0.19062937373E+03  0.12495671315E+03 0.  0.
          4    1    3    3  502    0 -0.82940934869E+01 -0.73145012451E+01 -0.88328575322E+02  0.89027209513E+02  0.12700000000E+01 0. -1.
         -4    1    3    3    0  502 -0.76538121616E+02 -0.66794935375E+02 -0.13188711043E+01  0.10160216422E+03  0.12700000000E+01 0. -1.
          1    1    1    2  503    0  0.82607087139E+02  0.13578960503E+02  0.78438414974E+02  0.11472098307E+03  0.00000000000E+00 0. -1.
         -1    1    1    2    0  501  0.22251279631E+01  0.60530476117E+02  0.78163978968E+02  0.98886284901E+02  0.00000000000E+00 0.  1.
<mgrwt>
<rscale>  0 0.77654692E+02</rscale>
<asrwt>0</asrwt>
<pdfrwt beam="2">  1        1 0.25944746E-01 0.99556146E+02</pdfrwt>
<pdfrwt beam="1">  1       -1 0.36245507E-01 0.60571361E+02</pdfrwt>
<totfact> 0.13006388E+03</totfact>
</mgrwt>
</event>
<event>
 7    1  0.3113151E-004  0.8669593E+02  0.7546771E-02  0.1348128E+00
          2   -1    0    0  503    0  0.00000000000E+00  0.00000000000E+00  0.11864859562E+04  0.11864859562E+04  0.00000000000E+00 0. -1.
         -3   -1    0    0    0  501 -0.00000000000E+00 -0.00000000000E+00 -0.37368771982E+03  0.37368771982E+03  0.00000000000E+00 0.  1.
         25    2    1    2    0    0  0.41080491490E+02  0.25631757120E+02  0.30393237600E+03  0.33217924966E+03  0.12499428375E+03 0.  0.
          4    1    3    3  502    0 -0.25616847229E+02 -0.34994981584E+02  0.85534133152E+02  0.95909188465E+02  0.12700000000E+01 0.  1.
         -4    1    3    3    0  502  0.66697338719E+02  0.60626738704E+02  0.21839824285E+03  0.23627006119E+03  0.12700000000E+01 0.  1.
          2    1    1    2  503    0 -0.19848690215E+02  0.59321565555E+02  0.86194848781E+03  0.86421537494E+03  0.00000000000E+00 0. -1.
         -3    1    1    2    0  501 -0.21231801275E+02 -0.84953322675E+02 -0.35308262746E+03  0.36377905139E+03  0.00000000000E+00 0.  1.
<mgrwt>
<rscale>  0 0.73642297E+02</rscale>
<asrwt>0</asrwt>
<pdfrwt beam="1">  1        2 0.18253630E+00 0.62554126E+02</pdfrwt>
<pdfrwt beam="2">  1       -3 0.57490419E-01 0.86695928E+02</pdfrwt>
<totfact> 0.40133124E+01</totfact>
</mgrwt>
</event>
<event>
 7    1  0.3113151E-004  0.2592036E+03  0.7546771E-02  0.1195467E+00
          1   -1    0    0  503    0  0.00000000000E+00  0.00000000000E+00  0.32244024039E+03  0.32244024039E+03  0.00000000000E+00 0. -1.
          1   -1    0    0  502    0 -0.00000000000E+00 -0.00000000000E+00 -0.11210540823E+04  0.11210540823E+04  0.00000000000E+00 0. -1.
         25    2    1    2    0    0 -0.16075168963E+03 -0.10698266714E+03 -0.21344659507E+03  0.31379735685E+03  0.12499174148E+03 0.  0.
          4    1    3    3  501    0 -0.15926319797E+03 -0.52522733361E+02 -0.19277424010E+03  0.25551306091E+03  0.12700000000E+01 0. -1.
         -4    1    3    3    0  501 -0.14884916520E+01 -0.54459933775E+02 -0.20672354968E+02  0.58284295948E+02  0.12700000000E+01 0. -1.
          1    1    1    2  502    0 -0.44211985772E+02 -0.80305595980E+02 -0.78327405670E+03  0.78862027385E+03  0.00000000000E+00 0. -1.
          1    1    1    2  503    0  0.20496367540E+03  0.18728826312E+03  0.19810680983E+03  0.34107669201E+03  0.00000000000E+00 0. -1.
<mgrwt>
<rscale>  0 0.15414802E+03</rscale>
<asrwt>0</asrwt>
<pdfrwt beam="1">  1        1 0.49606190E-01 0.25920356E+03</pdfrwt>
<pdfrwt beam="2">  1        1 0.17246986E+00 0.91671634E+02</pdfrwt>
<totfact> 0.13513714E+02</totfact>
</mgrwt>
</event>
<event>
 7    1  0.3113151E-004  0.1285136E+03  0.7546771E-02  0.1253012E+00
          3   -1    0    0  503    0 -0.00000000000E+00  0.00000000000E+00  0.45597245123E+02  0.45597245123E+02  0.00000000000E+00 0. -1.
          1   -1    0    0  502    0  0.00000000000E+00 -0.00000000000E+00 -0.27315373253E+04  0.27315373253E+04  0.00000000000E+00 0. -1.
         25    2    1    2    0    0  0.17945847262E+03 -0.51432769318E+02 -0.90864465529E+03  0.93600767977E+03  0.12499837538E+03 0.  0.
          4    1    3    3  501    0  0.19884507709E+03 -0.50045198697E+02 -0.82006359056E+03  0.84531047081E+03  0.12700000000E+01 0.  1.
         -4    1    3    3    0  501 -0.19386604468E+02 -0.13875706202E+01 -0.88581064731E+02  0.90697208964E+02  0.12700000000E+01 0.  1.
          1    1    1    2  502    0 -0.94125676446E+02 -0.37853702607E+02 -0.16821891436E+04  0.16852456381E+04  0.00000000000E+00 0. -1.
          3    1    1    2  503    0 -0.85332796175E+02  0.89286471924E+02 -0.95106281318E+02  0.15588125262E+03  0.00000000000E+00 0. -1.
<mgrwt>
<rscale>  0 0.11418400E+03</rscale>
<asrwt>0</asrwt>
<pdfrwt beam="2">  1        1 0.42023665E+00 0.10145218E+03</pdfrwt>
<pdfrwt beam="1">  1        3 0.70149584E-02 0.12851361E+03</pdfrwt>
<totfact> 0.87848326E+01</totfact>
</mgrwt>
</event>
<event>
 7    1  0.6926448E-004  0.4453428E+03  0.7546771E-02  0.1029120E+00
          2   -1    0    0  503    0  0.00000000000E+00  0.00000000000E+00  0.10418193098E+04  0.10418193098E+04  0.00000000000E+00 0. -1.
         -1   -1    0    0    0  501 -0.00000000000E+00 -0.00000000000E+00 -0.47592266216E+02  0.47592266216E+02  0.00000000000E+00 0.  1.
         25    2    1    2    0    0 -0.16923103495E+03 -0.98342634606E+02  0.47907204604E+03  0.53239126755E+03  0.12498007641E+03 0.  0.
          4    1    3    3  502    0  0.59962972483E+01 -0.12072402005E+02 -0.15215409855E+01  0.13624480094E+02  0.12700000000E+01 0. -1.
         -4    1    3    3    0  502 -0.17522733220E+03 -0.86270232601E+02  0.48059358702E+03  0.51876678746E+03  0.12700000000E+01 0. -1.
          2    1    1    2  503    0  0.33220868212E+02  0.28772054485E+02  0.22346405246E+03  0.22774468149E+03  0.00000000000E+00 0. -1.
         -1    1    1    2    0  501  0.13601016674E+03  0.69570580121E+02  0.29169094509E+03  0.32927562698E+03  0.00000000000E+00 0.  1.
<mgrwt>
<rscale>  0 0.44534275E+03</rscale>
<asrwt>0</asrwt>
<pdfrwt beam="1">  1        2 0.16027988E+00 0.44534275E+03</pdfrwt>
<pdfrwt beam="2">  1       -1 0.73218879E-02 0.44534275E+03</pdfrwt>
<totfact> 0.27835414E+03</totfact>
</mgrwt>
</event>
<event>
 7    1  0.3113151E-004  0.9123605E+02  0.7546771E-02  0.1362918E+00
         -1   -1    0    0    0  501 -0.00000000000E+00  0.00000000000E+00  0.32956780270E+03  0.32956780270E+03  0.00000000000E+00 0.  1.
          1   -1    0    0  503    0  0.00000000000E+00 -0.00000000000E+00 -0.10959177409E+03  0.10959177409E+03  0.00000000000E+00 0. -1.
         25    2    1    2    0    0  0.97820867642E+02  0.65462570429E+02  0.23341552497E+03  0.28976444291E+03  0.12500541910E+03 0.  0.
          4    1    3    3  502    0 -0.25041446329E+02  0.30579816477E+02  0.86372115048E+02  0.94994496514E+02  0.12700000000E+01 0.  1.
         -4    1    3    3    0  502  0.12286231397E+03  0.34882753952E+02  0.14704340992E+03  0.19476994640E+03  0.12700000000E+01 0.  1.
          1    1    1    2  503    0 -0.51208490847E+02 -0.11343197892E+02 -0.47046480598E+02  0.70458136577E+02  0.00000000000E+00 0. -1.
         -1    1    1    2    0  501 -0.46612376794E+02 -0.54119372537E+02  0.33606984239E+02  0.78936997307E+02  0.00000000000E+00 0.  1.
<mgrwt>
<rscale>  0 0.69175930E+02</rscale>
<asrwt>0</asrwt>
<pdfrwt beam="2">  1        1 0.16860273E-01 0.52449763E+02</pdfrwt>
<pdfrwt beam="1">  1       -1 0.50702738E-01 0.91236051E+02</pdfrwt>
<totfact> 0.12099522E+03</totfact>
</mgrwt>
</event>
<event>
 7    1  0.3113151E-004  0.8851752E+02  0.7546771E-02  0.1330351E+00
          2   -1    0    0  503    0  0.00000000000E+00  0.00000000000E+00  0.12616869291E+04  0.12616869291E+04  0.00000000000E+00 0. -1.
          2   -1    0    0  502    0 -0.00000000000E+00 -0.00000000000E+00 -0.55488834739E+03  0.55488834739E+03  0.00000000000E+00 0. -1.
         25    2    1    2    0    0 -0.83079867246E+02  0.35285453418E+02 -0.20405928479E+03  0.25574921569E+03  0.12498056670E+03 0.  0.
          4    1    3    3  501    0 -0.13855383586E+02 -0.39994249375E+02 -0.24011120158E+02  0.48679137509E+02  0.12700000000E+01 0.  1.
         -4    1    3    3    0  501 -0.69224483660E+02  0.75279702792E+02 -0.18004816464E+03  0.20707007818E+03  0.12700000000E+01 0.  1.
          2    1    1    2  502    0  0.34211780455E+02 -0.87451118876E+02 -0.31713951510E+03  0.33075008111E+03  0.00000000000E+00 0. -1.
          2    1    1    2  503    0  0.48868086791E+02  0.52165665459E+02  0.12279973816E+04  0.12300759797E+04  0.00000000000E+00 0. -1.
<mgrwt>
<rscale>  0 0.79543731E+02</rscale>
<asrwt>0</asrwt>
<pdfrwt beam="1">  1        2 0.19410568E+00 0.71479693E+02</pdfrwt>
<pdfrwt beam="2">  1        2 0.85367438E-01 0.88517520E+02</pdfrwt>
<totfact> 0.17734355E+02</totfact>
</mgrwt>
</event>
<event>
 7    1  0.3113151E-004  0.1009411E+03  0.7546771E-02  0.1289367E+00
          2   -1    0    0  502    0  0.00000000000E+00  0.00000000000E+00  0.23075905008E+03  0.23075905008E+03  0.00000000000E+00 0. -1.
          1   -1    0    0  503    0 -0.00000000000E+00 -0.00000000000E+00 -0.82221832741E+03  0.82221832741E+03  0.00000000000E+00 0. -1.
         25    2    1    2    0    0  0.10821391908E+02  0.33031095530E+02 -0.36674498305E+03  0.38902034242E+03  0.12500715351E+03 0.  0.
          4    1    3    3  501    0 -0.21224555135E+02  0.53476012387E+02 -0.73645909043E+02  0.93463888537E+02  0.12700000000E+01 0. -1.
         -4    1    3    3    0  501  0.32045947043E+02 -0.20444916858E+02 -0.29309907401E+03  0.29555645388E+03  0.12700000000E+01 0. -1.
          2    1    1    2  502    0 -0.10116986943E+03 -0.22718606610E+02  0.20232263201E+03  0.22734538700E+03  0.00000000000E+00 0. -1.
          1    1    1    2  503    0  0.90348477519E+02 -0.10312488920E+02 -0.42703692629E+03  0.43661164807E+03  0.00000000000E+00 0. -1.
<mgrwt>
<rscale>  0 0.95807589E+02</rscale>
<asrwt>0</asrwt>
<pdfrwt beam="1">  1        2 0.35501392E-01 0.10094114E+03</pdfrwt>
<pdfrwt beam="2">  1        1 0.12649513E+00 0.90935113E+02</pdfrwt>
<totfact> 0.45689635E+02</totfact>
</mgrwt>
</event>
<event>
 7    1  0.3113151E-004  0.3359618E+02  0.7546771E-02  0.1633684E+00
         -2   -1    0    0    0  501 -0.00000000000E+00  0.00000000000E+00  0.24577499397E+03  0.24577499397E+03  0.00000000000E+00 0.  1.
          1   -1    0    0  503    0  0.00000000000E+00 -0.00000000000E+00 -0.43358914357E+02  0.43358914357E+02  0.00000000000E+00 0. -1.
         25    2    1    2    0    0  0.62198849706E+01  0.12891586224E+02  0.11504500307E+03  0.17048929515E+03  0.12500546813E+03 0.  0.
          4    1    3    3  502    0 -0.10935762539E+02  0.61881485682E+02  0.27285261787E+02  0.68520125389E+02  0.12700000000E+01 0. -1.
         -4    1    3    3    0  502  0.17155647510E+02 -0.48989899458E+02  0.87759741287E+02  0.10196916976E+03  0.12700000000E+01 0. -1.
          1    1    1    2  503    0  0.82056989887E+01  0.20107562965E+02 -0.24664919411E+01  0.21857062172E+02  0.00000000000E+00 0. -1.
         -2    1    1    2    0  501 -0.14425583959E+02 -0.32999149189E+02  0.89837568481E+02  0.96787551009E+02  0.00000000000E+00 0.  1.
<mgrwt>
<rscale>  0 0.27011541E+02</rscale>
<asrwt>0</asrwt>
<pdfrwt beam="2">  1        1 0.66706023E-02 0.21717449E+02</pdfrwt>
<pdfrwt beam="1">  1       -2 0.37811537E-01 0.33596182E+02</pdfrwt>
<totfact> 0.50491599E+03</totfact>
</mgrwt>
</event>
<event>
 7    1  0.3113151E-004  0.1312586E+03  0.7546771E-02  0.1246571E+00
          2   -1    0    0  503    0  0.00000000000E+00  0.00000000000E+00  0.29190536897E+03  0.29190536897E+03  0.00000000000E+00 0.  1.
          2   -1    0    0  502    0 -0.00000000000E+00 -0.00000000000E+00 -0.27840518381E+03  0.27840518381E+03  0.00000000000E+00 0. -1.
         25    2    1    2    0    0  0.51286184238E+02 -0.16326458248E+03  0.40004115054E+01  0.21195814564E+03  0.12499862248E+03 0.  0.
          4    1    3    3  501    0 -0.11158769847E+02  0.73487755068E+01 -0.24611061559E+02  0.28032836050E+02  0.12700000000E+01 0.  1.
         -4    1    3    3    0  501  0.62444954085E+02 -0.17061335799E+03  0.28611473065E+02  0.18392530959E+03  0.12700000000E+01 0.  1.
          2    1    1    2  502    0 -0.10596391386E+03  0.72532361246E+02 -0.13030607943E+03  0.18294526177E+03  0.00000000000E+00 0. -1.
          2    1    1    2  503    0  0.54677729621E+02  0.90732221238E+02  0.13980585309E+03  0.17540714536E+03  0.00000000000E+00 0.  1.
<mgrwt>
<rscale>  0 0.11791836E+03</rscale>
<asrwt>0</asrwt>
<pdfrwt beam="1">  1        2 0.44908518E-01 0.10593389E+03</pdfrwt>
<pdfrwt beam="2">  1        2 0.42831567E-01 0.13125864E+03</pdfrwt>
<totfact> 0.20399673E+03</totfact>
</mgrwt>
</event>
<event>
 7    1  0.3113151E-004  0.8768467E+02  0.7546771E-02  0.1485479E+00
          2   -1    0    0  503    0  0.00000000000E+00  0.00000000000E+00  0.10738845808E+04  0.10738845808E+04  0.00000000000E+00 0. -1.
         -1   -1    0    0    0  501 -0.00000000000E+00 -0.00000000000E+00 -0.22529562245E+02  0.22529562245E+02  0.00000000000E+00 0.  1.
         25    2    1    2    0    0 -0.50551434669E+02  0.60493088647E+02  0.28059544551E+03  0.31714123068E+03  0.12501957781E+03 0.  0.
          4    1    3    3  502    0 -0.50228064736E+02 -0.20803212531E+02  0.17864857932E+03  0.18674196083E+03  0.12700000000E+01 0.  1.
         -4    1    3    3    0  502 -0.32336993355E+00  0.81296301178E+02  0.10194686618E+03  0.13039926985E+03  0.12700000000E+01 0.  1.
          2    1    1    2  503    0  0.70973378580E+02 -0.54278019717E+02  0.68913620184E+03  0.69490433052E+03  0.00000000000E+00 0. -1.
         -1    1    1    2    0  501 -0.20421943911E+02 -0.62150689296E+01  0.81623371166E+02  0.84368581803E+02  0.00000000000E+00 0.  1.
<mgrwt>
<rscale>  0 0.43264084E+02</rscale>
<asrwt>0</asrwt>
<pdfrwt beam="1">  1        2 0.16521297E+00 0.87684671E+02</pdfrwt>
<pdfrwt beam="2">  1       -1 0.34660873E-02 0.21346730E+02</pdfrwt>
<totfact> 0.64172452E+03</totfact>
</mgrwt>
</event>
<event>
 7    1  0.3113151E-004  0.4041137E+02  0.7546771E-02  0.1575064E+00
          1   -1    0    0  503    0  0.00000000000E+00  0.00000000000E+00  0.54637913831E+03  0.54637913831E+03  0.00000000000E+00 0. -1.
         -2   -1    0    0    0  501 -0.00000000000E+00 -0.00000000000E+00 -0.24425357286E+02  0.24425357286E+02  0.00000000000E+00 0.  1.
         25    2    1    2    0    0 -0.83411080098E+01  0.46799992096E+02  0.35675325834E+03  0.38099512031E+03  0.12499832407E+03 0.  0.
          4    1    3    3  502    0 -0.69044272779E+01  0.35404170265E+02  0.36501144497E+03  0.36679162238E+03  0.12700000000E+01 0. -1.
         -4    1    3    3    0  502 -0.14366807318E+01  0.11395821831E+02 -0.82581866376E+01  0.14203497924E+02  0.12700000000E+01 0. -1.
          1    1    1    2  503    0 -0.15407950041E+02 -0.37129982474E+02  0.15820137368E+03  0.16322902670E+03  0.00000000000E+00 0. -1.
         -2    1    1    2    0  501  0.23749058051E+02 -0.96700096226E+01  0.69991490092E+01  0.26580348592E+02  0.00000000000E+00 0.  1.
<mgrwt>
<rscale>  0 0.32190679E+02</rscale>
<asrwt>0</asrwt>
<pdfrwt beam="1">  1        1 0.84058320E-01 0.40411366E+02</pdfrwt>
<pdfrwt beam="2">  1       -2 0.37577477E-02 0.25642286E+02</pdfrwt>
<totfact> 0.85261701E+03</totfact>
</mgrwt>
</event>
<event>
 7    1  0.3113151E-004  0.7108678E+02  0.7546771E-02  0.1509586E+00
          2   -1    0    0  503    0  0.00000000000E+00  0.00000000000E+00  0.23209178693E+04  0.23209178693E+04  0.00000000000E+00 0. -1.
         -1   -1    0    0    0  501 -0.00000000000E+00 -0.00000000000E+00 -0.65740634351E+01  0.65740634351E+01  0.00000000000E+00 0.  1.
         25    2    1    2    0    0 -0.53444381628E+02  0.15629656982E+02  0.98070302754E+03  0.99020460986E+03  0.12500461211E+03 0.  0.
          4    1    3    3  502    0 -0.23116704697E+02 -0.22889527216E+01  0.91783132551E+03  0.91812612224E+03  0.12700000000E+01 0.  1.
         -4    1    3    3    0  502 -0.30327676931E+02  0.17918609704E+02  0.62871702031E+02  0.72078487623E+02  0.12700000000E+01 0.  1.
          2    1    1    2  503    0  0.69219758472E+02 -0.31389376735E+02  0.97866761839E+03  0.98161447382E+03  0.00000000000E+00 0. -1.
         -1    1    1    2    0  501 -0.15775376844E+02  0.15759719753E+02  0.35497315992E+03  0.35567284904E+03  0.00000000000E+00 0.  1.
<mgrwt>
<rscale>  0 0.39813837E+02</rscale>
<asrwt>0</asrwt>
<pdfrwt beam="1">  1        2 0.35706363E+00 0.71086780E+02</pdfrwt>
<pdfrwt beam="2">  1       -1 0.10113962E-02 0.22298683E+02</pdfrwt>
<totfact> 0.81050993E+03</totfact>
</mgrwt>
</event>
<event>
 7    1  0.3113151E-004  0.2030607E+03  0.7546771E-02  0.1325229E+00
         -2   -1    0    0    0  501 -0.00000000000E+00  0.00000000000E+00  0.17604493008E+03  0.17604493008E+03  0.00000000000E+00 0.  1.
          2   -1    0    0  503    0  0.00000000000E+00 -0.00000000000E+00 -0.89219831002E+03  0.89219831002E+03  0.00000000000E+00 0. -1.
         25    2    1    2    0    0 -0.34762632595E+02 -0.19581727763E+03 -0.25830588035E+03  0.34914174999E+03  0.12500074767E+03 0.  0.
          4    1    3    3  502    0  0.51316385583E+01  0.14330692343E+02 -0.43042228213E+02  0.45672188111E+02  0.12700000000E+01 0.  1.
         -4    1    3    3    0  502 -0.39894271153E+02 -0.21014796998E+03 -0.21526365214E+03  0.30346956188E+03  0.12700000000E+01 0.  1.
          2    1    1    2  503    0 -0.32505357433E+02  0.24861172341E+01 -0.50743518549E+03  0.50848131383E+03  0.00000000000E+00 0. -1.
         -2    1    1    2    0  501  0.67267990028E+02  0.19333116040E+03  0.49587685893E+02  0.21062017628E+03  0.00000000000E+00 0.  1.
<mgrwt>
<rscale>  0 0.81362386E+02</rscale>
<asrwt>0</asrwt>
<pdfrwt beam="2">  1        2 0.13726128E+00 0.32600292E+02</pdfrwt>
<pdfrwt beam="1">  1       -2 0.27083835E-01 0.20306069E+03</pdfrwt>
<totfact> 0.41614881E+02</totfact>
</mgrwt>
</event>
<event>
 7    1  0.3113151E-004  0.2979181E+02  0.7546771E-02  0.1644452E+00
         -1   -1    0    0    0  501 -0.00000000000E+00  0.00000000000E+00  0.11017522875E+02  0.11017522875E+02  0.00000000000E+00 0.  1.
          2   -1    0    0  503    0  0.00000000000E+00 -0.00000000000E+00 -0.98297276857E+03  0.98297276857E+03  0.00000000000E+00 0. -1.
         25    2    1    2    0    0 -0.93885611481E+01  0.35900735428E+01 -0.57687556090E+03  0.59034858265E+03  0.12500001028E+03 0.  0.
          4    1    3    3  502    0  0.46959657128E+02 -0.33147598121E+02 -0.23656725295E+03  0.24345359050E+03  0.12700000000E+01 0.  1.
         -4    1    3    3    0  502 -0.56348218276E+02  0.36737671664E+02 -0.34030830795E+03  0.34689499215E+03  0.12700000000E+01 0.  1.
          2    1    1    2  503    0  0.31913095193E+02  0.11925697738E+01 -0.36160166093E+03  0.36300913081E+03  0.00000000000E+00 0. -1.
         -1    1    1    2    0  501 -0.22524534045E+02 -0.47826433166E+01 -0.33478023863E+02  0.40632577974E+02  0.00000000000E+00 0.  1.
<mgrwt>
<rscale>  0 0.26191730E+02</rscale>
<asrwt>0</asrwt>
<pdfrwt beam="2">  1        2 0.15122655E+00 0.29791811E+02</pdfrwt>
<pdfrwt beam="1">  1       -1 0.16950038E-02 0.23026687E+02</pdfrwt>
<totfact> 0.20634294E+04</totfact>
</mgrwt>
</event>
<event>
 7    1  0.3113151E-004  0.1373459E+03  0.7546771E-02  0.1239429E+00
         -1   -1    0    0    0  501  0.00000000000E+00  0.00000000000E+00  0.21114873930E+03  0.21114873930E+03  0.00000000000E+00 0.  1.
         -1   -1    0    0    0  502 -0.00000000000E+00 -0.00000000000E+00 -0.22486345618E+04  0.22486345618E+04  0.00000000000E+00 0.  1.
         25    2    1    2    0    0  0.25314990243E+02  0.45159209973E+02 -0.14869063897E+03  0.20103228224E+03  0.12499947762E+03 0.  0.
          4    1    3    3  503    0 -0.32785949936E+02 -0.24470617513E+02 -0.26118926512E+02  0.48554514278E+02  0.12700000000E+01 0. -1.
         -4    1    3    3    0  503  0.58100940179E+02  0.69629827487E+02 -0.12257171246E+03  0.15247776796E+03  0.12700000000E+01 0. -1.
         -1    1    1    2    0  502 -0.11753253004E+02  0.10817917880E+03 -0.20400438101E+04  0.20429438614E+04  0.00000000000E+00 0.  1.
         -1    1    1    2    0  501 -0.13561737239E+02 -0.15333838877E+03  0.15124862656E+03  0.21580715749E+03  0.00000000000E+00 0.  1.
<mgrwt>
<rscale>  0 0.12225138E+03</rscale>
<asrwt>0</asrwt>
<pdfrwt beam="1">  1       -1 0.32484421E-01 0.13734589E+03</pdfrwt>
<pdfrwt beam="2">  1       -1 0.34594378E+00 0.10881578E+03</pdfrwt>
<totfact> 0.16914758E+00</totfact>
</mgrwt>
</event>
<event>
 7    1  0.3113151E-004  0.1179268E+03  0.7546771E-02  0.1313336E+00
         -3   -1    0    0    0  501 -0.00000000000E+00  0.00000000000E+00  0.78450276389E+03  0.78450276389E+03  0.00000000000E+00 0.  1.
          1   -1    0    0  503    0  0.00000000000E+00 -0.00000000000E+00 -0.67854475977E+02  0.67854475977E+02  0.00000000000E+00 0. -1.
         25    2    1    2    0    0 -0.76022115466E+02 -0.16400520286E+02  0.19564071334E+03  0.24484315036E+03  0.12499816182E+03 0.  0.
          4    1    3    3  502    0 -0.71153818620E+02  0.18088938534E+02  0.36630573123E+02  0.82057829540E+02  0.12700000000E+01 0. -1.
         -4    1    3    3    0  502 -0.48682968462E+01 -0.34489458820E+02  0.15901014022E+03  0.16278532082E+03  0.12700000000E+01 0. -1.
          1    1    1    2  503    0 -0.39017958127E+02 -0.48742378728E+02 -0.73508900648E+01  0.62866971656E+02  0.00000000000E+00 0. -1.
         -3    1    1    2    0  501  0.11504007359E+03  0.65142899014E+02  0.52835846464E+03  0.54464711785E+03  0.00000000000E+00 0.  1.
<mgrwt>
<rscale>  0 0.85807013E+02</rscale>
<asrwt>0</asrwt>
<pdfrwt beam="2">  1        1 0.10439151E-01 0.62435731E+02</pdfrwt>
<pdfrwt beam="1">  1       -3 0.12069273E+00 0.11792676E+03</pdfrwt>
<totfact> 0.17396963E+02</totfact>
</mgrwt>
</event>
<event>
 7    1  0.3113151E-004  0.2000918E+03  0.7546771E-02  0.1157622E+00
          2   -1    0    0  503    0  0.00000000000E+00  0.00000000000E+00  0.13454550372E+03  0.13454550372E+03  0.00000000000E+00 0. -1.
          2   -1    0    0  502    0 -0.00000000000E+00 -0.00000000000E+00 -0.12398947964E+04  0.12398947964E+04  0.00000000000E+00 0. -1.
         25    2    1    2    0    0 -0.18240823830E+03  0.33148023392E+02 -0.67247912135E+03  0.70867928755E+03  0.12500642820E+03 0.  0.
          4    1    3    3  501    0 -0.19909607431E+02  0.46170065367E+02 -0.82790549054E+02  0.96870817673E+02  0.12700000000E+01 0. -1.
         -4    1    3    3    0  501 -0.16249863087E+03 -0.13022041975E+02 -0.58968857230E+03  0.61180846988E+03  0.12700000000E+01 0. -1.
          2    1    1    2  502    0  0.17083301545E+03  0.16660873421E+03 -0.39594139370E+03  0.46228992713E+03  0.00000000000E+00 0. -1.
          2    1    1    2  503    0  0.11575222849E+02 -0.19975675761E+03 -0.36928777638E+02  0.20347108544E+03  0.00000000000E+00 0. -1.
<mgrwt>
<rscale>  0 0.19093393E+03</rscale>
<asrwt>0</asrwt>
<pdfrwt beam="1">  1        2 0.20699309E-01 0.20009185E+03</pdfrwt>
<pdfrwt beam="2">  1        2 0.19075304E+00 0.18219516E+03</pdfrwt>
<totfact> 0.79594245E+02</totfact>
</mgrwt>
</event>
<event>
 7    1  0.3113151E-004  0.9717598E+02  0.7546771E-02  0.1373440E+00
         -1   -1    0    0    0  501 -0.00000000000E+00  0.00000000000E+00  0.39394981513E+03  0.39394981513E+03  0.00000000000E+00 0.  1.
          2   -1    0    0  503    0  0.00000000000E+00 -0.00000000000E+00 -0.20632796243E+04  0.20632796243E+04  0.00000000000E+00 0. -1.
         25    2    1    2    0    0 -0.49182158159E+02 -0.94776406823E+02 -0.11799035648E+04  0.11912998942E+04  0.12498625351E+03 0.  0.
          4    1    3    3  502    0  0.17949122317E+02  0.21807131372E+02 -0.27507859263E+03  0.27652769661E+03  0.12700000000E+01 0. -1.
         -4    1    3    3    0  502 -0.67131280477E+02 -0.11658353819E+03 -0.90482497220E+03  0.91477219755E+03  0.12700000000E+01 0. -1.
          2    1    1    2  503    0  0.45066058302E+02 -0.23141478269E+01 -0.87100385708E+03  0.87217201511E+03  0.00000000000E+00 0. -1.
         -1    1    1    2    0  501  0.41160998570E+01  0.97090554650E+02  0.38157761269E+03  0.39375753020E+03  0.00000000000E+00 0.  1.
<mgrwt>
<rscale>  0 0.66220150E+02</rscale>
<asrwt>0</asrwt>
<pdfrwt beam="2">  1        2 0.31742764E+00 0.45125435E+02</pdfrwt>
<pdfrwt beam="1">  1       -1 0.60607663E-01 0.97175978E+02</pdfrwt>
<totfact> 0.28186012E+01</totfact>
</mgrwt>
</event>
<event>
 7    1  0.3113151E-004  0.2106358E+03  0.7546771E-02  0.1218426E+00
         -1   -1    0    0    0  502 -0.00000000000E+00  0.00000000000E+00  0.40150235442E+03  0.40150235442E+03  0.00000000000E+00 0.  1.
         -2   -1    0    0    0  501  0.00000000000E+00 -0.00000000000E+00 -0.19183870125E+03  0.19183870125E+03  0.00000000000E+00 0.  1.
         25    2    1    2    0    0  0.10748588084E+03 -0.18071155681E+03  0.60797718459E+02  0.25205096048E+03  0.12499377090E+03 0.  0.
          4    1    3    3  503    0  0.51883775031E+02 -0.13281410902E+03 -0.18741217086E+02  0.14382058192E+03  0.12700000000E+01 0. -1.
         -4    1    3    3    0  503  0.55602105813E+02 -0.47897447797E+02  0.79538935545E+02  0.10823037856E+03  0.12700000000E+01 0. -1.
         -2    1    1    2    0  501 -0.80541346082E+02 -0.35876892360E+02  0.32667387537E+02  0.94027751449E+02  0.00000000000E+00 0.  1.
         -1    1    1    2    0  502 -0.26944534762E+02  0.21658844917E+03  0.11619854718E+03  0.24726234375E+03  0.00000000000E+00 0.  1.
<mgrwt>
<rscale>  0 0.13627872E+03</rscale>
<asrwt>0</asrwt>
<pdfrwt beam="2">  1       -2 0.29513646E-01 0.88170629E+02</pdfrwt>
<pdfrwt beam="1">  1       -1 0.61769593E-01 0.21063578E+03</pdfrwt>
<totfact> 0.21207321E+02</totfact>
</mgrwt>
</event>
<event>
 7    1  0.3113151E-004  0.6240358E+02  0.7546771E-02  0.1400449E+00
         -1   -1    0    0    0  501 -0.00000000000E+00  0.00000000000E+00  0.60822372149E+02  0.60822372149E+02  0.00000000000E+00 0.  1.
          2   -1    0    0  503    0  0.00000000000E+00 -0.00000000000E+00 -0.56008881874E+03  0.56008881874E+03  0.00000000000E+00 0. -1.
         25    2    1    2    0    0 -0.14132839665E+01 -0.15289877720E+02 -0.17566601806E+03  0.21614580628E+03  0.12499872774E+03 0.  0.
          4    1    3    3  502    0 -0.21029679999E+02 -0.64522674761E+02 -0.12787158008E+03  0.14476939211E+03  0.12700000000E+01 0. -1.
         -4    1    3    3    0  502  0.19616396033E+02  0.49232797040E+02 -0.47794437980E+02  0.71376414169E+02  0.12700000000E+01 0. -1.
          2    1    1    2  503    0  0.63619895923E+02  0.10335693577E+02 -0.33515909426E+03  0.34130036066E+03  0.00000000000E+00 0. -1.
         -1    1    1    2    0  501 -0.62206611957E+02  0.49541841436E+01  0.11558665734E+02  0.63465023952E+02  0.00000000000E+00 0.  1.
<mgrwt>
<rscale>  0 0.59380735E+02</rscale>
<asrwt>0</asrwt>
<pdfrwt beam="2">  1        2 0.86167508E-01 0.56504320E+02</pdfrwt>
<pdfrwt beam="1">  1       -1 0.93572883E-02 0.62403578E+02</pdfrwt>
<totfact> 0.39318731E+03</totfact>
</mgrwt>
</event>
<event>
 7    1  0.3113151E-004  0.1243415E+03  0.7546771E-02  0.1360913E+00
         -1   -1    0    0    0  502 -0.00000000000E+00  0.00000000000E+00  0.40732430240E+03  0.40732430240E+03  0.00000000000E+00 0.  1.
         -2   -1    0    0    0  501  0.00000000000E+00 -0.00000000000E+00 -0.18416161066E+03  0.18416161066E+03  0.00000000000E+00 0. -1.
         25    2    1    2    0    0 -0.68887708007E+02 -0.12670650393E+03 -0.65992607443E+02  0.20193364015E+03  0.12498846480E+03 0.  0.
          4    1    3    3  503    0 -0.56553341804E+01 -0.31759905340E+02 -0.80689449843E+02  0.86908426564E+02  0.12700000000E+01 0. -1.
         -4    1    3    3    0  503 -0.63232373827E+02 -0.94946598588E+02  0.14696842400E+02  0.11502521358E+03  0.12700000000E+01 0. -1.
         -2    1    1    2    0  501  0.61042143139E+02  0.88363877531E+02  0.10218209087E+02  0.10788294531E+03  0.00000000000E+00 0. -1.
         -1    1    1    2    0  502  0.78455648684E+01  0.38342626397E+02  0.27893709009E+03  0.28166932760E+03  0.00000000000E+00 0.  1.
<mgrwt>
<rscale>  0 0.69759310E+02</rscale>
<asrwt>0</asrwt>
<pdfrwt beam="2">  1       -2 0.28332556E-01 0.12434150E+03</pdfrwt>
<pdfrwt beam="1">  1       -1 0.62665277E-01 0.39137065E+02</pdfrwt>
<totfact> 0.22974292E+02</totfact>
</mgrwt>
</event>
<event>
 7    1  0.3113151E-004  0.2046121E+03  0.7546771E-02  0.1209082E+00
         -2   -1    0    0    0  501  0.00000000000E+00  0.00000000000E+00  0.19080833023E+03  0.19080833023E+03  0.00000000000E+00 0.  1.
         -2   -1    0    0    0  502 -0.00000000000E+00 -0.00000000000E+00 -0.55378811567E+03  0.55378811567E+03  0.00000000000E+00 0.  1.
         25    2    1    2    0    0 -0.75665585650E+02 -0.15725403626E+03 -0.34922730922E+02  0.21748139696E+03  0.12499779245E+03 0.  0.
          4    1    3    3  503    0  0.17004329047E+02 -0.86699528732E+02 -0.47512285730E+02  0.10032440224E+03  0.12700000000E+01 0. -1.
         -4    1    3    3    0  503 -0.92669914697E+02 -0.70554507527E+02  0.12589554808E+02  0.11715699472E+03  0.12700000000E+01 0. -1.
         -2    1    1    2    0  502 -0.96196351279E+02 -0.28130815817E+02 -0.23888113353E+03  0.25905458258E+03  0.00000000000E+00 0.  1.
         -2    1    1    2    0  501  0.17186193693E+03  0.18538485208E+03 -0.89175920993E+02  0.26806046637E+03  0.00000000000E+00 0.  1.
<mgrwt>
<rscale>  0 0.14320361E+03</rscale>
<asrwt>0</asrwt>
<pdfrwt beam="1">  1       -2 0.29355128E-01 0.20461205E+03</pdfrwt>
<pdfrwt beam="2">  1       -2 0.85198171E-01 0.10022515E+03</pdfrwt>
<totfact> 0.87817241E+01</totfact>
</mgrwt>
</event>
<event>
 7    1  0.3113151E-004  0.4654521E+02  0.7546771E-02  0.1585567E+00
         -2   -1    0    0    0  501 -0.00000000000E+00  0.00000000000E+00  0.64126774751E+03  0.64126774751E+03  0.00000000000E+00 0. -1.
          2   -1    0    0  503    0  0.00000000000E+00 -0.00000000000E+00 -0.13211257618E+03  0.13211257618E+03  0.00000000000E+00 0. -1.
         25    2    1    2    0    0  0.49653138614E+02 -0.33445361995E+02  0.19692784235E+01  0.13864351246E+03  0.12503647098E+03 0.  0.
          4    1    3    3  502    0  0.17025065289E+02 -0.79850367725E+02  0.51108583528E+01  0.81814838794E+02  0.12700000000E+01 0.  1.
         -4    1    3    3    0  502  0.32628073325E+02  0.46405005730E+02 -0.31415799292E+01  0.56828673662E+02  0.12700000000E+01 0.  1.
          2    1    1    2  503    0 -0.51822270043E+01  0.20211950335E+02 -0.61097608821E+02  0.64562343643E+02  0.00000000000E+00 0. -1.
         -2    1    1    2    0  501 -0.44470911610E+02  0.13233411659E+02  0.56828350172E+03  0.57017446759E+03  0.00000000000E+00 0. -1.
<mgrwt>
<rscale>  0 0.31164073E+02</rscale>
<asrwt>0</asrwt>
<pdfrwt beam="2">  1        2 0.20325012E-01 0.20865723E+02</pdfrwt>
<pdfrwt beam="1">  1       -2 0.98656575E-01 0.46545210E+02</pdfrwt>
<totfact> 0.22849388E+02</totfact>
</mgrwt>
</event>
<event>
 7    1  0.3113151E-004  0.5256601E+02  0.7546771E-02  0.1442735E+00
          1   -1    0    0  503    0 -0.00000000000E+00  0.00000000000E+00  0.56472854305E+03  0.56472854305E+03  0.00000000000E+00 0. -1.
          2   -1    0    0  502    0  0.00000000000E+00 -0.00000000000E+00 -0.18017432495E+03  0.18017432495E+03  0.00000000000E+00 0. -1.
         25    2    1    2    0    0  0.75241289506E+02 -0.19612405726E+02 -0.13122686710E+02  0.14779336926E+03  0.12499910794E+03 0.  0.
          4    1    3    3  501    0  0.96078575813E+02 -0.18160415604E+02  0.27943936223E+02  0.10170235935E+03  0.12700000000E+01 0. -1.
         -4    1    3    3    0  501 -0.20837286307E+02 -0.14519901219E+01 -0.41066622932E+02  0.46091009915E+02  0.12700000000E+01 0. -1.
          2    1    1    2  502    0 -0.47388840251E+02 -0.20079620430E+02 -0.91796510324E+02  0.10524016650E+03  0.00000000000E+00 0. -1.
          1    1    1    2  503    0 -0.27852449256E+02  0.39692026156E+02  0.48947341514E+03  0.49186933224E+03  0.00000000000E+00 0. -1.
<mgrwt>
<rscale>  0 0.50486541E+02</rscale>
<asrwt>0</asrwt>
<pdfrwt beam="2">  1        2 0.27719127E-01 0.52566005E+02</pdfrwt>
<pdfrwt beam="1">  1        1 0.86881313E-01 0.48489338E+02</pdfrwt>
<totfact> 0.10069482E+03</totfact>
</mgrwt>
</event>
<event>
 7    1  0.3113151E-004  0.1278885E+03  0.7546771E-02  0.1339809E+00
          1   -1    0    0  503    0 -0.00000000000E+00  0.00000000000E+00  0.25643229197E+03  0.25643229197E+03  0.00000000000E+00 0. -1.
          2   -1    0    0  502    0  0.00000000000E+00 -0.00000000000E+00 -0.16712872491E+04  0.16712872491E+04  0.00000000000E+00 0.  1.
         25    2    1    2    0    0 -0.14513430123E+03  0.43140920852E+02  0.39689745955E+02  0.20030860206E+03  0.12499262249E+03 0.  0.
          4    1    3    3  501    0  0.12859510141E+02  0.41132044978E+01  0.34953546445E+02  0.37491982628E+02  0.12700000000E+01 0.  1.
         -4    1    3    3    0  501 -0.15799381137E+03  0.39027716354E+02  0.47361995098E+01  0.16281661943E+03  0.12700000000E+01 0.  1.
          2    1    1    2  502    0  0.24088210322E+02 -0.38664611814E+02 -0.15636952667E+04  0.15643586805E+04  0.00000000000E+00 0.  1.
          1    1    1    2  503    0  0.12104609091E+03 -0.44763090378E+01  0.10915056364E+03  0.16305225852E+03  0.00000000000E+00 0. -1.
<mgrwt>
<rscale>  0 0.76327382E+02</rscale>
<asrwt>0</asrwt>
<pdfrwt beam="2">  1        2 0.25712111E+00 0.45554298E+02</pdfrwt>
<pdfrwt beam="1">  1        1 0.39451123E-01 0.12788846E+03</pdfrwt>
<totfact> 0.18946865E+02</totfact>
</mgrwt>
</event>
<event>
 7    1  0.3113151E-004  0.6406067E+02  0.7546771E-02  0.1400056E+00
          3   -1    0    0  503    0  0.00000000000E+00  0.00000000000E+00  0.10020853813E+04  0.10020853813E+04  0.00000000000E+00 0. -1.
          3   -1    0    0  502    0 -0.00000000000E+00 -0.00000000000E+00 -0.12511093406E+03  0.12511093406E+03  0.00000000000E+00 0. -1.
         25    2    1    2    0    0 -0.93708504387E+01  0.45035350229E+01  0.42015114340E+03  0.43847450931E+03  0.12499926942E+03 0.  0.
          4    1    3    3  501    0 -0.34329391574E+02 -0.52223152056E+02  0.23765155249E+03  0.24573489381E+03  0.12700000000E+01 0. -1.
         -4    1    3    3    0  501  0.24958541136E+02  0.56726687078E+02  0.18249959091E+03  0.19273961550E+03  0.12700000000E+01 0. -1.
          3    1    1    2  502    0  0.49969811803E+02 -0.41924835829E+02 -0.10531484364E+03  0.12387853019E+03  0.00000000000E+00 0. -1.
          3    1    1    2  503    0 -0.40598961364E+02  0.37421300806E+02  0.56213814752E+03  0.56484327589E+03  0.00000000000E+00 0. -1.
<mgrwt>
<rscale>  0 0.59473280E+02</rscale>
<asrwt>0</asrwt>
<pdfrwt beam="1">  1        3 0.15416698E+00 0.55214395E+02</pdfrwt>
<pdfrwt beam="2">  1        3 0.19247837E-01 0.64060669E+02</pdfrwt>
<totfact> 0.17281462E+01</totfact>
</mgrwt>
</event>
<event>
 7    1  0.3113151E-004  0.4548199E+03  0.7546771E-02  0.1121252E+00
          1   -1    0    0  502    0  0.00000000000E+00  0.00000000000E+00  0.51984285983E+03  0.51984285983E+03  0.00000000000E+00 0. -1.
          1   -1    0    0  503    0 -0.00000000000E+00 -0.00000000000E+00 -0.93458884879E+03  0.93458884879E+03  0.00000000000E+00 0. -1.
         25    2    1    2    0    0 -0.37116657148E+03 -0.47925711754E+02 -0.18253044552E+03  0.43476788500E+03  0.12507698690E+03 0.  0.
          4    1    3    3  501    0 -0.30644824411E+03 -0.60944346227E+02 -0.19395966435E+03  0.36775902973E+03  0.12700000000E+01 0.  1.
         -4    1    3    3    0  501 -0.64718327374E+02  0.13018634473E+02  0.11429218827E+02  0.67008855271E+02  0.12700000000E+01 0.  1.
          1    1    1    2  502    0  0.48895499674E+03  0.87804675776E+02  0.22535115536E+03  0.54549958125E+03  0.00000000000E+00 0. -1.
          1    1    1    2  503    0 -0.11778842526E+03 -0.39878964022E+02 -0.45756669880E+03  0.47416424237E+03  0.00000000000E+00 0. -1.
<mgrwt>
<rscale>  0 0.23782271E+03</rscale>
<asrwt>0</asrwt>
<pdfrwt beam="1">  1        1 0.79975826E-01 0.45481993E+03</pdfrwt>
<pdfrwt beam="2">  1        1 0.14378290E+00 0.12435612E+03</pdfrwt>
<totfact> 0.95687914E+01</totfact>
</mgrwt>
</event>
<event>
 7    1  0.3113151E-004  0.6173945E+02  0.7546771E-02  0.1430561E+00
          2   -1    0    0  503    0  0.00000000000E+00  0.00000000000E+00  0.97978439367E+03  0.97978439367E+03  0.00000000000E+00 0. -1.
         -2   -1    0    0    0  501 -0.00000000000E+00 -0.00000000000E+00 -0.20465677524E+02  0.20465677524E+02  0.00000000000E+00 0.  1.
         25    2    1    2    0    0  0.87408487611E+02  0.56292768550E+01  0.52111334236E+03  0.54300629169E+03  0.12499913903E+03 0.  0.
          4    1    3    3  502    0  0.97309885899E+02 -0.15564027501E+02  0.50511070862E+03  0.51463569028E+03  0.12700000000E+01 0. -1.
         -4    1    3    3    0  502 -0.99013982878E+01  0.21193304356E+02  0.16002633745E+02  0.28370601410E+02  0.12700000000E+01 0. -1.
          2    1    1    2  503    0 -0.52991933622E+02  0.23727674718E+02  0.37528498943E+03  0.37974987935E+03  0.00000000000E+00 0. -1.
         -2    1    1    2    0  501 -0.34416553989E+02 -0.29356951573E+02  0.62920384352E+02  0.77493900154E+02  0.00000000000E+00 0.  1.
<mgrwt>
<rscale>  0 0.52847604E+02</rscale>
<asrwt>0</asrwt>
<pdfrwt beam="1">  1        2 0.15073602E+00 0.61739454E+02</pdfrwt>
<pdfrwt beam="2">  1       -2 0.31485665E-02 0.45236377E+02</pdfrwt>
<totfact> 0.93422721E+03</totfact>
</mgrwt>
</event>
<event>
 7    1  0.3113151E-004  0.6166786E+02  0.7546771E-02  0.1422760E+00
         -2   -1    0    0    0  501 -0.00000000000E+00  0.00000000000E+00  0.23520776131E+03  0.23520776131E+03  0.00000000000E+00 0.  1.
          1   -1    0    0  503    0  0.00000000000E+00 -0.00000000000E+00 -0.48400556308E+03  0.48400556308E+03  0.00000000000E+00 0. -1.
         25    2    1    2    0    0  0.88155523874E+02 -0.92580398779E+01  0.67844347842E+02  0.16758324796E+03  0.12499672704E+03 0.  0.
          4    1    3    3  502    0  0.82609168365E+02  0.29052211093E+02  0.87802477606E+02  0.12401287692E+03  0.12700000000E+01 0. -1.
         -4    1    3    3    0  502  0.55463555092E+01 -0.38310250971E+02 -0.19958129764E+02  0.43570371040E+02  0.12700000000E+01 0. -1.
          1    1    1    2  503    0 -0.34312614874E+02  0.33653293023E+02 -0.42526101498E+03  0.42796825879E+03  0.00000000000E+00 0. -1.
         -2    1    1    2    0  501 -0.53842909001E+02 -0.24395253145E+02  0.10861886537E+03  0.12366181763E+03  0.00000000000E+00 0.  1.
<mgrwt>
<rscale>  0 0.54441201E+02</rscale>
<asrwt>0</asrwt>
<pdfrwt beam="2">  1        1 0.74462394E-01 0.48061416E+02</pdfrwt>
<pdfrwt beam="1">  1       -2 0.36185810E-01 0.61667855E+02</pdfrwt>
<totfact> 0.30720037E+02</totfact>
</mgrwt>
</event>
<event>
 7    1  0.3113151E-004  0.1347953E+03  0.7546771E-02  0.1275340E+00
          3   -1    0    0  503    0 -0.00000000000E+00  0.00000000000E+00  0.58687032292E+02  0.58687032292E+02  0.00000000000E+00 0. -1.
          2   -1    0    0  502    0  0.00000000000E+00 -0.00000000000E+00 -0.15160340365E+04  0.15160340365E+04  0.00000000000E+00 0. -1.
         25    2    1    2    0    0  0.53144474472E+02  0.51638430547E+02 -0.64751593913E+03  0.66362217340E+03  0.12500653948E+03 0.  0.
          4    1    3    3  501    0  0.57871247028E+02  0.58985359424E+02 -0.64936485265E+03  0.65460268761E+03  0.12700000000E+01 0.  1.
         -4    1    3    3    0  501 -0.47267725559E+01 -0.73469288762E+01  0.18489135200E+01  0.90194857898E+01  0.12700000000E+01 0.  1.
          2    1    1    2  502    0  0.16338404762E+02  0.76046218388E+02 -0.74980286079E+03  0.75382643947E+03  0.00000000000E+00 0. -1.
          3    1    1    2  503    0 -0.69482879234E+02 -0.12768464894E+03 -0.60028204274E+02  0.15727245591E+03  0.00000000000E+00 0. -1.
<mgrwt>
<rscale>  0 0.10239428E+03</rscale>
<asrwt>0</asrwt>
<pdfrwt beam="2">  1        2 0.23323603E+00 0.77781558E+02</pdfrwt>
<pdfrwt beam="1">  1        3 0.90287732E-02 0.13479530E+03</pdfrwt>
<totfact> 0.76722446E+02</totfact>
</mgrwt>
</event>
<event>
 7    1  0.3113151E-004  0.7616717E+02  0.7546771E-02  0.1342225E+00
          2   -1    0    0  502    0  0.00000000000E+00  0.00000000000E+00  0.49062587510E+03  0.49062587510E+03  0.00000000000E+00 0. -1.
          1   -1    0    0  503    0 -0.00000000000E+00 -0.00000000000E+00 -0.11966009767E+04  0.11966009767E+04  0.00000000000E+00 0. -1.
         25    2    1    2    0    0  0.40467528563E+02 -0.68368617781E+02 -0.82988458482E+01  0.14834326236E+03  0.12499985552E+03 0.  0.
          4    1    3    3  501    0  0.43765814800E+02 -0.10169983696E+03  0.81160232377E+01  0.11102155699E+03  0.12700000000E+01 0.  1.
         -4    1    3    3    0  501 -0.32982862375E+01  0.33331219182E+02 -0.16414869086E+02  0.37321705366E+02  0.12700000000E+01 0.  1.
          2    1    1    2  502    0 -0.76321089962E+02  0.11677202226E+01  0.41582888286E+03  0.42277645650E+03  0.00000000000E+00 0. -1.
          1    1    1    2  503    0  0.35853561399E+02  0.67200897559E+02 -0.11135051386E+04  0.11161071329E+04  0.00000000000E+00 0. -1.
<mgrwt>
<rscale>  0 0.75534181E+02</rscale>
<asrwt>0</asrwt>
<pdfrwt beam="1">  1        2 0.75480904E-01 0.74906447E+02</pdfrwt>
<pdfrwt beam="2">  1        1 0.18409246E+00 0.76167175E+02</pdfrwt>
<totfact> 0.11245868E+02</totfact>
</mgrwt>
</event>
<event>
 7    1  0.3113151E-004  0.2724573E+02  0.7546771E-02  0.1685103E+00
          1   -1    0    0  503    0  0.00000000000E+00  0.00000000000E+00  0.12068113517E+03  0.12068113517E+03  0.00000000000E+00 0. -1.
          1   -1    0    0  502    0 -0.00000000000E+00 -0.00000000000E+00 -0.23209325513E+03  0.23209325513E+03  0.00000000000E+00 0. -1.
         25    2    1    2    0    0  0.30022236119E+02  0.20161332399E+02  0.57309322028E+02  0.14214393083E+03  0.12495088913E+03 0.  0.
          4    1    3    3  501    0  0.64721250070E+02 -0.20779623186E+02  0.56589296892E+02  0.88456737296E+02  0.12700000000E+01 0. -1.
         -4    1    3    3    0  501 -0.34699013951E+02  0.40940955585E+02  0.72002513653E+00  0.53687193534E+02  0.12700000000E+01 0. -1.
          1    1    1    2  502    0 -0.27213897641E+02 -0.26098794836E+00 -0.18361181611E+03  0.18561778836E+03  0.00000000000E+00 0. -1.
          1    1    1    2  503    0 -0.28083384783E+01 -0.19900344451E+02  0.14890374128E+02  0.25012671108E+02  0.00000000000E+00 0. -1.
<mgrwt>
<rscale>  0 0.23400250E+02</rscale>
<asrwt>0</asrwt>
<pdfrwt beam="1">  1        1 0.18566329E-01 0.20097524E+02</pdfrwt>
<pdfrwt beam="2">  1        1 0.35706654E-01 0.27245730E+02</pdfrwt>
<totfact> 0.35102808E+03</totfact>
</mgrwt>
</event>
<event>
 7    1  0.3113151E-004  0.3993195E+02  0.7546771E-02  0.1543779E+00
          2   -1    0    0  503    0  0.00000000000E+00  0.00000000000E+00  0.30489355201E+02  0.30489355201E+02  0.00000000000E+00 0.  1.
          2   -1    0    0  502    0 -0.00000000000E+00 -0.00000000000E+00 -0.67968595930E+03  0.67968595930E+03  0.00000000000E+00 0.  1.
         25    2    1    2    0    0  0.25431100168E+02 -0.27560837524E+02 -0.28989193310E+03  0.31791294310E+03  0.12499986358E+03 0.  0.
          4    1    3    3  501    0  0.36418831842E+02 -0.69202803196E+02 -0.12472334982E+03  0.14721713953E+03  0.12700000000E+01 0. -1.
         -4    1    3    3    0  501 -0.10987731673E+02  0.41641965671E+02 -0.16516858328E+03  0.17069580357E+03  0.12700000000E+01 0. -1.
          2    1    1    2  502    0  0.15708551251E+02  0.27473322916E+02 -0.34822045374E+03  0.34965558262E+03  0.00000000000E+00 0.  1.
          2    1    1    2  503    0 -0.41139651419E+02  0.87514608100E-01 -0.11084217259E+02  0.42606788778E+02  0.00000000000E+00 0.  1.
<mgrwt>
<rscale>  0 0.35549015E+02</rscale>
<asrwt>0</asrwt>
<pdfrwt beam="1">  1        2 0.46906704E-02 0.39931952E+02</pdfrwt>
<pdfrwt beam="2">  1        2 0.10456706E+00 0.31647149E+02</pdfrwt>
<totfact> 0.10173357E+04</totfact>
</mgrwt>
</event>
<event>
 7    1  0.3113151E-004  0.4540914E+02  0.7546771E-02  0.1580579E+00
         -1   -1    0    0    0  501 -0.00000000000E+00  0.00000000000E+00  0.32368422977E+02  0.32368422977E+02  0.00000000000E+00 0.  1.
          2   -1    0    0  503    0  0.00000000000E+00 -0.00000000000E+00 -0.43015890619E+03  0.43015890619E+03  0.00000000000E+00 0. -1.
         25    2    1    2    0    0 -0.41895640392E+02 -0.10311760119E+02 -0.15649611884E+03  0.20491549994E+03  0.12505098888E+03 0.  0.
          4    1    3    3  502    0  0.13721191755E+02 -0.75252618291E+01 -0.14769047455E+03  0.14852269133E+03  0.12700000000E+01 0.  1.
         -4    1    3    3    0  502 -0.55616832148E+02 -0.27864982898E+01 -0.88056442953E+01  0.56392808605E+02  0.12700000000E+01 0.  1.
          2    1    1    2  503    0  0.44607298178E+02 -0.11574865803E+02 -0.22629661254E+03  0.23094143287E+03  0.00000000000E+00 0. -1.
         -1    1    1    2    0  501 -0.27116577852E+01  0.21886625922E+02 -0.14997751838E+02  0.26670396367E+02  0.00000000000E+00 0.  1.
<mgrwt>
<rscale>  0 0.31645720E+02</rscale>
<asrwt>0</asrwt>
<pdfrwt beam="2">  1        2 0.66178288E-01 0.45409135E+02</pdfrwt>
<pdfrwt beam="1">  1       -1 0.49797578E-02 0.22053967E+02</pdfrwt>
<totfact> 0.11524207E+04</totfact>
</mgrwt>
</event>
<event>
 7    1  0.3113151E-004  0.4571786E+02  0.7546771E-02  0.1506837E+00
          1   -1    0    0  503    0  0.00000000000E+00  0.00000000000E+00  0.34795223301E+03  0.34795223301E+03  0.00000000000E+00 0. -1.
         -2   -1    0    0    0  501 -0.00000000000E+00 -0.00000000000E+00 -0.43197605050E+02  0.43197605050E+02  0.00000000000E+00 0.  1.
         25    2    1    2    0    0  0.63337568421E+02 -0.59060556897E+01  0.14487450458E+03  0.20164791634E+03  0.12500692389E+03 0.  0.
          4    1    3    3  502    0  0.74556297185E+02  0.36206086245E+02  0.48916615751E+02  0.96249521182E+02  0.12700000000E+01 0. -1.
         -4    1    3    3    0  502 -0.11218728765E+02 -0.42112141935E+02  0.95957888825E+02  0.10539839515E+03  0.12700000000E+01 0. -1.
          1    1    1    2  503    0 -0.24522147072E+02  0.25428166543E+02  0.13476280058E+03  0.13931597099E+03  0.00000000000E+00 0. -1.
         -2    1    1    2    0  501 -0.38815421348E+02 -0.19522110853E+02  0.25117322797E+02  0.50185950734E+02  0.00000000000E+00 0.  1.
<mgrwt>
<rscale>  0 0.40187432E+02</rscale>
<asrwt>0</asrwt>
<pdfrwt beam="1">  1        1 0.53531111E-01 0.35326015E+02</pdfrwt>
<pdfrwt beam="2">  1       -2 0.66457856E-02 0.45717856E+02</pdfrwt>
<totfact> 0.69925514E+03</totfact>
</mgrwt>
</event>
<event>
 7    1  0.3113151E-004  0.8967229E+02  0.7546771E-02  0.1390905E+00
          2   -1    0    0  503    0  0.00000000000E+00  0.00000000000E+00  0.11650846998E+04  0.11650846998E+04  0.00000000000E+00 0. -1.
          2   -1    0    0  502    0 -0.00000000000E+00 -0.00000000000E+00 -0.67373845338E+03  0.67373845338E+03  0.00000000000E+00 0. -1.
         25    2    1    2    0    0  0.14232316017E+02  0.92925063232E+02  0.12341850568E+03  0.19923579509E+03  0.12500059322E+03 0.  0.
          4    1    3    3  501    0 -0.48308644670E+01  0.62649055382E+02  0.14457993327E+03  0.15764901331E+03  0.12700000000E+01 0. -1.
         -4    1    3    3    0  501  0.19063180484E+02  0.30276007850E+02 -0.21161427592E+02  0.41586781785E+02  0.12700000000E+01 0. -1.
          2    1    1    2  502    0  0.27533245098E+02 -0.85452255407E+02 -0.63220862472E+03  0.63855141744E+03  0.00000000000E+00 0. -1.
          2    1    1    2  503    0 -0.41765561115E+02 -0.74728078254E+01  0.10001363654E+04  0.10010359406E+04  0.00000000000E+00 0. -1.
<mgrwt>
<rscale>  0 0.61682165E+02</rscale>
<asrwt>0</asrwt>
<pdfrwt beam="1">  1        2 0.17924380E+00 0.42428822E+02</pdfrwt>
<pdfrwt beam="2">  1        2 0.10365207E+00 0.89672286E+02</pdfrwt>
<totfact> 0.16600764E+02</totfact>
</mgrwt>
</event>
<event>
 7    1  0.3113151E-004  0.8236910E+02  0.7546771E-02  0.1358237E+00
          2   -1    0    0  502    0  0.00000000000E+00  0.00000000000E+00  0.10060582565E+03  0.10060582565E+03  0.00000000000E+00 0. -1.
          2   -1    0    0  503    0 -0.00000000000E+00 -0.00000000000E+00 -0.48128669993E+03  0.48128669993E+03  0.00000000000E+00 0. -1.
         25    2    1    2    0    0  0.26646200949E+02 -0.60289816118E+02 -0.84374894621E+02  0.16458535783E+03  0.12499734084E+03 0.  0.
          4    1    3    3  501    0 -0.12179833796E+02 -0.90956724625E+02 -0.52885187369E+02  0.10592417122E+03  0.12700000000E+01 0.  1.
         -4    1    3    3    0  501  0.38826034745E+02  0.30666908508E+02 -0.31489707252E+02  0.58661186608E+02  0.12700000000E+01 0.  1.
          2    1    1    2  502    0 -0.82835261982E+02  0.38065408944E+02  0.21618847425E+02  0.93691144457E+02  0.00000000000E+00 0. -1.
          2    1    1    2  503    0  0.56189061033E+02  0.22224407173E+02 -0.31792482708E+03  0.32361602329E+03  0.00000000000E+00 0. -1.
<mgrwt>
<rscale>  0 0.70548719E+02</rscale>
<asrwt>0</asrwt>
<pdfrwt beam="1">  1        2 0.15477819E-01 0.82369102E+02</pdfrwt>
<pdfrwt beam="2">  1        2 0.74044108E-01 0.60424621E+02</pdfrwt>
<totfact> 0.36388306E+03</totfact>
</mgrwt>
</event>
<event>
 7    1  0.3113151E-004  0.8923517E+02  0.7546771E-02  0.1386292E+00
          3   -1    0    0  503    0 -0.00000000000E+00  0.00000000000E+00  0.18276952355E+03  0.18276952355E+03  0.00000000000E+00 0. -1.
          2   -1    0    0  502    0  0.00000000000E+00 -0.00000000000E+00 -0.63709683977E+03  0.63709683977E+03  0.00000000000E+00 0. -1.
         25    2    1    2    0    0  0.11693086778E+03 -0.25207519948E+02 -0.39117952702E+03  0.42773197662E+03  0.12499989823E+03 0.  0.
          4    1    3    3  501    0  0.17156494553E+02  0.80173689368E+01  0.34833479859E+01  0.19296894134E+02  0.12700000000E+01 0.  1.
         -4    1    3    3    0  501  0.99774373225E+02 -0.33224888885E+02 -0.39466287501E+03  0.40843508248E+03  0.12700000000E+01 0.  1.
          2    1    1    2  502    0 -0.28828670303E+02  0.33570569998E+02 -0.21330054411E+03  0.21784213899E+03  0.00000000000E+00 0. -1.
          3    1    1    2  503    0 -0.88102197475E+02 -0.83630500500E+01  0.15015275491E+03  0.17429224771E+03  0.00000000000E+00 0. -1.
<mgrwt>
<rscale>  0 0.62838439E+02</rscale>
<asrwt>0</asrwt>
<pdfrwt beam="2">  1        2 0.98014899E-01 0.44250146E+02</pdfrwt>
<pdfrwt beam="1">  1        3 0.28118388E-01 0.89235172E+02</pdfrwt>
<totfact> 0.34776655E+02</totfact>
</mgrwt>
</event>
<event>
 7    1  0.3113151E-004  0.1211890E+03  0.7546771E-02  0.1312662E+00
          2   -1    0    0  502    0  0.00000000000E+00  0.00000000000E+00  0.23915379286E+03  0.23915379286E+03  0.00000000000E+00 0. -1.
          1   -1    0    0  503    0 -0.00000000000E+00 -0.00000000000E+00 -0.13172404816E+04  0.13172404816E+04  0.00000000000E+00 0.  1.
         25    2    1    2    0    0  0.80550561575E+02  0.13853484675E+03 -0.73755542319E+03  0.76504439478E+03  0.12499850794E+03 0.  0.
          4    1    3    3  501    0 -0.33318466721E+02  0.37194160019E+02 -0.21368537835E+03  0.21944607443E+03  0.12700000000E+01 0.  1.
         -4    1    3    3    0  501  0.11386902830E+03  0.10134068673E+03 -0.52387004484E+03  0.54559832035E+03  0.12700000000E+01 0.  1.
          2    1    1    2  502    0 -0.49841183296E+02 -0.35386822938E+02  0.21601318148E+03  0.22449513439E+03  0.00000000000E+00 0. -1.
          1    1    1    2  503    0 -0.30709378280E+02 -0.10314802381E+03 -0.55654444707E+03  0.56685474533E+03  0.00000000000E+00 0.  1.
<mgrwt>
<rscale>  0 0.86068474E+02</rscale>
<asrwt>0</asrwt>
<pdfrwt beam="1">  1        2 0.36792891E-01 0.61125860E+02</pdfrwt>
<pdfrwt beam="2">  1        1 0.20265238E+00 0.12118901E+03</pdfrwt>
<totfact> 0.18998676E+02</totfact>
</mgrwt>
</event>
<event>
 7    1  0.3113151E-004  0.1277974E+03  0.7546771E-02  0.1311272E+00
          2   -1    0    0  503    0  0.00000000000E+00  0.00000000000E+00  0.50455761034E+03  0.50455761034E+03  0.00000000000E+00 0. -1.
          2   -1    0    0  502    0 -0.00000000000E+00 -0.00000000000E+00 -0.15807623221E+04  0.15807623221E+04  0.00000000000E+00 0.  1.
         25    2    1    2    0    0 -0.14582234694E+03 -0.70062739189E+02 -0.35575248072E+03  0.41031395762E+03  0.12499908798E+03 0.  0.
          4    1    3    3  501    0  0.22588935943E+02 -0.18641149330E+01 -0.42221785793E+02  0.47937741363E+02  0.12700000000E+01 0.  1.
         -4    1    3    3    0  501 -0.16841128288E+03 -0.68198624256E+02 -0.31353069492E+03  0.36237621626E+03  0.12700000000E+01 0.  1.
          2    1    1    2  502    0  0.12361340294E+03  0.15728036366E+02 -0.11926659920E+04  0.11991579600E+04  0.00000000000E+00 0.  1.
          2    1    1    2  503    0  0.22208943994E+02  0.54334702822E+02  0.47221376098E+03  0.47584801480E+03  0.00000000000E+00 0. -1.
<mgrwt>
<rscale>  0 0.86611184E+02</rscale>
<asrwt>0</asrwt>
<pdfrwt beam="1">  1        2 0.77624247E-01 0.58698357E+02</pdfrwt>
<pdfrwt beam="2">  1        2 0.24319420E+00 0.12779740E+03</pdfrwt>
<totfact> 0.12920663E+02</totfact>
</mgrwt>
</event>
<event>
 7    1  0.3113151E-004  0.7881573E+02  0.7546771E-02  0.1354656E+00
          1   -1    0    0  503    0  0.00000000000E+00  0.00000000000E+00  0.54775880937E+03  0.54775880937E+03  0.00000000000E+00 0. -1.
          1   -1    0    0  502    0 -0.00000000000E+00 -0.00000000000E+00 -0.25476389312E+03  0.25476389312E+03  0.00000000000E+00 0. -1.
         25    2    1    2    0    0 -0.30056749076E+02  0.12603263337E+03  0.85157208704E+02  0.19911649162E+03  0.12493195829E+03 0.  0.
          4    1    3    3  501    0  0.19536528124E+02  0.39423581793E+02 -0.24874532898E+02  0.50559371232E+02  0.12700000000E+01 0. -1.
         -4    1    3    3    0  501 -0.49593277200E+02  0.86609051578E+02  0.11003174160E+03  0.14855712039E+03  0.12700000000E+01 0. -1.
          1    1    1    2  502    0  0.40833812096E+02 -0.50686436885E+02 -0.18871023095E+03  0.19961980453E+03  0.00000000000E+00 0. -1.
          1    1    1    2  503    0 -0.10777063020E+02 -0.75346196486E+02  0.39654793850E+03  0.40378640634E+03  0.00000000000E+00 0. -1.
<mgrwt>
<rscale>  0 0.71624011E+02</rscale>
<asrwt>0</asrwt>
<pdfrwt beam="1">  1        1 0.84270586E-01 0.78815730E+02</pdfrwt>
<pdfrwt beam="2">  1        1 0.39194445E-01 0.65088517E+02</pdfrwt>
<totfact> 0.52877394E+02</totfact>
</mgrwt>
</event>
<event>
 7    1  0.3113151E-004  0.5177446E+02  0.7546771E-02  0.1544530E+00
          2   -1    0    0  502    0  0.00000000000E+00  0.00000000000E+00  0.39757681350E+03  0.39757681350E+03  0.00000000000E+00 0. -1.
          2   -1    0    0  503    0 -0.00000000000E+00 -0.00000000000E+00 -0.22603401901E+04  0.22603401901E+04  0.00000000000E+00 0. -1.
         25    2    1    2    0    0 -0.31330092707E+02 -0.26798621234E+02 -0.14132404190E+04  0.14193562478E+04  0.12499574240E+03 0.  0.
          4    1    3    3  501    0  0.11057064454E+01 -0.43327099960E+02 -0.12928224387E+04  0.12935493540E+04  0.12700000000E+01 0. -1.
         -4    1    3    3    0  501 -0.32435799153E+02  0.16528478726E+02 -0.12041798024E+03  0.12580689385E+03  0.12700000000E+01 0. -1.
          2    1    1    2  502    0  0.68028944973E+01 -0.23317902329E+02  0.39322161228E+03  0.39397111608E+03  0.00000000000E+00 0. -1.
          2    1    1    2  503    0  0.24527198210E+02  0.50116523563E+02 -0.84274456991E+03  0.84458963970E+03  0.00000000000E+00 0. -1.
<mgrwt>
<rscale>  0 0.35462677E+02</rscale>
<asrwt>0</asrwt>
<pdfrwt beam="1">  1        2 0.61165664E-01 0.24289997E+02</pdfrwt>
<pdfrwt beam="2">  1        2 0.34774464E+00 0.51774460E+02</pdfrwt>
<totfact> 0.83263716E+01</totfact>
</mgrwt>
</event>
<event>
 7    1  0.3113151E-004  0.5113519E+02  0.7546771E-02  0.1534275E+00
          3   -1    0    0  503    0 -0.00000000000E+00  0.00000000000E+00  0.17078611104E+03  0.17078611104E+03  0.00000000000E+00 0. -1.
          2   -1    0    0  502    0  0.00000000000E+00 -0.00000000000E+00 -0.33902780341E+03  0.33902780341E+03  0.00000000000E+00 0. -1.
         25    2    1    2    0    0 -0.51117923761E+02 -0.48455851979E+01 -0.87612487001E+02  0.16104635447E+03  0.12499383418E+03 0.  0.
          4    1    3    3  501    0 -0.75198698177E+02 -0.31106455494E+02 -0.94518268193E+02  0.12473079693E+03  0.12700000000E+01 0.  1.
         -4    1    3    3    0  501  0.24080774416E+02  0.26260870297E+02  0.69057811922E+01  0.36315557535E+02  0.12700000000E+01 0.  1.
          2    1    1    2  502    0  0.47119296180E+02 -0.21141260471E+02 -0.21025359562E+03  0.21650347674E+03  0.00000000000E+00 0. -1.
          3    1    1    2  503    0  0.39986275816E+01  0.25986845669E+02  0.12962439025E+03  0.13226408325E+03  0.00000000000E+00 0. -1.
<mgrwt>
<rscale>  0 0.36667169E+02</rscale>
<asrwt>0</asrwt>
<pdfrwt beam="2">  1        2 0.52158123E-01 0.51135189E+02</pdfrwt>
<pdfrwt beam="1">  1        3 0.26274787E-01 0.26292683E+02</pdfrwt>
<totfact> 0.66526199E+02</totfact>
</mgrwt>
</event>
<event>
 7    1  0.3113151E-004  0.5894137E+02  0.7546771E-02  0.1510596E+00
          2   -1    0    0  502    0  0.00000000000E+00  0.00000000000E+00  0.64098510683E+03  0.64098510683E+03  0.00000000000E+00 0. -1.
          1   -1    0    0  503    0 -0.00000000000E+00 -0.00000000000E+00 -0.52139725738E+03  0.52139725738E+03  0.00000000000E+00 0. -1.
         25    2    1    2    0    0  0.33661335939E+02 -0.78625301494E+02  0.40769065919E+03  0.43491637174E+03  0.12500221297E+03 0.  0.
          4    1    3    3  501    0 -0.74250264603E+01 -0.54588742284E+02  0.37028653882E+03  0.37436452227E+03  0.12700000000E+01 0. -1.
         -4    1    3    3    0  501  0.41086362399E+02 -0.24036559210E+02  0.37404120363E+02  0.60551849468E+02  0.12700000000E+01 0. -1.
          2    1    1    2  502    0 -0.11209179013E+02  0.24244215884E+02  0.21715642569E+03  0.21879291789E+03  0.00000000000E+00 0. -1.
          1    1    1    2  503    0 -0.22452156925E+02  0.54381085609E+02 -0.50525923542E+03  0.50867307458E+03  0.00000000000E+00 0. -1.
<mgrwt>
<rscale>  0 0.39677801E+02</rscale>
<asrwt>0</asrwt>
<pdfrwt beam="1">  1        2 0.98613093E-01 0.26710067E+02</pdfrwt>
<pdfrwt beam="2">  1        1 0.80214963E-01 0.58941366E+02</pdfrwt>
<totfact> 0.30025593E+02</totfact>
</mgrwt>
</event>
<event>
 7    1  0.3113151E-004  0.2201487E+03  0.7546771E-02  0.1359950E+00
          2   -1    0    0  502    0  0.00000000000E+00  0.00000000000E+00  0.96913707653E+03  0.96913707653E+03  0.00000000000E+00 0. -1.
          2   -1    0    0  503    0 -0.00000000000E+00 -0.00000000000E+00 -0.24660169272E+03  0.24660169272E+03  0.00000000000E+00 0. -1.
         25    2    1    2    0    0 -0.40588353179E+02 -0.22816049779E+03  0.16426699791E+03  0.31034585944E+03  0.12500511470E+03 0.  0.
          4    1    3    3  501    0 -0.18757935786E+02  0.59592589338E+01 -0.53252772273E+01  0.20429008775E+02  0.12700000000E+01 0. -1.
         -4    1    3    3    0  501 -0.21830417392E+02 -0.23411975672E+03  0.16959227514E+03  0.28991685066E+03  0.12700000000E+01 0. -1.
          2    1    1    2  502    0  0.18577905573E+02  0.12306941029E+02  0.66376025263E+03  0.66413422766E+03  0.00000000000E+00 0. -1.
          2    1    1    2  503    0  0.22010447605E+02  0.21585355676E+03 -0.10549186673E+03  0.24125868216E+03  0.00000000000E+00 0. -1.
<mgrwt>
<rscale>  0 0.70042177E+02</rscale>
<asrwt>0</asrwt>
<pdfrwt beam="1">  1        2 0.14909801E+00 0.22284510E+02</pdfrwt>
<pdfrwt beam="2">  1        2 0.37938722E-01 0.22014873E+03</pdfrwt>
<totfact> 0.65088554E+02</totfact>
</mgrwt>
</event>
<event>
 7    1  0.3113151E-004  0.7792749E+02  0.7546771E-02  0.1344805E+00
          1   -1    0    0  502    0  0.00000000000E+00  0.00000000000E+00  0.12199273136E+03  0.12199273136E+03  0.00000000000E+00 0. -1.
          1   -1    0    0  503    0 -0.00000000000E+00 -0.00000000000E+00 -0.20400610763E+04  0.20400610763E+04  0.00000000000E+00 0. -1.
         25    2    1    2    0    0  0.25368260925E+01  0.67300239388E+00 -0.39467684049E+03  0.41401007715E+03  0.12501058812E+03 0.  0.
          4    1    3    3  501    0  0.10742759743E+02  0.23278748760E+02 -0.38823249321E+03  0.38908018289E+03  0.12700000000E+01 0.  1.
         -4    1    3    3    0  501 -0.82059336509E+01 -0.22605746366E+02 -0.64443472754E+01  0.24929894257E+02  0.12700000000E+01 0.  1.
          1    1    1    2  502    0 -0.17119083779E+01  0.77908684570E+02  0.97743015269E+02  0.12500556306E+03  0.00000000000E+00 0. -1.
          1    1    1    2  503    0 -0.82491771459E+00 -0.78581686964E+02 -0.16211345197E+04  0.16230381674E+04  0.00000000000E+00 0. -1.
<mgrwt>
<rscale>  0 0.74699245E+02</rscale>
<asrwt>0</asrwt>
<pdfrwt beam="1">  1        1 0.18768114E-01 0.77927490E+02</pdfrwt>
<pdfrwt beam="2">  1        1 0.31385552E+00 0.71604734E+02</pdfrwt>
<totfact> 0.11883287E+02</totfact>
</mgrwt>
</event>
<event>
 7    1  0.3113151E-004  0.4045104E+02  0.7546771E-02  0.1516704E+00
         -1   -1    0    0    0  501 -0.00000000000E+00  0.00000000000E+00  0.16792226434E+02  0.16792226434E+02  0.00000000000E+00 0.  1.
          2   -1    0    0  503    0  0.00000000000E+00 -0.00000000000E+00 -0.99257622297E+03  0.99257622297E+03  0.00000000000E+00 0. -1.
         25    2    1    2    0    0 -0.25155610389E+02  0.37678359597E+02 -0.31420421008E+03  0.34117515732E+03  0.12499495518E+03 0.  0.
          4    1    3    3  502    0 -0.13163068303E+02 -0.70475010736E+01  0.70767512982E+01  0.16571872178E+02  0.12700000000E+01 0. -1.
         -4    1    3    3    0  502 -0.11992542086E+02  0.44725860670E+02 -0.32128096138E+03  0.32460328514E+03  0.12700000000E+01 0. -1.
          2    1    1    2  503    0 -0.18189998730E+02 -0.32619735806E+02 -0.47968342951E+03  0.48113523646E+03  0.00000000000E+00 0. -1.
         -1    1    1    2    0  501  0.43345609119E+02 -0.50586237910E+01 -0.18189635694E+03  0.18705805562E+03  0.00000000000E+00 0.  1.
<mgrwt>
<rscale>  0 0.38868916E+02</rscale>
<asrwt>0</asrwt>
<pdfrwt beam="2">  1        2 0.15270397E+00 0.37348671E+02</pdfrwt>
<pdfrwt beam="1">  1       -1 0.25834205E-02 0.40451042E+02</pdfrwt>
<totfact> 0.12440762E+04</totfact>
</mgrwt>
</event>
<event>
 7    1  0.3113151E-004  0.6383484E+02  0.7546771E-02  0.1417072E+00
          2   -1    0    0  503    0  0.00000000000E+00  0.00000000000E+00  0.17212030210E+04  0.17212030210E+04  0.00000000000E+00 0. -1.
         -2   -1    0    0    0  501 -0.00000000000E+00 -0.00000000000E+00 -0.11170990097E+02  0.11170990097E+02  0.00000000000E+00 0.  1.
         25    2    1    2    0    0  0.33252004582E+02  0.61773148230E+02  0.12510404567E+04  0.12592254436E+04  0.12499950344E+03 0.  0.
          4    1    3    3  502    0  0.29783816874E+02 -0.35113648588E+02  0.36449470958E+03  0.36739359041E+03  0.12700000000E+01 0. -1.
         -4    1    3    3    0  502  0.34681877087E+01  0.96886796818E+02  0.88654574709E+03  0.89183185316E+03  0.12700000000E+01 0. -1.
          2    1    1    2  503    0  0.15171143084E+02 -0.64611647205E+02  0.26524369602E+03  0.27342100654E+03  0.00000000000E+00 0. -1.
         -2    1    1    2    0  501 -0.48423147666E+02  0.28384989751E+01  0.19374787816E+03  0.19972756094E+03  0.00000000000E+00 0.  1.
<mgrwt>
<rscale>  0 0.55645218E+02</rscale>
<asrwt>0</asrwt>
<pdfrwt beam="1">  1        2 0.26480025E+00 0.63834845E+02</pdfrwt>
<pdfrwt beam="2">  1       -2 0.17186152E-02 0.48506271E+02</pdfrwt>
<totfact> 0.91093739E+03</totfact>
</mgrwt>
</event>
<event>
 7    1  0.3198099E-004  0.7024381E+02  0.7546771E-02  0.1420062E+00
         -1   -1    0    0    0  501 -0.00000000000E+00  0.00000000000E+00  0.97515891763E+01  0.97515891763E+01  0.00000000000E+00 0.  1.
          2   -1    0    0  503    0  0.00000000000E+00 -0.00000000000E+00 -0.23343868542E+04  0.23343868542E+04  0.00000000000E+00 0. -1.
         25    2    1    2    0    0 -0.10567327727E+03  0.21122406334E-01 -0.15087372748E+04  0.15175898937E+04  0.12499631650E+03 0.  0.
          4    1    3    3  502    0 -0.85672827390E+02 -0.11255632746E+02 -0.14700241589E+04  0.14725621084E+04  0.12700000000E+01 0.  1.
         -4    1    3    3    0  502 -0.20000449883E+02  0.11276755152E+02 -0.38713115949E+02  0.45027785298E+02  0.12700000000E+01 0.  1.
          2    1    1    2  503    0  0.41632615693E+02 -0.11059085835E+02 -0.58773731307E+03  0.58931377656E+03  0.00000000000E+00 0. -1.
         -1    1    1    2    0  501  0.64040661580E+02  0.11037963429E+02 -0.22816067715E+03  0.23723477311E+03  0.00000000000E+00 0.  1.
<mgrwt>
<rscale>  0 0.55007744E+02</rscale>
<asrwt>0</asrwt>
<pdfrwt beam="2">  1        2 0.35913622E+00 0.43076421E+02</pdfrwt>
<pdfrwt beam="1">  1       -1 0.15002454E-02 0.70243808E+02</pdfrwt>
<totfact> 0.61737876E+03</totfact>
</mgrwt>
</event>
<event>
 7    1  0.3113151E-004  0.3866453E+02  0.7546771E-02  0.1561080E+00
          1   -1    0    0  502    0  0.00000000000E+00  0.00000000000E+00  0.62157804238E+03  0.62157804238E+03  0.00000000000E+00 0. -1.
          1   -1    0    0  503    0 -0.00000000000E+00 -0.00000000000E+00 -0.10108075777E+03  0.10108075777E+03  0.00000000000E+00 0. -1.
         25    2    1    2    0    0 -0.56896866773E+02  0.38106752001E+00  0.23203617640E+03  0.26963466412E+03  0.12499866510E+03 0.  0.
          4    1    3    3  501    0 -0.35775253157E+02 -0.58271567401E+02  0.16211550957E+03  0.17595026470E+03  0.12700000000E+01 0.  1.
         -4    1    3    3    0  501 -0.21121613616E+02  0.58652634921E+02  0.69920666830E+02  0.93684399421E+02  0.12700000000E+01 0.  1.
          1    1    1    2  502    0  0.22855334934E+02 -0.18265560021E+02  0.36563338773E+03  0.36680208729E+03  0.00000000000E+00 0. -1.
          1    1    1    2  503    0  0.34041531839E+02  0.17884492501E+02 -0.77172279524E+02  0.86222048740E+02  0.00000000000E+00 0. -1.
<mgrwt>
<rscale>  0 0.33633682E+02</rscale>
<asrwt>0</asrwt>
<pdfrwt beam="1">  1        1 0.95627389E-01 0.29257427E+02</pdfrwt>
<pdfrwt beam="2">  1        1 0.15550886E-01 0.38664526E+02</pdfrwt>
<totfact> 0.14008881E+03</totfact>
</mgrwt>
</event>
<event>
 7    1  0.3113151E-004  0.4429968E+02  0.7546771E-02  0.1584103E+00
          1   -1    0    0  503    0  0.00000000000E+00  0.00000000000E+00  0.10151247290E+04  0.10151247290E+04  0.00000000000E+00 0. -1.
         -1   -1    0    0    0  501 -0.00000000000E+00 -0.00000000000E+00 -0.16412824825E+02  0.16412824825E+02  0.00000000000E+00 0.  1.
         25    2    1    2    0    0 -0.43797488794E+02  0.82870101738E+01  0.44790975631E+03  0.46715587355E+03  0.12499826332E+03 0.  0.
          4    1    3    3  502    0 -0.48662931809E+02 -0.16017868110E+02  0.43708397051E+03  0.44007801946E+03  0.12700000000E+01 0.  1.
         -4    1    3    3    0  502  0.48654430151E+01  0.24304878283E+02  0.10825785798E+02  0.27077854092E+02  0.12700000000E+01 0.  1.
          1    1    1    2  503    0  0.42578103506E+02  0.13800564736E+02  0.53576997539E+03  0.53763632412E+03  0.00000000000E+00 0. -1.
         -1    1    1    2    0  501  0.12193852872E+01 -0.22087574909E+02  0.15032172451E+02  0.26745356129E+02  0.00000000000E+00 0.  1.
<mgrwt>
<rscale>  0 0.31304351E+02</rscale>
<asrwt>0</asrwt>
<pdfrwt beam="1">  1        1 0.15617299E+00 0.44299676E+02</pdfrwt>
<pdfrwt beam="2">  1       -1 0.25250508E-02 0.22121209E+02</pdfrwt>
<totfact> 0.61063861E+03</totfact>
</mgrwt>
</event>
<event>
 7    1  0.3113151E-004  0.1149403E+03  0.7546771E-02  0.1310633E+00
          3   -1    0    0  503    0 -0.00000000000E+00  0.00000000000E+00  0.40172081205E+02  0.40172081205E+02  0.00000000000E+00 0. -1.
          2   -1    0    0  502    0  0.00000000000E+00 -0.00000000000E+00 -0.21062534933E+04  0.21062534933E+04  0.00000000000E+00 0. -1.
         25    2    1    2    0    0  0.86920224925E+02 -0.80954699428E+02 -0.53206527820E+03  0.55930916772E+03  0.12499798384E+03 0.  0.
          4    1    3    3  501    0  0.18803098637E+02 -0.62312288239E+02 -0.43169866081E+03  0.43657957400E+03  0.12700000000E+01 0.  1.
         -4    1    3    3    0  501  0.68117126288E+02 -0.18642411189E+02 -0.10036661739E+03  0.12272959372E+03  0.12700000000E+01 0.  1.
          2    1    1    2  502    0 -0.11492910582E+03  0.21586516722E+02 -0.15139710945E+04  0.15184805406E+04  0.00000000000E+00 0. -1.
          3    1    1    2  503    0  0.28008880896E+02  0.59368182706E+02 -0.20045039370E+02  0.68635866208E+02  0.00000000000E+00 0. -1.
<mgrwt>
<rscale>  0 0.86862501E+02</rscale>
<asrwt>0</asrwt>
<pdfrwt beam="2">  1        2 0.32403901E+00 0.11494034E+03</pdfrwt>
<pdfrwt beam="1">  1        3 0.61803199E-02 0.65643572E+02</pdfrwt>
<totfact> 0.62132723E+02</totfact>
</mgrwt>
</event>
<event>
 7    1  0.3113151E-004  0.1191791E+03  0.7546771E-02  0.1308271E+00
          2   -1    0    0  503    0  0.00000000000E+00  0.00000000000E+00  0.13454795556E+04  0.13454795556E+04  0.00000000000E+00 0. -1.
          2   -1    0    0  502    0 -0.00000000000E+00 -0.00000000000E+00 -0.69150624437E+02  0.69150624437E+02  0.00000000000E+00 0. -1.
         25    2    1    2    0    0 -0.52145122803E+02  0.43506339441E+02  0.34314120568E+03  0.37146078857E+03  0.12500126002E+03 0.  0.
          4    1    3    3  501    0 -0.13200739739E+02  0.38854498265E+02  0.32610725599E+03  0.32868143677E+03  0.12700000000E+01 0.  1.
         -4    1    3    3    0  501 -0.38944383065E+02  0.46518411761E+01  0.17033949688E+02  0.42779351802E+02  0.12700000000E+01 0.  1.
          2    1    1    2  502    0  0.85477619643E+02 -0.98937845992E+02  0.25539413841E+02  0.13321930224E+03  0.00000000000E+00 0. -1.
          2    1    1    2  503    0 -0.33332496839E+02  0.55431506551E+02  0.90764831164E+03  0.90995008923E+03  0.00000000000E+00 0. -1.
<mgrwt>
<rscale>  0 0.87799180E+02</rscale>
<asrwt>0</asrwt>
<pdfrwt beam="1">  1        2 0.20699683E+00 0.64681584E+02</pdfrwt>
<pdfrwt beam="2">  1        2 0.10638559E-01 0.11917915E+03</pdfrwt>
<totfact> 0.16067918E+03</totfact>
</mgrwt>
</event>
<event>
 7    1  0.3113151E-004  0.2186525E+03  0.7546771E-02  0.1187634E+00
          2   -1    0    0  502    0  0.00000000000E+00  0.00000000000E+00  0.10290820883E+04  0.10290820883E+04  0.00000000000E+00 0. -1.
          1   -1    0    0  503    0 -0.00000000000E+00 -0.00000000000E+00 -0.47522538193E+03  0.47522538193E+03  0.00000000000E+00 0. -1.
         25    2    1    2    0    0  0.16778607187E+02  0.18699319612E+03  0.58848322792E+03  0.63022739193E+03  0.12500431566E+03 0.  0.
          4    1    3    3  501    0  0.12328656929E+02  0.15151993196E+03  0.27095550412E+03  0.31069081685E+03  0.12700000000E+01 0.  1.
         -4    1    3    3    0  501  0.44499502581E+01  0.35473264161E+02  0.31752772380E+03  0.31953657508E+03  0.12700000000E+01 0.  1.
          2    1    1    2  502    0 -0.63788209544E+02 -0.29573536351E+03  0.35524153791E+03  0.46660999900E+03  0.00000000000E+00 0. -1.
          1    1    1    2  503    0  0.47009602357E+02  0.10874216739E+03 -0.38986805950E+03  0.40747007927E+03  0.00000000000E+00 0. -1.
<mgrwt>
<rscale>  0 0.16094536E+03</rscale>
<asrwt>0</asrwt>
<pdfrwt beam="1">  1        2 0.15832032E+00 0.21865248E+03</pdfrwt>
<pdfrwt beam="2">  1        1 0.73111598E-01 0.11846840E+03</pdfrwt>
<totfact> 0.17179462E+02</totfact>
</mgrwt>
</event>
<event>
 7    1  0.3113151E-004  0.8575266E+02  0.7546771E-02  0.1428778E+00
         -1   -1    0    0    0  501 -0.00000000000E+00  0.00000000000E+00  0.26520720129E+03  0.26520720129E+03  0.00000000000E+00 0.  1.
          1   -1    0    0  503    0  0.00000000000E+00 -0.00000000000E+00 -0.87837239087E+03  0.87837239087E+03  0.00000000000E+00 0. -1.
         25    2    1    2    0    0  0.30682266096E+02 -0.47079860073E+02 -0.60400339882E+02  0.14976956906E+03  0.12499923233E+03 0.  0.
          4    1    3    3  502    0 -0.10000214381E+02  0.39795032412E+02 -0.20159019750E+02  0.45734536946E+02  0.12700000000E+01 0. -1.
         -4    1    3    3    0  502  0.40682480476E+02 -0.86874892485E+02 -0.40241320132E+02  0.10403503212E+03  0.12700000000E+01 0. -1.
          1    1    1    2  503    0  0.90199146564E+01 -0.31756124043E+02 -0.76408387540E+03  0.76479669124E+03  0.00000000000E+00 0. -1.
         -1    1    1    2    0  501 -0.39702180752E+02  0.78835984116E+02  0.21131902570E+03  0.22901333186E+03  0.00000000000E+00 0.  1.
<mgrwt>
<rscale>  0 0.53206112E+02</rscale>
<asrwt>0</asrwt>
<pdfrwt beam="2">  1        1 0.13513422E+00 0.33012275E+02</pdfrwt>
<pdfrwt beam="1">  1       -1 0.40801107E-01 0.85752660E+02</pdfrwt>
<totfact> 0.13460818E+02</totfact>
</mgrwt>
</event>
<event>
 7    1  0.3113151E-004  0.1392279E+03  0.7546771E-02  0.1306919E+00
          2   -1    0    0  503    0  0.00000000000E+00  0.00000000000E+00  0.11081603653E+04  0.11081603653E+04  0.00000000000E+00 0. -1.
         -2   -1    0    0    0  501 -0.00000000000E+00 -0.00000000000E+00 -0.54000865221E+02  0.54000865221E+02  0.00000000000E+00 0. -1.
         25    2    1    2    0    0 -0.74464747627E+02  0.13000051244E+03  0.59078574813E+03  0.62217432474E+03  0.12501183266E+03 0.  0.
          4    1    3    3  502    0 -0.83786392974E+02  0.15046829473E+03  0.50933033878E+03  0.53766148669E+03  0.12700000000E+01 0. -1.
         -4    1    3    3    0  502  0.93216453470E+01 -0.20467782291E+02  0.81455409348E+02  0.84512838054E+02  0.12700000000E+01 0. -1.
          2    1    1    2  503    0  0.18669800963E+02 -0.13537598346E+03  0.46423074219E+03  0.48392706099E+03  0.00000000000E+00 0. -1.
         -2    1    1    2    0  501  0.55794946664E+02  0.53754710171E+01 -0.85699026991E+00  0.56059844757E+02  0.00000000000E+00 0. -1.
<mgrwt>
<rscale>  0 0.88341279E+02</rscale>
<asrwt>0</asrwt>
<pdfrwt beam="1">  1        2 0.17048619E+00 0.13922788E+03</pdfrwt>
<pdfrwt beam="2">  1       -2 0.83078262E-02 0.56053294E+02</pdfrwt>
<totfact> 0.18674759E+03</totfact>
</mgrwt>
</event>
<event>
 7    1  0.3113151E-004  0.1048250E+03  0.7546771E-02  0.1325901E+00
         -2   -1    0    0    0  501 -0.00000000000E+00  0.00000000000E+00  0.99555375202E+02  0.99555375202E+02  0.00000000000E+00 0.  1.
          2   -1    0    0  503    0  0.00000000000E+00 -0.00000000000E+00 -0.10413680878E+04  0.10413680878E+04  0.00000000000E+00 0. -1.
         25    2    1    2    0    0  0.64438510656E+02 -0.33485341443E+02 -0.51215789862E+03  0.53217219416E+03  0.12501176494E+03 0.  0.
          4    1    3    3  502    0  0.37473394984E+02  0.36823612001E+02 -0.97801201115E+02  0.11102667054E+03  0.12700000000E+01 0. -1.
         -4    1    3    3    0  502  0.26965115672E+02 -0.70308953445E+02 -0.41435669750E+03  0.42114552362E+03  0.12700000000E+01 0. -1.
          2    1    1    2  503    0 -0.10811588935E+03  0.78576438767E+02 -0.49819219793E+03  0.51580884864E+03  0.00000000000E+00 0. -1.
         -2    1    1    2    0  501  0.43677378699E+02 -0.45091097323E+02  0.68537383968E+02  0.92942420180E+02  0.00000000000E+00 0.  1.
<mgrwt>
<rscale>  0 0.81120749E+02</rscale>
<asrwt>0</asrwt>
<pdfrwt beam="2">  1        2 0.16021048E+00 0.10482505E+03</pdfrwt>
<pdfrwt beam="1">  1       -2 0.15316211E-01 0.62776751E+02</pdfrwt>
<totfact> 0.80704944E+02</totfact>
</mgrwt>
</event>
<event>
 7    1  0.3113151E-004  0.9494745E+02  0.7546771E-02  0.1337155E+00
         -2   -1    0    0    0  501  0.00000000000E+00  0.00000000000E+00  0.69048316158E+02  0.69048316158E+02  0.00000000000E+00 0. -1.
         -3   -1    0    0    0  502 -0.00000000000E+00 -0.00000000000E+00 -0.57588413526E+03  0.57588413526E+03  0.00000000000E+00 0.  1.
         25    2    1    2    0    0 -0.16009464995E+02  0.54901102872E+02 -0.12778932702E+03  0.18768361853E+03  0.12499837798E+03 0.  0.
          4    1    3    3  503    0 -0.12321446099E+02 -0.77323171672E+01 -0.12395470475E+03  0.12481181231E+03  0.12700000000E+01 0. -1.
         -4    1    3    3    0  503 -0.36880188959E+01  0.62633420039E+02 -0.38346222745E+01  0.62871806218E+02  0.12700000000E+01 0. -1.
         -2    1    1    2    0  501  0.40681732031E+02  0.47827902142E+02  0.99306176604E+00  0.62797274750E+02  0.00000000000E+00 0. -1.
         -3    1    1    2    0  502 -0.24672267035E+02 -0.10272900501E+03 -0.38003955385E+03  0.39445155814E+03  0.00000000000E+00 0.  1.
<mgrwt>
<rscale>  0 0.77212017E+02</rscale>
<asrwt>0</asrwt>
<pdfrwt beam="1">  1       -2 0.10622818E-01 0.62789422E+02</pdfrwt>
<pdfrwt beam="2">  1       -3 0.88597558E-01 0.94947451E+02</pdfrwt>
<totfact> 0.25633072E+02</totfact>
</mgrwt>
</event>
<event>
 7    1  0.3113151E-004  0.1306925E+03  0.7546771E-02  0.1261033E+00
          2   -1    0    0  503    0  0.00000000000E+00  0.00000000000E+00  0.75191590895E+03  0.75191590895E+03  0.00000000000E+00 0. -1.
         -1   -1    0    0    0  501 -0.00000000000E+00 -0.00000000000E+00 -0.41959164393E+03  0.41959164393E+03  0.00000000000E+00 0.  1.
         25    2    1    2    0    0  0.10145757633E+03 -0.30603295693E+02  0.43334750452E+03  0.46329777537E+03  0.12499826994E+03 0.  0.
          4    1    3    3  502    0 -0.67162860432E+01 -0.41780796774E+02  0.21769164658E+03  0.22177017240E+03  0.12700000000E+01 0.  1.
         -4    1    3    3    0  502  0.10817386237E+03  0.11177501081E+02  0.21565585794E+03  0.24152760297E+03  0.12700000000E+01 0.  1.
          2    1    1    2  503    0 -0.18308384236E+03 -0.12191366599E+02  0.26970112974E+03  0.32620089230E+03  0.00000000000E+00 0. -1.
         -1    1    1    2    0  501  0.81626266034E+02  0.42794662292E+02 -0.37072436924E+03  0.38200888521E+03  0.00000000000E+00 0.  1.
<mgrwt>
<rscale>  0 0.10975045E+03</rscale>
<asrwt>0</asrwt>
<pdfrwt beam="1">  1        2 0.11567937E+00 0.13069249E+03</pdfrwt>
<pdfrwt beam="2">  1       -1 0.64552560E-01 0.92164149E+02</pdfrwt>
<totfact> 0.11674168E+02</totfact>
</mgrwt>
</event>
<event>
 7    1  0.3113151E-004  0.9356597E+02  0.7546771E-02  0.1374117E+00
          2   -1    0    0  502    0  0.00000000000E+00  0.00000000000E+00  0.35918206033E+04  0.35918206033E+04  0.00000000000E+00 0. -1.
          3   -1    0    0  503    0 -0.00000000000E+00 -0.00000000000E+00 -0.15613081398E+03  0.15613081398E+03  0.00000000000E+00 0. -1.
         25    2    1    2    0    0  0.34256954372E+01  0.77512927473E+02  0.90429036261E+02  0.17271500046E+03  0.12503228171E+03 0.  0.
          4    1    3    3  501    0  0.12731218210E+02 -0.33388493324E+02  0.19348912358E+02  0.40655488105E+02  0.12700000000E+01 0.  1.
         -4    1    3    3    0  501 -0.93055227732E+01  0.11090142080E+03  0.71080123903E+02  0.13205951235E+03  0.12700000000E+01 0.  1.
          2    1    1    2  502    0 -0.45452624675E+02  0.10303201210E+02  0.34394559933E+04  0.34397717405E+04  0.00000000000E+00 0. -1.
          3    1    1    2  503    0  0.42026929238E+02 -0.87816128683E+02 -0.94195240253E+02  0.13546467630E+03  0.00000000000E+00 0. -1.
<mgrwt>
<rscale>  0 0.66035696E+02</rscale>
<asrwt>0</asrwt>
<pdfrwt beam="1">  1        2 0.55258772E+00 0.46605762E+02</pdfrwt>
<pdfrwt beam="2">  1        3 0.24020128E-01 0.93565967E+02</pdfrwt>
<totfact> 0.11676932E+01</totfact>
</mgrwt>
</event>
<event>
 7    1  0.3113151E-004  0.5033086E+03  0.7546771E-02  0.1171159E+00
          1   -1    0    0  503    0  0.00000000000E+00  0.00000000000E+00  0.10600794789E+04  0.10600794789E+04  0.00000000000E+00 0. -1.
          1   -1    0    0  502    0 -0.00000000000E+00 -0.00000000000E+00 -0.37762165085E+03  0.37762165085E+03  0.00000000000E+00 0. -1.
         25    2    1    2    0    0  0.41620059328E+03 -0.32704249258E+03  0.31902779400E+03  0.63053798611E+03  0.12497876936E+03 0.  0.
          4    1    3    3  501    0  0.39537006410E+03 -0.33157803765E+03  0.32307352601E+03  0.60880177295E+03  0.12700000000E+01 0. -1.
         -4    1    3    3    0  501  0.20830529181E+02  0.45355450763E+01 -0.40457320138E+01  0.21736213162E+02  0.12700000000E+01 0. -1.
          1    1    1    2  502    0 -0.41092706977E+03  0.26531947757E+03  0.54593178176E+02  0.49217466102E+03  0.00000000000E+00 0. -1.
          1    1    1    2  503    0 -0.52735235103E+01  0.61723015011E+02  0.30883685591E+03  0.31498848265E+03  0.00000000000E+00 0. -1.
<mgrwt>
<rscale>  0 0.17657549E+03</rscale>
<asrwt>0</asrwt>
<pdfrwt beam="1">  1        1 0.16308915E+00 0.61947886E+02</pdfrwt>
<pdfrwt beam="2">  1        1 0.58095639E-01 0.50330859E+03</pdfrwt>
<totfact> 0.12412251E+02</totfact>
</mgrwt>
</event>
<event>
 7    1  0.3113151E-004  0.2736630E+03  0.7546771E-02  0.1117669E+00
         -2   -1    0    0    0  501 -0.00000000000E+00  0.00000000000E+00  0.26054877570E+03  0.26054877570E+03  0.00000000000E+00 0. -1.
          3   -1    0    0  503    0  0.00000000000E+00 -0.00000000000E+00 -0.68743330804E+03  0.68743330804E+03  0.00000000000E+00 0. -1.
         25    2    1    2    0    0 -0.19578336026E+03 -0.22845433560E+02 -0.59986827230E+02  0.24099036980E+03  0.12499960361E+03 0.  0.
          4    1    3    3  502    0 -0.19582352857E+03  0.13458090291E+02 -0.43267419060E+02  0.20100163430E+03  0.12700000000E+01 0.  1.
         -4    1    3    3    0  502  0.40168311185E-01 -0.36303523850E+02 -0.16719408170E+02  0.39988735502E+02  0.12700000000E+01 0.  1.
          3    1    1    2  503    0  0.37010994254E+03 -0.10495874810E+03 -0.19796163115E+03  0.43265057006E+03  0.00000000000E+00 0. -1.
         -2    1    1    2    0  501 -0.17432658228E+03  0.12780418166E+03 -0.16893607396E+03  0.27434114388E+03  0.00000000000E+00 0. -1.
<mgrwt>
<rscale>  0 0.24321607E+03</rscale>
<asrwt>0</asrwt>
<pdfrwt beam="2">  1        3 0.10575897E+00 0.27366299E+03</pdfrwt>
<pdfrwt beam="1">  1       -2 0.40084428E-01 0.21615658E+03</pdfrwt>
<totfact> 0.18880493E+01</totfact>
</mgrwt>
</event>
<event>
 7    1  0.3113151E-004  0.1416696E+03  0.7546771E-02  0.1269198E+00
          2   -1    0    0  503    0  0.00000000000E+00  0.00000000000E+00  0.81829972838E+03  0.81829972838E+03  0.00000000000E+00 0. -1.
         -1   -1    0    0    0  501 -0.00000000000E+00 -0.00000000000E+00 -0.14310580275E+03  0.14310580275E+03  0.00000000000E+00 0.  1.
         25    2    1    2    0    0 -0.44255646826E+02 -0.13200270936E+03  0.24505190367E+03  0.30831672622E+03  0.12500196246E+03 0.  0.
          4    1    3    3  502    0 -0.27427662137E+02 -0.13553307181E+03  0.25376581975E+03  0.28899860619E+03  0.12700000000E+01 0.  1.
         -4    1    3    3    0  502 -0.16827984689E+02  0.35303624562E+01 -0.87139160845E+01  0.19318120025E+02  0.12700000000E+01 0.  1.
          2    1    1    2  503    0  0.77961391216E+02 -0.93416920738E+01  0.48976886276E+03  0.49602296787E+03  0.00000000000E+00 0. -1.
         -1    1    1    2    0  501 -0.33705744390E+02  0.14134440143E+03 -0.59626840799E+02  0.15706583704E+03  0.00000000000E+00 0.  1.
<mgrwt>
<rscale>  0 0.10546928E+03</rscale>
<asrwt>0</asrwt>
<pdfrwt beam="1">  1        2 0.12589226E+00 0.78519079E+02</pdfrwt>
<pdfrwt beam="2">  1       -1 0.22016278E-01 0.14166963E+03</pdfrwt>
<totfact> 0.69981638E+02</totfact>
</mgrwt>
</event>
<event>
 7    1  0.3113151E-004  0.4730900E+02  0.7546771E-02  0.1574279E+00
          2   -1    0    0  503    0  0.00000000000E+00  0.00000000000E+00  0.93484826560E+03  0.93484826560E+03  0.00000000000E+00 0. -1.
         -1   -1    0    0    0  501 -0.00000000000E+00 -0.00000000000E+00 -0.13206099088E+02  0.13206099088E+02  0.00000000000E+00 0.  1.
         25    2    1    2    0    0  0.43503416822E+00  0.34024683138E+02  0.44890828331E+03  0.46724768840E+03  0.12507552589E+03 0.  0.
          4    1    3    3  502    0  0.50173707502E+02  0.97531819429E+01  0.35156909697E+03  0.35526746027E+03  0.12700000000E+01 0. -1.
         -4    1    3    3    0  502 -0.49738673334E+02  0.24271501195E+02  0.97339186342E+02  0.11198022813E+03  0.12700000000E+01 0. -1.
          2    1    1    2  503    0  0.17722834694E+02 -0.46465222665E+02  0.42873283160E+03  0.43160741036E+03  0.00000000000E+00 0. -1.
         -1    1    1    2    0  501 -0.18157868863E+02  0.12440539526E+02  0.44001051603E+02  0.49199265925E+02  0.00000000000E+00 0.  1.
<mgrwt>
<rscale>  0 0.32269319E+02</rscale>
<asrwt>0</asrwt>
<pdfrwt beam="1">  1        2 0.14382276E+00 0.47309004E+02</pdfrwt>
<pdfrwt beam="2">  1       -1 0.20317083E-02 0.22010798E+02</pdfrwt>
<totfact> 0.16636061E+04</totfact>
</mgrwt>
</event>
<event>
 7    1  0.3113151E-004  0.5164497E+02  0.7546771E-02  0.1504083E+00
         -1   -1    0    0    0  501 -0.00000000000E+00  0.00000000000E+00  0.61730979358E+01  0.61730979358E+01  0.00000000000E+00 0.  1.
          2   -1    0    0  503    0  0.00000000000E+00 -0.00000000000E+00 -0.22949235653E+04  0.22949235653E+04  0.00000000000E+00 0. -1.
         25    2    1    2    0    0  0.67167567573E+01 -0.43266410566E+02 -0.17103412530E+04  0.17154612582E+04  0.12499211797E+03 0.  0.
          4    1    3    3  502    0  0.20623463418E+02 -0.85480230173E+02 -0.11540417756E+04  0.11573876748E+04  0.12700000000E+01 0.  1.
         -4    1    3    3    0  502 -0.13906706661E+02  0.42213819607E+02 -0.55629947737E+03  0.55807358339E+03  0.12700000000E+01 0.  1.
          2    1    1    2  503    0 -0.31522023330E+02 -0.46606504415E+01 -0.32413917545E+03  0.32570164980E+03  0.00000000000E+00 0. -1.
         -1    1    1    2    0  501  0.24805266573E+02  0.47927061008E+02 -0.25427003893E+03  0.25993375526E+03  0.00000000000E+00 0.  1.
<mgrwt>
<rscale>  0 0.40566634E+02</rscale>
<asrwt>0</asrwt>
<pdfrwt beam="2">  1        2 0.35306500E+00 0.31864708E+02</pdfrwt>
<pdfrwt beam="1">  1       -1 0.94970781E-03 0.51644967E+02</pdfrwt>
<totfact> 0.12114202E+04</totfact>
</mgrwt>
</event>
<event>
 7    1  0.3113151E-004  0.1115736E+03  0.7546771E-02  0.1342311E+00
          1   -1    0    0  503    0  0.00000000000E+00  0.00000000000E+00  0.28571732053E+03  0.28571732053E+03  0.00000000000E+00 0. -1.
         -3   -1    0    0    0  501 -0.00000000000E+00 -0.00000000000E+00 -0.11954444157E+04  0.11954444157E+04  0.00000000000E+00 0.  1.
         25    2    1    2    0    0 -0.33897473942E+01 -0.94059607993E+02 -0.31861049663E+03  0.35495972843E+03  0.12500024001E+03 0.  0.
          4    1    3    3  502    0  0.45931663995E+02 -0.78064241385E+02 -0.26634485875E+03  0.28132710538E+03  0.12700000000E+01 0. -1.
         -4    1    3    3    0  502 -0.49321411389E+02 -0.15995366608E+02 -0.52265637878E+02  0.73632623049E+02  0.12700000000E+01 0. -1.
          1    1    1    2  503    0  0.49230560997E+02 -0.13687371783E+02  0.26106238443E+03  0.26601609133E+03  0.00000000000E+00 0. -1.
         -3    1    1    2    0  501 -0.45840813603E+02  0.10774697978E+03 -0.85217898297E+03  0.86018591645E+03  0.00000000000E+00 0.  1.
<mgrwt>
<rscale>  0 0.75506128E+02</rscale>
<asrwt>0</asrwt>
<pdfrwt beam="1">  1        1 0.43956512E-01 0.51097870E+02</pdfrwt>
<pdfrwt beam="2">  1       -3 0.18391452E+00 0.11157364E+03</pdfrwt>
<totfact> 0.10297333E+01</totfact>
</mgrwt>
</event>
<event>
 7    1  0.3113151E-004  0.1301309E+03  0.7546771E-02  0.1310388E+00
          1   -1    0    0  503    0 -0.00000000000E+00  0.00000000000E+00  0.29917178966E+04  0.29917178966E+04  0.00000000000E+00 0. -1.
          2   -1    0    0  502    0  0.00000000000E+00 -0.00000000000E+00 -0.10564596708E+04  0.10564596708E+04  0.00000000000E+00 0.  1.
         25    2    1    2    0    0 -0.12572302135E+03 -0.61278078377E+02  0.12048243114E+04  0.12193389681E+04  0.12499846722E+03 0.  0.
          4    1    3    3  501    0 -0.84796351422E+02 -0.65337745020E+02  0.41975211684E+03  0.43318921343E+03  0.12700000000E+01 0. -1.
         -4    1    3    3    0  501 -0.40926669932E+02  0.40596666430E+01  0.78507219456E+03  0.78614975467E+03  0.12700000000E+01 0. -1.
          2    1    1    2  502    0  0.13009761475E+03  0.33337106508E+01 -0.10446895172E+04  0.10527643090E+04  0.00000000000E+00 0.  1.
          1    1    1    2  503    0 -0.43745933950E+01  0.57944367726E+02  0.17751234316E+04  0.17760742902E+04  0.00000000000E+00 0. -1.
<mgrwt>
<rscale>  0 0.86958665E+02</rscale>
<asrwt>0</asrwt>
<pdfrwt beam="2">  1        2 0.16253226E+00 0.13013087E+03</pdfrwt>
<pdfrwt beam="1">  1        1 0.46026429E+00 0.58109266E+02</pdfrwt>
<totfact> 0.32971106E+00</totfact>
</mgrwt>
</event>
<event>
 7    1  0.3113151E-004  0.1139208E+03  0.7546771E-02  0.1304575E+00
          1   -1    0    0  503    0 -0.00000000000E+00  0.00000000000E+00  0.41832857036E+03  0.41832857036E+03  0.00000000000E+00 0. -1.
          2   -1    0    0  502    0  0.00000000000E+00 -0.00000000000E+00 -0.26046513561E+03  0.26046513561E+03  0.00000000000E+00 0. -1.
         25    2    1    2    0    0 -0.12676861731E+03 -0.31906079839E+02 -0.70109554724E+00  0.18087225410E+03  0.12500400194E+03 0.  0.
          4    1    3    3  501    0 -0.25476705491E+02  0.46322215514E+02 -0.29440414115E+00  0.52882036143E+02  0.12700000000E+01 0.  1.
         -4    1    3    3    0  501 -0.10129191182E+03 -0.78228295353E+02 -0.40669140609E+00  0.12799021796E+03  0.12700000000E+01 0.  1.
          2    1    1    2  502    0  0.18406593605E+02  0.67524383034E+02 -0.15185546185E+03  0.16720773393E+03  0.00000000000E+00 0. -1.
          1    1    1    2  503    0  0.10836202371E+03 -0.35618303195E+02  0.31041999215E+03  0.33071371794E+03  0.00000000000E+00 0. -1.
<mgrwt>
<rscale>  0 0.89292279E+02</rscale>
<asrwt>0</asrwt>
<pdfrwt beam="2">  1        2 0.40071559E-01 0.69988178E+02</pdfrwt>
<pdfrwt beam="1">  1        1 0.64358242E-01 0.11392083E+03</pdfrwt>
<totfact> 0.99031863E+02</totfact>
</mgrwt>
</event>
<event>
 7    1  0.3113151E-004  0.8841141E+02  0.7546771E-02  0.1389049E+00
         -1   -1    0    0    0  501 -0.00000000000E+00  0.00000000000E+00  0.28939601718E+02  0.28939601718E+02  0.00000000000E+00 0.  1.
          2   -1    0    0  503    0  0.00000000000E+00 -0.00000000000E+00 -0.92205612047E+03  0.92205612047E+03  0.00000000000E+00 0. -1.
         25    2    1    2    0    0  0.10212429310E+03  0.59733180218E+02 -0.36399915512E+03  0.40263830935E+03  0.12499919669E+03 0.  0.
          4    1    3    3  502    0  0.36359387205E+02  0.48509760202E+02 -0.31255391906E+03  0.31838148045E+03  0.12700000000E+01 0.  1.
         -4    1    3    3    0  502  0.65764905890E+02  0.11223420016E+02 -0.51445236055E+02  0.84256828900E+02  0.12700000000E+01 0.  1.
          2    1    1    2  503    0 -0.34431426136E+02 -0.26879012674E+02 -0.36745169090E+03  0.37003884874E+03  0.00000000000E+00 0. -1.
         -1    1    1    2    0  501 -0.67692866959E+02 -0.32854167544E+02 -0.16166567273E+03  0.17831856410E+03  0.00000000000E+00 0.  1.
<mgrwt>
<rscale>  0 0.62143972E+02</rscale>
<asrwt>0</asrwt>
<pdfrwt beam="2">  1        2 0.14185480E+00 0.43680710E+02</pdfrwt>
<pdfrwt beam="1">  1       -1 0.44522462E-02 0.88411413E+02</pdfrwt>
<totfact> 0.68739165E+03</totfact>
</mgrwt>
</event>
<event>
 7    1  0.3113151E-004  0.1282787E+03  0.7546771E-02  0.1299713E+00
         -3   -1    0    0    0  501 -0.00000000000E+00  0.00000000000E+00  0.43666935255E+03  0.43666935255E+03  0.00000000000E+00 0.  1.
          2   -1    0    0  503    0  0.00000000000E+00 -0.00000000000E+00 -0.13250136923E+03  0.13250136923E+03  0.00000000000E+00 0.  1.
         25    2    1    2    0    0  0.11790941544E+03  0.11123712798E+03  0.16825891057E+03  0.26496894558E+03  0.12498460802E+03 0.  0.
          4    1    3    3  502    0  0.74244412910E+02  0.87631063552E+02  0.30949827689E+02  0.11895772729E+03  0.12700000000E+01 0.  1.
         -4    1    3    3    0  502  0.43665002532E+02  0.23606064431E+02  0.13730908288E+03  0.14601121829E+03  0.12700000000E+01 0.  1.
          2    1    1    2  503    0 -0.64786081174E+02 -0.51911303880E+01 -0.51151295305E+02  0.82708156550E+02  0.00000000000E+00 0.  1.
         -3    1    1    2    0  501 -0.53123334268E+02 -0.10604599759E+03  0.18706036805E+03  0.22149361965E+03  0.00000000000E+00 0.  1.
<mgrwt>
<rscale>  0 0.91308877E+02</rscale>
<asrwt>0</asrwt>
<pdfrwt beam="2">  1        2 0.20384826E-01 0.64993724E+02</pdfrwt>
<pdfrwt beam="1">  1       -3 0.67179899E-01 0.12827871E+03</pdfrwt>
<totfact> 0.33960669E+02</totfact>
</mgrwt>
</event>
<event>
 7    1  0.3113151E-004  0.4287028E+02  0.7546771E-02  0.1565645E+00
          2   -1    0    0  503    0  0.00000000000E+00  0.00000000000E+00  0.12871896784E+03  0.12871896784E+03  0.00000000000E+00 0. -1.
         -1   -1    0    0    0  501 -0.00000000000E+00 -0.00000000000E+00 -0.88870095396E+02  0.88870095396E+02  0.00000000000E+00 0.  1.
         25    2    1    2    0    0  0.24539841656E+02  0.27595522017E+01  0.61694356249E+01  0.12756097667E+03  0.12499568743E+03 0.  0.
          4    1    3    3  502    0 -0.46820842434E+02 -0.17723079094E+02  0.16198816904E+02  0.52633766613E+02  0.12700000000E+01 0. -1.
         -4    1    3    3    0  502  0.71360684090E+02  0.20482631296E+02 -0.10029381279E+02  0.74927210060E+02  0.12700000000E+01 0. -1.
          2    1    1    2  503    0 -0.44119705797E+02  0.13791261378E+02  0.42621448136E+02  0.62875553049E+02  0.00000000000E+00 0. -1.
         -1    1    1    2    0  501  0.19579864142E+02 -0.16550813580E+02 -0.89420113141E+01  0.27152533515E+02  0.00000000000E+00 0.  1.
<mgrwt>
<rscale>  0 0.33152719E+02</rscale>
<asrwt>0</asrwt>
<pdfrwt beam="1">  1        2 0.19802918E-01 0.42870281E+02</pdfrwt>
<pdfrwt beam="2">  1       -1 0.13672322E-01 0.25637873E+02</pdfrwt>
<totfact> 0.96314167E+03</totfact>
</mgrwt>
</event>
<event>
 7    1  0.3113151E-004  0.3609766E+02  0.7546771E-02  0.1586863E+00
          2   -1    0    0  502    0  0.00000000000E+00  0.00000000000E+00  0.42885689659E+03  0.42885689659E+03  0.00000000000E+00 0. -1.
          1   -1    0    0  503    0 -0.00000000000E+00 -0.00000000000E+00 -0.19185202105E+04  0.19185202105E+04  0.00000000000E+00 0. -1.
         25    2    1    2    0    0 -0.98270954519E+01  0.10534440801E+02 -0.13985267189E+03  0.18812407747E+03  0.12499740974E+03 0.  0.
          4    1    3    3  501    0  0.60131333915E+00  0.38349524194E+02  0.63776372742E+01  0.38901603319E+02  0.12700000000E+01 0.  1.
         -4    1    3    3    0  501 -0.10428408791E+02 -0.27815083393E+02 -0.14623030917E+03  0.14922247416E+03  0.12700000000E+01 0.  1.
          2    1    1    2  502    0 -0.26115647096E+02 -0.55165748467E+01  0.40409318422E+03  0.40497377836E+03  0.00000000000E+00 0. -1.
          1    1    1    2  503    0  0.35942742548E+02 -0.50178659542E+01 -0.17539038262E+04  0.17542792512E+04  0.00000000000E+00 0. -1.
<mgrwt>
<rscale>  0 0.31040565E+02</rscale>
<asrwt>0</asrwt>
<pdfrwt beam="1">  1        2 0.65977985E-01 0.26691939E+02</pdfrwt>
<pdfrwt beam="2">  1        1 0.29515695E+00 0.36097664E+02</pdfrwt>
<totfact> 0.49883178E+01</totfact>
</mgrwt>
</event>
<event>
 7    1  0.3113151E-004  0.7904934E+02  0.7546771E-02  0.1349561E+00
          1   -1    0    0  503    0 -0.00000000000E+00  0.00000000000E+00  0.61752008741E+02  0.61752008741E+02  0.00000000000E+00 0. -1.
          2   -1    0    0  502    0  0.00000000000E+00 -0.00000000000E+00 -0.31421018517E+04  0.31421018517E+04  0.00000000000E+00 0. -1.
         25    2    1    2    0    0 -0.10581404333E+03 -0.99548418826E+02 -0.35176954514E+03  0.40058294818E+03  0.12497354131E+03 0.  0.
          4    1    3    3  501    0 -0.46830151003E+02  0.91036811158E+01 -0.31251316686E+02  0.57045576055E+02  0.12700000000E+01 0. -1.
         -4    1    3    3    0  501 -0.58983892331E+02 -0.10865209994E+03 -0.32051822845E+03  0.34353737212E+03  0.12700000000E+01 0. -1.
          2    1    1    2  502    0  0.55207995208E+02  0.54473125450E+02 -0.27341710431E+04  0.27352708343E+04  0.00000000000E+00 0. -1.
          1    1    1    2  503    0  0.50606048127E+02  0.45075293377E+02  0.55907451972E+01  0.68000078028E+02  0.00000000000E+00 0. -1.
<mgrwt>
<rscale>  0 0.73192644E+02</rscale>
<asrwt>0</asrwt>
<pdfrwt beam="2">  1        2 0.48340016E+00 0.79049344E+02</pdfrwt>
<pdfrwt beam="1">  1        1 0.95003115E-02 0.67769862E+02</pdfrwt>
<totfact> 0.17935407E+02</totfact>
</mgrwt>
</event>
<event>
 7    1  0.3113151E-004  0.2044524E+03  0.7546771E-02  0.1343630E+00
          3   -1    0    0  503    0 -0.00000000000E+00  0.00000000000E+00  0.40503465964E+03  0.40503465964E+03  0.00000000000E+00 0. -1.
          2   -1    0    0  502    0  0.00000000000E+00 -0.00000000000E+00 -0.52054253476E+03  0.52054253476E+03  0.00000000000E+00 0. -1.
         25    2    1    2    0    0 -0.91366958845E+02  0.19145722662E+03  0.29565573447E+03  0.38476049155E+03  0.12499812697E+03 0.  0.
          4    1    3    3  501    0 -0.44882034345E+02  0.10763106326E+03  0.61720761561E+02  0.13194661077E+03  0.12700000000E+01 0.  1.
         -4    1    3    3    0  501 -0.46484924500E+02  0.83826163355E+02  0.23393497291E+03  0.25281388079E+03  0.12700000000E+01 0.  1.
          2    1    1    2  502    0  0.63896664037E+02 -0.19379495345E+03 -0.44946932842E+03  0.49362125648E+03  0.00000000000E+00 0. -1.
          3    1    1    2  503    0  0.27470294807E+02  0.23377268333E+01  0.38305718829E+02  0.47195446375E+02  0.00000000000E+00 0. -1.
<mgrwt>
<rscale>  0 0.75077750E+02</rscale>
<asrwt>0</asrwt>
<pdfrwt beam="2">  1        2 0.80083467E-01 0.20445242E+03</pdfrwt>
<pdfrwt beam="1">  1        3 0.62313025E-01 0.27569586E+02</pdfrwt>
<totfact> 0.84732854E+01</totfact>
</mgrwt>
</event>
<event>
 7    1  0.3113151E-004  0.9271289E+02  0.7546771E-02  0.1335712E+00
          2   -1    0    0  502    0  0.00000000000E+00  0.00000000000E+00  0.81706282181E+03  0.81706282181E+03  0.00000000000E+00 0. -1.
          1   -1    0    0  503    0 -0.00000000000E+00 -0.00000000000E+00 -0.14337471662E+04  0.14337471662E+04  0.00000000000E+00 0.  1.
         25    2    1    2    0    0  0.62934235996E+02 -0.86425269886E+02 -0.43693588596E+02  0.17018967858E+03  0.12500140670E+03 0.  0.
          4    1    3    3  501    0  0.86494678606E+02 -0.91116576333E+02 -0.61862113757E+02  0.14004318594E+03  0.12700000000E+01 0.  1.
         -4    1    3    3    0  501 -0.23560442610E+02  0.46913064474E+01  0.18168525161E+02  0.30146492643E+02  0.12700000000E+01 0.  1.
          2    1    1    2  502    0  0.18609488181E+01  0.92881193047E+02  0.75014884053E+03  0.75587939653E+03  0.00000000000E+00 0. -1.
          1    1    1    2  503    0 -0.64795184814E+02 -0.64559231613E+01 -0.13231395963E+04  0.13247409129E+04  0.00000000000E+00 0.  1.
<mgrwt>
<rscale>  0 0.77698736E+02</rscale>
<asrwt>0</asrwt>
<pdfrwt beam="1">  1        2 0.12570197E+00 0.92712890E+02</pdfrwt>
<pdfrwt beam="2">  1        1 0.22057649E+00 0.65116011E+02</pdfrwt>
<totfact> 0.44549339E+01</totfact>
</mgrwt>
</event>
<event>
 7    1  0.3113151E-004  0.9443114E+02  0.7546771E-02  0.1477885E+00
         -3   -1    0    0    0  502 -0.00000000000E+00  0.00000000000E+00  0.84986183174E+03  0.84986183174E+03  0.00000000000E+00 0.  1.
         -2   -1    0    0    0  501  0.00000000000E+00 -0.00000000000E+00 -0.34916667355E+03  0.34916667355E+03  0.00000000000E+00 0.  1.
         25    2    1    2    0    0 -0.14474900469E+02  0.92337499602E+02  0.16376331069E+03  0.22622749318E+03  0.12499888067E+03 0.  0.
          4    1    3    3  503    0  0.17047028588E+02  0.95949719073E+02  0.52869796145E+02  0.11087731066E+03  0.12700000000E+01 0. -1.
         -4    1    3    3    0  503 -0.31521929058E+02 -0.36122194711E+01  0.11089351454E+03  0.11535018253E+03  0.12700000000E+01 0. -1.
         -2    1    1    2    0  501 -0.20474383113E+02 -0.42523426873E+01 -0.31415681414E+03  0.31485200754E+03  0.00000000000E+00 0.  1.
         -3    1    1    2    0  502  0.34949283583E+02 -0.88085156914E+02  0.65108866164E+03  0.65794900457E+03  0.00000000000E+00 0.  1.
<mgrwt>
<rscale>  0 0.44437355E+02</rscale>
<asrwt>0</asrwt>
<pdfrwt beam="2">  1       -2 0.53717950E-01 0.20911308E+02</pdfrwt>
<pdfrwt beam="1">  1       -3 0.13074797E+00 0.94431137E+02</pdfrwt>
<totfact> 0.63927068E+00</totfact>
</mgrwt>
</event>
<event>
 7    1  0.3113151E-004  0.9557043E+02  0.7546771E-02  0.1307918E+00
         -2   -1    0    0    0  501 -0.00000000000E+00  0.00000000000E+00  0.70436027738E+03  0.70436027738E+03  0.00000000000E+00 0.  1.
          2   -1    0    0  503    0  0.00000000000E+00 -0.00000000000E+00 -0.61103662405E+03  0.61103662405E+03  0.00000000000E+00 0. -1.
         25    2    1    2    0    0 -0.32047499283E+02  0.14155918943E+02 -0.18801241393E+01  0.12983034784E+03  0.12499980840E+03 0.  0.
          4    1    3    3  502    0  0.25597610041E+02  0.74602556929E+01 -0.48513324034E+02  0.55371911324E+02  0.12700000000E+01 0.  1.
         -4    1    3    3    0  502 -0.57645109323E+02  0.66956632501E+01  0.46633199895E+02  0.74458436511E+02  0.12700000000E+01 0.  1.
          2    1    1    2  503    0 -0.58800964949E+02 -0.55590371347E+02 -0.53824633725E+03  0.54429492228E+03  0.00000000000E+00 0. -1.
         -2    1    1    2    0  501  0.90848464232E+02  0.41434452404E+02  0.63345011471E+03  0.64127163131E+03  0.00000000000E+00 0.  1.
<mgrwt>
<rscale>  0 0.87939976E+02</rscale>
<asrwt>0</asrwt>
<pdfrwt beam="2">  1        2 0.94005634E-01 0.80918742E+02</pdfrwt>
<pdfrwt beam="1">  1       -2 0.10836312E+00 0.95570435E+02</pdfrwt>
<totfact> 0.37812531E+01</totfact>
</mgrwt>
</event>
<event>
 7    1  0.3113151E-004  0.7961067E+02  0.7546771E-02  0.1438699E+00
         -2   -1    0    0    0  501 -0.00000000000E+00  0.00000000000E+00  0.26668552628E+02  0.26668552628E+02  0.00000000000E+00 0.  1.
          2   -1    0    0  503    0  0.00000000000E+00 -0.00000000000E+00 -0.21863947563E+04  0.21863947563E+04  0.00000000000E+00 0.  1.
         25    2    1    2    0    0  0.48904013290E+02  0.83454258227E+02 -0.18236093730E+04  0.18304456527E+04  0.12499570580E+03 0.  0.
          4    1    3    3  502    0  0.40963703821E+02  0.35411009184E+02 -0.16266704390E+04  0.16275719015E+04  0.12700000000E+01 0. -1.
         -4    1    3    3    0  502  0.79403094696E+01  0.48043249043E+02 -0.19693893398E+03  0.20287375116E+03  0.12700000000E+01 0. -1.
          2    1    1    2  503    0 -0.38002459562E+02 -0.52311015879E+02 -0.34289050581E+03  0.34893341526E+03  0.00000000000E+00 0.  1.
         -2    1    1    2    0  501 -0.10901553729E+02 -0.31143242348E+02  0.67736750943E+01  0.33684241003E+02  0.00000000000E+00 0.  1.
<mgrwt>
<rscale>  0 0.51252756E+02</rscale>
<asrwt>0</asrwt>
<pdfrwt beam="2">  1        2 0.33636852E+00 0.79610668E+02</pdfrwt>
<pdfrwt beam="1">  1       -2 0.41028531E-02 0.32996142E+02</pdfrwt>
<totfact> 0.14396924E+03</totfact>
</mgrwt>
</event>
<event>
 7    1  0.3113151E-004  0.7722648E+02  0.7546771E-02  0.1421230E+00
          2   -1    0    0  502    0  0.00000000000E+00  0.00000000000E+00  0.19074160923E+04  0.19074160923E+04  0.00000000000E+00 0. -1.
          1   -1    0    0  503    0 -0.00000000000E+00 -0.00000000000E+00 -0.39950491873E+03  0.39950491873E+03  0.00000000000E+00 0. -1.
         25    2    1    2    0    0 -0.53727211111E+02 -0.78770892503E+02  0.27553910890E+02  0.15960689903E+03  0.12499470986E+03 0.  0.
          4    1    3    3  501    0 -0.84598401015E+02 -0.15741744226E+02  0.23900369178E+02  0.89317033720E+02  0.12700000000E+01 0. -1.
         -4    1    3    3    0  501  0.30871189904E+02 -0.63029148277E+02  0.36535417117E+01  0.70289865312E+02  0.12700000000E+01 0. -1.
          2    1    1    2  502    0 -0.10804507807E+02  0.37298178412E+02  0.18092132643E+04  0.18096299421E+04  0.00000000000E+00 0. -1.
          1    1    1    2  503    0  0.64531718918E+02  0.41472714091E+02 -0.32885600166E+03  0.33768416988E+03  0.00000000000E+00 0. -1.
<mgrwt>
<rscale>  0 0.54761539E+02</rscale>
<asrwt>0</asrwt>
<pdfrwt beam="1">  1        2 0.29344863E+00 0.38831579E+02</pdfrwt>
<pdfrwt beam="2">  1        1 0.61462296E-01 0.77226482E+02</pdfrwt>
<totfact> 0.86118060E+01</totfact>
</mgrwt>
</event>
<event>
 7    1  0.3113151E-004  0.9213032E+02  0.7546771E-02  0.1377526E+00
          1   -1    0    0  502    0  0.00000000000E+00  0.00000000000E+00  0.36786558938E+03  0.36786558938E+03  0.00000000000E+00 0. -1.
          1   -1    0    0  503    0 -0.00000000000E+00 -0.00000000000E+00 -0.24917848805E+03  0.24917848805E+03  0.00000000000E+00 0. -1.
         25    2    1    2    0    0 -0.83818856682E+02  0.61218005247E+02  0.17946902095E+03  0.24208545505E+03  0.12499197240E+03 0.  0.
          4    1    3    3  501    0 -0.48435435411E+02  0.53539943112E+02  0.19089628736E+03  0.20409684549E+03  0.12700000000E+01 0. -1.
         -4    1    3    3    0  501 -0.35383421271E+02  0.76780621356E+01 -0.11427266405E+02  0.37988609563E+02  0.12700000000E+01 0. -1.
          1    1    1    2  502    0 -0.68943452722E+01 -0.45507142012E+02  0.14360150518E+03  0.15079729527E+03  0.00000000000E+00 0. -1.
          1    1    1    2  503    0  0.90713201954E+02 -0.15710863235E+02 -0.20438342481E+03  0.22416132711E+03  0.00000000000E+00 0. -1.
<mgrwt>
<rscale>  0 0.65118581E+02</rscale>
<asrwt>0</asrwt>
<pdfrwt beam="1">  1        1 0.56594706E-01 0.46026427E+02</pdfrwt>
<pdfrwt beam="2">  1        1 0.38335152E-01 0.92130325E+02</pdfrwt>
<totfact> 0.90218956E+02</totfact>
</mgrwt>
</event>
<event>
 7    1  0.3113151E-004  0.6942410E+02  0.7546771E-02  0.1440858E+00
          2   -1    0    0  502    0  0.00000000000E+00  0.00000000000E+00  0.68622708053E+03  0.68622708053E+03  0.00000000000E+00 0. -1.
          1   -1    0    0  503    0 -0.00000000000E+00 -0.00000000000E+00 -0.23109032117E+03  0.23109032117E+03  0.00000000000E+00 0. -1.
         25    2    1    2    0    0  0.37181464990E+02  0.23049185857E+02 -0.85297312802E+02  0.15752713252E+03  0.12500175840E+03 0.  0.
          4    1    3    3  501    0  0.76050648163E+02  0.43421946157E+02 -0.65502106554E+02  0.10936775282E+03  0.12700000000E+01 0. -1.
         -4    1    3    3    0  501 -0.38869183173E+02 -0.20372760300E+02 -0.19795206248E+02  0.48159379701E+02  0.12700000000E+01 0. -1.
          2    1    1    2  502    0  0.24077381158E+02  0.28398994263E+02  0.63490676014E+03  0.63599749782E+03  0.00000000000E+00 0. -1.
          1    1    1    2  503    0 -0.61258846148E+02 -0.51448180120E+02 -0.94472687975E+02  0.12379277136E+03  0.00000000000E+00 0. -1.
<mgrwt>
<rscale>  0 0.50840922E+02</rscale>
<asrwt>0</asrwt>
<pdfrwt beam="1">  1        2 0.10557340E+00 0.37232018E+02</pdfrwt>
<pdfrwt beam="2">  1        1 0.35552357E-01 0.69424099E+02</pdfrwt>
<totfact> 0.74648895E+02</totfact>
</mgrwt>
</event>
<event>
 7    1  0.3113151E-004  0.7809127E+02  0.7546771E-02  0.1415664E+00
          1   -1    0    0  503    0  0.00000000000E+00  0.00000000000E+00  0.26856748765E+04  0.26856748765E+04  0.00000000000E+00 0. -1.
          1   -1    0    0  502    0 -0.00000000000E+00 -0.00000000000E+00 -0.63573106392E+02  0.63573106392E+02  0.00000000000E+00 0. -1.
         25    2    1    2    0    0 -0.84452290228E+02 -0.22537418723E+02  0.51650859026E+03  0.53855971248E+03  0.12500126212E+03 0.  0.
          4    1    3    3  501    0 -0.65575953731E+02 -0.61253570530E+01  0.91136263462E+02  0.11245068752E+03  0.12700000000E+01 0. -1.
         -4    1    3    3    0  501 -0.18876336497E+02 -0.16412061670E+02  0.42537232680E+03  0.42610902496E+03  0.12700000000E+01 0. -1.
          1    1    1    2  502    0  0.26645793300E+02 -0.29946773050E+02 -0.44089760264E+02  0.59587871894E+02  0.00000000000E+00 0. -1.
          1    1    1    2  503    0  0.57806496928E+02  0.52484191773E+02  0.21496829401E+04  0.21511003985E+04  0.00000000000E+00 0. -1.
<mgrwt>
<rscale>  0 0.55948983E+02</rscale>
<asrwt>0</asrwt>
<pdfrwt beam="1">  1        1 0.41318066E+00 0.78091268E+02</pdfrwt>
<pdfrwt beam="2">  1        1 0.97804800E-02 0.40085004E+02</pdfrwt>
<totfact> 0.10020248E+02</totfact>
</mgrwt>
</event>
<event>
 7    1  0.3113151E-004  0.3121968E+03  0.7546771E-02  0.1288135E+00
          2   -1    0    0  502    0  0.00000000000E+00  0.00000000000E+00  0.25030491363E+04  0.25030491363E+04  0.00000000000E+00 0. -1.
          1   -1    0    0  503    0 -0.00000000000E+00 -0.00000000000E+00 -0.53498767852E+03  0.53498767852E+03  0.00000000000E+00 0. -1.
         25    2    1    2    0    0 -0.33232267951E+03 -0.60876085468E+02  0.81850174202E+03  0.89425742417E+03  0.12492789082E+03 0.  0.
          4    1    3    3  501    0 -0.77441380898E+01  0.23198807150E+02  0.45553484925E+02  0.51719331170E+02  0.12700000000E+01 0. -1.
         -4    1    3    3    0  501 -0.32457854142E+03 -0.84074892617E+02  0.77294825709E+03  0.84253809300E+03  0.12700000000E+01 0. -1.
          2    1    1    2  502    0  0.28992259928E+02 -0.66437252528E+01  0.15979527760E+04  0.15982295719E+04  0.00000000000E+00 0. -1.
          1    1    1    2  503    0  0.30333041958E+03  0.67519810721E+02 -0.44839306023E+03  0.54554981875E+03  0.00000000000E+00 0. -1.
<mgrwt>
<rscale>  0 0.96363374E+02</rscale>
<asrwt>0</asrwt>
<pdfrwt beam="1">  1        2 0.38508448E+00 0.29743743E+02</pdfrwt>
<pdfrwt beam="2">  1        1 0.82305798E-01 0.31219675E+03</pdfrwt>
<totfact> 0.30604267E+01</totfact>
</mgrwt>
</event>
<event>
 7    1  0.3113151E-004  0.1299784E+03  0.7546771E-02  0.1260588E+00
          2   -1    0    0  502    0  0.00000000000E+00  0.00000000000E+00  0.77202881799E+03  0.77202881799E+03  0.00000000000E+00 0. -1.
          1   -1    0    0  503    0 -0.00000000000E+00 -0.00000000000E+00 -0.43741591061E+03  0.43741591061E+03  0.00000000000E+00 0. -1.
         25    2    1    2    0    0 -0.46655728042E+01  0.14922524052E+03 -0.12934839159E+03  0.23376467363E+03  0.12499990501E+03 0.  0.
          4    1    3    3  501    0  0.40690202136E+02  0.32487465490E+01 -0.37395348634E+02  0.55373928012E+02  0.12700000000E+01 0. -1.
         -4    1    3    3    0  501 -0.45355774940E+02  0.14597649397E+03 -0.91953042961E+02  0.17839074562E+03  0.12700000000E+01 0. -1.
          2    1    1    2  502    0  0.83646442597E+02 -0.99980382654E+02  0.70518000555E+03  0.71712735585E+03  0.00000000000E+00 0. -1.
          1    1    1    2  503    0 -0.78980869793E+02 -0.49244857869E+02 -0.24121870657E+03  0.25855269912E+03  0.00000000000E+00 0. -1.
<mgrwt>
<rscale>  0 0.10998996E+03</rscale>
<asrwt>0</asrwt>
<pdfrwt beam="1">  1        2 0.11877366E+00 0.12997837E+03</pdfrwt>
<pdfrwt beam="2">  1        1 0.67294756E-01 0.93075420E+02</pdfrwt>
<totfact> 0.28625521E+02</totfact>
</mgrwt>
</event>
<event>
 7    1  0.3113151E-004  0.1771974E+03  0.7546771E-02  0.1348269E+00
          1   -1    0    0  503    0  0.00000000000E+00  0.00000000000E+00  0.34947226807E+03  0.34947226807E+03  0.00000000000E+00 0. -1.
         -2   -1    0    0    0  501 -0.00000000000E+00 -0.00000000000E+00 -0.16596637044E+03  0.16596637044E+03  0.00000000000E+00 0.  1.
         25    2    1    2    0    0 -0.50607546250E+02 -0.18396174549E+03  0.20417564576E+03  0.30613028580E+03  0.12500004009E+03 0.  0.
          4    1    3    3  502    0 -0.14024317673E+02 -0.18828242039E+03  0.15275516145E+03  0.24286354927E+03  0.12700000000E+01 0. -1.
         -4    1    3    3    0  502 -0.36583228577E+02  0.43206749042E+01  0.51420484303E+02  0.63266736526E+02  0.12700000000E+01 0. -1.
          1    1    1    2  503    0 -0.18316642894E+02  0.24472971592E+02  0.11407204453E+02  0.32627443339E+02  0.00000000000E+00 0. -1.
         -2    1    1    2    0  501  0.68924189143E+02  0.15948877390E+03 -0.32076952584E+02  0.17668090937E+03  0.00000000000E+00 0.  1.
<mgrwt>
<rscale>  0 0.73597797E+02</rscale>
<asrwt>0</asrwt>
<pdfrwt beam="1">  1        1 0.53764964E-01 0.30568378E+02</pdfrwt>
<pdfrwt beam="2">  1       -2 0.25533288E-01 0.17719735E+03</pdfrwt>
<totfact> 0.87212321E+02</totfact>
</mgrwt>
</event>
<event>
 7    1  0.3113151E-004  0.1028033E+03  0.7546771E-02  0.1371818E+00
          2   -1    0    0  502    0  0.00000000000E+00  0.00000000000E+00  0.88998387121E+03  0.88998387121E+03  0.00000000000E+00 0. -1.
          1   -1    0    0  503    0 -0.00000000000E+00 -0.00000000000E+00 -0.77669493414E+03  0.77669493414E+03  0.00000000000E+00 0. -1.
         25    2    1    2    0    0  0.58560593575E+02 -0.13186150169E+03  0.51017629358E+03  0.54472148174E+03  0.12499937354E+03 0.  0.
          4    1    3    3  501    0  0.62893054137E+02 -0.78123823686E+01  0.12700741901E+03  0.14194740914E+03  0.12700000000E+01 0.  1.
         -4    1    3    3    0  501 -0.43324605613E+01 -0.12404911932E+03  0.38316887457E+03  0.40277407260E+03  0.12700000000E+01 0.  1.
          2    1    1    2  502    0 -0.25762934688E+02  0.34713802847E+02  0.35776694035E+03  0.36036920029E+03  0.00000000000E+00 0. -1.
          1    1    1    2  503    0 -0.32797658887E+02  0.97147698842E+02 -0.75465429686E+03  0.76158812332E+03  0.00000000000E+00 0. -1.
<mgrwt>
<rscale>  0 0.66664237E+02</rscale>
<asrwt>0</asrwt>
<pdfrwt beam="1">  1        2 0.13692060E+00 0.43229352E+02</pdfrwt>
<pdfrwt beam="2">  1        1 0.11949153E+00 0.10280331E+03</pdfrwt>
<totfact> 0.11577396E+02</totfact>
</mgrwt>
</event>
<event>
 7    1  0.3113151E-004  0.1264689E+03  0.7546771E-02  0.1354156E+00
          2   -1    0    0  502    0  0.00000000000E+00  0.00000000000E+00  0.12377949173E+04  0.12377949173E+04  0.00000000000E+00 0. -1.
          2   -1    0    0  503    0 -0.00000000000E+00 -0.00000000000E+00 -0.56082358905E+03  0.56082358905E+03  0.00000000000E+00 0. -1.
         25    2    1    2    0    0 -0.13282739485E+03 -0.55082853024E+02  0.81480557270E+02  0.20721948573E+03  0.12499438601E+03 0.  0.
          4    1    3    3  501    0 -0.11076306378E+03 -0.84663880109E+02  0.94091453526E+02  0.16820001017E+03  0.12700000000E+01 0. -1.
         -4    1    3    3    0  501 -0.22064331066E+02  0.29581027085E+02 -0.12610896256E+02  0.39019475563E+02  0.12700000000E+01 0. -1.
          2    1    1    2  502    0  0.12484405013E+03  0.15137114022E+02  0.10889870087E+04  0.10962243722E+04  0.00000000000E+00 0. -1.
          2    1    1    2  503    0  0.79833447164E+01  0.39945739002E+02 -0.49349623769E+03  0.49517464846E+03  0.00000000000E+00 0. -1.
<mgrwt>
<rscale>  0 0.71776031E+02</rscale>
<asrwt>0</asrwt>
<pdfrwt beam="1">  1        2 0.19042999E+00 0.12646894E+03</pdfrwt>
<pdfrwt beam="2">  1        2 0.86280552E-01 0.40735683E+02</pdfrwt>
<totfact> 0.17625123E+02</totfact>
</mgrwt>
</event>
<event>
 7    1  0.3113151E-004  0.7113955E+02  0.7546771E-02  0.1404644E+00
         -1   -1    0    0    0  501 -0.00000000000E+00  0.00000000000E+00  0.15349471243E+03  0.15349471243E+03  0.00000000000E+00 0.  1.
          1   -1    0    0  503    0  0.00000000000E+00 -0.00000000000E+00 -0.12764444322E+03  0.12764444322E+03  0.00000000000E+00 0. -1.
         25    2    1    2    0    0  0.70669716126E+01 -0.73737333655E+02  0.17652485065E+02  0.14636807858E+03  0.12499947095E+03 0.  0.
          4    1    3    3  502    0  0.24842743165E+02 -0.10061365607E+02  0.61451868512E+02  0.67054738903E+02  0.12700000000E+01 0. -1.
         -4    1    3    3    0  502 -0.17775771552E+02 -0.63675968048E+02 -0.43799383447E+02  0.79313339682E+02  0.12700000000E+01 0. -1.
          1    1    1    2  503    0  0.43811579281E+02  0.19492375258E+02 -0.24125280889E+02  0.53679012195E+02  0.00000000000E+00 0. -1.
         -1    1    1    2    0  501 -0.50878550894E+02  0.54244958397E+02  0.32323065034E+02  0.81092064875E+02  0.00000000000E+00 0.  1.
<mgrwt>
<rscale>  0 0.58406277E+02</rscale>
<asrwt>0</asrwt>
<pdfrwt beam="2">  1        1 0.19637607E-01 0.47952134E+02</pdfrwt>
<pdfrwt beam="1">  1       -1 0.23614571E-01 0.71139548E+02</pdfrwt>
<totfact> 0.36320788E+03</totfact>
</mgrwt>
</event>
<event>
 7    1  0.3113151E-004  0.1033873E+03  0.7546771E-02  0.1426084E+00
         -2   -1    0    0    0  501  0.00000000000E+00  0.00000000000E+00  0.10291445855E+03  0.10291445855E+03  0.00000000000E+00 0.  1.
         -1   -1    0    0    0  502 -0.00000000000E+00 -0.00000000000E+00 -0.20300322349E+04  0.20300322349E+04  0.00000000000E+00 0.  1.
         25    2    1    2    0    0 -0.12692438312E+03  0.67274274230E+01 -0.71145184160E+03  0.73344507454E+03  0.12499158830E+03 0.  0.
          4    1    3    3  503    0 -0.40869196142E+02 -0.41144813508E+02 -0.11377580092E+03  0.12770956365E+03  0.12700000000E+01 0.  1.
         -4    1    3    3    0  503 -0.86055186979E+02  0.47872240931E+02 -0.59767604067E+03  0.60573551089E+03  0.12700000000E+01 0.  1.
         -2    1    1    2    0  501  0.27922230094E+02  0.12084624594E+01  0.87859647999E+02  0.92197771456E+02  0.00000000000E+00 0.  1.
         -1    1    1    2    0  502  0.99002153027E+02 -0.79358898825E+01 -0.13035255828E+04  0.13073038475E+04  0.00000000000E+00 0.  1.
<mgrwt>
<rscale>  0 0.53754120E+02</rscale>
<asrwt>0</asrwt>
<pdfrwt beam="1">  1       -2 0.15832995E-01 0.27948369E+02</pdfrwt>
<pdfrwt beam="2">  1       -1 0.31231263E+00 0.10338727E+03</pdfrwt>
<totfact> 0.75418767E+00</totfact>
</mgrwt>
</event>
<event>
 7    1  0.3113151E-004  0.4277611E+02  0.7546771E-02  0.1497728E+00
          1   -1    0    0  503    0 -0.00000000000E+00  0.00000000000E+00  0.12813958077E+02  0.12813958077E+02  0.00000000000E+00 0. -1.
          2   -1    0    0  502    0  0.00000000000E+00 -0.00000000000E+00 -0.30830218000E+04  0.30830218000E+04  0.00000000000E+00 0.  1.
         25    2    1    2    0    0 -0.54680935336E+02 -0.12317874075E+02 -0.17135376937E+04  0.17190049723E+04  0.12499972927E+03 0.  0.
          4    1    3    3  501    0 -0.37264029369E+02 -0.66668475792E+02 -0.78277486684E+03  0.78649310144E+03  0.12700000000E+01 0.  1.
         -4    1    3    3    0  501 -0.17416905968E+02  0.54350601718E+02 -0.93076282689E+03  0.93251187088E+03  0.12700000000E+01 0.  1.
          2    1    1    2  502    0  0.32133975180E+02 -0.24131349978E+02 -0.13194618924E+04  0.13200737101E+04  0.00000000000E+00 0.  1.
          1    1    1    2  503    0  0.22546960156E+02  0.36449224052E+02 -0.37208255796E+02  0.56757075732E+02  0.00000000000E+00 0. -1.
<mgrwt>
<rscale>  0 0.41460832E+02</rscale>
<asrwt>0</asrwt>
<pdfrwt beam="2">  1        2 0.47431121E+00 0.40185998E+02</pdfrwt>
<pdfrwt beam="1">  1        1 0.19713775E-02 0.42776108E+02</pdfrwt>
<totfact> 0.16828887E+03</totfact>
</mgrwt>
</event>
<event>
 7    1  0.3113151E-004  0.8081624E+02  0.7546771E-02  0.1425539E+00
          1   -1    0    0  503    0  0.00000000000E+00  0.00000000000E+00  0.13666910803E+04  0.13666910803E+04  0.00000000000E+00 0. -1.
         -2   -1    0    0    0  501 -0.00000000000E+00 -0.00000000000E+00 -0.14114242622E+02  0.14114242622E+02  0.00000000000E+00 0.  1.
         25    2    1    2    0    0  0.52302521386E+01 -0.90315998202E+02  0.64899723189E+03  0.66708776904E+03  0.12499739811E+03 0.  0.
          4    1    3    3  502    0  0.56611568851E+02 -0.36669865817E+02  0.44290566137E+03  0.44801404728E+03  0.12700000000E+01 0.  1.
         -4    1    3    3    0  502 -0.51381316712E+02 -0.53646132384E+02  0.20609157052E+03  0.21907372176E+03  0.12700000000E+01 0.  1.
          1    1    1    2  503    0 -0.30248982407E+02  0.19339942318E+02  0.11854980842E+03  0.12386723288E+03  0.00000000000E+00 0. -1.
         -2    1    1    2    0  501  0.25018730269E+02  0.70976055883E+02  0.58502979734E+03  0.58985032097E+03  0.00000000000E+00 0.  1.
<mgrwt>
<rscale>  0 0.53866090E+02</rscale>
<asrwt>0</asrwt>
<pdfrwt beam="1">  1        1 0.21026006E+00 0.35903124E+02</pdfrwt>
<pdfrwt beam="2">  1       -2 0.21714230E-02 0.80816243E+02</pdfrwt>
<totfact> 0.54857142E+03</totfact>
</mgrwt>
</event>
<event>
 7    1  0.3113151E-004  0.1660767E+03  0.7546771E-02  0.1188117E+00
          2   -1    0    0  503    0  0.00000000000E+00  0.00000000000E+00  0.22697079705E+04  0.22697079705E+04  0.00000000000E+00 0. -1.
         -1   -1    0    0    0  501 -0.00000000000E+00 -0.00000000000E+00 -0.14772190161E+04  0.14772190161E+04  0.00000000000E+00 0.  1.
         25    2    1    2    0    0 -0.22372598497E+02 -0.39731801448E+02 -0.13688681821E+03  0.19089734845E+03  0.12499858973E+03 0.  0.
          4    1    3    3  502    0 -0.43184265153E+02 -0.34448331185E-01 -0.13944525744E+03  0.14598450146E+03  0.12700000000E+01 0. -1.
         -4    1    3    3    0  502  0.20811666656E+02 -0.39697353116E+02  0.25584392306E+01  0.44912846990E+02  0.12700000000E+01 0. -1.
          2    1    1    2  503    0 -0.54236288487E+02 -0.14534892022E+03  0.22323571037E+04  0.22377412992E+04  0.00000000000E+00 0. -1.
         -1    1    1    2    0  501  0.76608886984E+02  0.18508072166E+03 -0.13029813311E+04  0.13182883389E+04  0.00000000000E+00 0.  1.
<mgrwt>
<rscale>  0 0.16051433E+03</rscale>
<asrwt>0</asrwt>
<pdfrwt beam="1">  1        2 0.34918584E+00 0.15513827E+03</pdfrwt>
<pdfrwt beam="2">  1       -1 0.22726446E+00 0.16607668E+03</pdfrwt>
<totfact> 0.76622899E-01</totfact>
</mgrwt>
</event>
<event>
 7    1  0.3113151E-004  0.7190407E+02  0.7546771E-02  0.1402982E+00
          2   -1    0    0  503    0  0.00000000000E+00  0.00000000000E+00  0.24304530035E+03  0.24304530035E+03  0.00000000000E+00 0. -1.
          2   -1    0    0  502    0 -0.00000000000E+00 -0.00000000000E+00 -0.61830100412E+03  0.61830100412E+03  0.00000000000E+00 0. -1.
         25    2    1    2    0    0 -0.72764581531E+02 -0.66353471577E+02  0.60687671362E+02  0.17030516646E+03  0.12499355484E+03 0.  0.
          4    1    3    3  501    0  0.10710513937E+02 -0.65759892485E+02 -0.76002667393E+00  0.66642847396E+02  0.12700000000E+01 0. -1.
         -4    1    3    3    0  501 -0.83475095468E+02 -0.59357909161E+00  0.61447698036E+02  0.10366231906E+03  0.12700000000E+01 0. -1.
          2    1    1    2  502    0  0.48019057009E+02  0.21511391098E+01 -0.55309408438E+03  0.55517882111E+03  0.00000000000E+00 0. -1.
          2    1    1    2  503    0  0.24745524522E+02  0.64202332467E+02  0.11715070925E+03  0.13586231691E+03  0.00000000000E+00 0. -1.
<mgrwt>
<rscale>  0 0.58789696E+02</rscale>
<asrwt>0</asrwt>
<pdfrwt beam="1">  1        2 0.37391585E-01 0.71904069E+02</pdfrwt>
<pdfrwt beam="2">  1        2 0.95123230E-01 0.48067216E+02</pdfrwt>
<totfact> 0.10625156E+03</totfact>
</mgrwt>
</event>
<event>
 7    1  0.3113151E-004  0.1465429E+03  0.7546771E-02  0.1375810E+00
          2   -1    0    0  503    0  0.00000000000E+00  0.00000000000E+00  0.13446894500E+03  0.13446894500E+03  0.00000000000E+00 0. -1.
          2   -1    0    0  502    0 -0.00000000000E+00 -0.00000000000E+00 -0.58574257448E+03  0.58574257448E+03  0.00000000000E+00 0. -1.
         25    2    1    2    0    0  0.13386258276E+03  0.17052476207E+02 -0.27615919275E+03  0.33181142512E+03  0.12499977635E+03 0.  0.
          4    1    3    3  501    0  0.45576316112E+02 -0.51042941693E+02 -0.13990213411E+03  0.15574595506E+03  0.12700000000E+01 0. -1.
         -4    1    3    3    0  501  0.88286266652E+02  0.68095417901E+02 -0.13625705864E+03  0.17606547006E+03  0.12700000000E+01 0. -1.
          2    1    1    2  502    0 -0.15078348409E+03 -0.41029125292E+02 -0.25735392729E+03  0.30108153728E+03  0.00000000000E+00 0. -1.
          2    1    1    2  503    0  0.16920901325E+02  0.23976649084E+02  0.82239490564E+02  0.87318557083E+02  0.00000000000E+00 0. -1.
<mgrwt>
<rscale>  0 0.65577975E+02</rscale>
<asrwt>0</asrwt>
<pdfrwt beam="1">  1        2 0.20687530E-01 0.29346151E+02</pdfrwt>
<pdfrwt beam="2">  1        2 0.90114243E-01 0.14654292E+03</pdfrwt>
<totfact> 0.19904954E+03</totfact>
</mgrwt>
</event>
<event>
 7    1  0.3113151E-004  0.5330600E+02  0.7546771E-02  0.1507831E+00
          1   -1    0    0  503    0 -0.00000000000E+00  0.00000000000E+00  0.46396773461E+03  0.46396773461E+03  0.00000000000E+00 0. -1.
          2   -1    0    0  502    0  0.00000000000E+00 -0.00000000000E+00 -0.11924011544E+03  0.11924011544E+03  0.00000000000E+00 0. -1.
         25    2    1    2    0    0 -0.19651196290E+02 -0.39157643073E+02  0.71236509201E+01  0.13266171573E+03  0.12501557459E+03 0.  0.
          4    1    3    3  501    0  0.26324064561E+02 -0.68724911534E+02  0.20432727068E+02  0.76388343848E+02  0.12700000000E+01 0. -1.
         -4    1    3    3    0  501 -0.45975260851E+02  0.29567268461E+02 -0.13309076148E+02  0.56273371878E+02  0.12700000000E+01 0. -1.
          2    1    1    2  502    0 -0.27243602970E+02  0.12781929150E+02 -0.50469772439E+02  0.58760442014E+02  0.00000000000E+00 0. -1.
          1    1    1    2  503    0  0.46894799260E+02  0.26375713923E+02  0.38807374069E+03  0.39178569231E+03  0.00000000000E+00 0. -1.
<mgrwt>
<rscale>  0 0.40051717E+02</rscale>
<asrwt>0</asrwt>
<pdfrwt beam="2">  1        2 0.18344633E-01 0.30093049E+02</pdfrwt>
<pdfrwt beam="1">  1        1 0.71379650E-01 0.53305999E+02</pdfrwt>
<totfact> 0.19518144E+03</totfact>
</mgrwt>
</event>
<event>
 7    1  0.3113151E-004  0.1484076E+03  0.7546771E-02  0.1289657E+00
          2   -1    0    0  502    0  0.00000000000E+00  0.00000000000E+00  0.25886064625E+03  0.25886064625E+03  0.00000000000E+00 0. -1.
          2   -1    0    0  503    0 -0.00000000000E+00 -0.00000000000E+00 -0.13966099437E+04  0.13966099437E+04  0.00000000000E+00 0.  1.
         25    2    1    2    0    0 -0.19660324662E+02 -0.12191918869E+03 -0.30963393704E+03  0.35602669959E+03  0.12502407335E+03 0.  0.
          4    1    3    3  501    0  0.47931156439E+02 -0.72730447836E+02 -0.20003190079E+03  0.21817765246E+03  0.12700000000E+01 0. -1.
         -4    1    3    3    0  501 -0.67591481101E+02 -0.49188740853E+02 -0.10960203625E+03  0.13784904713E+03  0.12700000000E+01 0. -1.
          2    1    1    2  502    0 -0.60411779660E+02 -0.12458425046E+02  0.22575375016E+03  0.23402895374E+03  0.00000000000E+00 0. -1.
          2    1    1    2  503    0  0.80072104322E+02  0.13437761374E+03 -0.10538691106E+04  0.10654149366E+04  0.00000000000E+00 0.  1.
<mgrwt>
<rscale>  0 0.95677745E+02</rscale>
<asrwt>0</asrwt>
<pdfrwt beam="1">  1        2 0.39824715E-01 0.61683024E+02</pdfrwt>
<pdfrwt beam="2">  1        2 0.21486306E+00 0.14840762E+03</pdfrwt>
<totfact> 0.31827620E+02</totfact>
</mgrwt>
</event>
<event>
 7    1  0.3113151E-004  0.1227004E+03  0.7546771E-02  0.1291063E+00
          2   -1    0    0  503    0  0.00000000000E+00  0.00000000000E+00  0.50472830610E+03  0.50472830610E+03  0.00000000000E+00 0. -1.
          2   -1    0    0  502    0 -0.00000000000E+00 -0.00000000000E+00 -0.76069100140E+03  0.76069100140E+03  0.00000000000E+00 0. -1.
         25    2    1    2    0    0  0.83734662652E+02  0.16984773132E+03 -0.10549505828E+03  0.25022746271E+03  0.12499932083E+03 0.  0.
          4    1    3    3  501    0 -0.73166722352E+01  0.11895745817E+01  0.19838674688E+02  0.21216377958E+02  0.12700000000E+01 0.  1.
         -4    1    3    3    0  501  0.91051334887E+02  0.16865815674E+03 -0.12533373297E+03  0.22901108475E+03  0.12700000000E+01 0.  1.
          2    1    1    2  502    0 -0.48378519044E+02 -0.55507310319E+02 -0.57214277660E+03  0.57686124798E+03  0.00000000000E+00 0. -1.
          2    1    1    2  503    0 -0.35356143608E+02 -0.11434042100E+03  0.42167513957E+03  0.43833059681E+03  0.00000000000E+00 0. -1.
<mgrwt>
<rscale>  0 0.95050348E+02</rscale>
<asrwt>0</asrwt>
<pdfrwt beam="1">  1        2 0.77650509E-01 0.12270040E+03</pdfrwt>
<pdfrwt beam="2">  1        2 0.11702938E+00 0.73631125E+02</pdfrwt>
<totfact> 0.38372952E+02</totfact>
</mgrwt>
</event>
<event>
 7    1  0.3113151E-004  0.5550395E+02  0.7546771E-02  0.1461808E+00
          2   -1    0    0  502    0  0.00000000000E+00  0.00000000000E+00  0.11389513228E+04  0.11389513228E+04  0.00000000000E+00 0. -1.
          2   -1    0    0  503    0 -0.00000000000E+00 -0.00000000000E+00 -0.47728920729E+03  0.47728920729E+03  0.00000000000E+00 0. -1.
         25    2    1    2    0    0 -0.76773454637E+02 -0.35613064608E+02 -0.17449256886E+03  0.23071873368E+03  0.12498409410E+03 0.  0.
          4    1    3    3  501    0  0.21715447806E+02 -0.37843102944E+02 -0.93470165016E+02  0.10315980691E+03  0.12700000000E+01 0.  1.
         -4    1    3    3    0  501 -0.98488902443E+02  0.22300383361E+01 -0.81022403841E+02  0.12755892677E+03  0.12700000000E+01 0.  1.
          2    1    1    2  502    0  0.39823558082E+02 -0.27799253605E+01  0.11078911881E+04  0.11086101787E+04  0.00000000000E+00 0. -1.
          2    1    1    2  503    0  0.36949896555E+02  0.38392989969E+02 -0.27173650373E+03  0.27691161765E+03  0.00000000000E+00 0. -1.
<mgrwt>
<rscale>  0 0.47071687E+02</rscale>
<asrwt>0</asrwt>
<pdfrwt beam="1">  1        2 0.17522328E+00 0.39920468E+02</pdfrwt>
<pdfrwt beam="2">  1        2 0.73429109E-01 0.55503951E+02</pdfrwt>
<totfact> 0.25333374E+02</totfact>
</mgrwt>
</event>
<event>
 7    1  0.3113151E-004  0.4106745E+02  0.7546771E-02  0.1520313E+00
          2   -1    0    0  503    0  0.00000000000E+00  0.00000000000E+00  0.77026692240E+03  0.77026692240E+03  0.00000000000E+00 0. -1.
         -1   -1    0    0    0  501 -0.00000000000E+00 -0.00000000000E+00 -0.15486029781E+02  0.15486029781E+02  0.00000000000E+00 0.  1.
         25    2    1    2    0    0 -0.86727734689E+01 -0.19897420252E+02  0.38194969840E+03  0.40247064320E+03  0.12500368875E+03 0.  0.
          4    1    3    3  502    0 -0.21387906098E+02 -0.88924978377E+01  0.32832572111E+01  0.23428865166E+02  0.12700000000E+01 0. -1.
         -4    1    3    3    0  502  0.12715132629E+02 -0.11004922414E+02  0.37866644119E+03  0.37904177804E+03  0.12700000000E+01 0. -1.
          2    1    1    2  503    0 -0.38740878947E+02  0.13626430113E+02  0.17286626841E+03  0.17767746636E+03  0.00000000000E+00 0. -1.
         -1    1    1    2    0  501  0.47413652416E+02  0.62709901390E+01  0.19996492581E+03  0.20560484261E+03  0.00000000000E+00 0.  1.
<mgrwt>
<rscale>  0 0.38401800E+02</rscale>
<asrwt>0</asrwt>
<pdfrwt beam="1">  1        2 0.11850257E+00 0.41067448E+02</pdfrwt>
<pdfrwt beam="2">  1       -1 0.23824667E-02 0.35909176E+02</pdfrwt>
<totfact> 0.18523509E+04</totfact>
</mgrwt>
</event>
<event>
 7    1  0.3113151E-004  0.6328265E+02  0.7546771E-02  0.1410257E+00
          2   -1    0    0  503    0  0.00000000000E+00  0.00000000000E+00  0.32814014288E+03  0.32814014288E+03  0.00000000000E+00 0.  1.
         -2   -1    0    0    0  501 -0.00000000000E+00 -0.00000000000E+00 -0.64723099082E+03  0.64723099082E+03  0.00000000000E+00 0.  1.
         25    2    1    2    0    0  0.88535014072E+02  0.18393679293E+02 -0.11147525818E+03  0.19033887903E+03  0.12500151811E+03 0.  0.
          4    1    3    3  502    0  0.73345304681E+02 -0.37773277114E+02 -0.10229000701E+03  0.13141998561E+03  0.12700000000E+01 0. -1.
         -4    1    3    3    0  502  0.15189709391E+02  0.56166956407E+02 -0.91852511691E+01  0.58918893425E+02  0.12700000000E+01 0. -1.
          2    1    1    2  503    0 -0.30397646459E+02 -0.41680339125E+02  0.28440300284E+03  0.28904382991E+03  0.00000000000E+00 0.  1.
         -2    1    1    2    0  501 -0.58137367613E+02  0.23286659833E+02 -0.49201859260E+03  0.49598842476E+03  0.00000000000E+00 0.  1.
<mgrwt>
<rscale>  0 0.57136609E+02</rscale>
<asrwt>0</asrwt>
<pdfrwt beam="1">  1        2 0.50483099E-01 0.51587475E+02</pdfrwt>
<pdfrwt beam="2">  1       -2 0.99573998E-01 0.63282648E+02</pdfrwt>
<totfact> 0.89914173E+01</totfact>
</mgrwt>
</event>
<event>
 7    1  0.3113151E-004  0.8728779E+02  0.7546771E-02  0.1384101E+00
          1   -1    0    0  503    0 -0.00000000000E+00  0.00000000000E+00  0.18235933495E+03  0.18235933495E+03  0.00000000000E+00 0. -1.
          2   -1    0    0  502    0  0.00000000000E+00 -0.00000000000E+00 -0.12800017258E+04  0.12800017258E+04  0.00000000000E+00 0. -1.
         25    2    1    2    0    0 -0.13231307250E+03  0.15700996268E+01 -0.97686222414E+03  0.99367749167E+03  0.12500375249E+03 0.  0.
          4    1    3    3  501    0 -0.11068914355E+03 -0.10226914574E+02 -0.95265015354E+03  0.95911448964E+03  0.12700000000E+01 0. -1.
         -4    1    3    3    0  501 -0.21623928948E+02  0.11797014201E+02 -0.24212070595E+02  0.34563002035E+02  0.12700000000E+01 0. -1.
          2    1    1    2  502    0  0.45772649791E+02  0.50145154275E+01 -0.28192082008E+03  0.28565648886E+03  0.00000000000E+00 0. -1.
          1    1    1    2  503    0  0.86540422710E+02 -0.65846150544E+01  0.16114065338E+03  0.18302708021E+03  0.00000000000E+00 0. -1.
<mgrwt>
<rscale>  0 0.63397932E+02</rscale>
<asrwt>0</asrwt>
<pdfrwt beam="2">  1        2 0.19692334E+00 0.46046507E+02</pdfrwt>
<pdfrwt beam="1">  1        1 0.28055283E-01 0.87287789E+02</pdfrwt>
<totfact> 0.44784816E+02</totfact>
</mgrwt>
</event>
<event>
 7    1  0.3113151E-004  0.1392939E+03  0.7546771E-02  0.1243748E+00
          3   -1    0    0  503    0 -0.00000000000E+00  0.00000000000E+00  0.15298216435E+03  0.15298216435E+03  0.00000000000E+00 0. -1.
          2   -1    0    0  502    0  0.00000000000E+00 -0.00000000000E+00 -0.18905547174E+04  0.18905547174E+04  0.00000000000E+00 0. -1.
         25    2    1    2    0    0 -0.10689712912E+03 -0.15250481202E+03 -0.51079646743E+03  0.55787400227E+03  0.12500262944E+03 0.  0.
          4    1    3    3  501    0 -0.46027502208E+01 -0.37480301413E+02 -0.26620765568E+03  0.26887559790E+03  0.12700000000E+01 0.  1.
         -4    1    3    3    0  501 -0.10229437890E+03 -0.11502451060E+03 -0.24458881175E+03  0.28899840436E+03  0.12700000000E+01 0.  1.
          2    1    1    2  502    0  0.10164679766E+03  0.14677089017E+02 -0.13169017734E+04  0.13209003631E+04  0.00000000000E+00 0. -1.
          3    1    1    2  503    0  0.52503314585E+01  0.13782772300E+03  0.90125687784E+02  0.16476251639E+03  0.00000000000E+00 0. -1.
<mgrwt>
<rscale>  0 0.11960610E+03</rscale>
<asrwt>0</asrwt>
<pdfrwt beam="2">  1        2 0.29085458E+00 0.10270097E+03</pdfrwt>
<pdfrwt beam="1">  1        3 0.23535717E-01 0.13929391E+03</pdfrwt>
<totfact> 0.94426534E+01</totfact>
</mgrwt>
</event>
<event>
 7    1  0.3113151E-004  0.1438353E+03  0.7546771E-02  0.1382405E+00
          1   -1    0    0  502    0  0.00000000000E+00  0.00000000000E+00  0.26212066885E+04  0.26212066885E+04  0.00000000000E+00 0. -1.
          1   -1    0    0  503    0 -0.00000000000E+00 -0.00000000000E+00 -0.63194084236E+03  0.63194084236E+03  0.00000000000E+00 0. -1.
         25    2    1    2    0    0  0.39950105608E+02  0.12839801277E+03  0.96316501986E+02  0.20732424694E+03  0.12499765676E+03 0.  0.
          4    1    3    3  501    0 -0.72338703709E+01  0.12864939255E+03  0.95020607011E+02  0.16010472741E+03  0.12700000000E+01 0. -1.
         -4    1    3    3    0  501  0.47183975978E+02 -0.25137978120E+00  0.12958949752E+01  0.47219519531E+02  0.12700000000E+01 0. -1.
          1    1    1    2  502    0 -0.68252199716E+02 -0.12711636706E+03  0.24669291287E+04  0.24711447265E+04  0.00000000000E+00 0. -1.
          1    1    1    2  503    0  0.28302094108E+02 -0.12816457052E+01 -0.57397978458E+03  0.57467855733E+03  0.00000000000E+00 0. -1.
<mgrwt>
<rscale>  0 0.63835813E+02</rscale>
<asrwt>0</asrwt>
<pdfrwt beam="1">  1        1 0.40326256E+00 0.14383526E+03</pdfrwt>
<pdfrwt beam="2">  1        1 0.97221670E-01 0.28331099E+02</pdfrwt>
<totfact> 0.61672175E+00</totfact>
</mgrwt>
</event>
<event>
 7    1  0.3113151E-004  0.3927134E+03  0.7546771E-02  0.1046332E+00
          2   -1    0    0  503    0  0.00000000000E+00  0.00000000000E+00  0.21084526167E+04  0.21084526167E+04  0.00000000000E+00 0. -1.
         -1   -1    0    0    0  501 -0.00000000000E+00 -0.00000000000E+00 -0.18286378571E+02  0.18286378571E+02  0.00000000000E+00 0.  1.
         25    2    1    2    0    0 -0.51675473275E+02  0.15438191538E+03  0.13068958244E+04  0.13229194151E+04  0.12503980451E+03 0.  0.
          4    1    3    3  502    0  0.21588785445E+02  0.12310397509E+03  0.84726385742E+03  0.85643348914E+03  0.12700000000E+01 0. -1.
         -4    1    3    3    0  502 -0.73264258720E+02  0.31277940286E+02  0.45963196695E+03  0.46648592594E+03  0.12700000000E+01 0. -1.
          2    1    1    2  503    0  0.63399701379E+02 -0.66408252688E+02  0.40529050444E+03  0.41555982860E+03  0.00000000000E+00 0. -1.
         -1    1    1    2    0  501 -0.11724228104E+02 -0.87973662692E+02  0.37797990937E+03  0.38825975163E+03  0.00000000000E+00 0.  1.
<mgrwt>
<rscale>  0 0.39271345E+03</rscale>
<asrwt>0</asrwt>
<pdfrwt beam="1">  1        2 0.32437713E+00 0.39271345E+03</pdfrwt>
<pdfrwt beam="2">  1       -1 0.28132907E-02 0.39271345E+03</pdfrwt>
<totfact> 0.30572649E+03</totfact>
</mgrwt>
</event>
<event>
 7    1  0.3113151E-004  0.2296768E+03  0.7546771E-02  0.1222771E+00
          2   -1    0    0  503    0  0.00000000000E+00  0.00000000000E+00  0.10804032323E+04  0.10804032323E+04  0.00000000000E+00 0. -1.
          2   -1    0    0  502    0 -0.00000000000E+00 -0.00000000000E+00 -0.27544856897E+04  0.27544856897E+04  0.00000000000E+00 0. -1.
         25    2    1    2    0    0  0.16740176960E+03 -0.24382691091E+02 -0.36832284026E+02  0.21354231454E+03  0.12500333941E+03 0.  0.
          4    1    3    3  501    0  0.17600781009E+03 -0.49186605631E+02 -0.24107264339E+02  0.18433893913E+03  0.12700000000E+01 0.  1.
         -4    1    3    3    0  501 -0.86060404892E+01  0.24803914541E+02 -0.12725019687E+02  0.29203375412E+02  0.12700000000E+01 0.  1.
          2    1    1    2  502    0  0.56537812102E+02 -0.52653033409E+02 -0.26145864094E+04  0.26157276154E+04  0.00000000000E+00 0. -1.
          2    1    1    2  503    0 -0.22393958170E+03  0.77035724499E+02  0.97733623595E+03  0.10056189921E+04  0.00000000000E+00 0. -1.
<mgrwt>
<rscale>  0 0.13320838E+03</rscale>
<asrwt>0</asrwt>
<pdfrwt beam="1">  1        2 0.16621588E+00 0.22967683E+03</pdfrwt>
<pdfrwt beam="2">  1        2 0.42376702E+00 0.77258437E+02</pdfrwt>
<totfact> 0.12843992E+01</totfact>
</mgrwt>
</event>
<event>
 7    1  0.3113151E-004  0.4299439E+02  0.7546771E-02  0.1535060E+00
          1   -1    0    0  503    0  0.00000000000E+00  0.00000000000E+00  0.19305420556E+02  0.19305420556E+02  0.00000000000E+00 0. -1.
         -2   -1    0    0    0  501 -0.00000000000E+00 -0.00000000000E+00 -0.24352907908E+04  0.24352907908E+04  0.00000000000E+00 0. -1.
         25    2    1    2    0    0 -0.64694603683E+02  0.34095813049E+02 -0.30402330540E+03  0.33675456212E+03  0.12500219467E+03 0.  0.
          4    1    3    3  502    0 -0.86479589464E+02 -0.23696904225E+01 -0.26604653148E+03  0.27976187131E+03  0.12700000000E+01 0. -1.
         -4    1    3    3    0  502  0.21784985780E+02  0.36465503472E+02 -0.37976773920E+02  0.56992690815E+02  0.12700000000E+01 0. -1.
          1    1    1    2  503    0  0.29335398029E+02 -0.10358856788E+02 -0.86374933375E+02  0.91806865794E+02  0.00000000000E+00 0. -1.
         -2    1    1    2    0  501  0.35359205654E+02 -0.23736956261E+02 -0.20255871314E+04  0.20260347834E+04  0.00000000000E+00 0. -1.
<mgrwt>
<rscale>  0 0.36572979E+02</rscale>
<asrwt>0</asrwt>
<pdfrwt beam="1">  1        1 0.29700664E-02 0.31110633E+02</pdfrwt>
<pdfrwt beam="2">  1       -2 0.37465991E+00 0.42994392E+02</pdfrwt>
<totfact> 0.40137271E+01</totfact>
</mgrwt>
</event>
<event>
 7    1  0.3113151E-004  0.1138879E+03  0.7546771E-02  0.1266498E+00
          1   -1    0    0  503    0  0.00000000000E+00  0.00000000000E+00  0.10814417526E+04  0.10814417526E+04  0.00000000000E+00 0. -1.
         -2   -1    0    0    0  501 -0.00000000000E+00 -0.00000000000E+00 -0.38838146159E+03  0.38838146159E+03  0.00000000000E+00 0.  1.
         25    2    1    2    0    0 -0.34775632439E+02  0.20276693543E+03  0.82610774596E+01  0.24086752229E+03  0.12500057271E+03 0.  0.
          4    1    3    3  502    0 -0.75514180610E+02  0.13622488857E+03  0.32584382436E+02  0.15913191578E+03  0.12700000000E+01 0. -1.
         -4    1    3    3    0  502  0.40738548171E+02  0.66542046855E+02 -0.24323304976E+02  0.81735606511E+02  0.12700000000E+01 0. -1.
          1    1    1    2  503    0  0.81697578266E+01 -0.99932474632E+02  0.94375239626E+03  0.94906365955E+03  0.00000000000E+00 0. -1.
         -2    1    1    2    0  501  0.26605874612E+02 -0.10283446080E+03 -0.25895318276E+03  0.27989203231E+03  0.00000000000E+00 0.  1.
<mgrwt>
<rscale>  0 0.10686004E+03</rscale>
<asrwt>0</asrwt>
<pdfrwt beam="1">  1        1 0.16637565E+00 0.10026587E+03</pdfrwt>
<pdfrwt beam="2">  1       -2 0.59750995E-01 0.11388788E+03</pdfrwt>
<totfact> 0.35716321E+01</totfact>
</mgrwt>
</event>
<event>
 7    1  0.3113151E-004  0.2500863E+03  0.7546771E-02  0.1246909E+00
         -1   -1    0    0    0  501 -0.00000000000E+00  0.00000000000E+00  0.77112067387E+02  0.77112067387E+02  0.00000000000E+00 0.  1.
          2   -1    0    0  503    0  0.00000000000E+00 -0.00000000000E+00 -0.18475019910E+04  0.18475019910E+04  0.00000000000E+00 0. -1.
         25    2    1    2    0    0 -0.47255155410E+02 -0.24156587186E+03 -0.10645414238E+04  0.10997552444E+04  0.12500413738E+03 0.  0.
          4    1    3    3  502    0 -0.75841579312E+02 -0.18680849758E+03 -0.93146372492E+03  0.95303496455E+03  0.12700000000E+01 0.  1.
         -4    1    3    3    0  502  0.28586423902E+02 -0.54757374281E+02 -0.13307769893E+03  0.14672027986E+03  0.12700000000E+01 0.  1.
          2    1    1    2  503    0 -0.54382022051E+02  0.10630509667E+02 -0.48910675092E+03  0.49223553900E+03  0.00000000000E+00 0. -1.
         -1    1    1    2    0  501  0.10163717746E+03  0.23093536219E+03 -0.21674174880E+03  0.33262327493E+03  0.00000000000E+00 0.  1.
<mgrwt>
<rscale>  0 0.11771834E+03</rscale>
<asrwt>0</asrwt>
<pdfrwt beam="2">  1        2 0.28423105E+00 0.55411299E+02</pdfrwt>
<pdfrwt beam="1">  1       -1 0.11863396E-01 0.25008632E+03</pdfrwt>
<totfact> 0.55427167E+02</totfact>
</mgrwt>
</event>
<event>
 7    1  0.3113151E-004  0.3020948E+02  0.7546771E-02  0.1640314E+00
          2   -1    0    0  502    0  0.00000000000E+00  0.00000000000E+00  0.36366391969E+02  0.36366391969E+02  0.00000000000E+00 0.  1.
          2   -1    0    0  503    0 -0.00000000000E+00 -0.00000000000E+00 -0.21524177289E+04  0.21524177289E+04  0.00000000000E+00 0. -1.
         25    2    1    2    0    0 -0.18936887322E+02 -0.34156564030E+02 -0.76880355540E+03  0.77987803344E+03  0.12500225470E+03 0.  0.
          4    1    3    3  501    0  0.38211487822E+02 -0.45373993240E+02 -0.55891668715E+03  0.56205728635E+03  0.12700000000E+01 0.  1.
         -4    1    3    3    0  501 -0.57148375144E+02  0.11217429211E+02 -0.20988686825E+03  0.21782074709E+03  0.12700000000E+01 0.  1.
          2    1    1    2  502    0 -0.85086862733E+01  0.21637461548E+02  0.26256209489E+02  0.35070871404E+02  0.00000000000E+00 0.  1.
          2    1    1    2  503    0  0.27445573595E+02  0.12519102482E+02 -0.13735039910E+04  0.13738352160E+04  0.00000000000E+00 0. -1.
<mgrwt>
<rscale>  0 0.26502458E+02</rscale>
<asrwt>0</asrwt>
<pdfrwt beam="1">  1        2 0.55948281E-02 0.23250322E+02</pdfrwt>
<pdfrwt beam="2">  1        2 0.33114127E+00 0.30209485E+02</pdfrwt>
<totfact> 0.13342848E+03</totfact>
</mgrwt>
</event>
<event>
 7    1  0.3113151E-004  0.1181631E+03  0.7546771E-02  0.1300322E+00
          1   -1    0    0  502    0  0.00000000000E+00  0.00000000000E+00  0.17801766050E+04  0.17801766050E+04  0.00000000000E+00 0. -1.
          1   -1    0    0  503    0 -0.00000000000E+00 -0.00000000000E+00 -0.93130339198E+03  0.93130339198E+03  0.00000000000E+00 0. -1.
         25    2    1    2    0    0  0.54915866080E+02 -0.77886157155E+02 -0.35701663272E+02  0.16118609350E+03  0.12499736859E+03 0.  0.
          4    1    3    3  501    0 -0.46651673023E+01  0.31316832193E+02  0.25282396892E+00  0.31688871620E+02  0.12700000000E+01 0.  1.
         -4    1    3    3    0  501  0.59581033382E+02 -0.10920298935E+03 -0.35954487241E+02  0.12949722188E+03  0.12700000000E+01 0.  1.
          1    1    1    2  502    0  0.59159815301E+02  0.37720687261E+02  0.17123217246E+04  0.17137585660E+04  0.00000000000E+00 0. -1.
          1    1    1    2  503    0 -0.11407568138E+03  0.40165469893E+02 -0.82774684828E+03  0.83653533751E+03  0.00000000000E+00 0. -1.
<mgrwt>
<rscale>  0 0.91052621E+02</rscale>
<asrwt>0</asrwt>
<pdfrwt beam="1">  1        1 0.27387332E+00 0.70162198E+02</pdfrwt>
<pdfrwt beam="2">  1        1 0.14327745E+00 0.11816306E+03</pdfrwt>
<totfact> 0.12437821E+01</totfact>
</mgrwt>
</event>
<event>
 7    1  0.3113151E-004  0.2158045E+03  0.7546771E-02  0.1224020E+00
          2   -1    0    0  502    0  0.00000000000E+00  0.00000000000E+00  0.14025463693E+04  0.14025463693E+04  0.00000000000E+00 0. -1.
          2   -1    0    0  503    0 -0.00000000000E+00 -0.00000000000E+00 -0.60548036309E+03  0.60548036309E+03  0.00000000000E+00 0. -1.
         25    2    1    2    0    0 -0.95635792974E+02 -0.11504522027E+03 -0.24124010674E+03  0.31016604902E+03  0.12499832504E+03 0.  0.
          4    1    3    3  501    0  0.21936786004E+02 -0.28585155768E+02 -0.11235388980E+02  0.37764806050E+02  0.12700000000E+01 0. -1.
         -4    1    3    3    0  501 -0.11757257898E+03 -0.86460064498E+02 -0.23000471776E+03  0.27240124297E+03  0.12700000000E+01 0. -1.
          2    1    1    2  502    0  0.17552650727E+03  0.12934073410E+03  0.13542345746E+04  0.13716741097E+04  0.00000000000E+00 0. -1.
          2    1    1    2  503    0 -0.79890714297E+02 -0.14295513837E+02 -0.31592846165E+03  0.32618657364E+03  0.00000000000E+00 0. -1.
<mgrwt>
<rscale>  0 0.13234279E+03</rscale>
<asrwt>0</asrwt>
<pdfrwt beam="1">  1        2 0.21577636E+00 0.21580448E+03</pdfrwt>
<pdfrwt beam="2">  1        2 0.93150825E-01 0.81159645E+02</pdfrwt>
<totfact> 0.12562602E+02</totfact>
</mgrwt>
</event>
<event>
 7    1  0.3113151E-004  0.1052290E+03  0.7546771E-02  0.1438052E+00
          2   -1    0    0  503    0  0.00000000000E+00  0.00000000000E+00  0.93323108335E+03  0.93323108335E+03  0.00000000000E+00 0. -1.
          2   -1    0    0  502    0 -0.00000000000E+00 -0.00000000000E+00 -0.49803516944E+03  0.49803516944E+03  0.00000000000E+00 0. -1.
         25    2    1    2    0    0  0.57043291608E+02 -0.64190049726E+02 -0.30770986433E+03  0.34305251338E+03  0.12500146689E+03 0.  0.
          4    1    3    3  501    0  0.39976330744E+02 -0.10066187116E+03 -0.25208189111E+03  0.27436802301E+03  0.12700000000E+01 0. -1.
         -4    1    3    3    0  501  0.17066960863E+02  0.36471821434E+02 -0.55627973225E+02  0.68684490367E+02  0.12700000000E+01 0. -1.
          2    1    1    2  502    0  0.25004313275E+02 -0.20043053929E+01 -0.16868884806E+03  0.17054371985E+03  0.00000000000E+00 0. -1.
          2    1    1    2  503    0 -0.82047604883E+02  0.66194355119E+02  0.91159462630E+03  0.91767001957E+03  0.00000000000E+00 0. -1.
<mgrwt>
<rscale>  0 0.51377227E+02</rscale>
<asrwt>0</asrwt>
<pdfrwt beam="1">  1        2 0.14357401E+00 0.10522904E+03</pdfrwt>
<pdfrwt beam="2">  1        2 0.76620796E-01 0.25084516E+02</pdfrwt>
<totfact> 0.30299533E+02</totfact>
</mgrwt>
</event>
<event>
 7    1  0.3113151E-004  0.5824615E+02  0.7546771E-02  0.1447727E+00
          2   -1    0    0  503    0  0.00000000000E+00  0.00000000000E+00  0.14834225826E+04  0.14834225826E+04  0.00000000000E+00 0. -1.
         -1   -1    0    0    0  501 -0.00000000000E+00 -0.00000000000E+00 -0.11633839048E+02  0.11633839048E+02  0.00000000000E+00 0.  1.
         25    2    1    2    0    0  0.59319503145E+02 -0.14291856186E+01  0.11218574974E+04  0.11303583667E+04  0.12499978666E+03 0.  0.
          4    1    3    3  502    0  0.18306642229E+02  0.37070996089E+01  0.18819456092E+02  0.26545443391E+02  0.12700000000E+01 0. -1.
         -4    1    3    3    0  502  0.41012860916E+02 -0.51362852274E+01  0.11030380413E+04  0.11038129233E+04  0.12700000000E+01 0. -1.
          2    1    1    2  503    0 -0.13056426170E+02  0.40097822724E+02  0.15696971206E+03  0.16253552275E+03  0.00000000000E+00 0. -1.
         -1    1    1    2    0  501 -0.46263076975E+02 -0.38668637105E+02  0.19296153410E+03  0.20216253221E+03  0.00000000000E+00 0.  1.
<mgrwt>
<rscale>  0 0.49560449E+02</rscale>
<asrwt>0</asrwt>
<pdfrwt beam="1">  1        2 0.22821871E+00 0.42169961E+02</pdfrwt>
<pdfrwt beam="2">  1       -1 0.17898226E-02 0.58246155E+02</pdfrwt>
<totfact> 0.12154857E+04</totfact>
</mgrwt>
</event>
<event>
 7    1  0.3113151E-004  0.6449271E+02  0.7546771E-02  0.1412002E+00
         -2   -1    0    0    0  501 -0.00000000000E+00  0.00000000000E+00  0.34723443964E+03  0.34723443964E+03  0.00000000000E+00 0.  1.
          1   -1    0    0  503    0  0.00000000000E+00 -0.00000000000E+00 -0.10395625183E+04  0.10395625183E+04  0.00000000000E+00 0. -1.
         25    2    1    2    0    0 -0.62391435939E+02 -0.66603507747E+02 -0.95667217223E+02  0.18194663700E+03  0.12499457485E+03 0.  0.
          4    1    3    3  502    0 -0.55355288103E+02 -0.92768376274E+02 -0.31895167011E+02  0.11264587936E+03  0.12700000000E+01 0. -1.
         -4    1    3    3    0  502 -0.70361478354E+01  0.26164868527E+02 -0.63772050212E+02  0.69300757642E+02  0.12700000000E+01 0. -1.
          1    1    1    2  503    0  0.12594273802E+02  0.62885109064E+02 -0.89755364495E+03  0.89984204072E+03  0.00000000000E+00 0. -1.
         -2    1    1    2    0  501  0.49797162137E+02  0.37183986829E+01  0.30089278350E+03  0.30500828023E+03  0.00000000000E+00 0.  1.
<mgrwt>
<rscale>  0 0.56749404E+02</rscale>
<asrwt>0</asrwt>
<pdfrwt beam="2">  1        1 0.15993270E+00 0.64492709E+02</pdfrwt>
<pdfrwt beam="1">  1       -2 0.53420682E-01 0.49935797E+02</pdfrwt>
<totfact> 0.49368139E+01</totfact>
</mgrwt>
</event>
<event>
 7    1  0.3113151E-004  0.3317698E+02  0.7546771E-02  0.1572347E+00
          2   -1    0    0  503    0  0.00000000000E+00  0.00000000000E+00  0.12581709717E+04  0.12581709717E+04  0.00000000000E+00 0. -1.
         -1   -1    0    0    0  501 -0.00000000000E+00 -0.00000000000E+00 -0.67369957192E+02  0.67369957192E+02  0.00000000000E+00 0.  1.
         25    2    1    2    0    0  0.75990113674E+01  0.17828890281E+01  0.75277557403E+03  0.76312511575E+03  0.12501181449E+03 0.  0.
          4    1    3    3  502    0 -0.31250742401E+02 -0.41292106959E+02  0.17673187692E+03  0.18416681628E+03  0.12700000000E+01 0.  1.
         -4    1    3    3    0  502  0.38849753768E+02  0.43074995987E+02  0.57604369711E+03  0.57895829947E+03  0.12700000000E+01 0.  1.
          2    1    1    2  503    0 -0.19480481295E+02 -0.31243644270E+02  0.49543624712E+03  0.49680250544E+03  0.00000000000E+00 0. -1.
         -1    1    1    2    0  501  0.11881469928E+02  0.29460755241E+02 -0.57410806644E+02  0.65613307694E+02  0.00000000000E+00 0.  1.
<mgrwt>
<rscale>  0 0.32464039E+02</rscale>
<asrwt>0</asrwt>
<pdfrwt beam="1">  1        2 0.19356475E+00 0.33176978E+02</pdfrwt>
<pdfrwt beam="2">  1       -1 0.10364610E-01 0.31766420E+02</pdfrwt>
<totfact> 0.12149011E+03</totfact>
</mgrwt>
</event>
<event>
 7    1  0.3113151E-004  0.3742463E+03  0.7546771E-02  0.1053081E+00
         -1   -1    0    0    0  501 -0.00000000000E+00  0.00000000000E+00  0.26920352978E+03  0.26920352978E+03  0.00000000000E+00 0.  1.
          2   -1    0    0  503    0  0.00000000000E+00 -0.00000000000E+00 -0.13006917988E+03  0.13006917988E+03  0.00000000000E+00 0. -1.
         25    2    1    2    0    0 -0.82304994834E+01 -0.15731874824E+03  0.77618317146E+02  0.21556021150E+03  0.12499868781E+03 0.  0.
          4    1    3    3  502    0 -0.50215541936E+02 -0.13697861202E+03  0.84163639964E+02  0.16843358334E+03  0.12700000000E+01 0.  1.
         -4    1    3    3    0  502  0.41985042453E+02 -0.20340136218E+02 -0.65453228180E+01  0.47126628162E+02  0.12700000000E+01 0.  1.
          2    1    1    2  503    0  0.78168023755E+01  0.11083474903E+03  0.59547732473E+01  0.11126950758E+03  0.00000000000E+00 0. -1.
         -1    1    1    2    0  501  0.41369710795E+00  0.46483999212E+02  0.55561259507E+02  0.72442990593E+02  0.00000000000E+00 0.  1.
<mgrwt>
<rscale>  0 0.37424635E+03</rscale>
<asrwt>0</asrwt>
<pdfrwt beam="2">  1        2 0.20010643E-01 0.37424635E+03</pdfrwt>
<pdfrwt beam="1">  1       -1 0.41415927E-01 0.37424635E+03</pdfrwt>
<totfact> 0.18411647E+03</totfact>
</mgrwt>
</event>
<event>
 7    1  0.3113151E-004  0.7009488E+02  0.7546771E-02  0.1518557E+00
          2   -1    0    0  502    0  0.00000000000E+00  0.00000000000E+00  0.91220232809E+03  0.91220232809E+03  0.00000000000E+00 0. -1.
          2   -1    0    0  503    0 -0.00000000000E+00 -0.00000000000E+00 -0.23626921214E+04  0.23626921214E+04  0.00000000000E+00 0.  1.
         25    2    1    2    0    0 -0.45181273021E+02  0.20732726262E+02 -0.16258284384E+03  0.21101874215E+03  0.12499814021E+03 0.  0.
          4    1    3    3  501    0 -0.44953856532E+02  0.43996764839E+02 -0.19233714003E+02  0.65788397060E+02  0.12700000000E+01 0.  1.
         -4    1    3    3    0  501 -0.22741648935E+00 -0.23264038577E+02 -0.14334912984E+03  0.14523034509E+03  0.12700000000E+01 0.  1.
          2    1    1    2  502    0 -0.20892194256E+02  0.40819721259E+01  0.88728433738E+03  0.88753965638E+03  0.00000000000E+00 0. -1.
          2    1    1    2  503    0  0.66073467278E+02 -0.24814698388E+02 -0.21751912868E+04  0.21763360510E+04  0.00000000000E+00 0.  1.
<mgrwt>
<rscale>  0 0.38628046E+02</rscale>
<asrwt>0</asrwt>
<pdfrwt beam="1">  1        2 0.14033882E+00 0.21287233E+02</pdfrwt>
<pdfrwt beam="2">  1        2 0.36349110E+00 0.70094876E+02</pdfrwt>
<totfact> 0.29562399E+01</totfact>
</mgrwt>
</event>
<event>
 7    1  0.3113151E-004  0.7592078E+02  0.7546771E-02  0.1435624E+00
          2   -1    0    0  502    0  0.00000000000E+00  0.00000000000E+00  0.29389958061E+04  0.29389958061E+04  0.00000000000E+00 0. -1.
          3   -1    0    0  503    0 -0.00000000000E+00 -0.00000000000E+00 -0.52369838992E+02  0.52369838992E+02  0.00000000000E+00 0. -1.
         25    2    1    2    0    0  0.71709146179E+02 -0.35452564488E+02  0.36455095547E+03  0.39359956900E+03  0.12499654241E+03 0.  0.
          4    1    3    3  501    0  0.91944976330E+02  0.11218230974E+02  0.27990934950E+03  0.29483992982E+03  0.12700000000E+01 0.  1.
         -4    1    3    3    0  501 -0.20235830152E+02 -0.46670795463E+02  0.84641605968E+02  0.98759639185E+02  0.12700000000E+01 0.  1.
          2    1    1    2  502    0 -0.46435119179E+02  0.60249913197E+02  0.25509460580E+04  0.25520799484E+04  0.00000000000E+00 0. -1.
          3    1    1    2  503    0 -0.25274027000E+02 -0.24797348709E+02 -0.28871046354E+02  0.45686127668E+02  0.00000000000E+00 0. -1.
<mgrwt>
<rscale>  0 0.51847455E+02</rscale>
<asrwt>0</asrwt>
<pdfrwt beam="1">  1        2 0.45215307E+00 0.75920785E+02</pdfrwt>
<pdfrwt beam="2">  1        3 0.80569006E-02 0.35407414E+02</pdfrwt>
<totfact> 0.14143563E+02</totfact>
</mgrwt>
</event>
<event>
 7    1  0.3113151E-004  0.6074015E+02  0.7546771E-02  0.1426382E+00
          2   -1    0    0  503    0  0.00000000000E+00  0.00000000000E+00  0.26303467161E+04  0.26303467161E+04  0.00000000000E+00 0. -1.
         -2   -1    0    0    0  501 -0.00000000000E+00 -0.00000000000E+00 -0.24884834052E+03  0.24884834052E+03  0.00000000000E+00 0.  1.
         25    2    1    2    0    0 -0.45581960887E+02  0.21940352870E+02 -0.12664971268E+03  0.18500025803E+03  0.12500340599E+03 0.  0.
          4    1    3    3  502    0 -0.12243636356E+02  0.55718547751E+02 -0.12509887555E+03  0.13749838093E+03  0.12700000000E+01 0.  1.
         -4    1    3    3    0  502 -0.33338324531E+02 -0.33778194881E+02 -0.15508371231E+01  0.47501877097E+02  0.12700000000E+01 0.  1.
          2    1    1    2  503    0 -0.21394018833E+02 -0.42368677951E+02  0.25877458576E+04  0.25881811051E+04  0.00000000000E+00 0. -1.
         -2    1    1    2    0  501  0.66975979720E+02  0.20428325081E+02 -0.79597769371E+02  0.10601369352E+03  0.00000000000E+00 0.  1.
<mgrwt>
<rscale>  0 0.53693166E+02</rscale>
<asrwt>0</asrwt>
<pdfrwt beam="1">  1        2 0.40466871E+00 0.47463764E+02</pdfrwt>
<pdfrwt beam="2">  1       -2 0.38284362E-01 0.60740147E+02</pdfrwt>
<totfact> 0.28076813E+01</totfact>
</mgrwt>
</event>
<event>
 7    1  0.3113151E-004  0.1582793E+03  0.7546771E-02  0.1311770E+00
          1   -1    0    0  503    0  0.00000000000E+00  0.00000000000E+00  0.91519240836E+03  0.91519240836E+03  0.00000000000E+00 0. -1.
         -2   -1    0    0    0  501 -0.00000000000E+00 -0.00000000000E+00 -0.46244634602E+03  0.46244634602E+03  0.00000000000E+00 0. -1.
         25    2    1    2    0    0  0.11251437250E+03 -0.42933843395E+02  0.56608930777E+02  0.18256965623E+03  0.12499723759E+03 0.  0.
          4    1    3    3  502    0  0.12039680641E+02 -0.63602824246E+02 -0.13182392600E+01  0.64758194977E+02  0.12700000000E+01 0. -1.
         -4    1    3    3    0  502  0.10047469186E+03  0.20668980851E+02  0.57927170037E+02  0.11781146125E+03  0.12700000000E+01 0. -1.
          1    1    1    2  503    0  0.31338406223E+02 -0.35269544461E+02  0.77808020064E+03  0.77950935536E+03  0.00000000000E+00 0. -1.
         -2    1    1    2    0  501 -0.14385277872E+03  0.78203387856E+02 -0.38194306907E+03  0.41555974279E+03  0.00000000000E+00 0. -1.
<mgrwt>
<rscale>  0 0.86416190E+02</rscale>
<asrwt>0</asrwt>
<pdfrwt beam="1">  1        1 0.14079883E+00 0.47180891E+02</pdfrwt>
<pdfrwt beam="2">  1       -2 0.71145592E-01 0.15827929E+03</pdfrwt>
<totfact> 0.34099518E+01</totfact>
</mgrwt>
</event>
<event>
 7    1  0.3113151E-004  0.2298593E+03  0.7546771E-02  0.1170175E+00
          2   -1    0    0  503    0  0.00000000000E+00  0.00000000000E+00  0.57752307003E+03  0.57752307003E+03  0.00000000000E+00 0. -1.
         -2   -1    0    0    0  501 -0.00000000000E+00 -0.00000000000E+00 -0.90747014846E+03  0.90747014846E+03  0.00000000000E+00 0.  1.
         25    2    1    2    0    0 -0.25693271074E+03 -0.21950884277E+03  0.31194081772E+03  0.47658060912E+03  0.12499381314E+03 0.  0.
          4    1    3    3  502    0 -0.86459525694E+02 -0.59270457315E+02  0.17912583299E+03  0.20754737686E+03  0.12700000000E+01 0.  1.
         -4    1    3    3    0  502 -0.17047318505E+03 -0.16023838545E+03  0.13281498473E+03  0.26903323226E+03  0.12700000000E+01 0.  1.
          2    1    1    2  503    0  0.13386732719E+03  0.29952799587E+02  0.13911179291E+03  0.19537073072E+03  0.00000000000E+00 0. -1.
         -2    1    1    2    0  501  0.12306538355E+03  0.18955604318E+03 -0.78099968907E+03  0.81304187866E+03  0.00000000000E+00 0.  1.
<mgrwt>
<rscale>  0 0.17757111E+03</rscale>
<asrwt>0</asrwt>
<pdfrwt beam="1">  1        2 0.88849703E-01 0.13717737E+03</pdfrwt>
<pdfrwt beam="2">  1       -2 0.13961079E+00 0.22985934E+03</pdfrwt>
<totfact> 0.20850807E+01</totfact>
</mgrwt>
</event>
<event>
 7    1  0.3113151E-004  0.9945545E+02  0.7546771E-02  0.1320011E+00
          1   -1    0    0  503    0 -0.00000000000E+00  0.00000000000E+00  0.99662016147E+02  0.99662016147E+02  0.00000000000E+00 0. -1.
          2   -1    0    0  502    0  0.00000000000E+00 -0.00000000000E+00 -0.72560998982E+03  0.72560998982E+03  0.00000000000E+00 0.  1.
         25    2    1    2    0    0  0.95170820552E+02 -0.17658309928E+02 -0.35010473658E+03  0.38414564257E+03  0.12500098854E+03 0.  0.
          4    1    3    3  501    0  0.70595187073E+02  0.46663024167E+02 -0.14625547701E+03  0.16897750062E+03  0.12700000000E+01 0.  1.
         -4    1    3    3    0  501  0.24575633479E+02 -0.64321334095E+02 -0.20384925957E+03  0.21516814194E+03  0.12700000000E+01 0.  1.
          2    1    1    2  502    0 -0.76016874076E+01  0.69308187886E+02 -0.32200757334E+03  0.32946970703E+03  0.00000000000E+00 0.  1.
          1    1    1    2  503    0 -0.87569133145E+02 -0.51649877958E+02  0.46164336241E+02  0.11165665638E+03  0.00000000000E+00 0. -1.
<mgrwt>
<rscale>  0 0.83273124E+02</rscale>
<asrwt>0</asrwt>
<pdfrwt beam="2">  1        2 0.11163230E+00 0.69723816E+02</pdfrwt>
<pdfrwt beam="1">  1        1 0.15332618E-01 0.99455446E+02</pdfrwt>
<totfact> 0.19744037E+03</totfact>
</mgrwt>
</event>
<event>
 7    1  0.3113151E-004  0.6849555E+02  0.7546771E-02  0.1493714E+00
          2   -1    0    0  503    0  0.00000000000E+00  0.00000000000E+00  0.83397171845E+02  0.83397171845E+02  0.00000000000E+00 0. -1.
         -1   -1    0    0    0  501 -0.00000000000E+00 -0.00000000000E+00 -0.20638997891E+03  0.20638997891E+03  0.00000000000E+00 0.  1.
         25    2    1    2    0    0 -0.32468394755E+02 -0.66121637959E+02 -0.10151399310E+03  0.17706700162E+03  0.12498545757E+03 0.  0.
          4    1    3    3  502    0  0.36772484940E+02 -0.20806663341E+02 -0.81669751219E+02  0.91960285190E+02  0.12700000000E+01 0.  1.
         -4    1    3    3    0  502 -0.69240879696E+02 -0.45314974618E+02 -0.19844241884E+02  0.85106716431E+02  0.12700000000E+01 0.  1.
          2    1    1    2  503    0  0.25783497426E+02 -0.99124714025E+00  0.20779992291E+02  0.33129735737E+02  0.00000000000E+00 0. -1.
         -1    1    1    2    0  501  0.66848973296E+01  0.67112885099E+02 -0.42258806251E+02  0.79590413395E+02  0.00000000000E+00 0.  1.
<mgrwt>
<rscale>  0 0.42039975E+02</rscale>
<asrwt>0</asrwt>
<pdfrwt beam="1">  1        2 0.12830334E-01 0.25802545E+02</pdfrwt>
<pdfrwt beam="2">  1       -1 0.31752304E-01 0.68495550E+02</pdfrwt>
<totfact> 0.42433397E+03</totfact>
</mgrwt>
</event>
<event>
 7    1  0.3113151E-004  0.7961825E+02  0.7546771E-02  0.1412393E+00
          1   -1    0    0  503    0 -0.00000000000E+00  0.00000000000E+00  0.36436946174E+02  0.36436946174E+02  0.00000000000E+00 0. -1.
          2   -1    0    0  502    0  0.00000000000E+00 -0.00000000000E+00 -0.16921372063E+04  0.16921372063E+04  0.00000000000E+00 0. -1.
         25    2    1    2    0    0  0.83997743579E+02 -0.75804861571E+02 -0.45512927717E+03  0.48535330003E+03  0.12499267559E+03 0.  0.
          4    1    3    3  501    0  0.41625760126E+02  0.24748775519E+02 -0.23156784131E+03  0.23658081880E+03  0.12700000000E+01 0.  1.
         -4    1    3    3    0  501  0.42371983454E+02 -0.10055363709E+03 -0.22356143586E+03  0.24877248123E+03  0.12700000000E+01 0.  1.
          2    1    1    2  502    0 -0.46256980786E+02  0.61597124491E+02 -0.12004250591E+04  0.12028941086E+04  0.00000000000E+00 0. -1.
          1    1    1    2  503    0 -0.37740762793E+02  0.14207737080E+02 -0.14592379209E+00  0.40326743768E+02  0.00000000000E+00 0. -1.
<mgrwt>
<rscale>  0 0.56663248E+02</rscale>
<asrwt>0</asrwt>
<pdfrwt beam="2">  1        2 0.26032876E+00 0.79618249E+02</pdfrwt>
<pdfrwt beam="1">  1        1 0.56056850E-02 0.40326480E+02</pdfrwt>
<totfact> 0.19615309E+03</totfact>
</mgrwt>
</event>
<event>
 7    1  0.3113151E-004  0.1059759E+03  0.7546771E-02  0.1380698E+00
          1   -1    0    0  503    0  0.00000000000E+00  0.00000000000E+00  0.18845480307E+04  0.18845480307E+04  0.00000000000E+00 0. -1.
         -3   -1    0    0    0  501 -0.00000000000E+00 -0.00000000000E+00 -0.56957308146E+02  0.56957308146E+02  0.00000000000E+00 0. -1.
         25    2    1    2    0    0  0.41733025630E+02  0.65852795481E+02  0.70066265765E+03  0.71598344741E+03  0.12500360414E+03 0.  0.
          4    1    3    3  502    0  0.45361976044E+02  0.38933760543E+02  0.67787060501E+03  0.68050254711E+03  0.12700000000E+01 0.  1.
         -4    1    3    3    0  502 -0.36289504137E+01  0.26919034938E+02  0.22792052634E+02  0.35480900304E+02  0.12700000000E+01 0.  1.
          1    1    1    2  503    0 -0.67317387573E+02 -0.95274949325E+02  0.11651185226E+04  0.11709441141E+04  0.00000000000E+00 0. -1.
         -3    1    1    2    0  501  0.25584361942E+02  0.29422153844E+02 -0.38190457731E+02  0.54577777296E+02  0.00000000000E+00 0. -1.
<mgrwt>
<rscale>  0 0.64280665E+02</rscale>
<asrwt>0</asrwt>
<pdfrwt beam="1">  1        1 0.28993042E+00 0.10597590E+03</pdfrwt>
<pdfrwt beam="2">  1       -3 0.87626642E-02 0.38990034E+02</pdfrwt>
<totfact> 0.17941477E+02</totfact>
</mgrwt>
</event>
<event>
 7    1  0.3113151E-004  0.3571651E+02  0.7546771E-02  0.1615191E+00
          3   -1    0    0  502    0  0.00000000000E+00  0.00000000000E+00  0.47294004241E+03  0.47294004241E+03  0.00000000000E+00 0. -1.
          3   -1    0    0  503    0 -0.00000000000E+00 -0.00000000000E+00 -0.60142113919E+02  0.60142113919E+02  0.00000000000E+00 0. -1.
         25    2    1    2    0    0 -0.51722543672E+02  0.16573265926E+02  0.17381135553E+03  0.22087560339E+03  0.12500300074E+03 0.  0.
          4    1    3    3  501    0 -0.80703912839E+02  0.43640503373E+02  0.14594160040E+03  0.17238961311E+03  0.12700000000E+01 0.  1.
         -4    1    3    3    0  501  0.28981369166E+02 -0.27067237447E+02  0.27869755129E+02  0.48485990273E+02  0.12700000000E+01 0.  1.
          3    1    1    2  502    0  0.22580053598E+02  0.28119441448E+01  0.26663407340E+03  0.26760324166E+03  0.00000000000E+00 0. -1.
          3    1    1    2  503    0  0.29142490074E+02 -0.19385210071E+02 -0.27647500435E+02  0.44603311284E+02  0.00000000000E+00 0. -1.
<mgrwt>
<rscale>  0 0.28508072E+02</rscale>
<asrwt>0</asrwt>
<pdfrwt beam="1">  1        3 0.72760004E-01 0.22754469E+02</pdfrwt>
<pdfrwt beam="2">  1        3 0.92526332E-02 0.35716509E+02</pdfrwt>
<totfact> 0.27110072E+02</totfact>
</mgrwt>
</event>
<event>
 7    1  0.3113151E-004  0.1034129E+03  0.7546771E-02  0.1302773E+00
          2   -1    0    0  503    0  0.00000000000E+00  0.00000000000E+00  0.10220977852E+04  0.10220977852E+04  0.00000000000E+00 0. -1.
         -3   -1    0    0    0  501 -0.00000000000E+00 -0.00000000000E+00 -0.14981800945E+04  0.14981800945E+04  0.00000000000E+00 0.  1.
         25    2    1    2    0    0  0.49303141380E+02 -0.29927402901E+02 -0.50458097887E+03  0.52302387275E+03  0.12500223211E+03 0.  0.
          4    1    3    3  502    0 -0.10707046881E+02 -0.43646865716E+02 -0.64302295466E+02  0.78460740769E+02  0.12700000000E+01 0. -1.
         -4    1    3    3    0  502  0.60010188261E+02  0.13719462815E+02 -0.44027868340E+03  0.44456313198E+03  0.12700000000E+01 0. -1.
          2    1    1    2  503    0  0.17371016105E+02 -0.76434298934E+02  0.10073455662E+04  0.10103905403E+04  0.00000000000E+00 0. -1.
         -3    1    1    2    0  501 -0.66674157485E+02  0.10636170183E+03 -0.97884689660E+03  0.98686346668E+03  0.00000000000E+00 0.  1.
<mgrwt>
<rscale>  0 0.90032520E+02</rscale>
<asrwt>0</asrwt>
<pdfrwt beam="1">  1        2 0.15724581E+00 0.78383380E+02</pdfrwt>
<pdfrwt beam="2">  1       -3 0.23048924E+00 0.10341293E+03</pdfrwt>
<totfact> 0.18435492E+00</totfact>
</mgrwt>
</event>
<event>
 7    1  0.3113151E-004  0.1036614E+03  0.7546771E-02  0.1304865E+00
          2   -1    0    0  503    0  0.00000000000E+00  0.00000000000E+00  0.25596253681E+03  0.25596253681E+03  0.00000000000E+00 0. -1.
         -2   -1    0    0    0  501 -0.00000000000E+00 -0.00000000000E+00 -0.47044013908E+03  0.47044013908E+03  0.00000000000E+00 0. -1.
         25    2    1    2    0    0  0.10299524601E+03 -0.69048136875E+02  0.70552048887E+02  0.18968660203E+03  0.12501099744E+03 0.  0.
          4    1    3    3  502    0 -0.13146523417E+02 -0.13377143548E+02  0.57182473198E+02  0.60193248695E+02  0.12700000000E+01 0. -1.
         -4    1    3    3    0  502  0.11614176943E+03 -0.55670993327E+02  0.13369575689E+02  0.12949335333E+03  0.12700000000E+01 0. -1.
          2    1    1    2  503    0  0.62498258376E+00  0.76708186130E+02  0.10671559342E+03  0.13142585096E+03  0.00000000000E+00 0. -1.
         -2    1    1    2    0  501 -0.10362022859E+03 -0.76600492551E+01 -0.39174524458E+03  0.40529022290E+03  0.00000000000E+00 0. -1.
<mgrwt>
<rscale>  0 0.89173656E+02</rscale>
<asrwt>0</asrwt>
<pdfrwt beam="1">  1        2 0.39378852E-01 0.76710732E+02</pdfrwt>
<pdfrwt beam="2">  1       -2 0.72375406E-01 0.10366139E+03</pdfrwt>
<totfact> 0.23285916E+02</totfact>
</mgrwt>
</event>
<event>
 7    1  0.3113151E-004  0.8725944E+02  0.7546771E-02  0.1311536E+00
          2   -1    0    0  503    0  0.00000000000E+00  0.00000000000E+00  0.20502626821E+04  0.20502626821E+04  0.00000000000E+00 0. -1.
         -3   -1    0    0    0  501 -0.00000000000E+00 -0.00000000000E+00 -0.23560491753E+04  0.23560491753E+04  0.00000000000E+00 0.  1.
         25    2    1    2    0    0 -0.74316644357E+02  0.47389161099E+02  0.53908260507E+02  0.16217649319E+03  0.12500567258E+03 0.  0.
          4    1    3    3  502    0 -0.48782359085E+02  0.45004154723E+02  0.93692442573E+02  0.11482586466E+03  0.12700000000E+01 0. -1.
         -4    1    3    3    0  502 -0.25534285272E+02  0.23850063762E+01 -0.39784182066E+02  0.47350628533E+02  0.12700000000E+01 0. -1.
          2    1    1    2  503    0  0.75771856374E+02  0.40173356324E+02  0.19404398678E+04  0.19423342023E+04  0.00000000000E+00 0. -1.
         -3    1    1    2    0  501 -0.14552120172E+01 -0.87562517423E+02 -0.23001346215E+04  0.23018011619E+04  0.00000000000E+00 0.  1.
<mgrwt>
<rscale>  0 0.86507929E+02</rscale>
<asrwt>0</asrwt>
<pdfrwt beam="1">  1        2 0.31542503E+00 0.85762887E+02</pdfrwt>
<pdfrwt beam="2">  1       -3 0.36246910E+00 0.87259444E+02</pdfrwt>
<totfact> 0.11180099E-01</totfact>
</mgrwt>
</event>
<event>
 7    1  0.3113151E-004  0.1098946E+03  0.7546771E-02  0.1430333E+00
         -2   -1    0    0    0  501 -0.00000000000E+00  0.00000000000E+00  0.25315415092E+03  0.25315415092E+03  0.00000000000E+00 0.  1.
          2   -1    0    0  503    0  0.00000000000E+00 -0.00000000000E+00 -0.33261367008E+03  0.33261367008E+03  0.00000000000E+00 0. -1.
         25    2    1    2    0    0 -0.63883996422E+02  0.79026575904E+02 -0.96502198813E+01  0.16136187116E+03  0.12497264509E+03 0.  0.
          4    1    3    3  502    0 -0.73398456775E+01  0.99468176095E+02 -0.15480425131E+02  0.10094081361E+03  0.12700000000E+01 0. -1.
         -4    1    3    3    0  502 -0.56544150745E+02 -0.20441600191E+02  0.58302052500E+01  0.60421057547E+02  0.12700000000E+01 0. -1.
          2    1    1    2  503    0  0.13975082973E+02  0.21279113969E+02 -0.22863115250E+03  0.23004414257E+03  0.00000000000E+00 0. -1.
         -2    1    1    2    0  501  0.49908913449E+02 -0.10030568987E+03  0.15882185323E+03  0.19436180727E+03  0.00000000000E+00 0.  1.
<mgrwt>
<rscale>  0 0.52893143E+02</rscale>
<asrwt>0</asrwt>
<pdfrwt beam="2">  1        2 0.51171334E-01 0.25457880E+02</pdfrwt>
<pdfrwt beam="1">  1       -2 0.38946792E-01 0.10989464E+03</pdfrwt>
<totfact> 0.60518192E+02</totfact>
</mgrwt>
</event>
<event>
 7    1  0.3113151E-004  0.8686570E+02  0.7546771E-02  0.1415052E+00
          2   -1    0    0  503    0  0.00000000000E+00  0.00000000000E+00  0.82555302027E+03  0.82555302027E+03  0.00000000000E+00 0. -1.
          2   -1    0    0  502    0 -0.00000000000E+00 -0.00000000000E+00 -0.23314007543E+03  0.23314007543E+03  0.00000000000E+00 0. -1.
         25    2    1    2    0    0 -0.60150179823E+02  0.72315956039E+02  0.12881002480E+03  0.20264144904E+03  0.12499557092E+03 0.  0.
          4    1    3    3  501    0 -0.57326959130E+02  0.88534979361E+02  0.40802787515E+02  0.11309864359E+03  0.12700000000E+01 0.  1.
         -4    1    3    3    0  501 -0.28232206926E+01 -0.16219023322E+02  0.88007237287E+02  0.89542805448E+02  0.12700000000E+01 0.  1.
          2    1    1    2  502    0  0.25555150381E+02 -0.82999504470E+02 -0.18608667589E+03  0.20535392472E+03  0.00000000000E+00 0. -1.
          2    1    1    2  503    0  0.34595029442E+02  0.10683548431E+02  0.64968959594E+03  0.65069772194E+03  0.00000000000E+00 0. -1.
<mgrwt>
<rscale>  0 0.56081683E+02</rscale>
<asrwt>0</asrwt>
<pdfrwt beam="1">  1        2 0.12700816E+00 0.36207102E+02</pdfrwt>
<pdfrwt beam="2">  1        2 0.35867704E-01 0.86865695E+02</pdfrwt>
<totfact> 0.80985333E+02</totfact>
</mgrwt>
</event>
<event>
 7    1  0.3113151E-004  0.1418365E+03  0.7546771E-02  0.1302625E+00
          3   -1    0    0  503    0  0.00000000000E+00  0.00000000000E+00  0.39657007168E+03  0.39657007168E+03  0.00000000000E+00 0. -1.
         -2   -1    0    0    0  501 -0.00000000000E+00 -0.00000000000E+00 -0.72901253822E+03  0.72901253822E+03  0.00000000000E+00 0.  1.
         25    2    1    2    0    0  0.35412857938E+02  0.12513769676E+03 -0.59591765755E+03  0.62261937105E+03  0.12499405173E+03 0.  0.
          4    1    3    3  502    0  0.56502748225E+02  0.10306359203E+03 -0.57162100924E+03  0.58358106178E+03  0.12700000000E+01 0. -1.
         -4    1    3    3    0  502 -0.21089890287E+02  0.22074104726E+02 -0.24296648314E+02  0.39038309275E+02  0.12700000000E+01 0. -1.
          3    1    1    2  503    0 -0.90551134639E+02 -0.10981774573E+03  0.36202613527E+03  0.38900175820E+03  0.00000000000E+00 0. -1.
         -2    1    1    2    0  501  0.55138276701E+02 -0.15319951021E+02 -0.98550944255E+02  0.11396148064E+03  0.00000000000E+00 0.  1.
<mgrwt>
<rscale>  0 0.90093712E+02</rscale>
<asrwt>0</asrwt>
<pdfrwt beam="1">  1        3 0.61010781E-01 0.14183647E+03</pdfrwt>
<pdfrwt beam="2">  1       -2 0.11215577E+00 0.57227008E+02</pdfrwt>
<totfact> 0.72791139E+00</totfact>
</mgrwt>
</event>
<event>
 7    1  0.3113151E-004  0.6521799E+02  0.7546771E-02  0.1427700E+00
         -1   -1    0    0    0  501  0.00000000000E+00  0.00000000000E+00  0.21335002843E+03  0.21335002843E+03  0.00000000000E+00 0.  1.
         -1   -1    0    0    0  502 -0.00000000000E+00 -0.00000000000E+00 -0.22777392037E+03  0.22777392037E+03  0.00000000000E+00 0.  1.
         25    2    1    2    0    0  0.35742887862E+02 -0.72628658240E+01 -0.12358514106E+03  0.17951968897E+03  0.12499491344E+03 0.  0.
          4    1    3    3  503    0  0.17074653424E+02  0.45112829041E+02 -0.49643693184E+01  0.48507411768E+02  0.12700000000E+01 0.  1.
         -4    1    3    3    0  503  0.18668234438E+02 -0.52375694865E+02 -0.11862077174E+03  0.13101227720E+03  0.12700000000E+01 0.  1.
         -1    1    1    2    0  502  0.24240901662E+02  0.36436689335E+02 -0.63150627027E+02  0.76832644996E+02  0.00000000000E+00 0.  1.
         -1    1    1    2    0  501 -0.59983789524E+02 -0.29173823511E+02  0.17231187615E+03  0.18477161483E+03  0.00000000000E+00 0.  1.
<mgrwt>
<rscale>  0 0.53424476E+02</rscale>
<asrwt>0</asrwt>
<pdfrwt beam="1">  1       -1 0.32823081E-01 0.65217988E+02</pdfrwt>
<pdfrwt beam="2">  1       -1 0.35042141E-01 0.43763611E+02</pdfrwt>
<totfact> 0.55607232E+02</totfact>
</mgrwt>
</event>
<event>
 7    1  0.3113151E-004  0.9439806E+02  0.7546771E-02  0.1341381E+00
          2   -1    0    0  503    0  0.00000000000E+00  0.00000000000E+00  0.18060817988E+04  0.18060817988E+04  0.00000000000E+00 0. -1.
          2   -1    0    0  502    0 -0.00000000000E+00 -0.00000000000E+00 -0.72894262311E+03  0.72894262311E+03  0.00000000000E+00 0. -1.
         25    2    1    2    0    0 -0.64679849512E+02 -0.88835273513E+02 -0.23267210354E+02  0.16805434688E+03  0.12500284667E+03 0.  0.
          4    1    3    3  501    0  0.19929593033E+02 -0.39674270531E+02  0.32848825353E+02  0.55243955757E+02  0.12700000000E+01 0.  1.
         -4    1    3    3    0  501 -0.84609442545E+02 -0.49161002981E+02 -0.56116035706E+02  0.11281039112E+03  0.12700000000E+01 0.  1.
          2    1    1    2  502    0  0.88599979452E+02  0.32849300744E+02 -0.62921836957E+03  0.63627414652E+03  0.00000000000E+00 0. -1.
          2    1    1    2  503    0 -0.23920129939E+02  0.55985972769E+02  0.17296247556E+04  0.17306959285E+04  0.00000000000E+00 0. -1.
<mgrwt>
<rscale>  0 0.75809829E+02</rscale>
<asrwt>0</asrwt>
<pdfrwt beam="1">  1        2 0.27785874E+00 0.60881867E+02</pdfrwt>
<pdfrwt beam="2">  1        2 0.11214502E+00 0.94398060E+02</pdfrwt>
<totfact> 0.70018517E+01</totfact>
</mgrwt>
</event>
<event>
 7    1  0.3113151E-004  0.9650823E+02  0.7546771E-02  0.1293897E+00
          1   -1    0    0  503    0  0.00000000000E+00  0.00000000000E+00  0.66043570583E+02  0.66043570583E+02  0.00000000000E+00 0. -1.
         -1   -1    0    0    0  501 -0.00000000000E+00 -0.00000000000E+00 -0.14333493767E+04  0.14333493767E+04  0.00000000000E+00 0.  1.
         25    2    1    2    0    0 -0.25860492863E+02 -0.14184685049E+02 -0.42303913026E+03  0.44210426920E+03  0.12499643485E+03 0.  0.
          4    1    3    3  502    0  0.22082109754E+02 -0.52574607536E+02 -0.29014437022E+03  0.29569761142E+03  0.12700000000E+01 0.  1.
         -4    1    3    3    0  502 -0.47942602617E+02  0.38389922487E+02 -0.13289476004E+03  0.14640665778E+03  0.12700000000E+01 0.  1.
          1    1    1    2  503    0  0.15315331557E+02  0.10474457161E+03  0.27494259968E+01  0.10589402252E+03  0.00000000000E+00 0. -1.
         -1    1    1    2    0  501  0.10545161306E+02 -0.90559886559E+02 -0.94701610187E+03  0.95139465559E+03  0.00000000000E+00 0.  1.
<mgrwt>
<rscale>  0 0.93802062E+02</rscale>
<asrwt>0</asrwt>
<pdfrwt beam="1">  1        1 0.10160549E-01 0.96508227E+02</pdfrwt>
<pdfrwt beam="2">  1       -1 0.22051529E+00 0.91171780E+02</pdfrwt>
<totfact> 0.80491615E+01</totfact>
</mgrwt>
</event>
<event>
 7    1  0.3113151E-004  0.6017325E+02  0.7546771E-02  0.1521028E+00
          1   -1    0    0  503    0  0.00000000000E+00  0.00000000000E+00  0.18966519404E+04  0.18966519404E+04  0.00000000000E+00 0. -1.
         -2   -1    0    0    0  501 -0.00000000000E+00 -0.00000000000E+00 -0.66988799085E+01  0.66988799085E+01  0.00000000000E+00 0.  1.
         25    2    1    2    0    0 -0.14739575370E+00 -0.44012806740E+02  0.11054318485E+04  0.11133495139E+04  0.12502167652E+03 0.  0.
          4    1    3    3  502    0  0.48975380268E+02 -0.59612731100E+02  0.78668564301E+03  0.79046073869E+03  0.12700000000E+01 0.  1.
         -4    1    3    3    0  502 -0.49122776021E+02  0.15599924359E+02  0.31874620547E+03  0.32288877522E+03  0.12700000000E+01 0.  1.
          1    1    1    2  503    0  0.29851351988E+01 -0.24207468649E+02  0.23129896815E+03  0.23258143787E+03  0.00000000000E+00 0. -1.
         -2    1    1    2    0  501 -0.28377394451E+01  0.68220275390E+02  0.55322224383E+03  0.55741986851E+03  0.00000000000E+00 0.  1.
<mgrwt>
<rscale>  0 0.38310254E+02</rscale>
<asrwt>0</asrwt>
<pdfrwt beam="1">  1        1 0.29179218E+00 0.24390830E+02</pdfrwt>
<pdfrwt beam="2">  1       -2 0.10305984E-02 0.60173252E+02</pdfrwt>
<totfact> 0.75612182E+03</totfact>
</mgrwt>
</event>
<event>
 7    1  0.3113151E-004  0.8558913E+02  0.7546771E-02  0.1325290E+00
          2   -1    0    0  503    0  0.00000000000E+00  0.00000000000E+00  0.34392403619E+03  0.34392403619E+03  0.00000000000E+00 0. -1.
         -2   -1    0    0    0  501 -0.00000000000E+00 -0.00000000000E+00 -0.12076461181E+03  0.12076461181E+03  0.00000000000E+00 0.  1.
         25    2    1    2    0    0  0.59542521891E+01  0.13776334111E+02  0.10554660261E+03  0.16428832569E+03  0.12500131253E+03 0.  0.
          4    1    3    3  502    0 -0.36924483423E+02 -0.38473514880E+02  0.69700801008E+02  0.87769262184E+02  0.12700000000E+01 0. -1.
         -4    1    3    3    0  502  0.42878735612E+02  0.52249848991E+02  0.35845801603E+02  0.76519063506E+02  0.12700000000E+01 0. -1.
          2    1    1    2  503    0  0.84600405852E+02 -0.12971933832E+02  0.17386722017E+03  0.19379192446E+03  0.00000000000E+00 0. -1.
         -2    1    1    2    0  501 -0.90554658042E+02 -0.80440027892E+00 -0.56254398393E+02  0.10660839785E+03  0.00000000000E+00 0.  1.
<mgrwt>
<rscale>  0 0.81340338E+02</rscale>
<asrwt>0</asrwt>
<pdfrwt beam="1">  1        2 0.52911390E-01 0.85589133E+02</pdfrwt>
<pdfrwt beam="2">  1       -2 0.18579171E-01 0.77302460E+02</pdfrwt>
<totfact> 0.21428821E+03</totfact>
</mgrwt>
</event>
<event>
 7    1  0.3113151E-004  0.8257837E+02  0.7546771E-02  0.1396043E+00
          1   -1    0    0  503    0 -0.00000000000E+00  0.00000000000E+00  0.15313832736E+04  0.15313832736E+04  0.00000000000E+00 0. -1.
          2   -1    0    0  502    0  0.00000000000E+00 -0.00000000000E+00 -0.47671773316E+03  0.47671773316E+03  0.00000000000E+00 0. -1.
         25    2    1    2    0    0 -0.12111308698E+03  0.24547120102E+02  0.11798580402E+03  0.21169987454E+03  0.12500098395E+03 0.  0.
          4    1    3    3  501    0 -0.10250910396E+03  0.49496885813E+02  0.13469025050E+03  0.17635513766E+03  0.12700000000E+01 0.  1.
         -4    1    3    3    0  501 -0.18603983014E+02 -0.24949765711E+02 -0.16704446479E+02  0.35344736881E+02  0.12700000000E+01 0.  1.
          2    1    1    2  502    0  0.44154070404E+02  0.24051029561E+01 -0.42750282920E+03  0.42978370773E+03  0.00000000000E+00 0. -1.
          1    1    1    2  503    0  0.76959016573E+02 -0.26952223058E+02  0.13641825656E+04  0.13666174244E+04  0.00000000000E+00 0. -1.
<mgrwt>
<rscale>  0 0.60428274E+02</rscale>
<asrwt>0</asrwt>
<pdfrwt beam="2">  1        2 0.73341190E-01 0.44219526E+02</pdfrwt>
<pdfrwt beam="1">  1        1 0.23559742E+00 0.82578368E+02</pdfrwt>
<totfact> 0.70233865E+01</totfact>
</mgrwt>
</event>
<event>
 7    1  0.3113151E-004  0.8388875E+02  0.7546771E-02  0.1346616E+00
         -1   -1    0    0    0  501 -0.00000000000E+00  0.00000000000E+00  0.31744306177E+03  0.31744306177E+03  0.00000000000E+00 0.  1.
          2   -1    0    0  503    0  0.00000000000E+00 -0.00000000000E+00 -0.69074403673E+03  0.69074403673E+03  0.00000000000E+00 0. -1.
         25    2    1    2    0    0  0.64053580111E+02  0.28917428546E+02 -0.17986850935E+02  0.14452532441E+03  0.12499985517E+03 0.  0.
          4    1    3    3  502    0 -0.38570329500E+01  0.14274353005E+02 -0.61017924416E+02  0.62796766293E+02  0.12700000000E+01 0.  1.
         -4    1    3    3    0  502  0.67910613061E+02  0.14643075541E+02  0.43031073480E+02  0.81728558121E+02  0.12700000000E+01 0.  1.
          2    1    1    2  503    0 -0.25400589731E+02 -0.81783681472E+02 -0.60218921378E+03  0.60824798373E+03  0.00000000000E+00 0. -1.
         -1    1    1    2    0  501 -0.38652990380E+02  0.52866252926E+02  0.24687508975E+03  0.25541379036E+03  0.00000000000E+00 0.  1.
<mgrwt>
<rscale>  0 0.74120476E+02</rscale>
<asrwt>0</asrwt>
<pdfrwt beam="2">  1        2 0.10626831E+00 0.83888749E+02</pdfrwt>
<pdfrwt beam="1">  1       -1 0.48837395E-01 0.65489651E+02</pdfrwt>
<totfact> 0.21979080E+02</totfact>
</mgrwt>
</event>
<event>
 7    1  0.3113151E-004  0.2201828E+03  0.7546771E-02  0.1245199E+00
          2   -1    0    0  503    0  0.00000000000E+00  0.00000000000E+00  0.71808618424E+03  0.71808618424E+03  0.00000000000E+00 0. -1.
          2   -1    0    0  502    0 -0.00000000000E+00 -0.00000000000E+00 -0.31844497741E+03  0.31844497741E+03  0.00000000000E+00 0. -1.
         25    2    1    2    0    0 -0.18212033278E+03 -0.16313932878E+02  0.16945253814E+03  0.27887177743E+03  0.12498538134E+03 0.  0.
          4    1    3    3  501    0 -0.15449880317E+02 -0.48486150860E+02  0.49599517669E+02  0.71072714033E+02  0.12700000000E+01 0.  1.
         -4    1    3    3    0  501 -0.16667045247E+03  0.32172217982E+02  0.11985302047E+03  0.20779906340E+03  0.12700000000E+01 0.  1.
          2    1    1    2  502    0 -0.58696825445E+02  0.25579286947E+02 -0.22969731824E+03  0.23845434625E+03  0.00000000000E+00 0. -1.
          2    1    1    2  503    0  0.24081715823E+03 -0.92653540694E+01  0.45988598693E+03  0.51920503797E+03  0.00000000000E+00 0. -1.
<mgrwt>
<rscale>  0 0.11873465E+03</rscale>
<asrwt>0</asrwt>
<pdfrwt beam="1">  1        2 0.11047480E+00 0.22018277E+03</pdfrwt>
<pdfrwt beam="2">  1        2 0.48991535E-01 0.64028253E+02</pdfrwt>
<totfact> 0.64709343E+02</totfact>
</mgrwt>
</event>
<event>
 7    1  0.3113151E-004  0.6170621E+02  0.7546771E-02  0.1431936E+00
          2   -1    0    0  502    0  0.00000000000E+00  0.00000000000E+00  0.29250359594E+04  0.29250359594E+04  0.00000000000E+00 0. -1.
          1   -1    0    0  503    0 -0.00000000000E+00 -0.00000000000E+00 -0.40091927985E+03  0.40091927985E+03  0.00000000000E+00 0. -1.
         25    2    1    2    0    0  0.10670408138E+02 -0.15952370055E+02 -0.21475002368E+02  0.12827635906E+03  0.12500125138E+03 0.  0.
          4    1    3    3  501    0 -0.43216122337E+01  0.44671513695E+02  0.24097150183E+02  0.50955922277E+02  0.12700000000E+01 0.  1.
         -4    1    3    3    0  501  0.14992020372E+02 -0.60623883751E+02 -0.45572152551E+02  0.77320436781E+02  0.12700000000E+01 0.  1.
          2    1    1    2  502    0 -0.51535939266E+02  0.34291963535E+02  0.28697615345E+04  0.28704290893E+04  0.00000000000E+00 0. -1.
          1    1    1    2  503    0  0.40865531127E+02 -0.18339593479E+02 -0.32416985257E+03  0.32724979089E+03  0.00000000000E+00 0. -1.
<mgrwt>
<rscale>  0 0.52573289E+02</rscale>
<asrwt>0</asrwt>
<pdfrwt beam="1">  1        2 0.45000552E+00 0.61706208E+02</pdfrwt>
<pdfrwt beam="2">  1        1 0.61679891E-01 0.44792101E+02</pdfrwt>
<totfact> 0.24533586E+01</totfact>
</mgrwt>
</event>
<event>
 7    1  0.3113151E-004  0.8828798E+02  0.7546771E-02  0.1480358E+00
         -1   -1    0    0    0  501 -0.00000000000E+00  0.00000000000E+00  0.10933990001E+02  0.10933990001E+02  0.00000000000E+00 0.  1.
          1   -1    0    0  503    0  0.00000000000E+00 -0.00000000000E+00 -0.20126187673E+04  0.20126187673E+04  0.00000000000E+00 0. -1.
         25    2    1    2    0    0 -0.81284957447E+02 -0.93238855066E+01 -0.68258600665E+03  0.69874277514E+03  0.12499452068E+03 0.  0.
          4    1    3    3  502    0 -0.74453799977E+02  0.16113425437E+02 -0.65892283841E+03  0.66331284527E+03  0.12700000000E+01 0.  1.
         -4    1    3    3    0  502 -0.68311574699E+01 -0.25437310944E+02 -0.23663168232E+02  0.35429929879E+02  0.12700000000E+01 0.  1.
          1    1    1    2  503    0 -0.16443934106E+02  0.14582767250E+02 -0.37729740868E+03  0.37793702474E+03  0.00000000000E+00 0. -1.
         -1    1    1    2    0  501  0.97728891553E+02 -0.52588817435E+01 -0.94180136196E+03  0.94687295741E+03  0.00000000000E+00 0.  1.
<mgrwt>
<rscale>  0 0.44050523E+02</rscale>
<asrwt>0</asrwt>
<pdfrwt beam="2">  1        1 0.30963332E+00 0.21978628E+02</pdfrwt>
<pdfrwt beam="1">  1       -1 0.16821541E-02 0.88287979E+02</pdfrwt>
<totfact> 0.35163803E+03</totfact>
</mgrwt>
</event>
<event>
 7    1  0.3113151E-004  0.9223314E+02  0.7546771E-02  0.1337689E+00
         -3   -1    0    0    0  501 -0.00000000000E+00  0.00000000000E+00  0.10397043150E+03  0.10397043150E+03  0.00000000000E+00 0.  1.
          2   -1    0    0  503    0  0.00000000000E+00 -0.00000000000E+00 -0.17361090623E+04  0.17361090623E+04  0.00000000000E+00 0. -1.
         25    2    1    2    0    0 -0.35243900068E+02 -0.35048252027E+02 -0.10305188062E+03  0.16945391425E+03  0.12499770595E+03 0.  0.
          4    1    3    3  502    0 -0.19465864722E+02  0.21515015857E+02  0.18514526965E+02  0.34441492498E+02  0.12700000000E+01 0. -1.
         -4    1    3    3    0  502 -0.15778035346E+02 -0.56563267884E+02 -0.12156640759E+03  0.13501242175E+03  0.12700000000E+01 0. -1.
          2    1    1    2  503    0 -0.64328940525E+02 -0.10651661583E+01 -0.15591857167E+04  0.15605125588E+04  0.00000000000E+00 0. -1.
         -3    1    1    2    0  501  0.99572840593E+02  0.36113418185E+02  0.30098966475E+02  0.11011302075E+03  0.00000000000E+00 0.  1.
<mgrwt>
<rscale>  0 0.77032937E+02</rscale>
<asrwt>0</asrwt>
<pdfrwt beam="2">  1        2 0.26709370E+00 0.64337758E+02</pdfrwt>
<pdfrwt beam="1">  1       -3 0.15995451E-01 0.92233138E+02</pdfrwt>
<totfact> 0.22398915E+02</totfact>
</mgrwt>
</event>
<event>
 7    1  0.3113151E-004  0.8075039E+02  0.7546771E-02  0.1354380E+00
          1   -1    0    0  502    0  0.00000000000E+00  0.00000000000E+00  0.45238560370E+02  0.45238560370E+02  0.00000000000E+00 0. -1.
          1   -1    0    0  503    0 -0.00000000000E+00 -0.00000000000E+00 -0.46421981131E+04  0.46421981131E+04  0.00000000000E+00 0. -1.
         25    2    1    2    0    0  0.26246312747E+02 -0.31631009881E+02 -0.40194049034E+04  0.40215583569E+04  0.12500580135E+03 0.  0.
          4    1    3    3  501    0 -0.11152044973E+02  0.44601158036E+02 -0.16127683528E+04  0.16134240001E+04  0.12700000000E+01 0. -1.
         -4    1    3    3    0  501  0.37398357720E+02 -0.76232167917E+02 -0.24066365506E+04  0.24081343568E+04  0.12700000000E+01 0. -1.
          1    1    1    2  502    0  0.15392887509E+02  0.79808234134E+02  0.34907505563E+01  0.81354044527E+02  0.00000000000E+00 0. -1.
          1    1    1    2  503    0 -0.41639200256E+02 -0.48177224253E+02 -0.58104539990E+03  0.58452427211E+03  0.00000000000E+00 0. -1.
<mgrwt>
<rscale>  0 0.71707813E+02</rscale>
<asrwt>0</asrwt>
<pdfrwt beam="1">  1        1 0.69597763E-02 0.80750385E+02</pdfrwt>
<pdfrwt beam="2">  1        1 0.71418455E+00 0.63677845E+02</pdfrwt>
<totfact> 0.52521444E+00</totfact>
</mgrwt>
</event>
<event>
 7    1  0.3113151E-004  0.7241374E+02  0.7546771E-02  0.1448638E+00
         -1   -1    0    0    0  501 -0.00000000000E+00  0.00000000000E+00  0.39763748265E+02  0.39763748265E+02  0.00000000000E+00 0.  1.
          2   -1    0    0  503    0  0.00000000000E+00 -0.00000000000E+00 -0.47329495661E+03  0.47329495661E+03  0.00000000000E+00 0. -1.
         25    2    1    2    0    0 -0.81164897460E+02 -0.44130086317E+02 -0.27068470915E+03  0.31213846866E+03  0.12500002701E+03 0.  0.
          4    1    3    3  502    0 -0.25302073981E+02  0.13340779907E+02 -0.20911034720E+03  0.21106141656E+03  0.12700000000E+01 0. -1.
         -4    1    3    3    0  502 -0.55862823479E+02 -0.57470866224E+02 -0.61574361956E+02  0.10107705210E+03  0.12700000000E+01 0. -1.
          2    1    1    2  503    0  0.33366739326E+02 -0.46707538935E+01 -0.10855537925E+03  0.11366365118E+03  0.00000000000E+00 0. -1.
         -1    1    1    2    0  501  0.47798158134E+02  0.48800840211E+02 -0.54291119933E+02  0.87256585023E+02  0.00000000000E+00 0.  1.
<mgrwt>
<rscale>  0 0.49394011E+02</rscale>
<asrwt>0</asrwt>
<pdfrwt beam="2">  1        2 0.72814611E-01 0.33692065E+02</pdfrwt>
<pdfrwt beam="1">  1       -1 0.61174995E-02 0.72413736E+02</pdfrwt>
<totfact> 0.89568037E+03</totfact>
</mgrwt>
</event>
<event>
 7    1  0.3113151E-004  0.5250081E+02  0.7546771E-02  0.1519563E+00
         -1   -1    0    0    0  501  0.00000000000E+00  0.00000000000E+00  0.36982461242E+03  0.36982461242E+03  0.00000000000E+00 0.  1.
         -1   -1    0    0    0  502 -0.00000000000E+00 -0.00000000000E+00 -0.22582743439E+03  0.22582743439E+03  0.00000000000E+00 0.  1.
         25    2    1    2    0    0  0.38433984425E+02 -0.64205838363E+02  0.12591871056E+03  0.19256118402E+03  0.12499890832E+03 0.  0.
          4    1    3    3  503    0  0.76032632865E+02 -0.68824027851E+02  0.67015249267E+02  0.12251679315E+03  0.12700000000E+01 0.  1.
         -4    1    3    3    0  503 -0.37598648440E+02  0.46181894878E+01  0.58903461298E+02  0.70044390864E+02  0.12700000000E+01 0.  1.
         -1    1    1    2    0  502 -0.23333483050E+02  0.15890083069E+02 -0.18839721425E+03  0.19050054201E+03  0.00000000000E+00 0.  1.
         -1    1    1    2    0  501 -0.15100501375E+02  0.48315755295E+02  0.20647568171E+03  0.21259032078E+03  0.00000000000E+00 0.  1.
<mgrwt>
<rscale>  0 0.38498183E+02</rscale>
<asrwt>0</asrwt>
<pdfrwt beam="1">  1       -1 0.56896095E-01 0.52500807E+02</pdfrwt>
<pdfrwt beam="2">  1       -1 0.34742682E-01 0.28230235E+02</pdfrwt>
<totfact> 0.21421863E+02</totfact>
</mgrwt>
</event>
<event>
 7    1  0.3113151E-004  0.1759920E+03  0.7546771E-02  0.1216443E+00
          1   -1    0    0  502    0  0.00000000000E+00  0.00000000000E+00  0.27755903550E+04  0.27755903550E+04  0.00000000000E+00 0.  1.
          1   -1    0    0  503    0 -0.00000000000E+00 -0.00000000000E+00 -0.65781306923E+03  0.65781306923E+03  0.00000000000E+00 0. -1.
         25    2    1    2    0    0 -0.14752660529E+03 -0.16145495308E+03  0.13608397680E+03  0.28632077578E+03  0.12501574604E+03 0.  0.
          4    1    3    3  501    0  0.59496786158E+01 -0.15894758209E+02 -0.17885850419E+02  0.24689239749E+02  0.12700000000E+01 0.  1.
         -4    1    3    3    0  501 -0.15347628390E+03 -0.14556019487E+03  0.15396982721E+03  0.26163153603E+03  0.12700000000E+01 0.  1.
          1    1    1    2  502    0  0.10739519076E+03 -0.88194832205E+01  0.25500941162E+04  0.25523697835E+04  0.00000000000E+00 0.  1.
          1    1    1    2  503    0  0.40131414527E+02  0.17027443630E+03 -0.56840080722E+03  0.59471286496E+03  0.00000000000E+00 0. -1.
<mgrwt>
<rscale>  0 0.13771099E+03</rscale>
<asrwt>0</asrwt>
<pdfrwt beam="1">  1        1 0.42701390E+00 0.10775672E+03</pdfrwt>
<pdfrwt beam="2">  1        1 0.10120201E+00 0.17599198E+03</pdfrwt>
<totfact> 0.45107676E+00</totfact>
</mgrwt>
</event>
<event>
 7    1  0.3113151E-004  0.1554566E+03  0.7546771E-02  0.1314933E+00
         -3   -1    0    0    0  501 -0.00000000000E+00  0.00000000000E+00  0.36044757829E+03  0.36044757829E+03  0.00000000000E+00 0.  1.
          2   -1    0    0  503    0  0.00000000000E+00 -0.00000000000E+00 -0.20788298922E+04  0.20788298922E+04  0.00000000000E+00 0.  1.
         25    2    1    2    0    0 -0.77284918316E+01 -0.14357672400E+03 -0.87685568053E+03  0.89731584347E+03  0.12500333281E+03 0.  0.
          4    1    3    3  502    0  0.20304119204E+02 -0.44397431440E+01 -0.38036833158E+03  0.38093785470E+03  0.12700000000E+01 0. -1.
         -4    1    3    3    0  502 -0.28032611036E+02 -0.13913698085E+03 -0.49648734895E+03  0.51637798877E+03  0.12700000000E+01 0. -1.
          2    1    1    2  503    0  0.52963270194E+02  0.15512417459E+03 -0.11845189117E+04  0.11958067025E+04  0.00000000000E+00 0.  1.
         -3    1    1    2    0  501 -0.45234778362E+02 -0.11547450592E+02  0.34299227832E+03  0.34615492453E+03  0.00000000000E+00 0.  1.
<mgrwt>
<rscale>  0 0.85191303E+02</rscale>
<asrwt>0</asrwt>
<pdfrwt beam="2">  1        2 0.31981999E+00 0.15545662E+03</pdfrwt>
<pdfrwt beam="1">  1       -3 0.55453473E-01 0.46685424E+02</pdfrwt>
<totfact> 0.13396421E+01</totfact>
</mgrwt>
</event>
<event>
 7    1  0.3113151E-004  0.7966017E+02  0.7546771E-02  0.1361206E+00
         -1   -1    0    0    0  501 -0.00000000000E+00  0.00000000000E+00  0.29689045241E+03  0.29689045241E+03  0.00000000000E+00 0.  1.
          1   -1    0    0  503    0  0.00000000000E+00 -0.00000000000E+00 -0.10358259529E+04  0.10358259529E+04  0.00000000000E+00 0. -1.
         25    2    1    2    0    0  0.78353865100E+02  0.20148268861E+02 -0.23187541815E+02  0.15068994962E+03  0.12499807161E+03 0.  0.
          4    1    3    3  502    0  0.60944055617E+02  0.68461057569E+02 -0.34755475560E+02  0.98033924229E+02  0.12700000000E+01 0.  1.
         -4    1    3    3    0  502  0.17409809484E+02 -0.48312788707E+02  0.11567933746E+02  0.52656025392E+02  0.12700000000E+01 0.  1.
          1    1    1    2  503    0 -0.41488201652E+02 -0.68671464227E+02 -0.94317261215E+03  0.94657890172E+03  0.00000000000E+00 0. -1.
         -1    1    1    2    0  501 -0.36865663449E+02  0.48523195366E+02  0.22742465351E+03  0.23544755394E+03  0.00000000000E+00 0.  1.
<mgrwt>
<rscale>  0 0.69673680E+02</rscale>
<asrwt>0</asrwt>
<pdfrwt beam="2">  1        1 0.15935784E+00 0.79660172E+02</pdfrwt>
<pdfrwt beam="1">  1       -1 0.45675453E-01 0.60939131E+02</pdfrwt>
<totfact> 0.80473688E+01</totfact>
</mgrwt>
</event>
<event>
 7    1  0.3113151E-004  0.6639993E+02  0.7546771E-02  0.1424908E+00
          1   -1    0    0  503    0  0.00000000000E+00  0.00000000000E+00  0.24632956783E+03  0.24632956783E+03  0.00000000000E+00 0. -1.
         -2   -1    0    0    0  501 -0.00000000000E+00 -0.00000000000E+00 -0.94358003787E+03  0.94358003787E+03  0.00000000000E+00 0.  1.
         25    2    1    2    0    0 -0.53137437488E+02 -0.71394158632E+02 -0.42523336295E+03  0.45207351781E+03  0.12500535744E+03 0.  0.
          4    1    3    3  502    0 -0.84212507087E+02 -0.51203381224E+02 -0.38475165071E+03  0.39717625587E+03  0.12700000000E+01 0. -1.
         -4    1    3    3    0  502  0.31075069599E+02 -0.20190777408E+02 -0.40481712237E+02  0.54897261940E+02  0.12700000000E+01 0. -1.
          1    1    1    2  503    0 -0.48077799945E+01  0.43645064415E+02  0.22876943460E+03  0.23294518798E+03  0.00000000000E+00 0. -1.
         -2    1    1    2    0  501  0.57945217483E+02  0.27749094218E+02 -0.50078654170E+03  0.50489089991E+03  0.00000000000E+00 0.  1.
<mgrwt>
<rscale>  0 0.53995919E+02</rscale>
<asrwt>0</asrwt>
<pdfrwt beam="1">  1        1 0.37896857E-01 0.43909070E+02</pdfrwt>
<pdfrwt beam="2">  1       -2 0.14516616E+00 0.66399932E+02</pdfrwt>
<totfact> 0.36192773E+01</totfact>
</mgrwt>
</event>
<event>
 7    1  0.3113151E-004  0.4150583E+02  0.7546771E-02  0.1515413E+00
         -1   -1    0    0    0  501 -0.00000000000E+00  0.00000000000E+00  0.23918424932E+02  0.23918424932E+02  0.00000000000E+00 0.  1.
          2   -1    0    0  503    0  0.00000000000E+00 -0.00000000000E+00 -0.49914900413E+03  0.49914900413E+03  0.00000000000E+00 0. -1.
         25    2    1    2    0    0  0.12220116359E+02 -0.25212374829E+02 -0.33826294271E+03  0.36170856735E+03  0.12500509668E+03 0.  0.
          4    1    3    3  502    0 -0.51346910447E+02 -0.16468819243E+02 -0.86873303017E+02  0.10225610445E+03  0.12700000000E+01 0. -1.
         -4    1    3    3    0  502  0.63567026806E+02 -0.87435555863E+01 -0.25138963970E+03  0.25945246291E+03  0.12700000000E+01 0. -1.
          2    1    1    2  503    0 -0.40999816358E+02 -0.64613574786E+01 -0.55138845690E+02  0.69014682393E+02  0.00000000000E+00 0. -1.
         -1    1    1    2    0  501  0.28779699998E+02  0.31673732308E+02 -0.81828790790E+02  0.92344179310E+02  0.00000000000E+00 0.  1.
<mgrwt>
<rscale>  0 0.39037927E+02</rscale>
<asrwt>0</asrwt>
<pdfrwt beam="2">  1        2 0.76792151E-01 0.41505832E+02</pdfrwt>
<pdfrwt beam="1">  1       -1 0.36797578E-02 0.36716761E+02</pdfrwt>
<totfact> 0.16236731E+04</totfact>
</mgrwt>
</event>
<event>
 7    1  0.3113151E-004  0.3542196E+02  0.7546771E-02  0.1580599E+00
          2   -1    0    0  503    0  0.00000000000E+00  0.00000000000E+00  0.12602428467E+04  0.12602428467E+04  0.00000000000E+00 0. -1.
         -1   -1    0    0    0  501 -0.00000000000E+00 -0.00000000000E+00 -0.91341671052E+01  0.91341671052E+01  0.00000000000E+00 0.  1.
         25    2    1    2    0    0 -0.45266947223E+01 -0.10752609949E+02  0.61396478777E+03  0.62666687073E+03  0.12498998627E+03 0.  0.
          4    1    3    3  502    0 -0.54280730821E+02  0.28226464551E+02  0.34386405889E+03  0.34926671032E+03  0.12700000000E+01 0. -1.
         -4    1    3    3    0  502  0.49754036099E+02 -0.38979074499E+02  0.27010072888E+03  0.27740016041E+03  0.12700000000E+01 0. -1.
          2    1    1    2  503    0 -0.34922475378E+02 -0.59275519951E+01  0.17268107318E+03  0.17627668080E+03  0.00000000000E+00 0. -1.
         -1    1    1    2    0  501  0.39449170100E+02  0.16680161944E+02  0.46446281860E+03  0.46643346223E+03  0.00000000000E+00 0.  1.
<mgrwt>
<rscale>  0 0.31643772E+02</rscale>
<asrwt>0</asrwt>
<pdfrwt beam="1">  1        2 0.19388338E+00 0.35421959E+02</pdfrwt>
<pdfrwt beam="2">  1       -1 0.14052575E-02 0.28268575E+02</pdfrwt>
<totfact> 0.19593494E+04</totfact>
</mgrwt>
</event>
<event>
 7    1  0.3113151E-004  0.4653692E+02  0.7546771E-02  0.1520673E+00
          1   -1    0    0  503    0  0.00000000000E+00  0.00000000000E+00  0.12870959207E+04  0.12870959207E+04  0.00000000000E+00 0. -1.
         -1   -1    0    0    0  501 -0.00000000000E+00 -0.00000000000E+00 -0.99468865249E+01  0.99468865249E+01  0.00000000000E+00 0.  1.
         25    2    1    2    0    0  0.28840767821E+02 -0.12629971467E+02  0.73770348679E+03  0.74888109983E+03  0.12500064475E+03 0.  0.
          4    1    3    3  502    0 -0.10380204827E+01 -0.36692387166E+02  0.61814759801E+02  0.71903311409E+02  0.12700000000E+01 0.  1.
         -4    1    3    3    0  502  0.29878788304E+02  0.24062415699E+02  0.67588872699E+03  0.67697778842E+03  0.12700000000E+01 0.  1.
          1    1    1    2  503    0 -0.26992044715E+02  0.44188443292E+02  0.45597094884E+03  0.45890161820E+03  0.00000000000E+00 0. -1.
         -1    1    1    2    0  501 -0.18487231064E+01 -0.31558471825E+02  0.83474598493E+02  0.89260089148E+02  0.00000000000E+00 0.  1.
<mgrwt>
<rscale>  0 0.38355597E+02</rscale>
<asrwt>0</asrwt>
<pdfrwt beam="1">  1        1 0.19801463E+00 0.46536917E+02</pdfrwt>
<pdfrwt beam="2">  1       -1 0.15302912E-02 0.31612575E+02</pdfrwt>
<totfact> 0.85215428E+03</totfact>
</mgrwt>
</event>
<event>
 7    1  0.3113151E-004  0.6321849E+02  0.7546771E-02  0.1413269E+00
          2   -1    0    0  502    0  0.00000000000E+00  0.00000000000E+00  0.23878768360E+03  0.23878768360E+03  0.00000000000E+00 0. -1.
          1   -1    0    0  503    0 -0.00000000000E+00 -0.00000000000E+00 -0.58526448071E+03  0.58526448071E+03  0.00000000000E+00 0. -1.
         25    2    1    2    0    0  0.99952480415E+02  0.47855064769E+02 -0.28863918189E+03  0.33349089715E+03  0.12499198212E+03 0.  0.
          4    1    3    3  501    0 -0.24181205987E+02  0.12217138509E+02 -0.10848294218E+03  0.11182196045E+03  0.12700000000E+01 0. -1.
         -4    1    3    3    0  501  0.12413368640E+03  0.35637926260E+02 -0.18015623971E+03  0.22166893669E+03  0.12700000000E+01 0. -1.
          2    1    1    2  502    0 -0.50811058700E+02 -0.36468564432E+02  0.20943283070E+03  0.21857225454E+03  0.00000000000E+00 0. -1.
          1    1    1    2  503    0 -0.49141421715E+02 -0.11386500337E+02 -0.26727044593E+03  0.27198901262E+03  0.00000000000E+00 0. -1.
<mgrwt>
<rscale>  0 0.56470811E+02</rscale>
<asrwt>0</asrwt>
<pdfrwt beam="1">  1        2 0.36736567E-01 0.63218489E+02</pdfrwt>
<pdfrwt beam="2">  1        1 0.90040689E-01 0.50443352E+02</pdfrwt>
<totfact> 0.71846082E+02</totfact>
</mgrwt>
</event>
<event>
 7    1  0.3113151E-004  0.7869686E+02  0.7546771E-02  0.1428403E+00
         -1   -1    0    0    0  501 -0.00000000000E+00  0.00000000000E+00  0.24178640427E+02  0.24178640427E+02  0.00000000000E+00 0.  1.
          1   -1    0    0  503    0  0.00000000000E+00 -0.00000000000E+00 -0.12407921915E+04  0.12407921915E+04  0.00000000000E+00 0. -1.
         25    2    1    2    0    0 -0.23443689808E+02  0.95041647602E+02 -0.98931856135E+03  0.10019781127E+04  0.12500560420E+03 0.  0.
          4    1    3    3  502    0  0.51735801139E+02  0.33961013966E+02 -0.38455667767E+03  0.38950660435E+03  0.12700000000E+01 0.  1.
         -4    1    3    3    0  502 -0.75179490947E+02  0.61080633635E+02 -0.60476188368E+03  0.61247150833E+03  0.12700000000E+01 0.  1.
          1    1    1    2  503    0  0.39522406022E+01 -0.64685911597E+02 -0.21550779658E+03  0.22504110236E+03  0.00000000000E+00 0. -1.
         -1    1    1    2    0  501  0.19491449206E+02 -0.30355736005E+02 -0.11787193108E+02  0.37951616855E+02  0.00000000000E+00 0.  1.
<mgrwt>
<rscale>  0 0.53281978E+02</rscale>
<asrwt>0</asrwt>
<pdfrwt beam="2">  1        1 0.19089112E+00 0.78696857E+02</pdfrwt>
<pdfrwt beam="1">  1       -1 0.37197906E-02 0.36074746E+02</pdfrwt>
<totfact> 0.26006467E+03</totfact>
</mgrwt>
</event>
<event>
 7    1  0.3113151E-004  0.5659689E+02  0.7546771E-02  0.1456069E+00
         -1   -1    0    0    0  501  0.00000000000E+00  0.00000000000E+00  0.14531128479E+04  0.14531128479E+04  0.00000000000E+00 0.  1.
         -1   -1    0    0    0  502 -0.00000000000E+00 -0.00000000000E+00 -0.46930563982E+03  0.46930563982E+03  0.00000000000E+00 0.  1.
         25    2    1    2    0    0 -0.79446864365E+01  0.28612395246E+02  0.50766963205E+02  0.13814519780E+03  0.12500009567E+03 0.  0.
          4    1    3    3  503    0  0.11561584526E+02  0.71323756984E+02  0.55240246837E+02  0.90960685561E+02  0.12700000000E+01 0.  1.
         -4    1    3    3    0  503 -0.19506270962E+02 -0.42711361738E+02 -0.44732836317E+01  0.47184512235E+02  0.12700000000E+01 0.  1.
         -1    1    1    2    0  502 -0.26213277228E+02 -0.50959624460E+02 -0.42337913292E+03  0.42723987339E+03  0.00000000000E+00 0.  1.
         -1    1    1    2    0  501  0.34157963665E+02  0.22347229214E+02  0.13564193778E+04  0.13570334166E+04  0.00000000000E+00 0.  1.
<mgrwt>
<rscale>  0 0.48064652E+02</rscale>
<asrwt>0</asrwt>
<pdfrwt beam="1">  1       -1 0.22355582E+00 0.40818686E+02</pdfrwt>
<pdfrwt beam="2">  1       -1 0.72200868E-01 0.56596891E+02</pdfrwt>
<totfact> 0.25128033E+00</totfact>
</mgrwt>
</event>
<event>
 7    1  0.3113151E-004  0.5250351E+02  0.7546771E-02  0.1477444E+00
          1   -1    0    0  503    0  0.00000000000E+00  0.00000000000E+00  0.18404107004E+02  0.18404107004E+02  0.00000000000E+00 0. -1.
         -1   -1    0    0    0  501 -0.00000000000E+00 -0.00000000000E+00 -0.95211661966E+03  0.95211661966E+03  0.00000000000E+00 0.  1.
         25    2    1    2    0    0 -0.36894775837E+02 -0.10588239258E+01 -0.75965442380E+03  0.77075482091E+03  0.12500321900E+03 0.  0.
          4    1    3    3  502    0  0.26576220111E+02 -0.35765141461E+02 -0.14086091989E+03  0.14774590509E+03  0.12700000000E+01 0. -1.
         -4    1    3    3    0  502 -0.63470995948E+02  0.34706317535E+02 -0.61879350392E+03  0.62300891582E+03  0.12700000000E+01 0. -1.
          1    1    1    2  503    0  0.41356216410E+02 -0.36404585617E+02 -0.70017710907E+02  0.89096073596E+02  0.00000000000E+00 0. -1.
         -1    1    1    2    0  501 -0.44614405725E+01  0.37463409543E+02 -0.10404037795E+03  0.11066983216E+03  0.00000000000E+00 0.  1.
<mgrwt>
<rscale>  0 0.44506842E+02</rscale>
<asrwt>0</asrwt>
<pdfrwt beam="1">  1        1 0.28314010E-02 0.52503507E+02</pdfrwt>
<pdfrwt beam="2">  1       -1 0.14647948E+00 0.37728126E+02</pdfrwt>
<totfact> 0.14090313E+03</totfact>
</mgrwt>
</event>
<event>
 7    1  0.3113151E-004  0.1425568E+03  0.7546771E-02  0.1231463E+00
          1   -1    0    0  502    0  0.00000000000E+00  0.00000000000E+00  0.24446675298E+04  0.24446675298E+04  0.00000000000E+00 0. -1.
          3   -1    0    0  503    0 -0.00000000000E+00 -0.00000000000E+00 -0.44015697608E+02  0.44015697608E+02  0.00000000000E+00 0. -1.
         25    2    1    2    0    0 -0.16460564685E+02 -0.10965394422E+03  0.13585214746E+04  0.13687588748E+04  0.12500129090E+03 0.  0.
          4    1    3    3  501    0 -0.23628918855E+02  0.14674926671E+02  0.54973767532E+03  0.55044237105E+03  0.12700000000E+01 0.  1.
         -4    1    3    3    0  501  0.71683541698E+01 -0.12432887089E+03  0.80878379931E+03  0.81831650378E+03  0.12700000000E+01 0.  1.
          1    1    1    2  502    0  0.47197181873E+02  0.21916286888E+03  0.94225256362E+03  0.96855553827E+03  0.00000000000E+00 0. -1.
          3    1    1    2  503    0 -0.30736617189E+02 -0.10950892466E+03  0.99877793912E+02  0.15136881427E+03  0.00000000000E+00 0. -1.
<mgrwt>
<rscale>  0 0.12733619E+03</rscale>
<asrwt>0</asrwt>
<pdfrwt beam="1">  1        1 0.37610259E+00 0.14255677E+03</pdfrwt>
<pdfrwt beam="2">  1        3 0.67716477E-02 0.11374069E+03</pdfrwt>
<totfact> 0.13416141E+02</totfact>
</mgrwt>
</event>
<event>
 7    1  0.3113151E-004  0.2477186E+02  0.7546771E-02  0.1693731E+00
         -1   -1    0    0    0  501 -0.00000000000E+00  0.00000000000E+00  0.25458445333E+02  0.25458445333E+02  0.00000000000E+00 0.  1.
          1   -1    0    0  503    0  0.00000000000E+00 -0.00000000000E+00 -0.85846635799E+03  0.85846635799E+03  0.00000000000E+00 0. -1.
         25    2    1    2    0    0 -0.50179635292E+01  0.26805795853E+02 -0.33770490733E+03  0.36112886571E+03  0.12500289023E+03 0.  0.
          4    1    3    3  502    0  0.54116432595E+02 -0.12139965754E+02 -0.12017962498E+03  0.13236586496E+03  0.12700000000E+01 0. -1.
         -4    1    3    3    0  502 -0.59134396125E+02  0.38945761607E+02 -0.21752528235E+03  0.22876300075E+03  0.12700000000E+01 0. -1.
          1    1    1    2  503    0 -0.14943079537E+02 -0.19959913113E+02 -0.50045340623E+03  0.50107415177E+03  0.00000000000E+00 0. -1.
         -1    1    1    2    0  501  0.19961043067E+02 -0.68458827404E+01  0.51504009077E+01  0.21721785845E+02  0.00000000000E+00 0.  1.
<mgrwt>
<rscale>  0 0.22863606E+02</rscale>
<asrwt>0</asrwt>
<pdfrwt beam="2">  1        1 0.13207173E+00 0.24771856E+02</pdfrwt>
<pdfrwt beam="1">  1       -1 0.39166844E-02 0.21102354E+02</pdfrwt>
<totfact> 0.44429583E+03</totfact>
</mgrwt>
</event>
<event>
 7    1  0.3113151E-004  0.6660546E+02  0.7546771E-02  0.1527992E+00
          1   -1    0    0  503    0  0.00000000000E+00  0.00000000000E+00  0.57121401937E+02  0.57121401937E+02  0.00000000000E+00 0. -1.
         -2   -1    0    0    0  501 -0.00000000000E+00 -0.00000000000E+00 -0.28917567784E+03  0.28917567784E+03  0.00000000000E+00 0.  1.
         25    2    1    2    0    0 -0.33990910133E+02  0.61975869510E+02 -0.93692088567E+02  0.17146583837E+03  0.12500374352E+03 0.  0.
          4    1    3    3  502    0  0.42316653188E+02  0.49921320978E+02 -0.33547680128E+02  0.73552003149E+02  0.12700000000E+01 0. -1.
         -4    1    3    3    0  502 -0.76307563321E+02  0.12054548532E+02 -0.60144408439E+02  0.97913835216E+02  0.12700000000E+01 0. -1.
          1    1    1    2  503    0  0.47228712002E+02 -0.45623923817E+02 -0.46180230250E+02  0.80278934521E+02  0.00000000000E+00 0. -1.
         -2    1    1    2    0  501 -0.13237801870E+02 -0.16351945693E+02 -0.92181957084E+02  0.94552306890E+02  0.00000000000E+00 0.  1.
<mgrwt>
<rscale>  0 0.37433810E+02</rscale>
<asrwt>0</asrwt>
<pdfrwt beam="1">  1        1 0.87879081E-02 0.66605461E+02</pdfrwt>
<pdfrwt beam="2">  1       -2 0.44488565E-01 0.21038667E+02</pdfrwt>
<totfact> 0.28942941E+03</totfact>
</mgrwt>
</event>
<event>
 7    1  0.3113151E-004  0.5620265E+02  0.7546771E-02  0.1415585E+00
         -1   -1    0    0    0  501 -0.00000000000E+00  0.00000000000E+00  0.52012649623E+02  0.52012649623E+02  0.00000000000E+00 0.  1.
          2   -1    0    0  503    0  0.00000000000E+00 -0.00000000000E+00 -0.34167365648E+03  0.34167365648E+03  0.00000000000E+00 0. -1.
         25    2    1    2    0    0  0.42258852125E+02  0.42620390722E+02 -0.11035123716E+03  0.17721527183E+03  0.12500219494E+03 0.  0.
          4    1    3    3  502    0 -0.20261304786E+02 -0.32759268826E+02 -0.17758125381E+02  0.42434114609E+02  0.12700000000E+01 0. -1.
         -4    1    3    3    0  502  0.62520156911E+02  0.75379659548E+02 -0.92593111778E+02  0.13478115722E+03  0.12700000000E+01 0. -1.
          2    1    1    2  503    0 -0.52614431668E+02  0.19760052017E+02 -0.10327921494E+03  0.11758118180E+03  0.00000000000E+00 0. -1.
         -1    1    1    2    0  501  0.10355579542E+02 -0.62380442740E+02 -0.76030554754E+02  0.98889852463E+02  0.00000000000E+00 0.  1.
<mgrwt>
<rscale>  0 0.55965915E+02</rscale>
<asrwt>0</asrwt>
<pdfrwt beam="2">  1        2 0.52565176E-01 0.56202652E+02</pdfrwt>
<pdfrwt beam="1">  1       -1 0.80019463E-02 0.55730176E+02</pdfrwt>
<totfact> 0.82272971E+03</totfact>
</mgrwt>
</event>
<event>
 7    1  0.3113151E-004  0.7905415E+02  0.7546771E-02  0.1377815E+00
         -2   -1    0    0    0  501 -0.00000000000E+00  0.00000000000E+00  0.13742682451E+03  0.13742682451E+03  0.00000000000E+00 0. -1.
          1   -1    0    0  503    0  0.00000000000E+00 -0.00000000000E+00 -0.23641594707E+04  0.23641594707E+04  0.00000000000E+00 0. -1.
         25    2    1    2    0    0  0.10741479166E+03  0.17820052438E+02 -0.12158116667E+04  0.12270611065E+04  0.12500183430E+03 0.  0.
          4    1    3    3  502    0  0.11894707691E+03 -0.84380572915E+01 -0.67249936522E+03  0.68299093482E+03  0.12700000000E+01 0. -1.
         -4    1    3    3    0  502 -0.11532285251E+02  0.26258109729E+02 -0.54331230145E+03  0.54407017170E+03  0.12700000000E+01 0. -1.
          1    1    1    2  503    0 -0.44484515294E+02  0.29745106581E+02 -0.11302300089E+04  0.11314961408E+04  0.00000000000E+00 0. -1.
         -2    1    1    2    0  501 -0.62930276368E+02 -0.47565159019E+02  0.11930902945E+03  0.14302904790E+03  0.00000000000E+00 0. -1.
<mgrwt>
<rscale>  0 0.65041729E+02</rscale>
<asrwt>0</asrwt>
<pdfrwt beam="2">  1        1 0.36371682E+00 0.53513021E+02</pdfrwt>
<pdfrwt beam="1">  1       -2 0.21142590E-01 0.79054151E+02</pdfrwt>
<totfact> 0.39736839E+01</totfact>
</mgrwt>
</event>
<event>
 7    1  0.3113151E-004  0.1684789E+03  0.7546771E-02  0.1277569E+00
         -1   -1    0    0    0  501 -0.00000000000E+00  0.00000000000E+00  0.59026341308E+02  0.59026341308E+02  0.00000000000E+00 0.  1.
          1   -1    0    0  503    0  0.00000000000E+00 -0.00000000000E+00 -0.90457831914E+03  0.90457831914E+03  0.00000000000E+00 0. -1.
         25    2    1    2    0    0  0.94925618931E+02 -0.15167079634E+03 -0.49797203575E+03  0.54370595376E+03  0.12500044868E+03 0.  0.
          4    1    3    3  502    0  0.14619231680E+01  0.20607651152E+02 -0.69803025932E+02  0.72807196311E+02  0.12700000000E+01 0. -1.
         -4    1    3    3    0  502  0.93463695763E+02 -0.17227844749E+03 -0.42816900982E+03  0.47089875745E+03  0.12700000000E+01 0. -1.
          1    1    1    2  503    0 -0.34606031551E+02  0.16018384782E+03 -0.30276780985E+03  0.34427429355E+03  0.00000000000E+00 0. -1.
         -1    1    1    2    0  501 -0.60319587380E+02 -0.85130514760E+01 -0.44812132234E+02  0.75624413138E+02  0.00000000000E+00 0.  1.
<mgrwt>
<rscale>  0 0.10130789E+03</rscale>
<asrwt>0</asrwt>
<pdfrwt beam="2">  1        1 0.13916588E+00 0.16847889E+03</pdfrwt>
<pdfrwt beam="1">  1       -1 0.90809765E-02 0.60917359E+02</pdfrwt>
<totfact> 0.12491676E+03</totfact>
</mgrwt>
</event>
<event>
 7    1  0.3113151E-004  0.1282337E+03  0.7546771E-02  0.1326601E+00
         -2   -1    0    0    0  501 -0.00000000000E+00  0.00000000000E+00  0.65126995115E+02  0.65126995115E+02  0.00000000000E+00 0.  1.
          2   -1    0    0  503    0  0.00000000000E+00 -0.00000000000E+00 -0.52378726758E+03  0.52378726758E+03  0.00000000000E+00 0. -1.
         25    2    1    2    0    0 -0.11877542229E+03 -0.89474153598E+02 -0.26270805174E+03  0.32673052159E+03  0.12499635269E+03 0.  0.
          4    1    3    3  502    0 -0.19665887184E+02 -0.10024841364E+02 -0.16498796272E+03  0.16646286465E+03  0.12700000000E+01 0. -1.
         -4    1    3    3    0  502 -0.99109535110E+02 -0.79449312234E+02 -0.97720089020E+02  0.16026765694E+03  0.12700000000E+01 0. -1.
          2    1    1    2  503    0  0.11179298581E+03  0.38954476979E+02 -0.16303511629E+03  0.20148342884E+03  0.00000000000E+00 0. -1.
         -2    1    1    2    0  501  0.69824364855E+01  0.50519676619E+02 -0.32917104429E+02  0.60700312264E+02  0.00000000000E+00 0.  1.
<mgrwt>
<rscale>  0 0.80869708E+02</rscale>
<asrwt>0</asrwt>
<pdfrwt beam="2">  1        2 0.80582655E-01 0.12823372E+03</pdfrwt>
<pdfrwt beam="1">  1       -2 0.10019538E-01 0.50999923E+02</pdfrwt>
<totfact> 0.35400481E+03</totfact>
</mgrwt>
</event>
<event>
 7    1  0.3113151E-004  0.8584980E+02  0.7546771E-02  0.1438130E+00
          1   -1    0    0  503    0  0.00000000000E+00  0.00000000000E+00  0.31797102668E+03  0.31797102668E+03  0.00000000000E+00 0. -1.
         -1   -1    0    0    0  501 -0.00000000000E+00 -0.00000000000E+00 -0.67360675305E+02  0.67360675305E+02  0.00000000000E+00 0.  1.
         25    2    1    2    0    0  0.24132802366E+02  0.87214818317E+02  0.14153744545E+03  0.20939843348E+03  0.12500415512E+03 0.  0.
          4    1    3    3  502    0 -0.45879247772E+02  0.50091319121E+02  0.34454221373E+02  0.76175796010E+02  0.12700000000E+01 0. -1.
         -4    1    3    3    0  502  0.70012050138E+02  0.37123499197E+02  0.10708322407E+03  0.13322263747E+03  0.12700000000E+01 0. -1.
          1    1    1    2  503    0  0.25362638012E+02 -0.17349527377E+02  0.79692343098E+02  0.85411586191E+02  0.00000000000E+00 0. -1.
         -1    1    1    2    0  501 -0.49495440378E+02 -0.69865290940E+02  0.29380562830E+02  0.90521682312E+02  0.00000000000E+00 0.  1.
<mgrwt>
<rscale>  0 0.51362203E+02</rscale>
<asrwt>0</asrwt>
<pdfrwt beam="1">  1        1 0.48918619E-01 0.30728969E+02</pdfrwt>
<pdfrwt beam="2">  1       -1 0.10363181E-01 0.85849802E+02</pdfrwt>
<totfact> 0.43814163E+03</totfact>
</mgrwt>
</event>
<event>
 7    1  0.3113151E-004  0.6515148E+02  0.7546771E-02  0.1394140E+00
         -1   -1    0    0    0  501 -0.00000000000E+00  0.00000000000E+00  0.54062914954E+03  0.54062914954E+03  0.00000000000E+00 0.  1.
          2   -1    0    0  503    0  0.00000000000E+00 -0.00000000000E+00 -0.25341918012E+04  0.25341918012E+04  0.00000000000E+00 0. -1.
         25    2    1    2    0    0  0.45194010055E+01  0.10552191265E+03  0.33769853212E+03  0.37527202982E+03  0.12503399032E+03 0.  0.
          4    1    3    3  502    0 -0.46704210254E+02  0.66682964516E+00  0.87551106226E+02  0.99239795539E+02  0.12700000000E+01 0.  1.
         -4    1    3    3    0  502  0.51223611260E+02  0.10485508300E+03  0.25014742589E+03  0.27603223428E+03  0.12700000000E+01 0.  1.
          2    1    1    2  503    0  0.18931682653E+02 -0.53663111425E+02 -0.25106771753E+04  0.25113219659E+04  0.00000000000E+00 0. -1.
         -1    1    1    2    0  501 -0.23451083659E+02 -0.51858801220E+02  0.17941599148E+03  0.18822695500E+03  0.00000000000E+00 0.  1.
<mgrwt>
<rscale>  0 0.60888601E+02</rscale>
<asrwt>0</asrwt>
<pdfrwt beam="2">  1        2 0.38987566E+00 0.56904641E+02</pdfrwt>
<pdfrwt beam="1">  1       -1 0.83173716E-01 0.65151482E+02</pdfrwt>
<totfact> 0.86358562E+00</totfact>
</mgrwt>
</event>
<event>
 7    1  0.3113151E-004  0.1548094E+03  0.7546771E-02  0.1388496E+00
          1   -1    0    0  503    0 -0.00000000000E+00  0.00000000000E+00  0.32680838910E+03  0.32680838910E+03  0.00000000000E+00 0.  1.
          2   -1    0    0  502    0  0.00000000000E+00 -0.00000000000E+00 -0.16856477856E+03  0.16856477856E+03  0.00000000000E+00 0. -1.
         25    2    1    2    0    0 -0.15345681618E+03 -0.74086819946E+02  0.46163044200E+02  0.21631844389E+03  0.12499916478E+03 0.  0.
          4    1    3    3  501    0 -0.72180198739E+02 -0.95433245059E+02  0.55220260772E+02  0.13178913253E+03  0.12700000000E+01 0.  1.
         -4    1    3    3    0  501 -0.81276617440E+02  0.21346425113E+02 -0.90572165719E+01  0.84529311364E+02  0.12700000000E+01 0.  1.
          2    1    1    2  502    0  0.24926810310E+02 -0.25533645572E+01 -0.51548431754E+02  0.57315847364E+02  0.00000000000E+00 0. -1.
          1    1    1    2  503    0  0.12853000587E+03  0.76640184503E+02  0.16362899810E+03  0.22173887640E+03  0.00000000000E+00 0.  1.
<mgrwt>
<rscale>  0 0.62282399E+02</rscale>
<asrwt>0</asrwt>
<pdfrwt beam="2">  1        2 0.25933043E-01 0.25057245E+02</pdfrwt>
<pdfrwt beam="1">  1        1 0.50278214E-01 0.15480940E+03</pdfrwt>
<totfact> 0.20461743E+03</totfact>
</mgrwt>
</event>
<event>
 7    1  0.3113151E-004  0.6022207E+02  0.7546771E-02  0.1465547E+00
          2   -1    0    0  502    0  0.00000000000E+00  0.00000000000E+00  0.15775168107E+04  0.15775168107E+04  0.00000000000E+00 0. -1.
          1   -1    0    0  503    0 -0.00000000000E+00 -0.00000000000E+00 -0.97314236500E+03  0.97314236500E+03  0.00000000000E+00 0. -1.
         25    2    1    2    0    0 -0.41866204470E+02 -0.35323825331E+02  0.17141088035E+03  0.21908004509E+03  0.12495529016E+03 0.  0.
          4    1    3    3  501    0  0.10271429723E+02  0.75128102801E+00 -0.17203470014E+02  0.20090768334E+02  0.12700000000E+01 0. -1.
         -4    1    3    3    0  501 -0.52137634192E+02 -0.36075106359E+02  0.18861435037E+03  0.19898927675E+03  0.12700000000E+01 0. -1.
          2    1    1    2  502    0 -0.18263733717E+02  0.30804880923E+02  0.13810814492E+04  0.13815456829E+04  0.00000000000E+00 0. -1.
          1    1    1    2  503    0  0.60129938186E+02  0.45189444074E+01 -0.94811788378E+03  0.95003344777E+03  0.00000000000E+00 0. -1.
<mgrwt>
<rscale>  0 0.46440040E+02</rscale>
<asrwt>0</asrwt>
<pdfrwt beam="1">  1        2 0.24269489E+00 0.35812074E+02</pdfrwt>
<pdfrwt beam="2">  1        1 0.14971421E+00 0.60222073E+02</pdfrwt>
<totfact> 0.37415892E+01</totfact>
</mgrwt>
</event>
<event>
 7    1  0.3113151E-004  0.8437588E+02  0.7546771E-02  0.1368758E+00
          2   -1    0    0  503    0  0.00000000000E+00  0.00000000000E+00  0.64404498623E+03  0.64404498623E+03  0.00000000000E+00 0. -1.
          2   -1    0    0  502    0 -0.00000000000E+00 -0.00000000000E+00 -0.18902235686E+04  0.18902235686E+04  0.00000000000E+00 0. -1.
         25    2    1    2    0    0 -0.43534067071E+02  0.70015840344E+01 -0.10873216124E+04  0.10953715965E+04  0.12500563361E+03 0.  0.
          4    1    3    3  501    0  0.26952901645E+02 -0.34521173927E+02 -0.22860669340E+03  0.23276770292E+03  0.12700000000E+01 0.  1.
         -4    1    3    3    0  501 -0.70486968716E+02  0.41522757961E+02 -0.85871491905E+03  0.86260389362E+03  0.12700000000E+01 0.  1.
          2    1    1    2  502    0 -0.33031692640E+02 -0.42746041001E+02 -0.79516753649E+03  0.79700045660E+03  0.00000000000E+00 0. -1.
          2    1    1    2  503    0  0.76565759711E+02  0.35744456967E+02  0.63631056657E+03  0.64189650169E+03  0.00000000000E+00 0. -1.
<mgrwt>
<rscale>  0 0.67513753E+02</rscale>
<asrwt>0</asrwt>
<pdfrwt beam="1">  1        2 0.99083846E-01 0.84375875E+02</pdfrwt>
<pdfrwt beam="2">  1        2 0.29080362E+00 0.54021447E+02</pdfrwt>
<totfact> 0.74697130E+01</totfact>
</mgrwt>
</event>
<event>
 7    1  0.3113151E-004  0.9610120E+02  0.7546771E-02  0.1407922E+00
          1   -1    0    0  503    0  0.00000000000E+00  0.00000000000E+00  0.85408028360E+03  0.85408028360E+03  0.00000000000E+00 0. -1.
          1   -1    0    0  502    0 -0.00000000000E+00 -0.00000000000E+00 -0.11693241082E+03  0.11693241082E+03  0.00000000000E+00 0. -1.
         25    2    1    2    0    0 -0.39640804837E+02 -0.12311455560E+03  0.53982746109E+03  0.56900472230E+03  0.12499639614E+03 0.  0.
          4    1    3    3  501    0  0.44161381200E+02 -0.53145031581E+02  0.24697990052E+03  0.25646696889E+03  0.12700000000E+01 0. -1.
         -4    1    3    3    0  501 -0.83802186038E+02 -0.69969524016E+02  0.29284756058E+03  0.31253775342E+03  0.12700000000E+01 0. -1.
          1    1    1    2  502    0  0.27894047029E+02  0.90574292549E+02 -0.79091652954E+02  0.12343933691E+03  0.00000000000E+00 0. -1.
          1    1    1    2  503    0  0.11746757809E+02  0.32540263049E+02  0.27641206465E+03  0.27856863521E+03  0.00000000000E+00 0. -1.
<mgrwt>
<rscale>  0 0.57660021E+02</rscale>
<asrwt>0</asrwt>
<pdfrwt beam="1">  1        1 0.13139696E+00 0.34595593E+02</pdfrwt>
<pdfrwt beam="2">  1        1 0.17989602E-01 0.96101202E+02</pdfrwt>
<totfact> 0.78526784E+02</totfact>
</mgrwt>
</event>
<event>
 7    1  0.3113151E-004  0.4270065E+02  0.7546771E-02  0.1577872E+00
          2   -1    0    0  503    0  0.00000000000E+00  0.00000000000E+00  0.94037757871E+01  0.94037757871E+01  0.00000000000E+00 0. -1.
         -1   -1    0    0    0  501 -0.00000000000E+00 -0.00000000000E+00 -0.12289649264E+04  0.12289649264E+04  0.00000000000E+00 0.  1.
         25    2    1    2    0    0  0.15576929004E+02  0.23768922183E+02 -0.64133390905E+03  0.65402008722E+03  0.12500195679E+03 0.  0.
          4    1    3    3  502    0 -0.48799195542E+02  0.29715895683E+02 -0.40451028796E+03  0.40852733312E+03  0.12700000000E+01 0. -1.
         -4    1    3    3    0  502  0.64376124546E+02 -0.59469735005E+01 -0.23682362110E+03  0.24549275410E+03  0.12700000000E+01 0. -1.
          2    1    1    2  503    0 -0.39069680220E+02 -0.27872614068E+02 -0.21283656105E+03  0.21818048548E+03  0.00000000000E+00 0. -1.
         -1    1    1    2    0  501  0.23492751216E+02  0.41036918849E+01 -0.36539068054E+03  0.36616812952E+03  0.00000000000E+00 0.  1.
<mgrwt>
<rscale>  0 0.31911523E+02</rscale>
<asrwt>0</asrwt>
<pdfrwt beam="1">  1        2 0.14467336E-02 0.42700651E+02</pdfrwt>
<pdfrwt beam="2">  1       -1 0.18907168E+00 0.23848473E+02</pdfrwt>
<totfact> 0.18395868E+03</totfact>
</mgrwt>
</event>
<event>
 7    1  0.3113151E-004  0.2283528E+03  0.7546771E-02  0.1264173E+00
          2   -1    0    0  503    0  0.00000000000E+00  0.00000000000E+00  0.65894875533E+03  0.65894875533E+03  0.00000000000E+00 0. -1.
         -3   -1    0    0    0  501 -0.00000000000E+00 -0.00000000000E+00 -0.46095600810E+03  0.46095600810E+03  0.00000000000E+00 0.  1.
         25    2    1    2    0    0  0.21712886829E+03 -0.53986234026E+02 -0.29700798011E+03  0.39229763251E+03  0.12499693320E+03 0.  0.
          4    1    3    3  502    0  0.18570335231E+03 -0.91020334228E+01 -0.27768522569E+03  0.33418449925E+03  0.12700000000E+01 0. -1.
         -4    1    3    3    0  502  0.31425515989E+02 -0.44884200604E+02 -0.19322754424E+02  0.58113133262E+02  0.12700000000E+01 0. -1.
          2    1    1    2  503    0 -0.20425621176E+03  0.10349172620E+03  0.58270281981E+03  0.62607804118E+03  0.00000000000E+00 0. -1.
         -3    1    1    2    0  501 -0.12872656534E+02 -0.49505492169E+02 -0.87702092462E+02  0.10152908974E+03  0.00000000000E+00 0.  1.
<mgrwt>
<rscale>  0 0.10807701E+03</rscale>
<asrwt>0</asrwt>
<pdfrwt beam="1">  1        2 0.10137673E+00 0.22835281E+03</pdfrwt>
<pdfrwt beam="2">  1       -3 0.70916309E-01 0.51151726E+02</pdfrwt>
<totfact> 0.51653476E+01</totfact>
</mgrwt>
</event>
<event>
 7    1  0.3113151E-004  0.8221072E+02  0.7546771E-02  0.1377857E+00
          1   -1    0    0  503    0  0.00000000000E+00  0.00000000000E+00  0.21112899765E+03  0.21112899765E+03  0.00000000000E+00 0. -1.
         -2   -1    0    0    0  501 -0.00000000000E+00 -0.00000000000E+00 -0.11719447081E+03  0.11719447081E+03  0.00000000000E+00 0.  1.
         25    2    1    2    0    0  0.58111381275E+02  0.89548992960E+02 -0.49433735439E+01  0.16441681895E+03  0.12494998455E+03 0.  0.
          4    1    3    3  502    0  0.41757248530E+02 -0.22808238519E+02 -0.16278985489E+02  0.50304093448E+02  0.12700000000E+01 0.  1.
         -4    1    3    3    0  502  0.16354132745E+02  0.11235723148E+03  0.11335611945E+02  0.11411272550E+03  0.12700000000E+01 0.  1.
          1    1    1    2  503    0 -0.68475387396E+02 -0.39163541618E+02  0.66042067315E+02  0.10287962056E+03  0.00000000000E+00 0. -1.
         -2    1    1    2    0  501  0.10364006121E+02 -0.50385451342E+02  0.32835833068E+02  0.61027028955E+02  0.00000000000E+00 0.  1.
<mgrwt>
<rscale>  0 0.65030342E+02</rscale>
<asrwt>0</asrwt>
<pdfrwt beam="1">  1        1 0.32481384E-01 0.82210715E+02</pdfrwt>
<pdfrwt beam="2">  1       -2 0.18029919E-01 0.51440318E+02</pdfrwt>
<totfact> 0.27693948E+03</totfact>
</mgrwt>
</event>
<event>
 7    1  0.3113151E-004  0.1617343E+03  0.7546771E-02  0.1298950E+00
          1   -1    0    0  502    0  0.00000000000E+00  0.00000000000E+00  0.33194557464E+03  0.33194557464E+03  0.00000000000E+00 0. -1.
          1   -1    0    0  503    0 -0.00000000000E+00 -0.00000000000E+00 -0.29663315408E+04  0.29663315408E+04  0.00000000000E+00 0. -1.
         25    2    1    2    0    0  0.10410295847E+03 -0.61901600444E+02 -0.78558989615E+02  0.19095934608E+03  0.12499889163E+03 0.  0.
          4    1    3    3  501    0  0.84179391033E+01 -0.43757110670E+02  0.23070368409E+02  0.50193637360E+02  0.12700000000E+01 0.  1.
         -4    1    3    3    0  501  0.95685019362E+02 -0.18144489774E+02 -0.10162935802E+03  0.14076570872E+03  0.12700000000E+01 0.  1.
          1    1    1    2  502    0 -0.13385927154E+03  0.10444042223E+03  0.24934774273E+03  0.30166273084E+03  0.00000000000E+00 0. -1.
          1    1    1    2  503    0  0.29756313071E+02 -0.42538821784E+02 -0.28051747193E+04  0.28056550385E+04  0.00000000000E+00 0. -1.
<mgrwt>
<rscale>  0 0.91630570E+02</rscale>
<asrwt>0</asrwt>
<pdfrwt beam="1">  1        1 0.51068550E-01 0.16173434E+03</pdfrwt>
<pdfrwt beam="2">  1        1 0.45635870E+00 0.51913289E+02</pdfrwt>
<totfact> 0.93755746E+00</totfact>
</mgrwt>
</event>
<event>
 7    1  0.3113151E-004  0.4296562E+03  0.7546771E-02  0.1141096E+00
         -1   -1    0    0    0  501 -0.00000000000E+00  0.00000000000E+00  0.12763316447E+04  0.12763316447E+04  0.00000000000E+00 0.  1.
          2   -1    0    0  503    0  0.00000000000E+00 -0.00000000000E+00 -0.97050712727E+03  0.97050712727E+03  0.00000000000E+00 0. -1.
         25    2    1    2    0    0 -0.26395934584E+03  0.24025687561E+03  0.89799661181E+02  0.38870085439E+03  0.12500588994E+03 0.  0.
          4    1    3    3  502    0 -0.14188378500E+03  0.14038557109E+03  0.11285401424E+03  0.22929622423E+03  0.12700000000E+01 0. -1.
         -4    1    3    3    0  502 -0.12207556084E+03  0.99871304513E+02 -0.23054353060E+02  0.15940463016E+03  0.12700000000E+01 0. -1.
          2    1    1    2  503    0  0.36501889165E+03 -0.26127686066E+03 -0.75676603325E+03  0.87988591207E+03  0.00000000000E+00 0. -1.
         -1    1    1    2    0  501 -0.10105954580E+03  0.21019985051E+02  0.97279088956E+03  0.97825200555E+03  0.00000000000E+00 0.  1.
<mgrwt>
<rscale>  0 0.21059478E+03</rscale>
<asrwt>0</asrwt>
<pdfrwt beam="2">  1        2 0.14930879E+00 0.42965620E+03</pdfrwt>
<pdfrwt beam="1">  1       -1 0.19635871E+00 0.10322244E+03</pdfrwt>
<totfact> 0.59453763E+00</totfact>
</mgrwt>
</event>
<event>
 7    1  0.3113151E-004  0.4126008E+02  0.7546771E-02  0.1561935E+00
          2   -1    0    0  503    0  0.00000000000E+00  0.00000000000E+00  0.83102448348E+03  0.83102448348E+03  0.00000000000E+00 0. -1.
         -1   -1    0    0    0  501 -0.00000000000E+00 -0.00000000000E+00 -0.20731825003E+02  0.20731825003E+02  0.00000000000E+00 0.  1.
         25    2    1    2    0    0  0.32485390124E+02 -0.18262850344E+02  0.22225185289E+03  0.25770100696E+03  0.12500036240E+03 0.  0.
          4    1    3    3  502    0  0.68795903960E+02 -0.25353279740E+02  0.20328528217E+03  0.21610688106E+03  0.12700000000E+01 0.  1.
         -4    1    3    3    0  502 -0.36310513836E+02  0.70904293962E+01  0.18966570717E+02  0.41594125894E+02  0.12700000000E+01 0.  1.
          2    1    1    2  503    0 -0.10232946910E+02 -0.25276073779E+02  0.34906964738E+03  0.35013313444E+03  0.00000000000E+00 0. -1.
         -1    1    1    2    0  501 -0.22252443214E+02  0.43538924123E+02  0.23897115820E+03  0.24392216709E+03  0.00000000000E+00 0.  1.
<mgrwt>
<rscale>  0 0.33542766E+02</rscale>
<asrwt>0</asrwt>
<pdfrwt beam="1">  1        2 0.12784989E+00 0.27268904E+02</pdfrwt>
<pdfrwt beam="2">  1       -1 0.31895122E-02 0.41260080E+02</pdfrwt>
<totfact> 0.11699943E+04</totfact>
</mgrwt>
</event>
<event>
 7    1  0.3113151E-004  0.8912457E+02  0.7546771E-02  0.1419191E+00
          2   -1    0    0  503    0  0.00000000000E+00  0.00000000000E+00  0.71216707612E+02  0.71216707612E+02  0.00000000000E+00 0. -1.
         -2   -1    0    0    0  501 -0.00000000000E+00 -0.00000000000E+00 -0.31092534690E+03  0.31092534690E+03  0.00000000000E+00 0. -1.
         25    2    1    2    0    0  0.91674510417E+02 -0.46786339259E+02 -0.19632171496E+03  0.25448171343E+03  0.12500219719E+03 0.  0.
          4    1    3    3  502    0  0.20035698711E+02 -0.57075906254E+02 -0.16475439685E+03  0.17551271316E+03  0.12700000000E+01 0.  1.
         -4    1    3    3    0  502  0.71638811705E+02  0.10289566994E+02 -0.31567318109E+02  0.78969000273E+02  0.12700000000E+01 0.  1.
          2    1    1    2  503    0 -0.13203081250E+02  0.31526226110E+02  0.44987742352E+01  0.34474095446E+02  0.00000000000E+00 0. -1.
         -2    1    1    2    0  501 -0.78471429167E+02  0.15260113149E+02 -0.47885698560E+02  0.93186245635E+02  0.00000000000E+00 0. -1.
<mgrwt>
<rscale>  0 0.55192527E+02</rscale>
<asrwt>0</asrwt>
<pdfrwt beam="1">  1        2 0.10956416E-01 0.34179296E+02</pdfrwt>
<pdfrwt beam="2">  1       -2 0.47834670E-01 0.89124569E+02</pdfrwt>
<totfact> 0.21127427E+03</totfact>
</mgrwt>
</event>
<event>
 7    1  0.3113151E-004  0.5799106E+02  0.7546771E-02  0.1489108E+00
         -1   -1    0    0    0  501 -0.00000000000E+00  0.00000000000E+00  0.42614153214E+01  0.42614153214E+01  0.00000000000E+00 0.  1.
          2   -1    0    0  503    0  0.00000000000E+00 -0.00000000000E+00 -0.40565472694E+04  0.40565472694E+04  0.00000000000E+00 0. -1.
         25    2    1    2    0    0  0.26905857099E+02 -0.17368769491E+02 -0.32369238089E+04  0.32394946862E+04  0.12499791238E+03 0.  0.
          4    1    3    3  502    0  0.70155128414E+02  0.96349551050E+01 -0.13257851818E+04  0.13276756138E+04  0.12700000000E+01 0.  1.
         -4    1    3    3    0  502 -0.43249271315E+02 -0.27003724596E+02 -0.19111386271E+04  0.19118190724E+04  0.12700000000E+01 0.  1.
          2    1    1    2  503    0  0.31442083207E+02 -0.12837010728E+01 -0.42621953762E+03  0.42737962835E+03  0.00000000000E+00 0. -1.
         -1    1    1    2    0  501 -0.58347940306E+02  0.18652470564E+02 -0.38914250761E+03  0.39393437020E+03  0.00000000000E+00 0.  1.
<mgrwt>
<rscale>  0 0.42718601E+02</rscale>
<asrwt>0</asrwt>
<pdfrwt beam="2">  1        2 0.62408364E+00 0.31468277E+02</pdfrwt>
<pdfrwt beam="1">  1       -1 0.65560294E-03 0.57991064E+02</pdfrwt>
<totfact> 0.20024114E+03</totfact>
</mgrwt>
</event>
<event>
 7    1  0.3113151E-004  0.6339921E+02  0.7546771E-02  0.1422695E+00
         -1   -1    0    0    0  501 -0.00000000000E+00  0.00000000000E+00  0.16488228599E+03  0.16488228599E+03  0.00000000000E+00 0.  1.
          2   -1    0    0  503    0  0.00000000000E+00 -0.00000000000E+00 -0.11825073919E+04  0.11825073919E+04  0.00000000000E+00 0.  1.
         25    2    1    2    0    0  0.81178656457E+02 -0.35454351211E+02 -0.32471122194E+03  0.35904001421E+03  0.12500147547E+03 0.  0.
          4    1    3    3  502    0  0.10674470443E+03 -0.55579622746E+02 -0.24615037198E+03  0.27399843962E+03  0.12700000000E+01 0. -1.
         -4    1    3    3    0  502 -0.25566047973E+02  0.20125271535E+02 -0.78560849961E+02  0.85041574597E+02  0.12700000000E+01 0. -1.
          2    1    1    2  503    0 -0.18490947816E+02  0.42962007748E+02 -0.83319964337E+03  0.83451141093E+03  0.00000000000E+00 0.  1.
         -1    1    1    2    0  501 -0.62687708640E+02 -0.75076565372E+01  0.14028575939E+03  0.15383825275E+03  0.00000000000E+00 0.  1.
<mgrwt>
<rscale>  0 0.54454823E+02</rscale>
<asrwt>0</asrwt>
<pdfrwt beam="2">  1        2 0.18192422E+00 0.46772313E+02</pdfrwt>
<pdfrwt beam="1">  1       -1 0.25366504E-01 0.63399212E+02</pdfrwt>
<totfact> 0.34383446E+02</totfact>
</mgrwt>
</event>
<event>
 7    1  0.3113151E-004  0.9696024E+02  0.7546771E-02  0.1416980E+00
          1   -1    0    0  503    0  0.00000000000E+00  0.00000000000E+00  0.10184112508E+03  0.10184112508E+03  0.00000000000E+00 0. -1.
         -1   -1    0    0    0  501 -0.00000000000E+00 -0.00000000000E+00 -0.59490088588E+03  0.59490088588E+03  0.00000000000E+00 0.  1.
         25    2    1    2    0    0  0.77231177466E+02 -0.21354211534E+02 -0.42235513059E+02  0.15437423918E+03  0.12500763991E+03 0.  0.
          4    1    3    3  502    0 -0.32060016572E+02 -0.21567906790E+02 -0.16811036680E+02  0.42157361399E+02  0.12700000000E+01 0. -1.
         -4    1    3    3    0  502  0.10929119404E+03  0.21369525557E+00 -0.25424476378E+02  0.11221687778E+03  0.12700000000E+01 0. -1.
          1    1    1    2  503    0 -0.98846783811E+02  0.44892219186E+02 -0.20037150501E+02  0.11039694476E+03  0.00000000000E+00 0. -1.
         -1    1    1    2    0  501  0.21615606345E+02 -0.23538007652E+02 -0.43078709724E+03  0.43197082701E+03  0.00000000000E+00 0.  1.
<mgrwt>
<rscale>  0 0.55665001E+02</rscale>
<asrwt>0</asrwt>
<pdfrwt beam="1">  1        1 0.15667865E-01 0.96960238E+02</pdfrwt>
<pdfrwt beam="2">  1       -1 0.91523213E-01 0.31957350E+02</pdfrwt>
<totfact> 0.44930660E+02</totfact>
</mgrwt>
</event>
<event>
 7    1  0.3113151E-004  0.8694653E+02  0.7546771E-02  0.1331804E+00
         -2   -1    0    0    0  501 -0.00000000000E+00  0.00000000000E+00  0.22994661064E+03  0.22994661064E+03  0.00000000000E+00 0. -1.
          1   -1    0    0  503    0  0.00000000000E+00 -0.00000000000E+00 -0.19105984657E+03  0.19105984657E+03  0.00000000000E+00 0. -1.
         25    2    1    2    0    0 -0.39236387763E+02  0.70694095870E+01 -0.23594227617E+02  0.13330587501E+03  0.12499719220E+03 0.  0.
          4    1    3    3  502    0 -0.89776777169E+01  0.27612739897E+02  0.46152711609E+02  0.54541248525E+02  0.12700000000E+01 0. -1.
         -4    1    3    3    0  502 -0.30258710046E+02 -0.20543330310E+02 -0.69746939226E+02  0.78764626485E+02  0.12700000000E+01 0. -1.
          1    1    1    2  503    0  0.49393805377E+02  0.79281771085E+02 -0.78533235266E+02  0.12203612694E+03  0.00000000000E+00 0. -1.
         -2    1    1    2    0  501 -0.10157417614E+02 -0.86351180672E+02  0.14101422695E+03  0.16566445527E+03  0.00000000000E+00 0. -1.
<mgrwt>
<rscale>  0 0.79037877E+02</rscale>
<asrwt>0</asrwt>
<pdfrwt beam="2">  1        1 0.29393823E-01 0.71848592E+02</pdfrwt>
<pdfrwt beam="1">  1       -2 0.35376402E-01 0.86946533E+02</pdfrwt>
<totfact> 0.99430800E+02</totfact>
</mgrwt>
</event>
<event>
 7    1  0.3113151E-004  0.2166842E+03  0.7546771E-02  0.1296879E+00
          1   -1    0    0  503    0 -0.00000000000E+00  0.00000000000E+00  0.10066501768E+04  0.10066501768E+04  0.00000000000E+00 0. -1.
          2   -1    0    0  502    0  0.00000000000E+00 -0.00000000000E+00 -0.25589718889E+03  0.25589718889E+03  0.00000000000E+00 0.  1.
         25    2    1    2    0    0 -0.49976528859E+02 -0.23982472748E+03  0.29380537886E+03  0.40244186658E+03  0.12499720791E+03 0.  0.
          4    1    3    3  501    0  0.13991737554E+02 -0.81196675865E+02  0.29313217508E+02  0.87461685966E+02  0.12700000000E+01 0. -1.
         -4    1    3    3    0  501 -0.63968266414E+02 -0.15862805162E+03  0.26449216135E+03  0.31498018062E+03  0.12700000000E+01 0. -1.
          2    1    1    2  502    0  0.22927010858E+02  0.21104284045E+03 -0.14486181796E+03  0.25700131252E+03  0.00000000000E+00 0.  1.
          1    1    1    2  503    0  0.27049518002E+02  0.28781887028E+02  0.60180942697E+03  0.60310418655E+03  0.00000000000E+00 0. -1.
<mgrwt>
<rscale>  0 0.92512384E+02</rscale>
<asrwt>0</asrwt>
<pdfrwt beam="2">  1        2 0.39368799E-01 0.21668419E+03</pdfrwt>
<pdfrwt beam="1">  1        1 0.15486926E+00 0.39497765E+02</pdfrwt>
<totfact> 0.31721654E+02</totfact>
</mgrwt>
</event>
<event>
 7    1  0.3113151E-004  0.1642199E+03  0.7546771E-02  0.1344537E+00
          2   -1    0    0  503    0  0.00000000000E+00  0.00000000000E+00  0.49408865459E+03  0.49408865459E+03  0.00000000000E+00 0. -1.
          2   -1    0    0  502    0 -0.00000000000E+00 -0.00000000000E+00 -0.21508768347E+04  0.21508768347E+04  0.00000000000E+00 0. -1.
         25    2    1    2    0    0  0.94980227079E+02 -0.15599658678E+03 -0.65567656027E+03  0.69202116190E+03  0.12500143279E+03 0.  0.
          4    1    3    3  501    0  0.38382776740E+02 -0.18960106969E+02 -0.34642897093E+03  0.34906642349E+03  0.12700000000E+01 0. -1.
         -4    1    3    3    0  501  0.56597450339E+02 -0.13703647981E+03 -0.30924758934E+03  0.34295473841E+03  0.12700000000E+01 0. -1.
          2    1    1    2  502    0  0.12021815262E+02  0.31864644908E+02 -0.14627152169E+04  0.14631116448E+04  0.00000000000E+00 0. -1.
          2    1    1    2  503    0 -0.10700204234E+03  0.12413194187E+03  0.46160359705E+03  0.48983268252E+03  0.00000000000E+00 0. -1.
<mgrwt>
<rscale>  0 0.74785285E+02</rscale>
<asrwt>0</asrwt>
<pdfrwt beam="1">  1        2 0.76013640E-01 0.16421992E+03</pdfrwt>
<pdfrwt beam="2">  1        2 0.33090413E+00 0.34057006E+02</pdfrwt>
<totfact> 0.78402166E+01</totfact>
</mgrwt>
</event>
<event>
 7    1  0.3113151E-004  0.7146046E+02  0.7546771E-02  0.1367517E+00
          2   -1    0    0  502    0  0.00000000000E+00  0.00000000000E+00  0.18311572932E+02  0.18311572932E+02  0.00000000000E+00 0. -1.
          2   -1    0    0  503    0 -0.00000000000E+00 -0.00000000000E+00 -0.14987156901E+04  0.14987156901E+04  0.00000000000E+00 0. -1.
         25    2    1    2    0    0 -0.17358965321E+02 -0.17497023990E+02 -0.83145306375E+03  0.84115848678E+03  0.12500369251E+03 0.  0.
          4    1    3    3  501    0  0.13954114451E+02 -0.13220686508E+02 -0.15862011042E+02  0.24954361465E+02  0.12700000000E+01 0.  1.
         -4    1    3    3    0  501 -0.31313079772E+02 -0.42763374816E+01 -0.81559105271E+03  0.81620412532E+03  0.12700000000E+01 0.  1.
          2    1    1    2  502    0  0.30659811527E+01  0.80337201545E+02 -0.12943540685E+03  0.15237122674E+03  0.00000000000E+00 0. -1.
          2    1    1    2  503    0  0.14292984169E+02 -0.62840177555E+02 -0.51951564658E+03  0.52349754952E+03  0.00000000000E+00 0. -1.
<mgrwt>
<rscale>  0 0.67862211E+02</rscale>
<asrwt>0</asrwt>
<pdfrwt beam="1">  1        2 0.28171645E-02 0.71460456E+02</pdfrwt>
<pdfrwt beam="2">  1        2 0.23057169E+00 0.64445150E+02</pdfrwt>
<totfact> 0.70083830E+03</totfact>
</mgrwt>
</event>
<event>
 7    1  0.3113151E-004  0.7235665E+02  0.7546771E-02  0.1445852E+00
          1   -1    0    0  503    0 -0.00000000000E+00  0.00000000000E+00  0.11673999460E+03  0.11673999460E+03  0.00000000000E+00 0. -1.
          2   -1    0    0  502    0  0.00000000000E+00 -0.00000000000E+00 -0.21122832271E+03  0.21122832271E+03  0.00000000000E+00 0. -1.
         25    2    1    2    0    0 -0.19320724093E+02 -0.53982577150E+02 -0.10992983906E+03  0.17606145541E+03  0.12500263017E+03 0.  0.
          4    1    3    3  501    0 -0.33886915856E+01 -0.64149567115E+02 -0.13210258486E+03  0.14689913552E+03  0.12700000000E+01 0.  1.
         -4    1    3    3    0  501 -0.15932032507E+02  0.10166989965E+02  0.22172745796E+02  0.29162319882E+02  0.12700000000E+01 0.  1.
          2    1    1    2  502    0  0.48408798462E+02  0.72385485649E+02 -0.32448791855E+02  0.92930051082E+02  0.00000000000E+00 0. -1.
          1    1    1    2  503    0 -0.29088074370E+02 -0.18402908499E+02  0.47890302803E+02  0.58976810818E+02  0.00000000000E+00 0. -1.
<mgrwt>
<rscale>  0 0.49905561E+02</rscale>
<asrwt>0</asrwt>
<pdfrwt beam="2">  1        2 0.32496664E-01 0.72356652E+02</pdfrwt>
<pdfrwt beam="1">  1        1 0.17960000E-01 0.34420679E+02</pdfrwt>
<totfact> 0.57135305E+03</totfact>
</mgrwt>
</event>
<event>
 7    1  0.3113151E-004  0.1594183E+03  0.7546771E-02  0.1232857E+00
         -1   -1    0    0    0  501 -0.00000000000E+00  0.00000000000E+00  0.85186726232E+02  0.85186726232E+02  0.00000000000E+00 0.  1.
          2   -1    0    0  503    0  0.00000000000E+00 -0.00000000000E+00 -0.25516561943E+04  0.25516561943E+04  0.00000000000E+00 0. -1.
         25    2    1    2    0    0 -0.90205201937E+02 -0.18092727315E+03 -0.76021165048E+03  0.79650408547E+03  0.12500139211E+03 0.  0.
          4    1    3    3  502    0 -0.56939654766E+02 -0.12233960495E+03 -0.67244910504E+03  0.68585604539E+03  0.12700000000E+01 0. -1.
         -4    1    3    3    0  502 -0.33265547171E+02 -0.58587668200E+02 -0.87762545437E+02  0.11064804009E+03  0.12700000000E+01 0. -1.
          2    1    1    2  503    0  0.12779431686E+03  0.87978387393E+02 -0.17302940795E+04  0.17372360766E+04  0.00000000000E+00 0. -1.
         -1    1    1    2    0  501 -0.37589114921E+02  0.92948885753E+02  0.24036261928E+02  0.10310275850E+03  0.00000000000E+00 0.  1.
<mgrwt>
<rscale>  0 0.12642615E+03</rscale>
<asrwt>0</asrwt>
<pdfrwt beam="2">  1        2 0.39256239E+00 0.15941830E+03</pdfrwt>
<pdfrwt beam="1">  1       -1 0.13105654E-01 0.10026184E+03</pdfrwt>
<totfact> 0.17468838E+02</totfact>
</mgrwt>
</event>
<event>
 7    1  0.3113151E-004  0.9917812E+02  0.7546771E-02  0.1285324E+00
          3   -1    0    0  503    0  0.00000000000E+00  0.00000000000E+00  0.49594379707E+03  0.49594379707E+03  0.00000000000E+00 0. -1.
          3   -1    0    0  502    0 -0.00000000000E+00 -0.00000000000E+00 -0.39522999570E+03  0.39522999570E+03  0.00000000000E+00 0. -1.
         25    2    1    2    0    0 -0.99807284826E+02 -0.76170490678E+02 -0.16144414922E+03  0.23969087356E+03  0.12499625513E+03 0.  0.
          4    1    3    3  501    0  0.19377884274E+02  0.17053939426E+02 -0.23860224142E+02  0.35174741577E+02  0.12700000000E+01 0.  1.
         -4    1    3    3    0  501 -0.11918516910E+03 -0.93224430104E+02 -0.13758392507E+03  0.20451613198E+03  0.12700000000E+01 0.  1.
          3    1    1    2  502    0  0.93292145805E+02 -0.23223277737E+02 -0.17686310382E+03  0.20130400540E+03  0.00000000000E+00 0. -1.
          3    1    1    2  503    0  0.65151390202E+01  0.99393768415E+02  0.43902105440E+03  0.45017891382E+03  0.00000000000E+00 0. -1.
<mgrwt>
<rscale>  0 0.97646838E+02</rscale>
<asrwt>0</asrwt>
<pdfrwt beam="1">  1        3 0.76299046E-01 0.99178122E+02</pdfrwt>
<pdfrwt beam="2">  1        3 0.60804615E-01 0.96139196E+02</pdfrwt>
<totfact> 0.10395854E+01</totfact>
</mgrwt>
</event>
<event>
 7    1  0.3113151E-004  0.6124999E+02  0.7546771E-02  0.1485683E+00
          3   -1    0    0  503    0 -0.00000000000E+00  0.00000000000E+00  0.41002501372E+03  0.41002501372E+03  0.00000000000E+00 0. -1.
          2   -1    0    0  502    0  0.00000000000E+00 -0.00000000000E+00 -0.12530407677E+04  0.12530407677E+04  0.00000000000E+00 0. -1.
         25    2    1    2    0    0 -0.28998457745E+02  0.16164276570E+02 -0.83948306071E+03  0.84938655314E+03  0.12499405208E+03 0.  0.
          4    1    3    3  501    0  0.29897464322E+01 -0.22981434741E+02 -0.28174094414E+02  0.36503115244E+02  0.12700000000E+01 0. -1.
         -4    1    3    3    0  501 -0.31988204177E+02  0.39145711311E+02 -0.81130896629E+03  0.81288343790E+03  0.12700000000E+01 0. -1.
          2    1    1    2  502    0 -0.30490479135E+02 -0.12485941402E+01 -0.40570821386E+03  0.40685425290E+03  0.00000000000E+00 0. -1.
          3    1    1    2  503    0  0.59488936880E+02 -0.14915682430E+02  0.40217552061E+03  0.40682497535E+03  0.00000000000E+00 0. -1.
<mgrwt>
<rscale>  0 0.43233166E+02</rscale>
<asrwt>0</asrwt>
<pdfrwt beam="2">  1        2 0.19277550E+00 0.30516034E+02</pdfrwt>
<pdfrwt beam="1">  1        3 0.63080772E-01 0.61249987E+02</pdfrwt>
<totfact> 0.31735059E+01</totfact>
</mgrwt>
</event>
<event>
 7    1  0.3113151E-004  0.5816149E+02  0.7546771E-02  0.1481087E+00
         -2   -1    0    0    0  501 -0.00000000000E+00  0.00000000000E+00  0.50719564525E+03  0.50719564525E+03  0.00000000000E+00 0. -1.
          3   -1    0    0  503    0  0.00000000000E+00 -0.00000000000E+00 -0.26567574756E+03  0.26567574756E+03  0.00000000000E+00 0. -1.
         25    2    1    2    0    0  0.27316854206E+01  0.69648538536E+02  0.27876520342E+03  0.31335801206E+03  0.12499929624E+03 0.  0.
          4    1    3    3  502    0 -0.22979350842E+02  0.66048493542E+01 -0.24005169804E+01  0.24063457396E+02  0.12700000000E+01 0. -1.
         -4    1    3    3    0  502  0.25711036262E+02  0.63043689182E+02  0.28116572040E+03  0.28929455467E+03  0.12700000000E+01 0. -1.
          3    1    1    2  503    0 -0.29529290164E+02 -0.50063136780E+02 -0.24363478120E+03  0.25047196101E+03  0.00000000000E+00 0. -1.
         -2    1    1    2    0  501  0.26797604743E+02 -0.19585401756E+02  0.20638947547E+03  0.20904141974E+03  0.00000000000E+00 0. -1.
<mgrwt>
<rscale>  0 0.43937321E+02</rscale>
<asrwt>0</asrwt>
<pdfrwt beam="2">  1        3 0.40873192E-01 0.58161495E+02</pdfrwt>
<pdfrwt beam="1">  1       -2 0.78030099E-01 0.33191860E+02</pdfrwt>
<totfact> 0.34605288E+01</totfact>
</mgrwt>
</event>
<event>
 7    1  0.3113151E-004  0.8032504E+02  0.7546771E-02  0.1507597E+00
          2   -1    0    0  503    0  0.00000000000E+00  0.00000000000E+00  0.16486073355E+03  0.16486073355E+03  0.00000000000E+00 0. -1.
         -1   -1    0    0    0  501 -0.00000000000E+00 -0.00000000000E+00 -0.10197902456E+03  0.10197902456E+03  0.00000000000E+00 0.  1.
         25    2    1    2    0    0  0.50584644565E+02  0.54340547667E+02  0.16883670596E+02  0.14636146126E+03  0.12499967049E+03 0.  0.
          4    1    3    3  502    0  0.65106668168E+02  0.80523718326E+02 -0.12598148039E+02  0.10432292982E+03  0.12700000000E+01 0.  1.
         -4    1    3    3    0  502 -0.14522023603E+02 -0.26183170659E+02  0.29481818635E+02  0.42038531436E+02  0.12700000000E+01 0.  1.
          2    1    1    2  503    0  0.19155460319E+02 -0.57589808518E+01  0.26631288758E+02  0.33306501789E+02  0.00000000000E+00 0. -1.
         -1    1    1    2    0  501 -0.69740104885E+02 -0.48581566815E+02  0.19366749633E+02  0.87171795065E+02  0.00000000000E+00 0.  1.
<mgrwt>
<rscale>  0 0.40083620E+02</rscale>
<asrwt>0</asrwt>
<pdfrwt beam="1">  1        2 0.25363190E-01 0.20002438E+02</pdfrwt>
<pdfrwt beam="2">  1       -1 0.15689081E-01 0.80325038E+02</pdfrwt>
<totfact> 0.62387874E+03</totfact>
</mgrwt>
</event>
<event>
 7    1  0.3113151E-004  0.3117706E+02  0.7546771E-02  0.1597279E+00
          3   -1    0    0  503    0 -0.00000000000E+00  0.00000000000E+00  0.79039371361E+02  0.79039371361E+02  0.00000000000E+00 0.  1.
          2   -1    0    0  502    0  0.00000000000E+00 -0.00000000000E+00 -0.15555484004E+04  0.15555484004E+04  0.00000000000E+00 0. -1.
         25    2    1    2    0    0 -0.72999734638E+01  0.21082518429E+02 -0.12595227074E+04  0.12659073302E+04  0.12500462376E+03 0.  0.
          4    1    3    3  501    0 -0.32550738162E+01  0.56217235427E+02 -0.11365175504E+04  0.11379124432E+04  0.12700000000E+01 0.  1.
         -4    1    3    3    0  501 -0.40448996476E+01 -0.35134716998E+02 -0.12300515699E+03  0.12799488699E+03  0.12700000000E+01 0.  1.
          2    1    1    2  502    0  0.34088619483E+02 -0.51333016860E+01 -0.28855966982E+03  0.29061154108E+03  0.00000000000E+00 0. -1.
          3    1    1    2  503    0 -0.26788646019E+02 -0.15949216743E+02  0.71573348128E+02  0.78068900546E+02  0.00000000000E+00 0.  1.
<mgrwt>
<rscale>  0 0.30073365E+02</rscale>
<asrwt>0</asrwt>
<pdfrwt beam="2">  1        2 0.23931513E+00 0.29008742E+02</pdfrwt>
<pdfrwt beam="1">  1        3 0.12159904E-01 0.31177060E+02</pdfrwt>
<totfact> 0.40368095E+02</totfact>
</mgrwt>
</event>
<event>
 7    1  0.3113151E-004  0.5099540E+02  0.7546771E-02  0.1488932E+00
          3   -1    0    0  503    0 -0.00000000000E+00  0.00000000000E+00  0.25107023987E+03  0.25107023987E+03  0.00000000000E+00 0. -1.
          2   -1    0    0  502    0  0.00000000000E+00 -0.00000000000E+00 -0.18186178904E+04  0.18186178904E+04  0.00000000000E+00 0. -1.
         25    2    1    2    0    0  0.51068890306E+02 -0.64962878871E+02 -0.21350589800E+03  0.26084149646E+03  0.12500124242E+03 0.  0.
          4    1    3    3  501    0  0.14937617004E+02  0.33524278081E+02 -0.98743242831E+02  0.10535108223E+03  0.12700000000E+01 0.  1.
         -4    1    3    3    0  501  0.36131273302E+02 -0.98487156952E+02 -0.11476265517E+03  0.15549041423E+03  0.12700000000E+01 0.  1.
          2    1    1    2  502    0 -0.30602753713E+02  0.18633080325E+02 -0.15784181373E+04  0.15788247327E+04  0.00000000000E+00 0. -1.
          3    1    1    2  503    0 -0.20466136593E+02  0.46329798546E+02  0.22437638477E+03  0.23002190118E+03  0.00000000000E+00 0. -1.
<mgrwt>
<rscale>  0 0.42744780E+02</rscale>
<asrwt>0</asrwt>
<pdfrwt beam="2">  1        2 0.27978737E+00 0.35829042E+02</pdfrwt>
<pdfrwt beam="1">  1        3 0.38626191E-01 0.50995398E+02</pdfrwt>
<totfact> 0.42774293E+01</totfact>
</mgrwt>
</event>
<event>
 7    1  0.3113151E-004  0.1189163E+03  0.7546771E-02  0.1289645E+00
          1   -1    0    0  503    0  0.00000000000E+00  0.00000000000E+00  0.18645988013E+04  0.18645988013E+04  0.00000000000E+00 0. -1.
         -2   -1    0    0    0  501 -0.00000000000E+00 -0.00000000000E+00 -0.65438642255E+02  0.65438642255E+02  0.00000000000E+00 0. -1.
         25    2    1    2    0    0 -0.67715018051E+02 -0.71597931988E+01  0.39637562311E+03  0.42115950228E+03  0.12500042183E+03 0.  0.
          4    1    3    3  502    0 -0.87928462332E+01  0.26544302250E+02  0.11368499310E+02  0.30212080422E+02  0.12700000000E+01 0. -1.
         -4    1    3    3    0  502 -0.58922171817E+02 -0.33704095449E+02  0.38500712380E+03  0.39094742186E+03  0.12700000000E+01 0. -1.
          1    1    1    2  503    0  0.12581823343E+03 -0.43351398909E+02  0.14230557552E+04  0.14292645851E+04  0.00000000000E+00 0. -1.
         -2    1    1    2    0  501 -0.58103215379E+02  0.50511192108E+02 -0.20271219237E+02  0.79613356259E+02  0.00000000000E+00 0. -1.
<mgrwt>
<rscale>  0 0.95683273E+02</rscale>
<asrwt>0</asrwt>
<pdfrwt beam="1">  1        1 0.28686131E+00 0.11891626E+03</pdfrwt>
<pdfrwt beam="2">  1       -2 0.10067485E-01 0.76989377E+02</pdfrwt>
<totfact> 0.24219791E+02</totfact>
</mgrwt>
</event>
<event>
 7    1  0.3113151E-004  0.4747211E+02  0.7546771E-02  0.1541428E+00
          2   -1    0    0  502    0  0.00000000000E+00  0.00000000000E+00  0.13260110202E+04  0.13260110202E+04  0.00000000000E+00 0. -1.
          2   -1    0    0  503    0 -0.00000000000E+00 -0.00000000000E+00 -0.47355055042E+03  0.47355055042E+03  0.00000000000E+00 0. -1.
         25    2    1    2    0    0  0.47626944650E+02 -0.56649281141E+02  0.10370522061E+03  0.17848589652E+03  0.12499990227E+03 0.  0.
          4    1    3    3  501    0  0.25170104970E+02 -0.11085888561E+02 -0.26809231648E+02  0.38428881208E+02  0.12700000000E+01 0. -1.
         -4    1    3    3    0  501  0.22456839680E+02 -0.45563392581E+02  0.13051445226E+03  0.14005701532E+03  0.12700000000E+01 0. -1.
          2    1    1    2  502    0 -0.19543237938E+02  0.18672404223E+02  0.11834819595E+04  0.11837905834E+04  0.00000000000E+00 0. -1.
          2    1    1    2  503    0 -0.28083706712E+02  0.37976876918E+02 -0.43472671040E+03  0.43728509064E+03  0.00000000000E+00 0. -1.
<mgrwt>
<rscale>  0 0.35821084E+02</rscale>
<asrwt>0</asrwt>
<pdfrwt beam="1">  1        2 0.20400169E+00 0.27029555E+02</pdfrwt>
<pdfrwt beam="2">  1        2 0.72853931E-01 0.47472114E+02</pdfrwt>
<totfact> 0.21131321E+02</totfact>
</mgrwt>
</event>
<event>
 7    1  0.3113151E-004  0.1007833E+03  0.7546771E-02  0.1341186E+00
          2   -1    0    0  502    0  0.00000000000E+00  0.00000000000E+00  0.19423210738E+04  0.19423210738E+04  0.00000000000E+00 0. -1.
          3   -1    0    0  503    0 -0.00000000000E+00 -0.00000000000E+00 -0.21557411442E+03  0.21557411442E+03  0.00000000000E+00 0. -1.
         25    2    1    2    0    0 -0.88404490302E+01  0.90116443189E+02  0.69405943225E+02  0.16924205396E+03  0.12500624384E+03 0.  0.
          4    1    3    3  501    0 -0.29824287192E+02  0.95613615874E+02  0.39163018139E+01  0.10024171770E+03  0.12700000000E+01 0.  1.
         -4    1    3    3    0  501  0.20983838162E+02 -0.54971726845E+01  0.65489641411E+02  0.69000336258E+02  0.12700000000E+01 0.  1.
          2    1    1    2  502    0  0.57084549316E+02  0.20364287446E+01  0.18061724677E+04  0.18070754760E+04  0.00000000000E+00 0. -1.
          3    1    1    2  503    0 -0.48244100286E+02 -0.92152871934E+02 -0.14883145154E+03  0.18157765828E+03  0.00000000000E+00 0. -1.
<mgrwt>
<rscale>  0 0.75873765E+02</rscale>
<asrwt>0</asrwt>
<pdfrwt beam="1">  1        2 0.29881861E+00 0.57120861E+02</pdfrwt>
<pdfrwt beam="2">  1        3 0.33165250E-01 0.10078329E+03</pdfrwt>
<totfact> 0.49506084E+01</totfact>
</mgrwt>
</event>
<event>
 7    1  0.3113151E-004  0.7874324E+02  0.7546771E-02  0.1431003E+00
          1   -1    0    0  502    0  0.00000000000E+00  0.00000000000E+00  0.10285184308E+04  0.10285184308E+04  0.00000000000E+00 0. -1.
          1   -1    0    0  503    0 -0.00000000000E+00 -0.00000000000E+00 -0.65798193062E+03  0.65798193062E+03  0.00000000000E+00 0. -1.
         25    2    1    2    0    0  0.49019182746E+02  0.69889780155E+02 -0.27433536222E+03  0.31330820215E+03  0.12495870087E+03 0.  0.
          4    1    3    3  501    0  0.87278553242E+02  0.61476231140E+02 -0.15920424571E+03  0.19168849105E+03  0.12700000000E+01 0.  1.
         -4    1    3    3    0  501 -0.38259370496E+02  0.84135490155E+01 -0.11513111651E+03  0.12161971109E+03  0.12700000000E+01 0.  1.
          1    1    1    2  502    0 -0.14477990223E+02 -0.77406086660E+02  0.10066327520E+04  0.10097082806E+04  0.00000000000E+00 0. -1.
          1    1    1    2  503    0 -0.34541192523E+02  0.75163065052E+01 -0.36176088959E+03  0.36348387871E+03  0.00000000000E+00 0. -1.
<mgrwt>
<rscale>  0 0.52759226E+02</rscale>
<asrwt>0</asrwt>
<pdfrwt beam="1">  1        1 0.15823360E+00 0.78743237E+02</pdfrwt>
<pdfrwt beam="2">  1        1 0.10122799E+00 0.35349524E+02</pdfrwt>
<totfact> 0.66394149E+01</totfact>
</mgrwt>
</event>
<event>
 7    1  0.3113151E-004  0.1144916E+03  0.7546771E-02  0.1371474E+00
          3   -1    0    0  503    0 -0.00000000000E+00  0.00000000000E+00  0.51158660357E+03  0.51158660357E+03  0.00000000000E+00 0. -1.
          2   -1    0    0  502    0  0.00000000000E+00 -0.00000000000E+00 -0.64549850569E+03  0.64549850569E+03  0.00000000000E+00 0. -1.
         25    2    1    2    0    0  0.22590018609E+02 -0.77885829202E+02  0.10459887587E+03  0.18203450253E+03  0.12497649357E+03 0.  0.
          4    1    3    3  501    0 -0.24424016589E+02  0.14415672501E+02  0.65359665360E+02  0.71258985089E+02  0.12700000000E+01 0. -1.
         -4    1    3    3    0  501  0.47014035198E+02 -0.92301501703E+02  0.39239210506E+02  0.11077551744E+03  0.12700000000E+01 0. -1.
          2    1    1    2  502    0 -0.51819390395E+02  0.10359453585E+03 -0.60019882458E+03  0.61127383889E+03  0.00000000000E+00 0. -1.
          3    1    1    2  503    0  0.29229371786E+02 -0.25708706648E+02  0.36168804660E+03  0.36377676784E+03  0.00000000000E+00 0. -1.
<mgrwt>
<rscale>  0 0.66759187E+02</rscale>
<asrwt>0</asrwt>
<pdfrwt beam="2">  1        2 0.99307462E-01 0.11449161E+03</pdfrwt>
<pdfrwt beam="1">  1        3 0.78705631E-01 0.38926774E+02</pdfrwt>
<totfact> 0.42771404E+01</totfact>
</mgrwt>
</event>
<event>
 7    1  0.3113151E-004  0.1505131E+03  0.7546771E-02  0.1300235E+00
          2   -1    0    0  502    0  0.00000000000E+00  0.00000000000E+00  0.19992289014E+03  0.19992289014E+03  0.00000000000E+00 0. -1.
          1   -1    0    0  503    0 -0.00000000000E+00 -0.00000000000E+00 -0.84369472956E+03  0.84369472956E+03  0.00000000000E+00 0. -1.
         25    2    1    2    0    0 -0.68670605406E+02 -0.79381256738E+02  0.24366846210E+02  0.16503385523E+03  0.12500157683E+03 0.  0.
          4    1    3    3  501    0 -0.74468589119E+02 -0.53385997948E+02 -0.36456819780E+02  0.98622249775E+02  0.12700000000E+01 0.  1.
         -4    1    3    3    0  501  0.57979837124E+01 -0.25995258790E+02  0.60823665990E+02  0.66411605455E+02  0.12700000000E+01 0.  1.
          2    1    1    2  502    0 -0.82439719529E+01 -0.54506506340E+02  0.89639688149E+02  0.10523400590E+03  0.00000000000E+00 0. -1.
          1    1    1    2  503    0  0.76914577359E+02  0.13388776308E+03 -0.75777837377E+03  0.77334975856E+03  0.00000000000E+00 0. -1.
<mgrwt>
<rscale>  0 0.91089228E+02</rscale>
<asrwt>0</asrwt>
<pdfrwt beam="1">  1        2 0.30757368E-01 0.55126421E+02</pdfrwt>
<pdfrwt beam="2">  1        1 0.12979919E+00 0.15051308E+03</pdfrwt>
<totfact> 0.49158332E+02</totfact>
</mgrwt>
</event>
<event>
 7    1  0.3113151E-004  0.1397010E+03  0.7546771E-02  0.1276020E+00
          1   -1    0    0  503    0 -0.00000000000E+00  0.00000000000E+00  0.29701825972E+03  0.29701825972E+03  0.00000000000E+00 0. -1.
          2   -1    0    0  502    0  0.00000000000E+00 -0.00000000000E+00 -0.23200120801E+04  0.23200120801E+04  0.00000000000E+00 0. -1.
         25    2    1    2    0    0  0.23241380164E+02 -0.12917840062E+03 -0.27539090316E+02  0.18333532791E+03  0.12500488001E+03 0.  0.
          4    1    3    3  501    0  0.49874448639E+02 -0.56973327885E+02  0.35695023759E+02  0.83720776026E+02  0.12700000000E+01 0. -1.
         -4    1    3    3    0  501 -0.26633068474E+02 -0.72205072735E+02 -0.63234114075E+02  0.99614551888E+02  0.12700000000E+01 0. -1.
          2    1    1    2  502    0 -0.74258423524E+02 -0.67334820510E+01 -0.21898257337E+04  0.21910947943E+04  0.00000000000E+00 0. -1.
          1    1    1    2  503    0  0.51017043360E+02  0.13591188267E+03  0.19437100364E+03  0.24260021769E+03  0.00000000000E+00 0. -1.
<mgrwt>
<rscale>  0 0.10206143E+03</rscale>
<asrwt>0</asrwt>
<pdfrwt beam="2">  1        2 0.35692493E+00 0.74563082E+02</pdfrwt>
<pdfrwt beam="1">  1        1 0.45695117E-01 0.13970097E+03</pdfrwt>
<totfact> 0.71427885E+01</totfact>
</mgrwt>
</event>
<event>
 7    1  0.3113151E-004  0.2037291E+03  0.7546771E-02  0.1179098E+00
         -1   -1    0    0    0  501 -0.00000000000E+00  0.00000000000E+00  0.75608522731E+03  0.75608522731E+03  0.00000000000E+00 0.  1.
          2   -1    0    0  503    0  0.00000000000E+00 -0.00000000000E+00 -0.34304910619E+03  0.34304910619E+03  0.00000000000E+00 0. -1.
         25    2    1    2    0    0 -0.16854446511E+03 -0.10127609863E+03  0.27178625116E+02  0.23457272305E+03  0.12498639871E+03 0.  0.
          4    1    3    3  502    0 -0.24119393917E+02 -0.12461572364E+01 -0.39782281005E+02  0.46556856130E+02  0.12700000000E+01 0.  1.
         -4    1    3    3    0  502 -0.14442507119E+03 -0.10002994139E+03  0.66960906120E+02  0.18801586692E+03  0.12700000000E+01 0.  1.
          2    1    1    2  503    0  0.21756928371E+03 -0.29721122741E+02 -0.17858871029E+03  0.28304357578E+03  0.00000000000E+00 0. -1.
         -1    1    1    2    0  501 -0.49024818596E+02  0.13099722137E+03  0.56444620630E+03  0.58151803467E+03  0.00000000000E+00 0.  1.
<mgrwt>
<rscale>  0 0.16880657E+03</rscale>
<asrwt>0</asrwt>
<pdfrwt beam="2">  1        2 0.52776786E-01 0.20372913E+03</pdfrwt>
<pdfrwt beam="1">  1       -1 0.11632080E+00 0.13987031E+03</pdfrwt>
<totfact> 0.80003125E+01</totfact>
</mgrwt>
</event>
<event>
 7    1  0.3113151E-004  0.1372371E+03  0.7546771E-02  0.1294968E+00
         -1   -1    0    0    0  501 -0.00000000000E+00  0.00000000000E+00  0.48507281063E+02  0.48507281063E+02  0.00000000000E+00 0.  1.
          2   -1    0    0  503    0  0.00000000000E+00 -0.00000000000E+00 -0.22257753997E+04  0.22257753997E+04  0.00000000000E+00 0. -1.
         25    2    1    2    0    0  0.13225875764E+03 -0.66710235413E+02 -0.16378047272E+03  0.25375561983E+03  0.12500094746E+03 0.  0.
          4    1    3    3  502    0  0.14326437594E+03 -0.89188209553E+02 -0.14297454370E+03  0.22118442798E+03  0.12700000000E+01 0.  1.
         -4    1    3    3    0  502 -0.11005618298E+02  0.22477974140E+02 -0.20805929026E+02  0.32571191845E+02  0.12700000000E+01 0.  1.
          2    1    1    2  503    0 -0.63478720860E+02  0.85138587218E-01 -0.11489842439E+04  0.11507364372E+04  0.00000000000E+00 0. -1.
         -1    1    1    2    0  501 -0.68780036780E+02  0.66625096826E+02 -0.86450340202E+03  0.86979062371E+03  0.00000000000E+00 0.  1.
<mgrwt>
<rscale>  0 0.93336175E+02</rscale>
<asrwt>0</asrwt>
<pdfrwt beam="2">  1        2 0.34242694E+00 0.63478778E+02</pdfrwt>
<pdfrwt beam="1">  1       -1 0.74626596E-02 0.13723707E+03</pdfrwt>
<totfact> 0.69796833E+02</totfact>
</mgrwt>
</event>
<event>
 7    1  0.3113151E-004  0.2190059E+03  0.7546771E-02  0.1267470E+00
          1   -1    0    0  503    0  0.00000000000E+00  0.00000000000E+00  0.13093037630E+04  0.13093037630E+04  0.00000000000E+00 0. -1.
         -3   -1    0    0    0  501 -0.00000000000E+00 -0.00000000000E+00 -0.25467013222E+03  0.25467013222E+03  0.00000000000E+00 0.  1.
         25    2    1    2    0    0  0.52131834236E+02  0.16531385150E+03  0.40977064813E+03  0.46215861941E+03  0.12502882784E+03 0.  0.
          4    1    3    3  502    0  0.10385112273E+02 -0.19631043227E+02  0.26848128904E+02  0.34866364031E+02  0.12700000000E+01 0. -1.
         -4    1    3    3    0  502  0.41746721963E+02  0.18494489473E+03  0.38292251923E+03  0.42729225538E+03  0.12700000000E+01 0. -1.
          1    1    1    2  503    0  0.19944691953E+02  0.47643963107E+02  0.81701772012E+03  0.81864869935E+03  0.00000000000E+00 0. -1.
         -3    1    1    2    0  501 -0.72076526189E+02 -0.21295781461E+03 -0.17215473742E+03  0.28316657650E+03  0.00000000000E+00 0.  1.
<mgrwt>
<rscale>  0 0.10635642E+03</rscale>
<asrwt>0</asrwt>
<pdfrwt beam="1">  1        1 0.20143134E+00 0.51650150E+02</pdfrwt>
<pdfrwt beam="2">  1       -3 0.39180021E-01 0.21900592E+03</pdfrwt>
<totfact> 0.39012989E+01</totfact>
</mgrwt>
</event>
<event>
 7    1  0.3113151E-004  0.8785525E+02  0.7546771E-02  0.1431688E+00
          2   -1    0    0  503    0  0.00000000000E+00  0.00000000000E+00  0.79947607583E+03  0.79947607583E+03  0.00000000000E+00 0. -1.
         -1   -1    0    0    0  501 -0.00000000000E+00 -0.00000000000E+00 -0.11274570763E+03  0.11274570763E+03  0.00000000000E+00 0.  1.
         25    2    1    2    0    0  0.82481255191E+02  0.67658924129E+02  0.54095131439E+03  0.56536106970E+03  0.12499570843E+03 0.  0.
          4    1    3    3  502    0  0.25931169366E+02  0.16176265019E+02  0.15351609543E+02  0.34225457049E+02  0.12700000000E+01 0. -1.
         -4    1    3    3    0  502  0.56550085826E+02  0.51482659110E+02  0.52559970484E+03  0.53113561265E+03  0.12700000000E+01 0. -1.
          2    1    1    2  503    0 -0.52318221392E+02 -0.58512211330E+02  0.23736328913E+03  0.25000441235E+03  0.00000000000E+00 0. -1.
         -1    1    1    2    0  501 -0.30163033799E+02 -0.91467127990E+01 -0.91584235319E+02  0.96856301405E+02  0.00000000000E+00 0.  1.
<mgrwt>
<rscale>  0 0.52622641E+02</rscale>
<asrwt>0</asrwt>
<pdfrwt beam="1">  1        2 0.12299632E+00 0.87855245E+02</pdfrwt>
<pdfrwt beam="2">  1       -1 0.17345494E-01 0.31519374E+02</pdfrwt>
<totfact> 0.97615706E+02</totfact>
</mgrwt>
</event>
<event>
 7    1  0.3113151E-004  0.5746160E+02  0.7546771E-02  0.1491534E+00
          1   -1    0    0  503    0  0.00000000000E+00  0.00000000000E+00  0.61092952872E+03  0.61092952872E+03  0.00000000000E+00 0. -1.
         -2   -1    0    0    0  501 -0.00000000000E+00 -0.00000000000E+00 -0.25832155062E+02  0.25832155062E+02  0.00000000000E+00 0.  1.
         25    2    1    2    0    0  0.40678769634E+02  0.26583194787E+02  0.47284903650E+03  0.49149912951E+03  0.12499501770E+03 0.  0.
          4    1    3    3  502    0 -0.27106275691E+02 -0.26288199982E+01  0.32600510389E+03  0.32714309032E+03  0.12700000000E+01 0.  1.
         -4    1    3    3    0  502  0.67785045324E+02  0.29212014785E+02  0.14684393260E+03  0.16435603919E+03  0.12700000000E+01 0.  1.
          1    1    1    2  503    0 -0.14955284956E+02  0.27412084739E+02  0.49901259958E+02  0.58866108103E+02  0.00000000000E+00 0. -1.
         -2    1    1    2    0  501 -0.25723484677E+02 -0.53995279526E+02  0.62347077209E+02  0.86396446174E+02  0.00000000000E+00 0.  1.
<mgrwt>
<rscale>  0 0.42359347E+02</rscale>
<asrwt>0</asrwt>
<pdfrwt beam="1">  1        1 0.93989148E-01 0.31226318E+02</pdfrwt>
<pdfrwt beam="2">  1       -2 0.39741781E-02 0.57461603E+02</pdfrwt>
<totfact> 0.76816528E+03</totfact>
</mgrwt>
</event>
<event>
 7    1  0.3113151E-004  0.1362002E+03  0.7546771E-02  0.1241277E+00
          2   -1    0    0  502    0  0.00000000000E+00  0.00000000000E+00  0.20344737528E+04  0.20344737528E+04  0.00000000000E+00 0. -1.
          1   -1    0    0  503    0 -0.00000000000E+00 -0.00000000000E+00 -0.79591922298E+03  0.79591922298E+03  0.00000000000E+00 0. -1.
         25    2    1    2    0    0 -0.91062933372E+02  0.92122838700E+02 -0.28741311654E+02  0.18229141920E+03  0.12500009309E+03 0.  0.
          4    1    3    3  501    0 -0.71396010245E+02  0.77609547485E+02 -0.75372476983E+02  0.12962737105E+03  0.12700000000E+01 0.  1.
         -4    1    3    3    0  501 -0.19666923127E+02  0.14513291215E+02  0.46631165329E+02  0.52664048146E+02  0.12700000000E+01 0.  1.
          2    1    1    2  502    0  0.96328739456E+02  0.48147641692E+02  0.19490620771E+04  0.19520349387E+04  0.00000000000E+00 0. -1.
          1    1    1    2  503    0 -0.52658060842E+01 -0.14027048039E+03 -0.68176623567E+03  0.69606661785E+03  0.00000000000E+00 0. -1.
<mgrwt>
<rscale>  0 0.12110978E+03</rscale>
<asrwt>0</asrwt>
<pdfrwt beam="1">  1        2 0.31299596E+00 0.10769132E+03</pdfrwt>
<pdfrwt beam="2">  1        1 0.12244911E+00 0.13620020E+03</pdfrwt>
<totfact> 0.25946964E+01</totfact>
</mgrwt>
</event>
<event>
 7    1  0.3113151E-004  0.6045772E+02  0.7546771E-02  0.1456703E+00
         -2   -1    0    0    0  501 -0.00000000000E+00  0.00000000000E+00  0.25873309078E+03  0.25873309078E+03  0.00000000000E+00 0.  1.
          1   -1    0    0  503    0  0.00000000000E+00 -0.00000000000E+00 -0.23614613456E+03  0.23614613456E+03  0.00000000000E+00 0. -1.
         25    2    1    2    0    0 -0.13372927049E+02 -0.89313463658E+02  0.12384293255E+03  0.19778316900E+03  0.12500152011E+03 0.  0.
          4    1    3    3  502    0 -0.51463542820E+02 -0.21758270822E+02  0.53268942391E+01  0.56141849729E+02  0.12700000000E+01 0.  1.
         -4    1    3    3    0  502  0.38090615772E+02 -0.67555192837E+02  0.11851603831E+03  0.14164131928E+03  0.12700000000E+01 0.  1.
          1    1    1    2  503    0 -0.42668080802E+01  0.37795306213E+02 -0.18956736188E+03  0.19334548227E+03  0.00000000000E+00 0. -1.
         -2    1    1    2    0  501  0.17639735129E+02  0.51518157445E+02  0.88311385551E+02  0.10375057407E+03  0.00000000000E+00 0.  1.
<mgrwt>
<rscale>  0 0.47953444E+02</rscale>
<asrwt>0</asrwt>
<pdfrwt beam="2">  1        1 0.36330174E-01 0.38035389E+02</pdfrwt>
<pdfrwt beam="1">  1       -2 0.39805091E-01 0.60457716E+02</pdfrwt>
<totfact> 0.60872913E+02</totfact>
</mgrwt>
</event>
<event>
 7    1  0.3113151E-004  0.1111973E+03  0.7546771E-02  0.1301593E+00
          1   -1    0    0  503    0  0.00000000000E+00  0.00000000000E+00  0.13507800198E+04  0.13507800198E+04  0.00000000000E+00 0. -1.
          1   -1    0    0  502    0 -0.00000000000E+00 -0.00000000000E+00 -0.24869615664E+03  0.24869615664E+03  0.00000000000E+00 0. -1.
         25    2    1    2    0    0 -0.11285494145E+02 -0.18193448745E+03  0.61224498614E+03  0.65092128079E+03  0.12500828221E+03 0.  0.
          4    1    3    3  501    0  0.48690264740E+02 -0.10953379128E+03  0.42221321484E+03  0.43890090567E+03  0.12700000000E+01 0. -1.
         -4    1    3    3    0  501 -0.59975758885E+02 -0.72400696169E+02  0.19003177130E+03  0.21202037511E+03  0.12700000000E+01 0. -1.
          1    1    1    2  502    0 -0.31781845365E+01  0.10967704650E+03 -0.21420136287E+03  0.24066860876E+03  0.00000000000E+00 0. -1.
          1    1    1    2  503    0  0.14463678681E+02  0.72257440949E+02  0.70404023985E+03  0.70788628684E+03  0.00000000000E+00 0. -1.
<mgrwt>
<rscale>  0 0.90521939E+02</rscale>
<asrwt>0</asrwt>
<pdfrwt beam="1">  1        1 0.20781231E+00 0.73690812E+02</pdfrwt>
<pdfrwt beam="2">  1        1 0.38260948E-01 0.11119733E+03</pdfrwt>
<totfact> 0.13373497E+02</totfact>
</mgrwt>
</event>
<event>
 7    1  0.3113151E-004  0.9736933E+02  0.7546771E-02  0.1379151E+00
         -1   -1    0    0    0  501 -0.00000000000E+00  0.00000000000E+00  0.77159000106E+02  0.77159000106E+02  0.00000000000E+00 0.  1.
          1   -1    0    0  503    0  0.00000000000E+00 -0.00000000000E+00 -0.42291463717E+03  0.42291463717E+03  0.00000000000E+00 0. -1.
         25    2    1    2    0    0 -0.51910305796E+02  0.35107773833E+02 -0.72082866129E+02  0.15731394757E+03  0.12499801151E+03 0.  0.
          4    1    3    3  502    0 -0.91864508692E+02  0.99749075250E+01 -0.43738919713E+02  0.10224134553E+03  0.12700000000E+01 0. -1.
         -4    1    3    3    0  502  0.39954202896E+02  0.25132866308E+02 -0.28343946416E+02  0.55072602048E+02  0.12700000000E+01 0. -1.
          1    1    1    2  503    0  0.91428610484E+02 -0.51994779756E+02 -0.28020121896E+03  0.29929144833E+03  0.00000000000E+00 0. -1.
         -1    1    1    2    0  501 -0.39518304688E+02  0.16887005923E+02  0.65284480239E+01  0.43468241373E+02  0.00000000000E+00 0.  1.
<mgrwt>
<rscale>  0 0.64687447E+02</rscale>
<asrwt>0</asrwt>
<pdfrwt beam="2">  1        1 0.65063790E-01 0.97369327E+02</pdfrwt>
<pdfrwt beam="1">  1       -1 0.11870615E-01 0.42975195E+02</pdfrwt>
<totfact> 0.23936930E+03</totfact>
</mgrwt>
</event>
<event>
 7    1  0.3113151E-004  0.1295326E+03  0.7546771E-02  0.1235657E+00
          1   -1    0    0  502    0  0.00000000000E+00  0.00000000000E+00  0.43791791111E+03  0.43791791111E+03  0.00000000000E+00 0. -1.
          1   -1    0    0  503    0 -0.00000000000E+00 -0.00000000000E+00 -0.46838219080E+03  0.46838219080E+03  0.00000000000E+00 0. -1.
         25    2    1    2    0    0  0.46943344010E+02  0.31713426205E+01 -0.66084371773E+02  0.14902288114E+03  0.12500775956E+03 0.  0.
          4    1    3    3  501    0  0.68331712395E+02  0.41553384573E+02 -0.14566109615E+02  0.81300006997E+02  0.12700000000E+01 0.  1.
         -4    1    3    3    0  501 -0.21388368385E+02 -0.38382041953E+02 -0.51518262158E+02  0.67722874144E+02  0.12700000000E+01 0.  1.
          1    1    1    2  502    0  0.50515703112E+02  0.11927637386E+03  0.36787311600E+03  0.39001194738E+03  0.00000000000E+00 0. -1.
          1    1    1    2  503    0 -0.97459047122E+02 -0.12244771649E+03 -0.33225302392E+03  0.36726527339E+03  0.00000000000E+00 0. -1.
<mgrwt>
<rscale>  0 0.12462460E+03</rscale>
<asrwt>0</asrwt>
<pdfrwt beam="1">  1        1 0.67371986E-01 0.12953258E+03</pdfrwt>
<pdfrwt beam="2">  1        1 0.72058799E-01 0.11990258E+03</pdfrwt>
<totfact> 0.32807535E+02</totfact>
</mgrwt>
</event>
<event>
 7    1  0.3113151E-004  0.5235118E+02  0.7546771E-02  0.1517119E+00
          2   -1    0    0  503    0  0.00000000000E+00  0.00000000000E+00  0.29101960200E+04  0.29101960200E+04  0.00000000000E+00 0. -1.
         -1   -1    0    0    0  501 -0.00000000000E+00 -0.00000000000E+00 -0.46856355863E+01  0.46856355863E+01  0.00000000000E+00 0.  1.
         25    2    1    2    0    0 -0.30840586852E+02  0.53356803167E+01  0.11389870363E+04  0.11462531044E+04  0.12500039680E+03 0.  0.
          4    1    3    3  502    0  0.30456191814E+02 -0.89807475673E+01  0.91230585184E+02  0.96606759700E+02  0.12700000000E+01 0.  1.
         -4    1    3    3    0  502 -0.61296778666E+02  0.14316427884E+02  0.10477564511E+04  0.10496463447E+04  0.12700000000E+01 0.  1.
          2    1    1    2  503    0  0.50539603438E+02 -0.26315415067E+02  0.10796064768E+04  0.10811091052E+04  0.00000000000E+00 0. -1.
         -1    1    1    2    0  501 -0.19699016586E+02  0.20979734751E+02  0.68691687136E+03  0.68751944604E+03  0.00000000000E+00 0.  1.
<mgrwt>
<rscale>  0 0.38814780E+02</rscale>
<asrwt>0</asrwt>
<pdfrwt beam="1">  1        2 0.44772102E+00 0.52351184E+02</pdfrwt>
<pdfrwt beam="2">  1       -1 0.72086934E-03 0.28778473E+02</pdfrwt>
<totfact> 0.69763871E+03</totfact>
</mgrwt>
</event>
<event>
 7    1  0.5503435E-004  0.9509649E+02  0.7546771E-02  0.1361646E+00
          2   -1    0    0  503    0  0.00000000000E+00  0.00000000000E+00  0.11069993382E+04  0.11069993382E+04  0.00000000000E+00 0. -1.
         -1   -1    0    0    0  501 -0.00000000000E+00 -0.00000000000E+00 -0.30721108691E+02  0.30721108691E+02  0.00000000000E+00 0.  1.
         25    2    1    2    0    0 -0.97910310423E+02 -0.75212166625E+02  0.84922419924E+03  0.86720754492E+03  0.12499554587E+03 0.  0.
          4    1    3    3  502    0 -0.50355409808E+02 -0.10704281573E+03  0.55529570888E+03  0.56775766741E+03  0.12700000000E+01 0. -1.
         -4    1    3    3    0  502 -0.47554900615E+02  0.31830649109E+02  0.29392849036E+03  0.29944987751E+03  0.12700000000E+01 0. -1.
          2    1    1    2  503    0  0.95408653065E+01  0.49956344039E+02  0.11387781141E+03  0.12471896548E+03  0.00000000000E+00 0. -1.
         -1    1    1    2    0  501  0.88369445117E+02  0.25255822586E+02  0.11317621890E+03  0.14579393653E+03  0.00000000000E+00 0.  1.
<mgrwt>
<rscale>  0 0.69545215E+02</rscale>
<asrwt>0</asrwt>
<pdfrwt beam="1">  1        2 0.17030756E+00 0.50859261E+02</pdfrwt>
<pdfrwt beam="2">  1       -1 0.47263253E-02 0.95096486E+02</pdfrwt>
<totfact> 0.49505732E+03</totfact>
</mgrwt>
</event>
<event>
 7    1  0.3113151E-004  0.5575233E+02  0.7546771E-02  0.1511710E+00
         -1   -1    0    0    0  501 -0.00000000000E+00  0.00000000000E+00  0.93358527032E+02  0.93358527032E+02  0.00000000000E+00 0.  1.
          2   -1    0    0  503    0  0.00000000000E+00 -0.00000000000E+00 -0.10745503913E+04  0.10745503913E+04  0.00000000000E+00 0. -1.
         25    2    1    2    0    0  0.31935978600E+02 -0.53549635089E+02 -0.32169069828E+03  0.35070136864E+03  0.12497629558E+03 0.  0.
          4    1    3    3  502    0  0.12425809786E+02 -0.81654838871E+02 -0.11732415925E+03  0.14348687990E+03  0.12700000000E+01 0.  1.
         -4    1    3    3    0  502  0.19510168814E+02  0.28105203782E+02 -0.20436653904E+03  0.20721448874E+03  0.12700000000E+01 0.  1.
          2    1    1    2  503    0 -0.39836832813E+01  0.55579116978E+02 -0.73477546469E+03  0.73688526345E+03  0.00000000000E+00 0. -1.
         -1    1    1    2    0  501 -0.27952295319E+02 -0.20294818890E+01  0.75274298743E+02  0.80322286207E+02  0.00000000000E+00 0.  1.
<mgrwt>
<rscale>  0 0.39528569E+02</rscale>
<asrwt>0</asrwt>
<pdfrwt beam="2">  1        2 0.16531545E+00 0.55752329E+02</pdfrwt>
<pdfrwt beam="1">  1       -1 0.14362850E-01 0.28025874E+02</pdfrwt>
<totfact> 0.89752784E+02</totfact>
</mgrwt>
</event>
<event>
 7    1  0.3113151E-004  0.1450483E+03  0.7546771E-02  0.1420207E+00
         -2   -1    0    0    0  501 -0.00000000000E+00  0.00000000000E+00  0.16634740092E+02  0.16634740092E+02  0.00000000000E+00 0.  1.
          1   -1    0    0  503    0  0.00000000000E+00 -0.00000000000E+00 -0.26709082547E+04  0.26709082547E+04  0.00000000000E+00 0. -1.
         25    2    1    2    0    0 -0.45599795443E+01  0.15209403121E+03 -0.20334092486E+04  0.20429220309E+04  0.12499545715E+03 0.  0.
          4    1    3    3  502    0 -0.57742556389E+02  0.82685091815E+02 -0.78487288115E+03  0.79132678439E+03  0.12700000000E+01 0.  1.
         -4    1    3    3    0  502  0.53182576845E+02  0.69408939397E+02 -0.12485363674E+04  0.12515952465E+04  0.12700000000E+01 0.  1.
          1    1    1    2  503    0 -0.59204782440E+01 -0.13408358417E+03 -0.60109786097E+03  0.61589942204E+03  0.00000000000E+00 0. -1.
         -2    1    1    2    0  501  0.10480457788E+02 -0.18010447041E+02 -0.19766405037E+02  0.28721541849E+02  0.00000000000E+00 0.  1.
<mgrwt>
<rscale>  0 0.54977231E+02</rscale>
<asrwt>0</asrwt>
<pdfrwt beam="2">  1        1 0.41090880E+00 0.14504832E+03</pdfrwt>
<pdfrwt beam="1">  1       -2 0.25591918E-02 0.20837855E+02</pdfrwt>
<totfact> 0.44558448E+02</totfact>
</mgrwt>
</event>
<event>
 7    1  0.3113151E-004  0.4009597E+02  0.7546771E-02  0.1530331E+00
          2   -1    0    0  503    0  0.00000000000E+00  0.00000000000E+00  0.21080993195E+03  0.21080993195E+03  0.00000000000E+00 0. -1.
         -1   -1    0    0    0  501 -0.00000000000E+00 -0.00000000000E+00 -0.48336879060E+03  0.48336879060E+03  0.00000000000E+00 0.  1.
         25    2    1    2    0    0 -0.11307256803E+02  0.61481800510E+01 -0.11515406965E+03  0.17044000338E+03  0.12499472317E+03 0.  0.
          4    1    3    3  502    0  0.44560398979E+02  0.10047963133E+02 -0.38803930707E+01  0.45861324345E+02  0.12700000000E+01 0. -1.
         -4    1    3    3    0  502 -0.55867655782E+02 -0.38997830820E+01 -0.11127367658E+03  0.12457867904E+03  0.12700000000E+01 0. -1.
          2    1    1    2  503    0  0.36988327887E+02  0.16758572040E+02  0.18003038935E+03  0.18455331811E+03  0.00000000000E+00 0. -1.
         -1    1    1    2    0  501 -0.25681071084E+02 -0.22906752091E+02 -0.33743517834E+03  0.33918540105E+03  0.00000000000E+00 0.  1.
<mgrwt>
<rscale>  0 0.37145822E+02</rscale>
<asrwt>0</asrwt>
<pdfrwt beam="1">  1        2 0.32432297E-01 0.40095966E+02</pdfrwt>
<pdfrwt beam="2">  1       -1 0.74364429E-01 0.34412740E+02</pdfrwt>
<totfact> 0.35453102E+02</totfact>
</mgrwt>
</event>
<event>
 7    1  0.3113151E-004  0.1719159E+03  0.7546771E-02  0.1196259E+00
          1   -1    0    0  503    0 -0.00000000000E+00  0.00000000000E+00  0.37990221204E+03  0.37990221204E+03  0.00000000000E+00 0. -1.
          2   -1    0    0  502    0  0.00000000000E+00 -0.00000000000E+00 -0.36013915113E+04  0.36013915113E+04  0.00000000000E+00 0.  1.
         25    2    1    2    0    0  0.18440936425E+03  0.24027268539E+03 -0.49959869261E+03  0.59747161739E+03  0.12504280455E+03 0.  0.
          4    1    3    3  501    0  0.39942570681E+02  0.79429522627E+02 -0.59068732257E+02  0.10674823674E+03  0.12700000000E+01 0. -1.
         -4    1    3    3    0  501  0.14446679357E+03  0.16084316276E+03 -0.44052996035E+03  0.49072338065E+03  0.12700000000E+01 0. -1.
          2    1    1    2  502    0 -0.10077311830E+03 -0.13173407827E+03 -0.30363129078E+04  0.30408395490E+04  0.00000000000E+00 0.  1.
          1    1    1    2  503    0 -0.83636245947E+02 -0.10853860712E+03  0.31442230118E+03  0.34298255692E+03  0.00000000000E+00 0. -1.
<mgrwt>
<rscale>  0 0.15348174E+03</rscale>
<asrwt>0</asrwt>
<pdfrwt beam="2">  1        2 0.55406026E+00 0.17191585E+03</pdfrwt>
<pdfrwt beam="1">  1        1 0.58446492E-01 0.13702427E+03</pdfrwt>
<totfact> 0.84205737E+00</totfact>
</mgrwt>
</event>
<event>
 7    1  0.3113151E-004  0.7854678E+02  0.7546771E-02  0.1344524E+00
          1   -1    0    0  502    0  0.00000000000E+00  0.00000000000E+00  0.42545923367E+02  0.42545923367E+02  0.00000000000E+00 0. -1.
          3   -1    0    0  503    0 -0.00000000000E+00 -0.00000000000E+00 -0.19289929694E+04  0.19289929694E+04  0.00000000000E+00 0. -1.
         25    2    1    2    0    0  0.62183354863E+01 -0.18852272857E+02 -0.70262851692E+03  0.71393575922E+03  0.12499343831E+03 0.  0.
          4    1    3    3  501    0 -0.27673057907E+02  0.10391581764E+02 -0.39782216578E+02  0.49578430404E+02  0.12700000000E+01 0.  1.
         -4    1    3    3    0  501  0.33891393393E+02 -0.29243854621E+02 -0.66284630034E+03  0.66435732882E+03  0.12700000000E+01 0.  1.
          1    1    1    2  502    0  0.41090914783E+02  0.72077670232E+02 -0.12244007026E+02  0.83866379031E+02  0.00000000000E+00 0. -1.
          3    1    1    2  503    0 -0.47309250269E+02 -0.53225397375E+02 -0.11715745221E+04  0.11737367545E+04  0.00000000000E+00 0. -1.
<mgrwt>
<rscale>  0 0.74789378E+02</rscale>
<asrwt>0</asrwt>
<pdfrwt beam="1">  1        1 0.65455258E-02 0.78546785E+02</pdfrwt>
<pdfrwt beam="2">  1        3 0.29676819E+00 0.71211713E+02</pdfrwt>
<totfact> 0.28626427E+01</totfact>
</mgrwt>
</event>
<event>
 7    1  0.3113151E-004  0.8849300E+02  0.7546771E-02  0.1334833E+00
         -2   -1    0    0    0  501 -0.00000000000E+00  0.00000000000E+00  0.44456579147E+03  0.44456579147E+03  0.00000000000E+00 0.  1.
          2   -1    0    0  503    0  0.00000000000E+00 -0.00000000000E+00 -0.60651080463E+03  0.60651080463E+03  0.00000000000E+00 0. -1.
         25    2    1    2    0    0  0.20242176882E+02  0.25372771237E+02  0.15753925834E+02  0.13010551243E+03  0.12500293972E+03 0.  0.
          4    1    3    3  502    0 -0.25863477813E+02  0.62043959498E+02  0.22266074292E+02  0.70822054187E+02  0.12700000000E+01 0.  1.
         -4    1    3    3    0  502  0.46105654696E+02 -0.36671188261E+02 -0.65121484580E+01  0.59283458241E+02  0.12700000000E+01 0.  1.
          2    1    1    2  503    0  0.68114480110E+02  0.92978952451E+01 -0.54106406940E+03  0.54541393496E+03  0.00000000000E+00 0. -1.
         -2    1    1    2    0  501 -0.88356656993E+02 -0.34670666482E+02  0.36336513041E+03  0.37555714871E+03  0.00000000000E+00 0.  1.
<mgrwt>
<rscale>  0 0.77997135E+02</rscale>
<asrwt>0</asrwt>
<pdfrwt beam="2">  1        2 0.93309353E-01 0.68746151E+02</pdfrwt>
<pdfrwt beam="1">  1       -2 0.68394738E-01 0.88492999E+02</pdfrwt>
<totfact> 0.10596916E+02</totfact>
</mgrwt>
</event>
<event>
 7    1  0.3113151E-004  0.4430027E+02  0.7546771E-02  0.1546340E+00
          1   -1    0    0  503    0  0.00000000000E+00  0.00000000000E+00  0.10596013545E+04  0.10596013545E+04  0.00000000000E+00 0. -1.
         -2   -1    0    0    0  501 -0.00000000000E+00 -0.00000000000E+00 -0.14086983203E+02  0.14086983203E+02  0.00000000000E+00 0.  1.
         25    2    1    2    0    0  0.33903571257E+02 -0.47091341666E+02  0.46271130349E+03  0.48279639950E+03  0.12499426546E+03 0.  0.
          4    1    3    3  502    0 -0.45809972438E+02 -0.30469151998E+02  0.22036772702E+03  0.22713535791E+03  0.12700000000E+01 0.  1.
         -4    1    3    3    0  502  0.79713543695E+02 -0.16622189668E+02  0.24234357646E+03  0.25566104160E+03  0.12700000000E+01 0.  1.
          1    1    1    2  503    0 -0.61213861654E+01  0.43167402198E+02  0.52321659546E+03  0.52503000081E+03  0.00000000000E+00 0. -1.
         -2    1    1    2    0  501 -0.27782185091E+02  0.39239394680E+01  0.59586472301E+02  0.65861937344E+02  0.00000000000E+00 0.  1.
<mgrwt>
<rscale>  0 0.35255832E+02</rscale>
<asrwt>0</asrwt>
<pdfrwt beam="1">  1        1 0.16301553E+00 0.44300273E+02</pdfrwt>
<pdfrwt beam="2">  1       -2 0.21672290E-02 0.28057924E+02</pdfrwt>
<totfact> 0.72454972E+03</totfact>
</mgrwt>
</event>
<event>
 7    1  0.3113151E-004  0.6003721E+02  0.7546771E-02  0.1473051E+00
         -2   -1    0    0    0  501 -0.00000000000E+00  0.00000000000E+00  0.19177649614E+02  0.19177649614E+02  0.00000000000E+00 0.  1.
          1   -1    0    0  503    0  0.00000000000E+00 -0.00000000000E+00 -0.10788989597E+04  0.10788989597E+04  0.00000000000E+00 0. -1.
         25    2    1    2    0    0  0.21513029390E+02  0.60871218173E+02 -0.29999630922E+03  0.33135476572E+03  0.12502031669E+03 0.  0.
          4    1    3    3  502    0  0.69122096211E+02  0.60347375528E+02 -0.21802730354E+03  0.23655271697E+03  0.12700000000E+01 0.  1.
         -4    1    3    3    0  502 -0.47609066821E+02  0.52384264513E+00 -0.81969005674E+02  0.94802048743E+02  0.12700000000E+01 0.  1.
          1    1    1    2  503    0 -0.33980541070E+02 -0.20232011951E+01 -0.44497332963E+03  0.44627349753E+03  0.00000000000E+00 0. -1.
         -2    1    1    2    0  501  0.12467511680E+02 -0.58848016978E+02 -0.31475167120E+03  0.32044834603E+03  0.00000000000E+00 0.  1.
<mgrwt>
<rscale>  0 0.45207409E+02</rscale>
<asrwt>0</asrwt>
<pdfrwt beam="2">  1        1 0.16598443E+00 0.34040718E+02</pdfrwt>
<pdfrwt beam="1">  1       -2 0.29504080E-02 0.60037213E+02</pdfrwt>
<totfact> 0.52195737E+03</totfact>
</mgrwt>
</event>
<event>
 7    1  0.3113151E-004  0.6007369E+02  0.7546771E-02  0.1412884E+00
         -2   -1    0    0    0  501 -0.00000000000E+00  0.00000000000E+00  0.68616476052E+01  0.68616476052E+01  0.00000000000E+00 0. -1.
          2   -1    0    0  503    0  0.00000000000E+00 -0.00000000000E+00 -0.30167165470E+04  0.30167165470E+04  0.00000000000E+00 0.  1.
         25    2    1    2    0    0  0.75717355147E+02 -0.55950008229E+02 -0.17984423140E+04  0.18052378663E+04  0.12500190358E+03 0.  0.
          4    1    3    3  502    0  0.10615490129E+03 -0.18182484425E+02 -0.11907260857E+04  0.11955875919E+04  0.12700000000E+01 0.  1.
         -4    1    3    3    0  502 -0.30437546146E+02 -0.37767523803E+02 -0.60771622824E+03  0.60965027437E+03  0.12700000000E+01 0.  1.
          2    1    1    2  503    0 -0.22912046481E+02  0.49138089544E+02 -0.95080285211E+03  0.95234740368E+03  0.00000000000E+00 0.  1.
         -2    1    1    2    0  501 -0.52805308665E+02  0.68119186851E+01 -0.26060973327E+03  0.26599292459E+03  0.00000000000E+00 0. -1.
<mgrwt>
<rscale>  0 0.56555241E+02</rscale>
<asrwt>0</asrwt>
<pdfrwt beam="2">  1        2 0.46411037E+00 0.60073686E+02</pdfrwt>
<pdfrwt beam="1">  1       -2 0.10556378E-02 0.53242867E+02</pdfrwt>
<totfact> 0.39834734E+03</totfact>
</mgrwt>
</event>
<event>
 7    1  0.3113151E-004  0.7785211E+02  0.7546771E-02  0.1367187E+00
          2   -1    0    0  503    0  0.00000000000E+00  0.00000000000E+00  0.71932730170E+03  0.71932730170E+03  0.00000000000E+00 0.  1.
         -1   -1    0    0    0  501 -0.00000000000E+00 -0.00000000000E+00 -0.39796070276E+03  0.39796070276E+03  0.00000000000E+00 0.  1.
         25    2    1    2    0    0  0.94863501121E+02  0.32894411634E+02 -0.98112930426E+02  0.18796339598E+03  0.12499185953E+03 0.  0.
          4    1    3    3  502    0  0.91617347236E+01 -0.42228636539E+02 -0.44394643790E+02  0.61965251749E+02  0.12700000000E+01 0.  1.
         -4    1    3    3    0  502  0.85701766397E+02  0.75123048173E+02 -0.53718286636E+02  0.12599814423E+03  0.12700000000E+01 0.  1.
          2    1    1    2  503    0 -0.74387070746E+02  0.22775951838E+02  0.66866556215E+03  0.67317591630E+03  0.00000000000E+00 0.  1.
         -1    1    1    2    0  501 -0.20476430375E+02 -0.55670363472E+02 -0.24918603279E+03  0.25614869218E+03  0.00000000000E+00 0.  1.
<mgrwt>
<rscale>  0 0.67955368E+02</rscale>
<asrwt>0</asrwt>
<pdfrwt beam="1">  1        2 0.11066574E+00 0.77852111E+02</pdfrwt>
<pdfrwt beam="2">  1       -1 0.61224724E-01 0.59316723E+02</pdfrwt>
<totfact> 0.13931234E+02</totfact>
</mgrwt>
</event>
<event>
 7    1  0.3113151E-004  0.1374937E+03  0.7546771E-02  0.1275147E+00
          3   -1    0    0  503    0 -0.00000000000E+00  0.00000000000E+00  0.10425504046E+04  0.10425504046E+04  0.00000000000E+00 0. -1.
          2   -1    0    0  502    0  0.00000000000E+00 -0.00000000000E+00 -0.12936239838E+04  0.12936239838E+04  0.00000000000E+00 0. -1.
         25    2    1    2    0    0 -0.15984910523E+03  0.11602681847E+03 -0.46026061542E+02  0.23823223728E+03  0.12498896548E+03 0.  0.
          4    1    3    3  501    0  0.59056470890E-02 -0.14988240927E+02  0.16466737108E+02  0.22302774087E+02  0.12700000000E+01 0. -1.
         -4    1    3    3    0  501 -0.15985501088E+03  0.13101505940E+03 -0.62492798650E+02  0.21592946319E+03  0.12700000000E+01 0. -1.
          2    1    1    2  502    0  0.32534936483E+02 -0.69122543485E+02 -0.11453531265E+04  0.11478981803E+04  0.00000000000E+00 0. -1.
          3    1    1    2  503    0  0.12731416875E+03 -0.46904274984E+02  0.94030560879E+03  0.95004397083E+03  0.00000000000E+00 0. -1.
<mgrwt>
<rscale>  0 0.10248929E+03</rscale>
<asrwt>0</asrwt>
<pdfrwt beam="2">  1        2 0.19901907E+00 0.76396650E+02</pdfrwt>
<pdfrwt beam="1">  1        3 0.16039237E+00 0.13749367E+03</pdfrwt>
<totfact> 0.34878384E+00</totfact>
</mgrwt>
</event>
<event>
 7    1  0.3113151E-004  0.5978070E+02  0.7546771E-02  0.1443436E+00
         -2   -1    0    0    0  501 -0.00000000000E+00  0.00000000000E+00  0.98005975709E+03  0.98005975709E+03  0.00000000000E+00 0.  1.
          2   -1    0    0  503    0  0.00000000000E+00 -0.00000000000E+00 -0.33104722559E+03  0.33104722559E+03  0.00000000000E+00 0. -1.
         25    2    1    2    0    0  0.56466017723E+02 -0.55209174194E+02  0.62234770049E+03  0.63966895685E+03  0.12499299974E+03 0.  0.
          4    1    3    3  502    0  0.69087896935E+02 -0.46043718822E+02  0.19384649512E+03  0.21088204788E+03  0.12700000000E+01 0.  1.
         -4    1    3    3    0  502 -0.12621879212E+02 -0.91654553723E+01  0.42850120537E+03  0.42878690897E+03  0.12700000000E+01 0.  1.
          2    1    1    2  503    0 -0.58353569094E+02  0.12835636350E+02 -0.31830817441E+03  0.32386723589E+03  0.00000000000E+00 0. -1.
         -2    1    1    2    0  501  0.18875513709E+01  0.42373537844E+02  0.34497300541E+03  0.34757078994E+03  0.00000000000E+00 0.  1.
<mgrwt>
<rscale>  0 0.50355055E+02</rscale>
<asrwt>0</asrwt>
<pdfrwt beam="2">  1        2 0.50930343E-01 0.59780696E+02</pdfrwt>
<pdfrwt beam="1">  1       -2 0.15077842E+00 0.42415558E+02</pdfrwt>
<totfact> 0.33806136E+01</totfact>
</mgrwt>
</event>
<event>
 7    1  0.3113151E-004  0.1239775E+03  0.7546771E-02  0.1304879E+00
          2   -1    0    0  502    0  0.00000000000E+00  0.00000000000E+00  0.72349375718E+02  0.72349375718E+02  0.00000000000E+00 0. -1.
          2   -1    0    0  503    0 -0.00000000000E+00 -0.00000000000E+00 -0.24145886844E+04  0.24145886844E+04  0.00000000000E+00 0. -1.
         25    2    1    2    0    0 -0.47123291733E+02  0.63249086297E+02 -0.34948735388E+03  0.37946047257E+03  0.12501115222E+03 0.  0.
          4    1    3    3  501    0 -0.18674960569E+01  0.72133465434E+02 -0.87408683380E+02  0.11335173226E+03  0.12700000000E+01 0.  1.
         -4    1    3    3    0  501 -0.45255795677E+02 -0.88843791377E+01 -0.26207867050E+03  0.26610874030E+03  0.12700000000E+01 0.  1.
          2    1    1    2  502    0  0.12032316477E+02  0.62993128911E+02  0.36639594135E+02  0.73860481911E+02  0.00000000000E+00 0. -1.
          2    1    1    2  503    0  0.35090975256E+02 -0.12624221521E+03 -0.20293915489E+04  0.20336171056E+04  0.00000000000E+00 0. -1.
<mgrwt>
<rscale>  0 0.89167951E+02</rscale>
<asrwt>0</asrwt>
<pdfrwt beam="1">  1        2 0.11130673E-01 0.64131981E+02</pdfrwt>
<pdfrwt beam="2">  1        2 0.37147520E+00 0.12397751E+03</pdfrwt>
<totfact> 0.39335920E+02</totfact>
</mgrwt>
</event>
<event>
 7    1  0.3113151E-004  0.1008924E+03  0.7546771E-02  0.1330419E+00
          1   -1    0    0  503    0  0.00000000000E+00  0.00000000000E+00  0.15163964807E+03  0.15163964807E+03  0.00000000000E+00 0. -1.
         -1   -1    0    0    0  501 -0.00000000000E+00 -0.00000000000E+00 -0.23446490771E+03  0.23446490771E+03  0.00000000000E+00 0.  1.
         25    2    1    2    0    0 -0.42593057420E+02 -0.14214549213E+03 -0.80425557430E+02  0.21002671245E+03  0.12499376058E+03 0.  0.
          4    1    3    3  502    0 -0.34045563079E+02 -0.15394465053E+03 -0.99160594541E+02  0.18625920703E+03  0.12700000000E+01 0.  1.
         -4    1    3    3    0  502 -0.85474943404E+01  0.11799158404E+02  0.18735037111E+02  0.23767505425E+02  0.12700000000E+01 0.  1.
          1    1    1    2  503    0  0.56172562457E+01  0.91539704043E+02  0.40366335694E+02  0.10020235547E+03  0.00000000000E+00 0. -1.
         -1    1    1    2    0  501  0.36975801174E+02  0.50605788087E+02 -0.42766037908E+02  0.75875487864E+02  0.00000000000E+00 0.  1.
<mgrwt>
<rscale>  0 0.79519995E+02</rscale>
<asrwt>0</asrwt>
<pdfrwt beam="1">  1        1 0.23329177E-01 0.10089237E+03</pdfrwt>
<pdfrwt beam="2">  1       -1 0.36071524E-01 0.62675000E+02</pdfrwt>
<totfact> 0.14979079E+03</totfact>
</mgrwt>
</event>
<event>
 7    1  0.3113151E-004  0.4478062E+02  0.7546771E-02  0.1539830E+00
          2   -1    0    0  502    0  0.00000000000E+00  0.00000000000E+00  0.14290844221E+03  0.14290844221E+03  0.00000000000E+00 0. -1.
          1   -1    0    0  503    0 -0.00000000000E+00 -0.00000000000E+00 -0.18357034671E+04  0.18357034671E+04  0.00000000000E+00 0. -1.
         25    2    1    2    0    0  0.11312508132E+02 -0.13669366431E+02 -0.26848213938E+03  0.29668436409E+03  0.12499651318E+03 0.  0.
          4    1    3    3  501    0 -0.39696510312E+01  0.53849903960E+02 -0.15034468078E+03  0.15975201478E+03  0.12700000000E+01 0.  1.
         -4    1    3    3    0  501  0.15282159163E+02 -0.67519270391E+02 -0.11813745860E+03  0.13693234931E+03  0.12700000000E+01 0.  1.
          2    1    1    2  502    0 -0.16017987188E+02  0.42237962890E+02  0.12470727320E+03  0.13263681771E+03  0.00000000000E+00 0. -1.
          1    1    1    2  503    0  0.47054790558E+01 -0.28568596459E+02 -0.15490201587E+04  0.15492907275E+04  0.00000000000E+00 0. -1.
<mgrwt>
<rscale>  0 0.36007729E+02</rscale>
<asrwt>0</asrwt>
<pdfrwt beam="1">  1        2 0.21985917E-01 0.44780622E+02</pdfrwt>
<pdfrwt beam="2">  1        1 0.28241588E+00 0.28953519E+02</pdfrwt>
<totfact> 0.17915742E+02</totfact>
</mgrwt>
</event>
<event>
 7    1  0.3113151E-004  0.6081241E+02  0.7546771E-02  0.1503582E+00
         -1   -1    0    0    0  501  0.00000000000E+00  0.00000000000E+00  0.45263445192E+03  0.45263445192E+03  0.00000000000E+00 0.  1.
         -1   -1    0    0    0  502 -0.00000000000E+00 -0.00000000000E+00 -0.10916260184E+03  0.10916260184E+03  0.00000000000E+00 0.  1.
         25    2    1    2    0    0  0.28826888557E+02 -0.32628189924E+02  0.45665293829E+02  0.14001848900E+03  0.12499707964E+03 0.  0.
          4    1    3    3  503    0  0.34666330351E+02  0.17890011740E+02 -0.29731674696E+02  0.49065184809E+02  0.12700000000E+01 0.  1.
         -4    1    3    3    0  503 -0.58394417946E+01 -0.50518201664E+02  0.75396968525E+02  0.90953304188E+02  0.12700000000E+01 0.  1.
         -1    1    1    2    0  502  0.26678199132E+02  0.50601560161E+01 -0.56185179942E+02  0.62402771837E+02  0.00000000000E+00 0.  1.
         -1    1    1    2    0  501 -0.55505087688E+02  0.27568033908E+02  0.35399173619E+03  0.35937579293E+03  0.00000000000E+00 0.  1.
<mgrwt>
<rscale>  0 0.40636080E+02</rscale>
<asrwt>0</asrwt>
<pdfrwt beam="1">  1       -1 0.69636068E-01 0.60812410E+02</pdfrwt>
<pdfrwt beam="2">  1       -1 0.16794247E-01 0.27153848E+02</pdfrwt>
<totfact> 0.45464872E+02</totfact>
</mgrwt>
</event>
<event>
 7    1  0.3113151E-004  0.9196037E+02  0.7546771E-02  0.1322453E+00
          2   -1    0    0  502    0  0.00000000000E+00  0.00000000000E+00  0.27553695098E+03  0.27553695098E+03  0.00000000000E+00 0. -1.
          1   -1    0    0  503    0 -0.00000000000E+00 -0.00000000000E+00 -0.25881272310E+04  0.25881272310E+04  0.00000000000E+00 0. -1.
         25    2    1    2    0    0  0.11063452429E+03 -0.12216628617E+03 -0.75759549241E+03  0.78532823732E+03  0.12499964305E+03 0.  0.
          4    1    3    3  501    0  0.82455389984E+02 -0.14028958214E+03 -0.70016376165E+03  0.71882610151E+03  0.12700000000E+01 0.  1.
         -4    1    3    3    0  501  0.28179134310E+02  0.18123295979E+02 -0.57431730764E+02  0.66502135801E+02  0.12700000000E+01 0.  1.
          2    1    1    2  502    0 -0.63968339188E+02  0.65016449436E+02  0.25294714988E+03  0.26888909935E+03  0.00000000000E+00 0. -1.
          1    1    1    2  503    0 -0.46666185106E+02  0.57149836731E+02 -0.18079419375E+04  0.18094468453E+04  0.00000000000E+00 0. -1.
<mgrwt>
<rscale>  0 0.82371436E+02</rscale>
<asrwt>0</asrwt>
<pdfrwt beam="1">  1        2 0.42390301E-01 0.91960375E+02</pdfrwt>
<pdfrwt beam="2">  1        1 0.39817341E+00 0.73782360E+02</pdfrwt>
<totfact> 0.27254393E+01</totfact>
</mgrwt>
</event>
<event>
 7    1  0.3113151E-004  0.4513242E+02  0.7546771E-02  0.1486496E+00
          1   -1    0    0  502    0  0.00000000000E+00  0.00000000000E+00  0.37045401829E+02  0.37045401829E+02  0.00000000000E+00 0. -1.
          1   -1    0    0  503    0 -0.00000000000E+00 -0.00000000000E+00 -0.19745372392E+04  0.19745372392E+04  0.00000000000E+00 0. -1.
         25    2    1    2    0    0  0.24103468739E+02  0.40098894911E+02 -0.57312752309E+03  0.58846301528E+03  0.12499865619E+03 0.  0.
          4    1    3    3  501    0  0.51230446647E+02  0.66533759023E+02 -0.48945777583E+03  0.49661033716E+03  0.12700000000E+01 0. -1.
         -4    1    3    3    0  501 -0.27126977908E+02 -0.26434864112E+02 -0.83669747260E+02  0.91852678119E+02  0.12700000000E+01 0. -1.
          1    1    1    2  502    0 -0.45381944860E+02 -0.48439456368E+01  0.11155723019E+02  0.46983346887E+02  0.00000000000E+00 0. -1.
          1    1    1    2  503    0  0.21278476121E+02 -0.35254949274E+02 -0.13755200373E+04  0.13761362788E+04  0.00000000000E+00 0. -1.
<mgrwt>
<rscale>  0 0.43110258E+02</rscale>
<asrwt>0</asrwt>
<pdfrwt beam="1">  1        1 0.56992921E-02 0.45132424E+02</pdfrwt>
<pdfrwt beam="2">  1        1 0.30377499E+00 0.41178696E+02</pdfrwt>
<totfact> 0.62604945E+02</totfact>
</mgrwt>
</event>
<event>
 7    1  0.3113151E-004  0.5793044E+02  0.7546771E-02  0.1486455E+00
          1   -1    0    0  503    0 -0.00000000000E+00  0.00000000000E+00  0.26434885633E+04  0.26434885633E+04  0.00000000000E+00 0. -1.
          2   -1    0    0  502    0  0.00000000000E+00 -0.00000000000E+00 -0.12284589117E+04  0.12284589117E+04  0.00000000000E+00 0. -1.
         25    2    1    2    0    0 -0.63520948413E+02  0.59097722862E+02 -0.16090916121E+03  0.22147429407E+03  0.12502660931E+03 0.  0.
          4    1    3    3  501    0 -0.84961954063E+02  0.81162806493E+02 -0.10470245457E+03  0.15738536046E+03  0.12700000000E+01 0. -1.
         -4    1    3    3    0  501  0.21441005650E+02 -0.22065083630E+02 -0.56206706639E+02  0.64088933601E+02  0.12700000000E+01 0. -1.
          2    1    1    2  502    0  0.14217141725E+02 -0.28769514885E+02 -0.10366983224E+04  0.10371948823E+04  0.00000000000E+00 0. -1.
          1    1    1    2  503    0  0.49303806688E+02 -0.30328207978E+02  0.26126371353E+04  0.26132782986E+04  0.00000000000E+00 0. -1.
<mgrwt>
<rscale>  0 0.43116443E+02</rscale>
<asrwt>0</asrwt>
<pdfrwt beam="2">  1        2 0.18899368E+00 0.32090686E+02</pdfrwt>
<pdfrwt beam="1">  1        1 0.40669055E+00 0.57930444E+02</pdfrwt>
<totfact> 0.49052568E+00</totfact>
</mgrwt>
</event>
<event>
 7    1  0.5110736E-004  0.8364608E+02  0.7546771E-02  0.1364407E+00
         -1   -1    0    0    0  501 -0.00000000000E+00  0.00000000000E+00  0.87833484679E+02  0.87833484679E+02  0.00000000000E+00 0.  1.
          2   -1    0    0  503    0  0.00000000000E+00 -0.00000000000E+00 -0.33043805986E+03  0.33043805986E+03  0.00000000000E+00 0. -1.
         25    2    1    2    0    0 -0.39606926841E+02 -0.11903459004E+03 -0.19116947605E+03  0.26059334420E+03  0.12500072075E+03 0.  0.
          4    1    3    3  502    0 -0.50619049802E+02 -0.81847064402E+02 -0.19895894661E+03  0.22101471781E+03  0.12700000000E+01 0.  1.
         -4    1    3    3    0  502  0.11012122961E+02 -0.37187525642E+02  0.77894705562E+01  0.39578626391E+02  0.12700000000E+01 0.  1.
          2    1    1    2  503    0  0.38467659099E+02  0.41384503560E+02 -0.56435874383E+02  0.79858912144E+02  0.00000000000E+00 0. -1.
         -1    1    1    2    0  501  0.11392677416E+01  0.77650086483E+02  0.50007752523E+01  0.77819288194E+02  0.00000000000E+00 0.  1.
<mgrwt>
<rscale>  0 0.68746948E+02</rscale>
<asrwt>0</asrwt>
<pdfrwt beam="2">  1        2 0.50836624E-01 0.56501663E+02</pdfrwt>
<pdfrwt beam="1">  1       -1 0.13512844E-01 0.83646084E+02</pdfrwt>
<totfact> 0.39915664E+03</totfact>
</mgrwt>
</event>
<event>
 7    1  0.3113151E-004  0.6217737E+02  0.7546771E-02  0.1545699E+00
          2   -1    0    0  503    0  0.00000000000E+00  0.00000000000E+00  0.27423784916E+03  0.27423784916E+03  0.00000000000E+00 0. -1.
         -1   -1    0    0    0  501 -0.00000000000E+00 -0.00000000000E+00 -0.57709906527E+02  0.57709906527E+02  0.00000000000E+00 0.  1.
         25    2    1    2    0    0  0.48847557668E+02 -0.50533267798E+02  0.13425961639E+03  0.19644326072E+03  0.12499846016E+03 0.  0.
          4    1    3    3  502    0  0.55193064085E+02 -0.87685929234E+02  0.82758789888E+02  0.13261118623E+03  0.12700000000E+01 0. -1.
         -4    1    3    3    0  502 -0.63455064164E+01  0.37152661436E+02  0.51500826504E+02  0.63832074492E+02  0.12700000000E+01 0. -1.
          2    1    1    2  503    0 -0.28930583171E+02  0.53037541362E+02  0.94379583657E+02  0.11206009659E+03  0.00000000000E+00 0. -1.
         -1    1    1    2    0  501 -0.19916974497E+02 -0.25042735636E+01 -0.12111257416E+02  0.23444398380E+02  0.00000000000E+00 0.  1.
<mgrwt>
<rscale>  0 0.35328966E+02</rscale>
<asrwt>0</asrwt>
<pdfrwt beam="1">  1        2 0.42190438E-01 0.62177371E+02</pdfrwt>
<pdfrwt beam="2">  1       -1 0.88784473E-02 0.20073795E+02</pdfrwt>
<totfact> 0.80121363E+03</totfact>
</mgrwt>
</event>
<event>
 7    1  0.3113151E-004  0.4301149E+02  0.7546771E-02  0.1510034E+00
          1   -1    0    0  503    0  0.00000000000E+00  0.00000000000E+00  0.59958524524E+02  0.59958524524E+02  0.00000000000E+00 0. -1.
         -2   -1    0    0    0  501 -0.00000000000E+00 -0.00000000000E+00 -0.20134149045E+03  0.20134149045E+03  0.00000000000E+00 0.  1.
         25    2    1    2    0    0 -0.30111713145E+02  0.21145892411E+02 -0.69922677831E+02  0.14787748312E+03  0.12499882042E+03 0.  0.
          4    1    3    3  502    0 -0.43621246963E+01 -0.40231166416E+02  0.12083561473E+02  0.42251630038E+02  0.12700000000E+01 0. -1.
         -4    1    3    3    0  502 -0.25749588449E+02  0.61377058827E+02 -0.82006239304E+02  0.10562585309E+03  0.12700000000E+01 0. -1.
          1    1    1    2  503    0  0.26403831814E+02  0.25550450054E+02 -0.14075140159E+02  0.39345868944E+02  0.00000000000E+00 0. -1.
         -2    1    1    2    0  501  0.37078813307E+01 -0.46696342465E+02 -0.57385147934E+02  0.74076662904E+02  0.00000000000E+00 0.  1.
<mgrwt>
<rscale>  0 0.39753439E+02</rscale>
<asrwt>0</asrwt>
<pdfrwt beam="1">  1        1 0.92243885E-02 0.36742181E+02</pdfrwt>
<pdfrwt beam="2">  1       -2 0.30975614E-01 0.43011490E+02</pdfrwt>
<totfact> 0.50801482E+03</totfact>
</mgrwt>
</event>
<event>
 7    1  0.3113151E-004  0.9519376E+02  0.7546771E-02  0.1356516E+00
          1   -1    0    0  503    0  0.00000000000E+00  0.00000000000E+00  0.17665787256E+03  0.17665787256E+03  0.00000000000E+00 0. -1.
          1   -1    0    0  502    0 -0.00000000000E+00 -0.00000000000E+00 -0.31737726943E+03  0.31737726943E+03  0.00000000000E+00 0. -1.
         25    2    1    2    0    0 -0.92807884432E+02 -0.59803162011E+02 -0.65270965878E+02  0.17909533004E+03  0.12500046663E+03 0.  0.
          4    1    3    3  501    0 -0.11330515580E+03 -0.72784592028E+02 -0.73522696086E+02  0.15343681079E+03  0.12700000000E+01 0.  1.
         -4    1    3    3    0  501  0.20497271364E+02  0.12981430018E+02  0.82517302082E+01  0.25658519250E+02  0.12700000000E+01 0.  1.
          1    1    1    2  502    0  0.45039131563E+02  0.82875381458E+02 -0.17688877807E+03  0.20046568791E+03  0.00000000000E+00 0. -1.
          1    1    1    2  503    0  0.47768752869E+02 -0.23072219447E+02  0.10144034707E+03  0.11447412404E+03  0.00000000000E+00 0. -1.
<mgrwt>
<rscale>  0 0.71062787E+02</rscale>
<asrwt>0</asrwt>
<pdfrwt beam="1">  1        1 0.27178134E-01 0.53048855E+02</pdfrwt>
<pdfrwt beam="2">  1        1 0.48827272E-01 0.95193755E+02</pdfrwt>
<totfact> 0.16183353E+03</totfact>
</mgrwt>
</event>
<event>
 7    1  0.3113151E-004  0.7253752E+02  0.7546771E-02  0.1422278E+00
          3   -1    0    0  503    0 -0.00000000000E+00  0.00000000000E+00  0.19498814956E+04  0.19498814956E+04  0.00000000000E+00 0. -1.
          2   -1    0    0  502    0  0.00000000000E+00 -0.00000000000E+00 -0.91058635329E+03  0.91058635329E+03  0.00000000000E+00 0. -1.
         25    2    1    2    0    0  0.60865666176E+02 -0.22938387658E+02 -0.58038616295E+00  0.14091153245E+03  0.12499969672E+03 0.  0.
          4    1    3    3  501    0  0.68631339085E+02  0.33188627273E+02 -0.23487934876E+02  0.79781211257E+02  0.12700000000E+01 0.  1.
         -4    1    3    3    0  501 -0.77656729092E+01 -0.56127014931E+02  0.22907548713E+02  0.61130321190E+02  0.12700000000E+01 0.  1.
          2    1    1    2  502    0 -0.70991522957E+02 -0.16802520886E+02 -0.83803183010E+03  0.84120120619E+03  0.00000000000E+00 0. -1.
          3    1    1    2  503    0  0.10125856781E+02  0.39740908544E+02  0.18779073586E+04  0.18783551103E+04  0.00000000000E+00 0. -1.
<mgrwt>
<rscale>  0 0.54541823E+02</rscale>
<asrwt>0</asrwt>
<pdfrwt beam="2">  1        2 0.14009021E+00 0.72537523E+02</pdfrwt>
<pdfrwt beam="1">  1        3 0.29998177E+00 0.41010642E+02</pdfrwt>
<totfact> 0.10103217E+00</totfact>
</mgrwt>
</event>
<event>
 7    1  0.3113151E-004  0.9899596E+02  0.7546771E-02  0.1400427E+00
          1   -1    0    0  503    0 -0.00000000000E+00  0.00000000000E+00  0.26798848512E+03  0.26798848512E+03  0.00000000000E+00 0. -1.
          2   -1    0    0  502    0  0.00000000000E+00 -0.00000000000E+00 -0.12560421766E+03  0.12560421766E+03  0.00000000000E+00 0.  1.
         25    2    1    2    0    0  0.47085338577E+02 -0.51627505806E+02  0.71310816061E+01  0.14338252076E+03  0.12500106588E+03 0.  0.
          4    1    3    3  501    0  0.88864415659E+02 -0.20863149576E+02  0.55824077131E+01  0.91459999763E+02  0.12700000000E+01 0. -1.
         -4    1    3    3    0  501 -0.41779077082E+02 -0.30764356230E+02  0.15486738930E+01  0.51922520999E+02  0.12700000000E+01 0. -1.
          2    1    1    2  502    0  0.26185377751E+02 -0.24154570121E+02 -0.35016131536E+02  0.49952444719E+02  0.00000000000E+00 0.  1.
          1    1    1    2  503    0 -0.73270716328E+02  0.75782075928E+02  0.17026931739E+03  0.20025773730E+03  0.00000000000E+00 0. -1.
<mgrwt>
<rscale>  0 0.59386012E+02</rscale>
<asrwt>0</asrwt>
<pdfrwt beam="2">  1        2 0.19323726E-01 0.35624672E+02</pdfrwt>
<pdfrwt beam="1">  1        1 0.41228998E-01 0.98995955E+02</pdfrwt>
<totfact> 0.36322435E+03</totfact>
</mgrwt>
</event>
<event>
 7    1  0.3113151E-004  0.6648206E+02  0.7546771E-02  0.1448994E+00
          2   -1    0    0  503    0  0.00000000000E+00  0.00000000000E+00  0.53704901166E+03  0.53704901166E+03  0.00000000000E+00 0. -1.
         -2   -1    0    0    0  501 -0.00000000000E+00 -0.00000000000E+00 -0.49740542021E+02  0.49740542021E+02  0.00000000000E+00 0. -1.
         25    2    1    2    0    0 -0.63650676831E+02 -0.31211326023E+02  0.74452777132E+02  0.16184564825E+03  0.12500096920E+03 0.  0.
          4    1    3    3  502    0 -0.78068404905E+02  0.12859935880E+02  0.83001489600E+02  0.11467743445E+03  0.12700000000E+01 0.  1.
         -4    1    3    3    0  502  0.14417728074E+02 -0.44071261903E+02 -0.85487124686E+01  0.47168213803E+02  0.12700000000E+01 0.  1.
          2    1    1    2  503    0  0.29064534540E+02 -0.22247171404E+02  0.16845968867E+03  0.17239011140E+03  0.00000000000E+00 0. -1.
         -2    1    1    2    0  501  0.34586142291E+02  0.53458497426E+02  0.24439600384E+03  0.25255379403E+03  0.00000000000E+00 0. -1.
<mgrwt>
<rscale>  0 0.49329056E+02</rscale>
<asrwt>0</asrwt>
<pdfrwt beam="1">  1        2 0.82622921E-01 0.36601691E+02</pdfrwt>
<pdfrwt beam="2">  1       -2 0.76523915E-02 0.66482058E+02</pdfrwt>
<totfact> 0.54117636E+03</totfact>
</mgrwt>
</event>
<event>
 7    1  0.3113151E-004  0.6456741E+02  0.7546771E-02  0.1391181E+00
          3   -1    0    0  503    0 -0.00000000000E+00  0.00000000000E+00  0.64943878801E+02  0.64943878801E+02  0.00000000000E+00 0. -1.
          2   -1    0    0  502    0  0.00000000000E+00 -0.00000000000E+00 -0.71718699442E+03  0.71718699442E+03  0.00000000000E+00 0. -1.
         25    2    1    2    0    0 -0.13593765133E+02  0.10494852477E+03 -0.10587746885E+03  0.19503765501E+03  0.12502265858E+03 0.  0.
          4    1    3    3  501    0 -0.50751039329E+02 -0.17031707707E+01 -0.35214109782E+02  0.61807889556E+02  0.12700000000E+01 0. -1.
         -4    1    3    3    0  501  0.37157274196E+02  0.10665169554E+03 -0.70663359066E+02  0.13322976545E+03  0.12700000000E+01 0. -1.
          2    1    1    2  502    0 -0.23047318552E+02 -0.58966751093E+02 -0.51792540252E+03  0.52178058531E+03  0.00000000000E+00 0. -1.
          3    1    1    2  503    0  0.36641083685E+02 -0.45981773679E+02 -0.28440244251E+02  0.65312632908E+02  0.00000000000E+00 0. -1.
<mgrwt>
<rscale>  0 0.61613822E+02</rscale>
<asrwt>0</asrwt>
<pdfrwt beam="2">  1        2 0.11033645E+00 0.64567408E+02</pdfrwt>
<pdfrwt beam="1">  1        3 0.99913666E-02 0.58795344E+02</pdfrwt>
<totfact> 0.16827279E+03</totfact>
</mgrwt>
</event>
<event>
 7    1  0.3113151E-004  0.3690827E+02  0.7546771E-02  0.1576701E+00
          2   -1    0    0  503    0  0.00000000000E+00  0.00000000000E+00  0.62734557374E+02  0.62734557374E+02  0.00000000000E+00 0. -1.
          2   -1    0    0  502    0 -0.00000000000E+00 -0.00000000000E+00 -0.30279875425E+03  0.30279875425E+03  0.00000000000E+00 0. -1.
         25    2    1    2    0    0  0.19051280503E+02  0.10895390972E+02 -0.24288796533E+03  0.27404687442E+03  0.12500185935E+03 0.  0.
          4    1    3    3  501    0 -0.42544747201E+02  0.81409700647E+01 -0.30776532227E+02  0.53152034240E+02  0.12700000000E+01 0.  1.
         -4    1    3    3    0  501  0.61596027704E+02  0.27544209077E+01 -0.21211143310E+03  0.22089484018E+03  0.12700000000E+01 0.  1.
          2    1    1    2  502    0 -0.31142118144E+02  0.23976256419E+02 -0.23827766836E+02  0.45961449789E+02  0.00000000000E+00 0. -1.
          2    1    1    2  503    0  0.12090837641E+02 -0.34871647391E+02  0.26651535286E+02  0.45524987421E+02  0.00000000000E+00 0. -1.
<mgrwt>
<rscale>  0 0.32027475E+02</rscale>
<asrwt>0</asrwt>
<pdfrwt beam="1">  1        2 0.96514706E-02 0.36908267E+02</pdfrwt>
<pdfrwt beam="2">  1        2 0.46584423E-01 0.27792125E+02</pdfrwt>
<totfact> 0.95764400E+03</totfact>
</mgrwt>
</event>
<event>
 7    1  0.3113151E-004  0.1923106E+03  0.7546771E-02  0.1200438E+00
          1   -1    0    0  503    0  0.00000000000E+00  0.00000000000E+00  0.20918763519E+04  0.20918763519E+04  0.00000000000E+00 0. -1.
          1   -1    0    0  502    0 -0.00000000000E+00 -0.00000000000E+00 -0.52057306991E+03  0.52057306991E+03  0.00000000000E+00 0. -1.
         25    2    1    2    0    0 -0.10635077843E+03 -0.22376854191E+03  0.24882104866E+02  0.27861582405E+03  0.12499923939E+03 0.  0.
          4    1    3    3  501    0 -0.35806183295E+02 -0.16881255766E+03 -0.27832490927E+02  0.17480281130E+03  0.12700000000E+01 0. -1.
         -4    1    3    3    0  501 -0.70544595131E+02 -0.54955984251E+02  0.52714595793E+02  0.10381301275E+03  0.12700000000E+01 0. -1.
          1    1    1    2  502    0  0.11239911607E+03  0.32642411840E+02 -0.38016830077E+03  0.39777760778E+03  0.00000000000E+00 0. -1.
          1    1    1    2  503    0 -0.60483376402E+01  0.19112613007E+03  0.19265894779E+04  0.19360559900E+04  0.00000000000E+00 0. -1.
<mgrwt>
<rscale>  0 0.15002878E+03</rscale>
<asrwt>0</asrwt>
<pdfrwt beam="1">  1        1 0.32182713E+00 0.19231064E+03</pdfrwt>
<pdfrwt beam="2">  1        1 0.80088166E-01 0.11704310E+03</pdfrwt>
<totfact> 0.16153976E+01</totfact>
</mgrwt>
</event>
<event>
 7    1  0.3113151E-004  0.7643550E+02  0.7546771E-02  0.1387518E+00
          2   -1    0    0  502    0  0.00000000000E+00  0.00000000000E+00  0.18377352050E+04  0.18377352050E+04  0.00000000000E+00 0. -1.
          1   -1    0    0  503    0 -0.00000000000E+00 -0.00000000000E+00 -0.67601327963E+02  0.67601327963E+02  0.00000000000E+00 0. -1.
         25    2    1    2    0    0  0.22480032243E+02 -0.18754868675E+02  0.19898944351E+03  0.23681103970E+03  0.12500229177E+03 0.  0.
          4    1    3    3  501    0  0.80712392247E+01  0.42260109913E+02  0.15329215179E+03  0.15922047134E+03  0.12700000000E+01 0.  1.
         -4    1    3    3    0  501  0.14408793018E+02 -0.61014978588E+02  0.45697291717E+02  0.77590568361E+02  0.12700000000E+01 0.  1.
          2    1    1    2  502    0 -0.71502956473E+02  0.33357133302E+02  0.16051589743E+04  0.16070969803E+04  0.00000000000E+00 0. -1.
          1    1    1    2  503    0  0.49022924231E+02 -0.14602264627E+02 -0.34014540749E+02  0.61428513044E+02  0.00000000000E+00 0. -1.
<mgrwt>
<rscale>  0 0.62528303E+02</rscale>
<asrwt>0</asrwt>
<pdfrwt beam="1">  1        2 0.28272846E+00 0.76435504E+02</pdfrwt>
<pdfrwt beam="2">  1        1 0.10400206E-01 0.51151473E+02</pdfrwt>
<totfact> 0.76454724E+02</totfact>
</mgrwt>
</event>
<event>
 7    1  0.3113151E-004  0.8141014E+02  0.7546771E-02  0.1346763E+00
          1   -1    0    0  503    0  0.00000000000E+00  0.00000000000E+00  0.24689565051E+03  0.24689565051E+03  0.00000000000E+00 0. -1.
         -3   -1    0    0    0  501 -0.00000000000E+00 -0.00000000000E+00 -0.18896345215E+03  0.18896345215E+03  0.00000000000E+00 0.  1.
         25    2    1    2    0    0 -0.14909507574E+02 -0.50937035627E+01  0.72753109981E+02  0.14546210613E+03  0.12497187714E+03 0.  0.
          4    1    3    3  502    0 -0.14171214286E+02 -0.36869800743E+02 -0.22195831867E+02  0.45326298916E+02  0.12700000000E+01 0.  1.
         -4    1    3    3    0  502 -0.73829328793E+00  0.31776097180E+02  0.94948941847E+02  0.10013580722E+03  0.12700000000E+01 0.  1.
          1    1    1    2  503    0  0.53116987241E+02  0.76981111075E+02  0.10811086036E+03  0.14295266323E+03  0.00000000000E+00 0. -1.
         -3    1    1    2    0  501 -0.38207479668E+02 -0.71887407513E+02 -0.12293177198E+03  0.14744433330E+03  0.00000000000E+00 0.  1.
<mgrwt>
<rscale>  0 0.74073955E+02</rscale>
<asrwt>0</asrwt>
<pdfrwt beam="1">  1        1 0.37983946E-01 0.67398862E+02</pdfrwt>
<pdfrwt beam="2">  1       -3 0.29071300E-01 0.81410140E+02</pdfrwt>
<totfact> 0.64176493E+02</totfact>
</mgrwt>
</event>
<event>
 7    1  0.3113151E-004  0.1516971E+03  0.7546771E-02  0.1260570E+00
          1   -1    0    0  502    0  0.00000000000E+00  0.00000000000E+00  0.12355797410E+04  0.12355797410E+04  0.00000000000E+00 0. -1.
          1   -1    0    0  503    0 -0.00000000000E+00 -0.00000000000E+00 -0.81180816142E+03  0.81180816142E+03  0.00000000000E+00 0. -1.
         25    2    1    2    0    0 -0.13978507904E+03  0.70401898278E+02 -0.15154437042E+03  0.25116890097E+03  0.12499529992E+03 0.  0.
          4    1    3    3  501    0 -0.33567317354E+02  0.12196676084E+01 -0.11415719159E+03  0.11900306583E+03  0.12700000000E+01 0. -1.
         -4    1    3    3    0  501 -0.10621776168E+03  0.69182230670E+02 -0.37387178829E+02  0.13216583514E+03  0.12700000000E+01 0. -1.
          1    1    1    2  502    0 -0.14155209707E+02 -0.78498043524E+02  0.11746615533E+04  0.11773665859E+04  0.00000000000E+00 0. -1.
          1    1    1    2  503    0  0.15394028874E+03  0.80961452457E+01 -0.59934560328E+03  0.61885241556E+03  0.00000000000E+00 0. -1.
<mgrwt>
<rscale>  0 0.10999993E+03</rscale>
<asrwt>0</asrwt>
<pdfrwt beam="1">  1        1 0.19008919E+00 0.79764107E+02</pdfrwt>
<pdfrwt beam="2">  1        1 0.12489356E+00 0.15169710E+03</pdfrwt>
<totfact> 0.33340057E+01</totfact>
</mgrwt>
</event>
<event>
 7    1  0.3113151E-004  0.8958902E+02  0.7546771E-02  0.1390840E+00
          1   -1    0    0  503    0  0.00000000000E+00  0.00000000000E+00  0.25146692769E+04  0.25146692769E+04  0.00000000000E+00 0. -1.
          1   -1    0    0  502    0 -0.00000000000E+00 -0.00000000000E+00 -0.53899223533E+02  0.53899223533E+02  0.00000000000E+00 0. -1.
         25    2    1    2    0    0  0.80561713667E+02 -0.65252940546E+02  0.37062215629E+03  0.40464106768E+03  0.12500189984E+03 0.  0.
          4    1    3    3  501    0  0.84632483052E+02 -0.82451823860E+01  0.11691525681E+03  0.14457326999E+03  0.12700000000E+01 0.  1.
         -4    1    3    3    0  501 -0.40707693847E+01 -0.57007758160E+02  0.25370689948E+03  0.26006779770E+03  0.12700000000E+01 0.  1.
          1    1    1    2  502    0 -0.40017030574E+02 -0.14285076671E+02 -0.23391422173E+02  0.48503451246E+02  0.00000000000E+00 0. -1.
          1    1    1    2  503    0 -0.40544683093E+02  0.79538017218E+02  0.21135393192E+04  0.21154239815E+04  0.00000000000E+00 0. -1.
<mgrwt>
<rscale>  0 0.61698177E+02</rscale>
<asrwt>0</asrwt>
<pdfrwt beam="1">  1        1 0.38687210E+00 0.89589024E+02</pdfrwt>
<pdfrwt beam="2">  1        1 0.82921902E-02 0.42490307E+02</pdfrwt>
<totfact> 0.15715767E+02</totfact>
</mgrwt>
</event>
<event>
 7    1  0.3113151E-004  0.4892994E+02  0.7546771E-02  0.1461352E+00
         -2   -1    0    0    0  501 -0.00000000000E+00  0.00000000000E+00  0.13167140886E+03  0.13167140886E+03  0.00000000000E+00 0.  1.
          1   -1    0    0  503    0  0.00000000000E+00 -0.00000000000E+00 -0.11302783561E+03  0.11302783561E+03  0.00000000000E+00 0. -1.
         25    2    1    2    0    0 -0.36092025992E+02 -0.42100160980E+02 -0.23252693459E+02  0.13871340025E+03  0.12500264702E+03 0.  0.
          4    1    3    3  502    0 -0.43134792315E+01  0.34527643160E+02  0.24881539604E+02  0.42795655835E+02  0.12700000000E+01 0.  1.
         -4    1    3    3    0  502 -0.31778546760E+02 -0.76627804140E+02 -0.48134233063E+02  0.95917744417E+02  0.12700000000E+01 0.  1.
          1    1    1    2  503    0 -0.15142082405E+02  0.42836397140E+02  0.25949866863E+02  0.52322415557E+02  0.00000000000E+00 0. -1.
         -2    1    1    2    0  501  0.51234108397E+02 -0.73623616013E+00  0.15946399846E+02  0.53663428655E+02  0.00000000000E+00 0.  1.
<mgrwt>
<rscale>  0 0.47149529E+02</rscale>
<asrwt>0</asrwt>
<pdfrwt beam="2">  1        1 0.17388898E-01 0.45433903E+02</pdfrwt>
<pdfrwt beam="1">  1       -2 0.20257140E-01 0.48929938E+02</pdfrwt>
<totfact> 0.48157335E+03</totfact>
</mgrwt>
</event>
<event>
 7    1  0.3113151E-004  0.1774178E+03  0.7546771E-02  0.1304023E+00
          2   -1    0    0  503    0  0.00000000000E+00  0.00000000000E+00  0.16019081637E+04  0.16019081637E+04  0.00000000000E+00 0.  1.
         -1   -1    0    0    0  501 -0.00000000000E+00 -0.00000000000E+00 -0.43809079581E+02  0.43809079581E+02  0.00000000000E+00 0.  1.
         25    2    1    2    0    0 -0.54456692674E+02  0.15692993741E+03  0.76585899782E+03  0.79356629037E+03  0.12495965764E+03 0.  0.
          4    1    3    3  502    0 -0.78549655478E+02  0.85475219563E+02  0.60324727160E+03  0.61431664891E+03  0.12700000000E+01 0.  1.
         -4    1    3    3    0  502  0.24092962804E+02  0.71454717851E+02  0.16261172622E+03  0.17924964147E+03  0.12700000000E+01 0.  1.
          2    1    1    2  503    0  0.99516285664E+02 -0.16004979850E+03  0.78387800175E+03  0.80621594547E+03  0.00000000000E+00 0.  1.
         -1    1    1    2    0  501 -0.45059592990E+02  0.31198610878E+01  0.83620845987E+01  0.45935007483E+02  0.00000000000E+00 0.  1.
<mgrwt>
<rscale>  0 0.89518223E+02</rscale>
<asrwt>0</asrwt>
<pdfrwt beam="1">  1        2 0.24644736E+00 0.17741777E+03</pdfrwt>
<pdfrwt beam="2">  1       -1 0.67398597E-02 0.45167471E+02</pdfrwt>
<totfact> 0.13744338E+03</totfact>
</mgrwt>
</event>
<event>
 7    1  0.3113151E-004  0.1101803E+03  0.7546771E-02  0.1310341E+00
          2   -1    0    0  502    0  0.00000000000E+00  0.00000000000E+00  0.22507966943E+04  0.22507966943E+04  0.00000000000E+00 0. -1.
          1   -1    0    0  503    0 -0.00000000000E+00 -0.00000000000E+00 -0.46634258724E+02  0.46634258724E+02  0.00000000000E+00 0. -1.
         25    2    1    2    0    0  0.46836771530E+02  0.22223440755E+02  0.32710705428E+03  0.35399387655E+03  0.12500030076E+03 0.  0.
          4    1    3    3  501    0  0.58024269453E+02 -0.35111004495E+02  0.23768516996E+03  0.24717494088E+03  0.12700000000E+01 0. -1.
         -4    1    3    3    0  501 -0.11187497923E+02  0.57334445250E+02  0.89421884318E+02  0.10681893567E+03  0.12700000000E+01 0. -1.
          2    1    1    2  502    0 -0.11532498758E+03 -0.27088361399E+02  0.18707393280E+04  0.18744864005E+04  0.00000000000E+00 0. -1.
          1    1    1    2  503    0  0.68488216045E+02  0.48649206442E+01  0.63160532407E+01  0.68950675983E+02  0.00000000000E+00 0. -1.
<mgrwt>
<rscale>  0 0.86977381E+02</rscale>
<asrwt>0</asrwt>
<pdfrwt beam="1">  1        2 0.34627633E+00 0.11018029E+03</pdfrwt>
<pdfrwt beam="2">  1        1 0.71745031E-02 0.68660783E+02</pdfrwt>
<totfact> 0.75326638E+02</totfact>
</mgrwt>
</event>
<event>
 7    1  0.3113151E-004  0.2066171E+03  0.7546771E-02  0.1228568E+00
          1   -1    0    0  503    0  0.00000000000E+00  0.00000000000E+00  0.33826122383E+04  0.33826122383E+04  0.00000000000E+00 0. -1.
          1   -1    0    0  502    0 -0.00000000000E+00 -0.00000000000E+00 -0.45138118911E+03  0.45138118911E+03  0.00000000000E+00 0. -1.
         25    2    1    2    0    0 -0.26875688739E+02  0.27800391959E+03  0.15604830769E+03  0.34348962308E+03  0.12500225948E+03 0.  0.
          4    1    3    3  501    0 -0.75524650879E+02  0.18378185435E+03  0.86773135465E+02  0.21682004709E+03  0.12700000000E+01 0. -1.
         -4    1    3    3    0  501  0.48648962140E+02  0.94222065233E+02  0.69275172228E+02  0.12666957599E+03  0.12700000000E+01 0. -1.
          1    1    1    2  502    0  0.23178036176E+02 -0.19723189888E+03 -0.32952715809E+03  0.38474120031E+03  0.00000000000E+00 0. -1.
          1    1    1    2  503    0  0.36976525628E+01 -0.80772020706E+02  0.31047098996E+04  0.31057626040E+04  0.00000000000E+00 0. -1.
<mgrwt>
<rscale>  0 0.12925309E+03</rscale>
<asrwt>0</asrwt>
<pdfrwt beam="1">  1        1 0.52040187E+00 0.80856614E+02</pdfrwt>
<pdfrwt beam="2">  1        1 0.69443262E-01 0.20661711E+03</pdfrwt>
<totfact> 0.30006036E+00</totfact>
</mgrwt>
</event>
<event>
 7    1  0.3113151E-004  0.9493723E+02  0.7546771E-02  0.1418071E+00
         -1   -1    0    0    0  501 -0.00000000000E+00  0.00000000000E+00  0.14221394152E+04  0.14221394152E+04  0.00000000000E+00 0.  1.
          2   -1    0    0  503    0  0.00000000000E+00 -0.00000000000E+00 -0.15826976596E+02  0.15826976596E+02  0.00000000000E+00 0. -1.
         25    2    1    2    0    0 -0.53924097315E+02  0.92811140599E+02  0.73423844679E+03  0.75249693969E+03  0.12499532554E+03 0.  0.
          4    1    3    3  502    0  0.19606412550E+02 -0.15920050802E+02  0.23251456226E+03  0.23388564298E+03  0.12700000000E+01 0.  1.
         -4    1    3    3    0  502 -0.73530509865E+02  0.10873119140E+03  0.50172388453E+03  0.51861129671E+03  0.12700000000E+01 0.  1.
          2    1    1    2  503    0 -0.12322417106E+02 -0.29927078203E+02  0.78519983250E+02  0.84928556697E+02  0.00000000000E+00 0. -1.
         -1    1    1    2    0  501  0.66246514421E+02 -0.62884062395E+02  0.59355400859E+03  0.60054089543E+03  0.00000000000E+00 0.  1.
<mgrwt>
<rscale>  0 0.55431148E+02</rscale>
<asrwt>0</asrwt>
<pdfrwt beam="2">  1        2 0.24349206E-02 0.32364672E+02</pdfrwt>
<pdfrwt beam="1">  1       -1 0.21879058E+00 0.94937227E+02</pdfrwt>
<totfact> 0.50653318E+02</totfact>
</mgrwt>
</event>
<event>
 7    1  0.3113151E-004  0.1216923E+03  0.7546771E-02  0.1265995E+00
         -3   -1    0    0    0  501 -0.00000000000E+00  0.00000000000E+00  0.36934978754E+03  0.36934978754E+03  0.00000000000E+00 0. -1.
          1   -1    0    0  503    0  0.00000000000E+00 -0.00000000000E+00 -0.28161734980E+03  0.28161734980E+03  0.00000000000E+00 0. -1.
         25    2    1    2    0    0  0.66943270923E+02  0.11134220300E+02  0.81783784086E+01  0.14247849203E+03  0.12501144921E+03 0.  0.
          4    1    3    3  502    0 -0.31266971015E+02 -0.21775565174E+02 -0.32640019253E+01  0.38263106560E+02  0.12700000000E+01 0.  1.
         -4    1    3    3    0  502  0.98210241937E+02  0.32909785474E+02  0.11442380334E+02  0.10421538547E+03  0.12700000000E+01 0.  1.
          1    1    1    2  503    0  0.55153111488E+02 -0.76483327278E+02 -0.18625711576E+03  0.20876608496E+03  0.00000000000E+00 0. -1.
         -3    1    1    2    0  501 -0.12209638241E+03  0.65349106979E+02  0.26581117509E+03  0.29972256035E+03  0.00000000000E+00 0. -1.
<mgrwt>
<rscale>  0 0.10712139E+03</rscale>
<asrwt>0</asrwt>
<pdfrwt beam="2">  1        1 0.43325746E-01 0.94295096E+02</pdfrwt>
<pdfrwt beam="1">  1       -3 0.56823045E-01 0.12169234E+03</pdfrwt>
<totfact> 0.15503102E+02</totfact>
</mgrwt>
</event>
<event>
 7    1  0.3113151E-004  0.1081097E+03  0.7546771E-02  0.1389853E+00
          3   -1    0    0  503    0 -0.00000000000E+00  0.00000000000E+00  0.68598767200E+03  0.68598767200E+03  0.00000000000E+00 0. -1.
          2   -1    0    0  502    0  0.00000000000E+00 -0.00000000000E+00 -0.16804640841E+04  0.16804640841E+04  0.00000000000E+00 0. -1.
         25    2    1    2    0    0  0.75097709015E+01  0.13807710872E+03  0.88067100159E+02  0.20616441692E+03  0.12500507215E+03 0.  0.
          4    1    3    3  501    0  0.48750955145E+02  0.98135569708E+02  0.11115677297E+02  0.11014725077E+03  0.12700000000E+01 0. -1.
         -4    1    3    3    0  501 -0.41241184244E+02  0.39941539015E+02  0.76951422862E+02  0.96017166158E+02  0.12700000000E+01 0. -1.
          2    1    1    2  502    0 -0.21711386475E+02 -0.10555073021E+03 -0.16190379729E+04  0.16226201954E+04  0.00000000000E+00 0. -1.
          3    1    1    2  503    0  0.14201615574E+02 -0.32526378508E+02  0.53649446062E+03  0.53766714375E+03  0.00000000000E+00 0. -1.
<mgrwt>
<rscale>  0 0.61943367E+02</rscale>
<asrwt>0</asrwt>
<pdfrwt beam="2">  1        2 0.25853294E+00 0.10810965E+03</pdfrwt>
<pdfrwt beam="1">  1        3 0.10553657E+00 0.35491565E+02</pdfrwt>
<totfact> 0.56959195E+00</totfact>
</mgrwt>
</event>
<event>
 7    1  0.3113151E-004  0.9597241E+02  0.7546771E-02  0.1325072E+00
          1   -1    0    0  503    0 -0.00000000000E+00  0.00000000000E+00  0.18276095296E+04  0.18276095296E+04  0.00000000000E+00 0. -1.
          2   -1    0    0  502    0  0.00000000000E+00 -0.00000000000E+00 -0.10431522137E+04  0.10431522137E+04  0.00000000000E+00 0.  1.
         25    2    1    2    0    0 -0.51906635465E+02  0.14269525602E+03 -0.17526127626E+02  0.19745314197E+03  0.12499737287E+03 0.  0.
          4    1    3    3  501    0  0.11876475615E+02  0.11854464354E+03  0.18074461654E+02  0.12050801737E+03  0.12700000000E+01 0.  1.
         -4    1    3    3    0  501 -0.63783111081E+02  0.24150612480E+02 -0.35600589280E+02  0.76945124598E+02  0.12700000000E+01 0.  1.
          2    1    1    2  502    0  0.59078086646E+02 -0.73995759885E+02 -0.93257792526E+03  0.93737248705E+03  0.00000000000E+00 0.  1.
          1    1    1    2  503    0 -0.71714511804E+01 -0.68699496139E+02  0.17345613689E+04  0.17359361143E+04  0.00000000000E+00 0. -1.
<mgrwt>
<rscale>  0 0.81419174E+02</rscale>
<asrwt>0</asrwt>
<pdfrwt beam="2">  1        2 0.16048496E+00 0.95972406E+02</pdfrwt>
<pdfrwt beam="1">  1        1 0.28117070E+00 0.69072791E+02</pdfrwt>
<totfact> 0.18246328E+01</totfact>
</mgrwt>
</event>
<event>
 7    1  0.3113151E-004  0.8002638E+02  0.7546771E-02  0.1456253E+00
          1   -1    0    0  503    0 -0.00000000000E+00  0.00000000000E+00  0.42802318118E+02  0.42802318118E+02  0.00000000000E+00 0. -1.
          2   -1    0    0  502    0  0.00000000000E+00 -0.00000000000E+00 -0.34051651511E+04  0.34051651511E+04  0.00000000000E+00 0. -1.
         25    2    1    2    0    0  0.12118949088E+02 -0.73539877822E+02 -0.13259660947E+04  0.13339283382E+04  0.12499497862E+03 0.  0.
          4    1    3    3  501    0  0.16612805929E+02 -0.96197114067E+02 -0.12643328777E+04  0.12680966480E+04  0.12700000000E+01 0.  1.
         -4    1    3    3    0  501 -0.44938568409E+01  0.22657236244E+02 -0.61633216968E+02  0.65831690221E+02  0.12700000000E+01 0.  1.
          2    1    1    2  502    0  0.28518215339E+02  0.42237892168E+01 -0.20334301746E+04  0.20336345305E+04  0.00000000000E+00 0. -1.
          1    1    1    2  503    0 -0.40637164427E+02  0.69316088605E+02 -0.29665637185E+01  0.80404600444E+02  0.00000000000E+00 0. -1.
<mgrwt>
<rscale>  0 0.48032335E+02</rscale>
<asrwt>0</asrwt>
<pdfrwt beam="2">  1        2 0.52387156E+00 0.28829308E+02</pdfrwt>
<pdfrwt beam="1">  1        1 0.65849721E-02 0.80026382E+02</pdfrwt>
<totfact> 0.25126798E+02</totfact>
</mgrwt>
</event>
<event>
 7    1  0.3113151E-004  0.2019924E+03  0.7546771E-02  0.1204584E+00
          2   -1    0    0  503    0  0.00000000000E+00  0.00000000000E+00  0.24269157812E+04  0.24269157812E+04  0.00000000000E+00 0. -1.
         -1   -1    0    0    0  501 -0.00000000000E+00 -0.00000000000E+00 -0.35731615001E+03  0.35731615001E+03  0.00000000000E+00 0.  1.
         25    2    1    2    0    0 -0.98219791646E+02  0.11434218845E+03  0.70055711564E+02  0.20797352196E+03  0.12499567826E+03 0.  0.
          4    1    3    3  502    0 -0.49145532697E+02 -0.19612956278E+02  0.23398187449E+02  0.57870886583E+02  0.12700000000E+01 0.  1.
         -4    1    3    3    0  502 -0.49074258949E+02  0.13395514473E+03  0.46657524115E+02  0.15010263538E+03  0.12700000000E+01 0.  1.
          2    1    1    2  503    0  0.39236544959E+02  0.99059769116E+02  0.22439511221E+04  0.22464792415E+04  0.00000000000E+00 0. -1.
         -1    1    1    2    0  501  0.58983246687E+02 -0.21340195757E+03 -0.24440720243E+03  0.32977916775E+03  0.00000000000E+00 0.  1.
<mgrwt>
<rscale>  0 0.14670295E+03</rscale>
<asrwt>0</asrwt>
<pdfrwt beam="1">  1        2 0.37337165E+00 0.10654738E+03</pdfrwt>
<pdfrwt beam="2">  1       -1 0.54971717E-01 0.20199236E+03</pdfrwt>
<totfact> 0.19693961E+01</totfact>
</mgrwt>
</event>
<event>
 7    1  0.3113151E-004  0.1983286E+03  0.7546771E-02  0.1294118E+00
          2   -1    0    0  502    0  0.00000000000E+00  0.00000000000E+00  0.66703610577E+03  0.66703610577E+03  0.00000000000E+00 0. -1.
          2   -1    0    0  503    0 -0.00000000000E+00 -0.00000000000E+00 -0.23458905756E+03  0.23458905756E+03  0.00000000000E+00 0. -1.
         25    2    1    2    0    0  0.82519866951E+02 -0.15143979569E+03  0.11302799031E+03  0.24113116339E+03  0.12500148481E+03 0.  0.
          4    1    3    3  501    0  0.37250472176E+02 -0.37839098945E+02  0.10608626006E+03  0.11863938031E+03  0.12700000000E+01 0.  1.
         -4    1    3    3    0  501  0.45269394775E+02 -0.11360069674E+03  0.69417302519E+01  0.12249178308E+03  0.12700000000E+01 0.  1.
          2    1    1    2  502    0 -0.12412126170E+03  0.16658902661E+03  0.46448280911E+03  0.50882440129E+03  0.00000000000E+00 0. -1.
          2    1    1    2  503    0  0.41601394751E+02 -0.15149230924E+02 -0.14506375120E+03  0.15166959865E+03  0.00000000000E+00 0. -1.
<mgrwt>
<rscale>  0 0.93705788E+02</rscale>
<asrwt>0</asrwt>
<pdfrwt beam="1">  1        2 0.10262094E+00 0.19832862E+03</pdfrwt>
<pdfrwt beam="2">  1        2 0.36090625E-01 0.44273866E+02</pdfrwt>
<totfact> 0.96543068E+02</totfact>
</mgrwt>
</event>
<event>
 7    1  0.3113151E-004  0.5015952E+02  0.7546771E-02  0.1487867E+00
         -2   -1    0    0    0  501 -0.00000000000E+00  0.00000000000E+00  0.61181036301E+03  0.61181036301E+03  0.00000000000E+00 0.  1.
          2   -1    0    0  503    0  0.00000000000E+00 -0.00000000000E+00 -0.42838249185E+03  0.42838249185E+03  0.00000000000E+00 0.  1.
         25    2    1    2    0    0  0.71757295451E+02 -0.37577263617E+02  0.13553188991E+03  0.20138223426E+03  0.12499900359E+03 0.  0.
          4    1    3    3  502    0  0.96633476524E+02 -0.14333737968E+02  0.50927368135E+02  0.11017574395E+03  0.12700000000E+01 0. -1.
         -4    1    3    3    0  502 -0.24876181072E+02 -0.23243525649E+02  0.84604521776E+02  0.91206490308E+02  0.12700000000E+01 0. -1.
          2    1    1    2  503    0 -0.23679123485E+02  0.28036614185E+02 -0.39324563062E+03  0.39495427410E+03  0.00000000000E+00 0.  1.
         -2    1    1    2    0  501 -0.48078171966E+02  0.95406494317E+01  0.44114161188E+03  0.44385634651E+03  0.00000000000E+00 0.  1.
<mgrwt>
<rscale>  0 0.42904087E+02</rscale>
<asrwt>0</asrwt>
<pdfrwt beam="2">  1        2 0.65904999E-01 0.36698128E+02</pdfrwt>
<pdfrwt beam="1">  1       -2 0.94124670E-01 0.50159524E+02</pdfrwt>
<totfact> 0.78094838E+01</totfact>
</mgrwt>
</event>
<event>
 7    1  0.3113151E-004  0.1206970E+03  0.7546771E-02  0.1255834E+00
          2   -1    0    0  502    0  0.00000000000E+00  0.00000000000E+00  0.21336058319E+03  0.21336058319E+03  0.00000000000E+00 0. -1.
          1   -1    0    0  503    0 -0.00000000000E+00 -0.00000000000E+00 -0.10998031198E+04  0.10998031198E+04  0.00000000000E+00 0. -1.
         25    2    1    2    0    0  0.10369352045E+03 -0.12067822142E+02 -0.34970960728E+03  0.38577145719E+03  0.12499931696E+03 0.  0.
          4    1    3    3  501    0 -0.14490827412E+02  0.25464292309E+02 -0.26260698257E+02  0.39365612339E+02  0.12700000000E+01 0.  1.
         -4    1    3    3    0  501  0.11818434786E+03 -0.37532114451E+02 -0.32344890902E+03  0.34640584485E+03  0.12700000000E+01 0.  1.
          2    1    1    2  502    0 -0.83902423835E+02 -0.91092702839E+02  0.17142814540E+03  0.21148311108E+03  0.00000000000E+00 0. -1.
          1    1    1    2  503    0 -0.19791096612E+02  0.10316052498E+03 -0.70816107477E+03  0.71590913476E+03  0.00000000000E+00 0. -1.
<mgrwt>
<rscale>  0 0.11259765E+03</rscale>
<asrwt>0</asrwt>
<pdfrwt beam="1">  1        2 0.32824704E-01 0.12069699E+03</pdfrwt>
<pdfrwt beam="2">  1        1 0.16920048E+00 0.10504181E+03</pdfrwt>
<totfact> 0.30805953E+02</totfact>
</mgrwt>
</event>
<event>
 7    1  0.3113151E-004  0.1212619E+03  0.7546771E-02  0.1406918E+00
         -2   -1    0    0    0  501 -0.00000000000E+00  0.00000000000E+00  0.45905034207E+03  0.45905034207E+03  0.00000000000E+00 0.  1.
          2   -1    0    0  503    0  0.00000000000E+00 -0.00000000000E+00 -0.44791678397E+03  0.44791678397E+03  0.00000000000E+00 0. -1.
         25    2    1    2    0    0 -0.11114435150E+03  0.90537173337E+02  0.21005800142E+02  0.19135498154E+03  0.12500175476E+03 0.  0.
          4    1    3    3  502    0 -0.16905932304E+02  0.71182196079E+02  0.52565868152E+02  0.90097164108E+02  0.12700000000E+01 0. -1.
         -4    1    3    3    0  502 -0.94238419198E+02  0.19354977258E+02 -0.31560068011E+02  0.10125781743E+03  0.12700000000E+01 0. -1.
          2    1    1    2  503    0  0.26720526535E+02 -0.70459887171E+01 -0.35219742089E+03  0.35327985475E+03  0.00000000000E+00 0. -1.
         -2    1    1    2    0  501  0.84423824967E+02 -0.83491184620E+02  0.34232517885E+03  0.36233228976E+03  0.00000000000E+00 0.  1.
<mgrwt>
<rscale>  0 0.57887302E+02</rscale>
<asrwt>0</asrwt>
<pdfrwt beam="2">  1        2 0.68910275E-01 0.27633901E+02</pdfrwt>
<pdfrwt beam="1">  1       -2 0.70623129E-01 0.12126191E+03</pdfrwt>
<totfact> 0.13740353E+02</totfact>
</mgrwt>
</event>
<event>
 7    1  0.3113151E-004  0.9539840E+02  0.7546771E-02  0.1311748E+00
          2   -1    0    0  503    0  0.00000000000E+00  0.00000000000E+00  0.20344991733E+04  0.20344991733E+04  0.00000000000E+00 0.  1.
         -3   -1    0    0    0  501 -0.00000000000E+00 -0.00000000000E+00 -0.38771525962E+03  0.38771525962E+03  0.00000000000E+00 0.  1.
         25    2    1    2    0    0  0.28756229262E+02  0.78322466573E+02  0.12031159098E+04  0.12124660791E+04  0.12499908422E+03 0.  0.
          4    1    3    3  502    0  0.25776197068E+01  0.66931136705E+02  0.24702058782E+03  0.25594375337E+03  0.12700000000E+01 0.  1.
         -4    1    3    3    0  502  0.26178609555E+02  0.11391329868E+02  0.95609532202E+03  0.95652232576E+03  0.12700000000E+01 0.  1.
          2    1    1    2  503    0 -0.10388263683E+03 -0.56272722977E+02  0.81842059688E+03  0.82690416311E+03  0.00000000000E+00 0.  1.
         -3    1    1    2    0  501  0.75126407571E+02 -0.22049743597E+02 -0.37475259306E+03  0.38284419065E+03  0.00000000000E+00 0.  1.
<mgrwt>
<rscale>  0 0.86424850E+02</rscale>
<asrwt>0</asrwt>
<pdfrwt beam="1">  1        2 0.31299987E+00 0.95398396E+02</pdfrwt>
<pdfrwt beam="2">  1       -3 0.59648503E-01 0.78295391E+02</pdfrwt>
<totfact> 0.13256461E+01</totfact>
</mgrwt>
</event>
<event>
 7    1  0.3113151E-004  0.9107455E+02  0.7546771E-02  0.1408897E+00
          1   -1    0    0  503    0  0.00000000000E+00  0.00000000000E+00  0.60905153151E+03  0.60905153151E+03  0.00000000000E+00 0.  1.
         -2   -1    0    0    0  501 -0.00000000000E+00 -0.00000000000E+00 -0.26732974594E+03  0.26732974594E+03  0.00000000000E+00 0.  1.
         25    2    1    2    0    0 -0.12647424274E+02  0.92005020577E+02  0.57789626109E+02  0.16610077381E+03  0.12499978008E+03 0.  0.
          4    1    3    3  502    0 -0.62853004283E+02  0.18294548749E+02  0.34068785631E+02  0.73807084455E+02  0.12700000000E+01 0.  1.
         -4    1    3    3    0  502  0.50205580010E+02  0.73710471828E+02  0.23720840478E+02  0.92293689352E+02  0.12700000000E+01 0.  1.
          1    1    1    2  503    0 -0.33757373768E+02 -0.13149202190E+02  0.48658398064E+03  0.48793076560E+03  0.00000000000E+00 0.  1.
         -2    1    1    2    0  501  0.46404798042E+02 -0.78855818387E+02 -0.20265182118E+03  0.22234973803E+03  0.00000000000E+00 0.  1.
<mgrwt>
<rscale>  0 0.57440760E+02</rscale>
<asrwt>0</asrwt>
<pdfrwt beam="1">  1        1 0.93700235E-01 0.36227915E+02</pdfrwt>
<pdfrwt beam="2">  1       -2 0.41127653E-01 0.91074546E+02</pdfrwt>
<totfact> 0.18356075E+02</totfact>
</mgrwt>
</event>
<event>
 7    1  0.3113151E-004  0.8134133E+02  0.7546771E-02  0.1334270E+00
          2   -1    0    0  502    0  0.00000000000E+00  0.00000000000E+00  0.52006852227E+03  0.52006852227E+03  0.00000000000E+00 0.  1.
          1   -1    0    0  503    0 -0.00000000000E+00 -0.00000000000E+00 -0.28462306895E+04  0.28462306895E+04  0.00000000000E+00 0. -1.
         25    2    1    2    0    0  0.75331475910E+01  0.78831222409E+02 -0.17311593190E+04  0.17374709840E+04  0.12498689006E+03 0.  0.
          4    1    3    3  501    0 -0.39838402387E+02  0.43249895885E+02 -0.13870437840E+04  0.13882902158E+04  0.12700000000E+01 0.  1.
         -4    1    3    3    0  501  0.47371549978E+02  0.35581326524E+02 -0.34411553499E+03  0.34918076818E+03  0.12700000000E+01 0.  1.
          2    1    1    2  502    0 -0.74343409317E+02 -0.11042685307E+02  0.51212801170E+03  0.51761373994E+03  0.00000000000E+00 0.  1.
          1    1    1    2  503    0  0.66810261726E+02 -0.67788537102E+02 -0.11071308599E+04  0.11112144878E+04  0.00000000000E+00 0. -1.
<mgrwt>
<rscale>  0 0.78189114E+02</rscale>
<asrwt>0</asrwt>
<pdfrwt beam="1">  1        2 0.80010539E-01 0.75159054E+02</pdfrwt>
<pdfrwt beam="2">  1        1 0.43788166E+00 0.81341331E+02</pdfrwt>
<totfact> 0.93272841E+00</totfact>
</mgrwt>
</event>
<event>
 7    1  0.3113151E-004  0.4744775E+02  0.7546771E-02  0.1546596E+00
         -1   -1    0    0    0  501 -0.00000000000E+00  0.00000000000E+00  0.57979170633E+03  0.57979170633E+03  0.00000000000E+00 0.  1.
          2   -1    0    0  503    0  0.00000000000E+00 -0.00000000000E+00 -0.25271281587E+02  0.25271281587E+02  0.00000000000E+00 0. -1.
         25    2    1    2    0    0 -0.28318921689E+02  0.27163793356E+02  0.44365772501E+03  0.46259946552E+03  0.12500502207E+03 0.  0.
          4    1    3    3  502    0  0.52441954745E+00 -0.28916393052E+00  0.41122477984E+03  0.41122717698E+03  0.12700000000E+01 0.  1.
         -4    1    3    3    0  502 -0.28843341236E+02  0.27452957287E+02  0.32432945168E+02  0.51372288538E+02  0.12700000000E+01 0.  1.
          2    1    1    2  503    0 -0.26088643283E+02 -0.18403195862E+01  0.52989628376E+02  0.59092341297E+02  0.00000000000E+00 0. -1.
         -1    1    1    2    0  501  0.54407564971E+02 -0.25323473770E+02  0.57873071362E+02  0.83371181105E+02  0.00000000000E+00 0.  1.
<mgrwt>
<rscale>  0 0.35226741E+02</rscale>
<asrwt>0</asrwt>
<pdfrwt beam="2">  1        2 0.38878899E-02 0.26153472E+02</pdfrwt>
<pdfrwt beam="1">  1       -1 0.89198714E-01 0.47447745E+02</pdfrwt>
<totfact> 0.26933833E+03</totfact>
</mgrwt>
</event>
<event>
 7    1  0.3113151E-004  0.7276290E+02  0.7546771E-02  0.1473222E+00
          2   -1    0    0  503    0  0.00000000000E+00  0.00000000000E+00  0.20511052286E+03  0.20511052286E+03  0.00000000000E+00 0. -1.
         -1   -1    0    0    0  501 -0.00000000000E+00 -0.00000000000E+00 -0.77716812462E+02  0.77716812462E+02  0.00000000000E+00 0.  1.
         25    2    1    2    0    0 -0.66350724431E+02 -0.53433564127E+01  0.41047205330E+02  0.14744737247E+03  0.12499953797E+03 0.  0.
          4    1    3    3  502    0 -0.36666375113E+02  0.12682370754E+02 -0.42139102065E+02  0.57293825276E+02  0.12700000000E+01 0.  1.
         -4    1    3    3    0  502 -0.29684349318E+02 -0.18025727167E+02  0.83186307395E+02  0.90153547198E+02  0.12700000000E+01 0.  1.
          2    1    1    2  503    0  0.68442710671E+02  0.33318267681E+02  0.60505058342E+02  0.97238745829E+02  0.00000000000E+00 0. -1.
         -1    1    1    2    0  501 -0.20919862402E+01 -0.27974911268E+02  0.25841446725E+02  0.38141217020E+02  0.00000000000E+00 0.  1.
<mgrwt>
<rscale>  0 0.45179854E+02</rscale>
<asrwt>0</asrwt>
<pdfrwt beam="1">  1        2 0.31555465E-01 0.72762898E+02</pdfrwt>
<pdfrwt beam="2">  1       -1 0.11956433E-01 0.28053022E+02</pdfrwt>
<totfact> 0.73148070E+03</totfact>
</mgrwt>
</event>
<event>
 7    1  0.3113151E-004  0.4253259E+02  0.7546771E-02  0.1526684E+00
          2   -1    0    0  502    0  0.00000000000E+00  0.00000000000E+00  0.10954752805E+03  0.10954752805E+03  0.00000000000E+00 0. -1.
          1   -1    0    0  503    0 -0.00000000000E+00 -0.00000000000E+00 -0.19126980079E+03  0.19126980079E+03  0.00000000000E+00 0. -1.
         25    2    1    2    0    0  0.64953002524E+02  0.17866497208E+02 -0.68388514072E+02  0.15760422135E+03  0.12499598982E+03 0.  0.
          4    1    3    3  501    0 -0.12025564731E+02  0.37043511624E+02  0.15683512001E+02  0.42005016477E+02  0.12700000000E+01 0. -1.
         -4    1    3    3    0  501  0.76978567256E+02 -0.19177014416E+02 -0.84072026073E+02  0.11559920487E+03  0.12700000000E+01 0. -1.
          2    1    1    2  502    0 -0.32728570544E+02  0.57678662334E+01  0.54878544448E+02  0.64156700753E+02  0.00000000000E+00 0. -1.
          1    1    1    2  503    0 -0.32224431980E+02 -0.23634363441E+02 -0.68212303116E+02  0.79056406749E+02  0.00000000000E+00 0. -1.
<mgrwt>
<rscale>  0 0.37596312E+02</rscale>
<asrwt>0</asrwt>
<pdfrwt beam="1">  1        2 0.16853466E-01 0.33232930E+02</pdfrwt>
<pdfrwt beam="2">  1        1 0.29426123E-01 0.42532593E+02</pdfrwt>
<totfact> 0.62309774E+03</totfact>
</mgrwt>
</event>
<event>
 7    1  0.3113151E-004  0.1308136E+03  0.7546771E-02  0.1233163E+00
         -2   -1    0    0    0  501 -0.00000000000E+00  0.00000000000E+00  0.47021404148E+03  0.47021404148E+03  0.00000000000E+00 0.  1.
          1   -1    0    0  503    0  0.00000000000E+00 -0.00000000000E+00 -0.61569192346E+03  0.61569192346E+03  0.00000000000E+00 0. -1.
         25    2    1    2    0    0  0.13342026281E+02 -0.55761404056E+01  0.35237758968E+03  0.37419230929E+03  0.12506324646E+03 0.  0.
          4    1    3    3  502    0 -0.53723155760E+02  0.13183819506E+02  0.13394263903E+03  0.14492147533E+03  0.12700000000E+01 0. -1.
         -4    1    3    3    0  502  0.67065182042E+02 -0.18759959911E+02  0.21843495065E+03  0.22927083396E+03  0.12700000000E+01 0. -1.
          1    1    1    2  503    0 -0.71503317072E+02  0.11259478986E+03 -0.55951546203E+03  0.57519376153E+03  0.00000000000E+00 0. -1.
         -2    1    1    2    0  501  0.58161290791E+02 -0.10701864946E+03  0.61659990377E+02  0.13651989412E+03  0.00000000000E+00 0.  1.
<mgrwt>
<rscale>  0 0.12622740E+03</rscale>
<asrwt>0</asrwt>
<pdfrwt beam="2">  1        1 0.94721833E-01 0.13081359E+03</pdfrwt>
<pdfrwt beam="1">  1       -2 0.72340623E-01 0.12180200E+03</pdfrwt>
<totfact> 0.55759520E+01</totfact>
</mgrwt>
</event>
<event>
 7    1  0.3113151E-004  0.7410894E+02  0.7546771E-02  0.1373637E+00
          1   -1    0    0  503    0  0.00000000000E+00  0.00000000000E+00  0.11592104703E+04  0.11592104703E+04  0.00000000000E+00 0. -1.
         -2   -1    0    0    0  501 -0.00000000000E+00 -0.00000000000E+00 -0.77883124694E+03  0.77883124694E+03  0.00000000000E+00 0.  1.
         25    2    1    2    0    0 -0.51623297555E+00  0.13216776556E+03  0.36267589133E+02  0.18550950175E+03  0.12501940836E+03 0.  0.
          4    1    3    3  502    0 -0.29200997590E+00  0.32381331890E+02 -0.45936249159E+02  0.56217326614E+02  0.12700000000E+01 0. -1.
         -4    1    3    3    0  502 -0.22422299965E+00  0.99786433673E+02  0.82203838292E+02  0.12929217514E+03  0.12700000000E+01 0. -1.
          1    1    1    2  503    0  0.13923954074E+01 -0.59058626289E+02  0.10455881460E+04  0.10472556666E+04  0.00000000000E+00 0. -1.
         -2    1    1    2    0  501 -0.87616243188E+00 -0.73109139274E+02 -0.70147651177E+03  0.70527654893E+03  0.00000000000E+00 0.  1.
<mgrwt>
<rscale>  0 0.66166368E+02</rscale>
<asrwt>0</asrwt>
<pdfrwt beam="1">  1        1 0.17834007E+00 0.59075038E+02</pdfrwt>
<pdfrwt beam="2">  1       -2 0.11982019E+00 0.74108938E+02</pdfrwt>
<totfact> 0.71597465E+00</totfact>
</mgrwt>
</event>
<event>
 7    1  0.3113151E-004  0.5590455E+02  0.7546771E-02  0.1479306E+00
          3   -1    0    0  503    0 -0.00000000000E+00  0.00000000000E+00  0.91950802056E+02  0.91950802056E+02  0.00000000000E+00 0. -1.
          2   -1    0    0  502    0  0.00000000000E+00 -0.00000000000E+00 -0.11237951400E+04  0.11237951400E+04  0.00000000000E+00 0. -1.
         25    2    1    2    0    0  0.31761151926E+01  0.38778305903E+02 -0.54630732028E+03  0.56177550119E+03  0.12500472323E+03 0.  0.
          4    1    3    3  501    0  0.33322400127E+02  0.35889241787E+02 -0.75551002275E+02  0.90044360573E+02  0.12700000000E+01 0.  1.
         -4    1    3    3    0  501 -0.30146284935E+02  0.28890641163E+01 -0.47075631800E+03  0.47173114062E+03  0.12700000000E+01 0.  1.
          2    1    1    2  502    0 -0.36872439280E+02 -0.48126258272E+02 -0.56442898286E+03  0.56767577913E+03  0.00000000000E+00 0. -1.
          3    1    1    2  503    0  0.33696324087E+02  0.93479523686E+01  0.78891965202E+02  0.86294661734E+02  0.00000000000E+00 0. -1.
<mgrwt>
<rscale>  0 0.44214507E+02</rscale>
<asrwt>0</asrwt>
<pdfrwt beam="2">  1        2 0.17289157E+00 0.55904549E+02</pdfrwt>
<pdfrwt beam="1">  1        3 0.14146276E-01 0.34968936E+02</pdfrwt>
<totfact> 0.50435406E+02</totfact>
</mgrwt>
</event>
<event>
 7    1  0.3113151E-004  0.5895534E+02  0.7546771E-02  0.1407757E+00
          2   -1    0    0  502    0  0.00000000000E+00  0.00000000000E+00  0.50945236370E+02  0.50945236370E+02  0.00000000000E+00 0. -1.
          2   -1    0    0  503    0 -0.00000000000E+00 -0.00000000000E+00 -0.30399329368E+04  0.30399329368E+04  0.00000000000E+00 0. -1.
         25    2    1    2    0    0  0.15550510281E+02 -0.47178257595E+02 -0.11040878768E+04  0.11122484873E+04  0.12497620423E+03 0.  0.
          4    1    3    3  501    0 -0.67792414960E+01 -0.46738112956E+02 -0.10725087196E+04  0.10735487766E+04  0.12700000000E+01 0. -1.
         -4    1    3    3    0  501  0.22329751777E+02 -0.44014463893E+00 -0.31579157209E+02  0.38699710746E+02  0.12700000000E+01 0. -1.
          2    1    1    2  502    0  0.40789071337E+02  0.43397612151E+02  0.27356466726E+02  0.65539891309E+02  0.00000000000E+00 0. -1.
          2    1    1    2  503    0 -0.56339581619E+02  0.37806454433E+01 -0.19122562904E+04  0.19130897945E+04  0.00000000000E+00 0. -1.
<mgrwt>
<rscale>  0 0.57697394E+02</rscale>
<asrwt>0</asrwt>
<pdfrwt beam="1">  1        2 0.78377269E-02 0.58955341E+02</pdfrwt>
<pdfrwt beam="2">  1        2 0.46768210E+00 0.56466288E+02</pdfrwt>
<totfact> 0.30783465E+02</totfact>
</mgrwt>
</event>
<event>
 7    1  0.3113151E-004  0.6839287E+02  0.7546771E-02  0.1381576E+00
          2   -1    0    0  503    0  0.00000000000E+00  0.00000000000E+00  0.79201846142E+03  0.79201846142E+03  0.00000000000E+00 0. -1.
         -3   -1    0    0    0  501 -0.00000000000E+00 -0.00000000000E+00 -0.42237172836E+02  0.42237172836E+02  0.00000000000E+00 0.  1.
         25    2    1    2    0    0 -0.26084396213E+00  0.16221602154E+02  0.39833818247E+03  0.41780535558E+03  0.12499919650E+03 0.  0.
          4    1    3    3  502    0 -0.47228718401E+02  0.39136419371E+02  0.12189755608E+03  0.13646552033E+03  0.12700000000E+01 0.  1.
         -4    1    3    3    0  502  0.46967874439E+02 -0.22914817216E+02  0.27644062639E+03  0.28133983525E+03  0.12700000000E+01 0.  1.
          2    1    1    2  503    0  0.29076502541E+02  0.52467086509E+02  0.33479248089E+03  0.34012386483E+03  0.00000000000E+00 0. -1.
         -3    1    1    2    0  501 -0.28815658579E+02 -0.68688688663E+02  0.16650625226E+02  0.76326413842E+02  0.00000000000E+00 0.  1.
<mgrwt>
<rscale>  0 0.64051292E+02</rscale>
<asrwt>0</asrwt>
<pdfrwt beam="1">  1        2 0.12184898E+00 0.59985316E+02</pdfrwt>
<pdfrwt beam="2">  1       -3 0.64980272E-02 0.68392871E+02</pdfrwt>
<totfact> 0.30535321E+03</totfact>
</mgrwt>
</event>
<event>
 7    1  0.3113151E-004  0.2968329E+03  0.7546771E-02  0.1145340E+00
          1   -1    0    0  503    0  0.00000000000E+00  0.00000000000E+00  0.62143825567E+03  0.62143825567E+03  0.00000000000E+00 0. -1.
         -2   -1    0    0    0  501 -0.00000000000E+00 -0.00000000000E+00 -0.63289389055E+03  0.63289389055E+03  0.00000000000E+00 0. -1.
         25    2    1    2    0    0  0.18565618615E+03 -0.34196399230E+02  0.86063630889E+02  0.24221826863E+03  0.12500051168E+03 0.  0.
          4    1    3    3  502    0  0.10229112942E+03  0.25410019426E+02  0.91503249549E+02  0.13958367320E+03  0.12700000000E+01 0. -1.
         -4    1    3    3    0  502  0.83365056728E+02 -0.59606418656E+02 -0.54396186602E+01  0.10263459543E+03  0.12700000000E+01 0. -1.
          1    1    1    2  503    0  0.13458749579E+03 -0.45269773204E+02  0.39473881548E+03  0.41950194139E+03  0.00000000000E+00 0. -1.
         -2    1    1    2    0  501 -0.32024368193E+03  0.79466172434E+02 -0.49225808124E+03  0.59261193620E+03  0.00000000000E+00 0. -1.
<mgrwt>
<rscale>  0 0.20530315E+03</rscale>
<asrwt>0</asrwt>
<pdfrwt beam="1">  1        1 0.95605885E-01 0.14199699E+03</pdfrwt>
<pdfrwt beam="2">  1       -2 0.97368291E-01 0.29683292E+03</pdfrwt>
<totfact> 0.27790523E+01</totfact>
</mgrwt>
</event>
<event>
 7    1  0.4367350E-004  0.8504816E+02  0.7546771E-02  0.1452474E+00
          2   -1    0    0  503    0  0.00000000000E+00  0.00000000000E+00  0.12832767489E+04  0.12832767489E+04  0.00000000000E+00 0. -1.
         -1   -1    0    0    0  501 -0.00000000000E+00 -0.00000000000E+00 -0.17890737211E+02  0.17890737211E+02  0.00000000000E+00 0.  1.
         25    2    1    2    0    0 -0.89188158550E+02 -0.51342071923E+02  0.86340732124E+03  0.87846006085E+03  0.12501735945E+03 0.  0.
          4    1    3    3  502    0 -0.11854090645E+03 -0.22327510059E+02  0.64164159906E+03  0.65288285224E+03  0.12700000000E+01 0. -1.
         -4    1    3    3    0  502  0.29352747901E+02 -0.29014561865E+02  0.22176572219E+03  0.22557720861E+03  0.12700000000E+01 0. -1.
          2    1    1    2  503    0  0.62348020810E+02  0.43768711938E+02  0.37897721604E+03  0.38655750688E+03  0.00000000000E+00 0. -1.
         -1    1    1    2    0  501  0.26840137740E+02  0.75733599856E+01  0.23001474450E+02  0.36149918427E+02  0.00000000000E+00 0.  1.
<mgrwt>
<rscale>  0 0.48701497E+02</rscale>
<asrwt>0</asrwt>
<pdfrwt beam="1">  1        2 0.19742712E+00 0.85048165E+02</pdfrwt>
<pdfrwt beam="2">  1       -1 0.27524221E-02 0.27888148E+02</pdfrwt>
<totfact> 0.70992839E+03</totfact>
</mgrwt>
</event>
<event>
 7    1  0.3113151E-004  0.6131500E+02  0.7546771E-02  0.1402980E+00
          2   -1    0    0  503    0  0.00000000000E+00  0.00000000000E+00  0.68275014919E+03  0.68275014919E+03  0.00000000000E+00 0. -1.
         -3   -1    0    0    0  501 -0.00000000000E+00 -0.00000000000E+00 -0.18717960970E+03  0.18717960970E+03  0.00000000000E+00 0.  1.
         25    2    1    2    0    0  0.48240488820E+02  0.46600913901E+02  0.40977825758E+03  0.43363876370E+03  0.12500226822E+03 0.  0.
          4    1    3    3  502    0  0.21649152019E+02  0.80361332862E+02  0.16173353012E+03  0.18189551195E+03  0.12700000000E+01 0. -1.
         -4    1    3    3    0  502  0.26591336801E+02 -0.33760418961E+02  0.24804472746E+03  0.25174325175E+03  0.12700000000E+01 0. -1.
          2    1    1    2  503    0 -0.65406844650E+02  0.70911283577E+01  0.25217658028E+03  0.26061728083E+03  0.00000000000E+00 0. -1.
         -3    1    1    2    0  501  0.17166355830E+02 -0.53692042258E+02 -0.16638429837E+03  0.17567371436E+03  0.00000000000E+00 0.  1.
<mgrwt>
<rscale>  0 0.58790266E+02</rscale>
<asrwt>0</asrwt>
<pdfrwt beam="1">  1        2 0.10503848E+00 0.61315003E+02</pdfrwt>
<pdfrwt beam="2">  1       -3 0.28796863E-01 0.56369488E+02</pdfrwt>
<totfact> 0.29367373E+02</totfact>
</mgrwt>
</event>
<event>
 7    1  0.3113151E-004  0.1163654E+03  0.7546771E-02  0.1319940E+00
          2   -1    0    0  503    0  0.00000000000E+00  0.00000000000E+00  0.79315267297E+03  0.79315267297E+03  0.00000000000E+00 0. -1.
         -1   -1    0    0    0  501 -0.00000000000E+00 -0.00000000000E+00 -0.46226353719E+02  0.46226353719E+02  0.00000000000E+00 0.  1.
         25    2    1    2    0    0 -0.75677406494E+02  0.13265854353E+03  0.28523483629E+03  0.34685261048E+03  0.12498984974E+03 0.  0.
          4    1    3    3  502    0 -0.96634065205E+01 -0.24266141540E+02  0.50613776220E+02  0.56970117554E+02  0.12700000000E+01 0.  1.
         -4    1    3    3    0  502 -0.66013999974E+02  0.15692468507E+03  0.23462106007E+03  0.28988249292E+03  0.12700000000E+01 0.  1.
          2    1    1    2  503    0  0.17076848315E+02 -0.57132339244E+02  0.28951914305E+03  0.29559610472E+03  0.00000000000E+00 0. -1.
         -1    1    1    2    0  501  0.58600558179E+02 -0.75526204281E+02  0.17217233991E+03  0.19693031149E+03  0.00000000000E+00 0.  1.
<mgrwt>
<rscale>  0 0.83299807E+02</rscale>
<asrwt>0</asrwt>
<pdfrwt beam="1">  1        2 0.12202348E+00 0.59629883E+02</pdfrwt>
<pdfrwt beam="2">  1       -1 0.71117473E-02 0.11636544E+03</pdfrwt>
<totfact> 0.41865786E+03</totfact>
</mgrwt>
</event>
<event>
 7    1  0.3113151E-004  0.2510812E+02  0.7546771E-02  0.1665977E+00
         -2   -1    0    0    0  501 -0.00000000000E+00  0.00000000000E+00  0.42927000909E+02  0.42927000909E+02  0.00000000000E+00 0.  1.
          1   -1    0    0  503    0  0.00000000000E+00 -0.00000000000E+00 -0.50618451107E+03  0.50618451107E+03  0.00000000000E+00 0. -1.
         25    2    1    2    0    0 -0.80052149104E+01  0.22697697597E+02 -0.68290224068E+02  0.14445444338E+03  0.12499705024E+03 0.  0.
          4    1    3    3  502    0 -0.48201319851E+02  0.27314310746E+02 -0.84332760143E+02  0.10091117946E+03  0.12700000000E+01 0.  1.
         -4    1    3    3    0  502  0.40196104941E+02 -0.46166131483E+01  0.16042536076E+02  0.43543263923E+02  0.12700000000E+01 0.  1.
          1    1    1    2  503    0  0.24715446870E+02 -0.51737570106E+01 -0.36613951394E+03  0.36700921616E+03  0.00000000000E+00 0. -1.
         -2    1    1    2    0  501 -0.16710231960E+02 -0.17523940587E+02 -0.28827772153E+02  0.37647852437E+02  0.00000000000E+00 0.  1.
<mgrwt>
<rscale>  0 0.24657033E+02</rscale>
<asrwt>0</asrwt>
<pdfrwt beam="2">  1        1 0.77874541E-01 0.25108117E+02</pdfrwt>
<pdfrwt beam="1">  1       -2 0.66041539E-02 0.24214053E+02</pdfrwt>
<totfact> 0.42095068E+03</totfact>
</mgrwt>
</event>
<event>
 7    1  0.3113151E-004  0.1924466E+03  0.7546771E-02  0.1260995E+00
          2   -1    0    0  502    0  0.00000000000E+00  0.00000000000E+00  0.31390672421E+04  0.31390672421E+04  0.00000000000E+00 0. -1.
          1   -1    0    0  503    0 -0.00000000000E+00 -0.00000000000E+00 -0.36906394781E+03  0.36906394781E+03  0.00000000000E+00 0. -1.
         25    2    1    2    0    0 -0.16529671057E+03  0.95266205480E+02 -0.25893586704E+03  0.34506747245E+03  0.12500049950E+03 0.  0.
          4    1    3    3  501    0 -0.59152715246E+01  0.51132748012E+02 -0.11429198185E+03  0.12535477004E+03  0.12700000000E+01 0.  1.
         -4    1    3    3    0  501 -0.15938143904E+03  0.44133457468E+02 -0.14464388519E+03  0.21971270241E+03  0.12700000000E+01 0.  1.
          2    1    1    2  502    0  0.26241669002E+02  0.56848163404E+02  0.29365338906E+04  0.29372013260E+04  0.00000000000E+00 0. -1.
          1    1    1    2  503    0  0.13905504156E+03 -0.15211436888E+03  0.92405270716E+02  0.22586239143E+03  0.00000000000E+00 0. -1.
<mgrwt>
<rscale>  0 0.10977061E+03</rscale>
<asrwt>0</asrwt>
<pdfrwt beam="1">  1        2 0.48293340E+00 0.62612610E+02</pdfrwt>
<pdfrwt beam="2">  1        1 0.56779071E-01 0.19244664E+03</pdfrwt>
<totfact> 0.20219481E+01</totfact>
</mgrwt>
</event>
<event>
 7    1  0.3113151E-004  0.7635105E+02  0.7546771E-02  0.1489990E+00
          2   -1    0    0  502    0  0.00000000000E+00  0.00000000000E+00  0.34053013138E+03  0.34053013138E+03  0.00000000000E+00 0.  1.
          3   -1    0    0  503    0 -0.00000000000E+00 -0.00000000000E+00 -0.22766929722E+04  0.22766929722E+04  0.00000000000E+00 0. -1.
         25    2    1    2    0    0 -0.12952290195E+02 -0.62718907545E+02 -0.15976782597E+04  0.16038392943E+04  0.12499294844E+03 0.  0.
          4    1    3    3  501    0 -0.57708358588E+02  0.41939031709E+01 -0.80699039938E+03  0.80906301428E+03  0.12700000000E+01 0. -1.
         -4    1    3    3    0  501  0.44756068393E+02 -0.66912810716E+02 -0.79068786030E+03  0.79477627998E+03  0.12700000000E+01 0. -1.
          2    1    1    2  502    0 -0.29695059219E+01 -0.23568285259E+02  0.33417869352E+03  0.33502191158E+03  0.00000000000E+00 0.  1.
          3    1    1    2  503    0  0.15921796117E+02  0.86287192804E+02 -0.67266327466E+03  0.67836189774E+03  0.00000000000E+00 0. -1.
<mgrwt>
<rscale>  0 0.42587441E+02</rscale>
<asrwt>0</asrwt>
<pdfrwt beam="1">  1        2 0.52389248E-01 0.23754621E+02</pdfrwt>
<pdfrwt beam="2">  1        3 0.35026048E+00 0.76351045E+02</pdfrwt>
<totfact> 0.15910540E+00</totfact>
</mgrwt>
</event>
<event>
 7    1  0.3113151E-004  0.5825034E+02  0.7546771E-02  0.1468556E+00
          1   -1    0    0  503    0  0.00000000000E+00  0.00000000000E+00  0.23825500807E+03  0.23825500807E+03  0.00000000000E+00 0. -1.
         -1   -1    0    0    0  501 -0.00000000000E+00 -0.00000000000E+00 -0.35940378700E+03  0.35940378700E+03  0.00000000000E+00 0.  1.
         25    2    1    2    0    0  0.61827631947E+02  0.21933136935E+02 -0.22883425604E+03  0.26887702347E+03  0.12500407372E+03 0.  0.
          4    1    3    3  502    0 -0.35585696527E+02  0.19492579517E+02 -0.43603836000E+02  0.59575245425E+02  0.12700000000E+01 0. -1.
         -4    1    3    3    0  502  0.97413328475E+02  0.24405574178E+01 -0.18523042004E+03  0.20930177804E+03  0.12700000000E+01 0. -1.
          1    1    1    2  503    0 -0.56615790859E+02  0.13921609973E+02  0.21120529060E+03  0.21910461834E+03  0.00000000000E+00 0. -1.
         -1    1    1    2    0  501 -0.52118410879E+01 -0.35854746908E+02 -0.10351981349E+03  0.10967715327E+03  0.00000000000E+00 0.  1.
<mgrwt>
<rscale>  0 0.45940189E+02</rscale>
<asrwt>0</asrwt>
<pdfrwt beam="1">  1        1 0.36654617E-01 0.58250343E+02</pdfrwt>
<pdfrwt beam="2">  1       -1 0.55292890E-01 0.36231563E+02</pdfrwt>
<totfact> 0.40446950E+02</totfact>
</mgrwt>
</event>
<event>
 7    1  0.3113151E-004  0.4644045E+02  0.7546771E-02  0.1550256E+00
          2   -1    0    0  503    0  0.00000000000E+00  0.00000000000E+00  0.15035074403E+03  0.15035074403E+03  0.00000000000E+00 0. -1.
         -1   -1    0    0    0  501 -0.00000000000E+00 -0.00000000000E+00 -0.80698885035E+02  0.80698885035E+02  0.00000000000E+00 0.  1.
         25    2    1    2    0    0  0.32051225896E+02  0.68130396941E+00  0.67587662357E+02  0.14567243240E+03  0.12499848080E+03 0.  0.
          4    1    3    3  502    0 -0.72386705723E+00  0.58048167474E+02  0.51608526791E+02  0.77686335144E+02  0.12700000000E+01 0. -1.
         -4    1    3    3    0  502  0.32775092953E+02 -0.57366863505E+02  0.15979135567E+02  0.67986097255E+02  0.12700000000E+01 0. -1.
          2    1    1    2  503    0 -0.58114704640E+02  0.67443842524E+00 -0.50173802102E+01  0.58334791221E+02  0.00000000000E+00 0. -1.
         -1    1    1    2    0  501  0.26063478745E+02 -0.13557423947E+01  0.70815768509E+01  0.27042405448E+02  0.00000000000E+00 0.  1.
<mgrwt>
<rscale>  0 0.34814308E+02</rscale>
<asrwt>0</asrwt>
<pdfrwt beam="1">  1        2 0.23130884E-01 0.46440448E+02</pdfrwt>
<pdfrwt beam="2">  1       -1 0.12415213E-01 0.26098716E+02</pdfrwt>
<totfact> 0.94342468E+03</totfact>
</mgrwt>
</event>
<event>
 7    1  0.3113151E-004  0.1143638E+03  0.7546771E-02  0.1339253E+00
          1   -1    0    0  503    0 -0.00000000000E+00  0.00000000000E+00  0.17059907414E+04  0.17059907414E+04  0.00000000000E+00 0. -1.
          2   -1    0    0  502    0  0.00000000000E+00 -0.00000000000E+00 -0.92756166348E+03  0.92756166348E+03  0.00000000000E+00 0. -1.
         25    2    1    2    0    0 -0.10221030762E+02 -0.13234234679E+03 -0.28425159703E+03  0.33770436589E+03  0.12500520831E+03 0.  0.
          4    1    3    3  501    0 -0.36424140414E+02 -0.21068388781E+02 -0.14163026382E+02  0.44416204554E+02  0.12700000000E+01 0.  1.
         -4    1    3    3    0  501  0.26203109652E+02 -0.11127395801E+03 -0.27008857065E+03  0.29328816134E+03  0.12700000000E+01 0.  1.
          2    1    1    2  502    0  0.45428661182E+02  0.23588603164E+02 -0.61357136269E+03  0.61570285250E+03  0.00000000000E+00 0. -1.
          1    1    1    2  503    0 -0.35207630420E+02  0.10875374363E+03  0.16762520377E+04  0.16801451865E+04  0.00000000000E+00 0. -1.
<mgrwt>
<rscale>  0 0.76511593E+02</rscale>
<asrwt>0</asrwt>
<pdfrwt beam="2">  1        2 0.14270180E+00 0.51187747E+02</pdfrwt>
<pdfrwt beam="1">  1        1 0.26246011E+00 0.11436377E+03</pdfrwt>
<totfact> 0.24780037E+01</totfact>
</mgrwt>
</event>
<event>
 7    1  0.3113151E-004  0.1278378E+03  0.7546771E-02  0.1391149E+00
          1   -1    0    0  503    0 -0.00000000000E+00  0.00000000000E+00  0.74838704561E+03  0.74838704561E+03  0.00000000000E+00 0. -1.
          2   -1    0    0  502    0  0.00000000000E+00 -0.00000000000E+00 -0.72126962466E+03  0.72126962466E+03  0.00000000000E+00 0.  1.
         25    2    1    2    0    0 -0.12727298039E+03  0.89718608225E+02 -0.24376497533E+03  0.31510909433E+03  0.12499815171E+03 0.  0.
          4    1    3    3  501    0 -0.15264061968E+03  0.79824602755E+02 -0.21471138438E+03  0.27527026259E+03  0.12700000000E+01 0.  1.
         -4    1    3    3    0  501  0.25367639292E+02  0.98940054702E+01 -0.29053590952E+02  0.39838831743E+02  0.12700000000E+01 0.  1.
          2    1    1    2  502    0  0.27899478816E+02 -0.10194103519E+02 -0.43564058907E+03  0.43665206230E+03  0.00000000000E+00 0.  1.
          1    1    1    2  503    0  0.99373501576E+02 -0.79524504707E+02  0.70652298535E+03  0.71789551363E+03  0.00000000000E+00 0. -1.
<mgrwt>
<rscale>  0 0.61621723E+02</rscale>
<asrwt>0</asrwt>
<pdfrwt beam="2">  1        2 0.11096456E+00 0.29703546E+02</pdfrwt>
<pdfrwt beam="1">  1        1 0.11513647E+00 0.12783782E+03</pdfrwt>
<totfact> 0.15689203E+02</totfact>
</mgrwt>
</event>
<event>
 7    1  0.3113151E-004  0.1556206E+03  0.7546771E-02  0.1271518E+00
         -1   -1    0    0    0  501 -0.00000000000E+00  0.00000000000E+00  0.38853588880E+03  0.38853588880E+03  0.00000000000E+00 0.  1.
          2   -1    0    0  503    0  0.00000000000E+00 -0.00000000000E+00 -0.67646609516E+03  0.67646609516E+03  0.00000000000E+00 0. -1.
         25    2    1    2    0    0 -0.46495762342E+02  0.18627967327E+03  0.13093736610E+03  0.26388388996E+03  0.12501256317E+03 0.  0.
          4    1    3    3  502    0  0.34435642682E+02  0.91139215362E+02  0.89429673930E+02  0.13225524392E+03  0.12700000000E+01 0. -1.
         -4    1    3    3    0  502 -0.80931405024E+02  0.95140457909E+02  0.41507692168E+02  0.13162864604E+03  0.12700000000E+01 0. -1.
          2    1    1    2  503    0  0.54779582075E+02 -0.43411257653E+02 -0.58081193179E+03  0.58500242736E+03  0.00000000000E+00 0. -1.
         -1    1    1    2    0  501 -0.82838197335E+01 -0.14286841562E+03  0.16194435933E+03  0.21611566664E+03  0.00000000000E+00 0.  1.
<mgrwt>
<rscale>  0 0.10429350E+03</rscale>
<asrwt>0</asrwt>
<pdfrwt beam="2">  1        2 0.10407171E+00 0.69895207E+02</pdfrwt>
<pdfrwt beam="1">  1       -1 0.59774752E-01 0.15562061E+03</pdfrwt>
<totfact> 0.15470081E+02</totfact>
</mgrwt>
</event>
<event>
 7    1  0.3113151E-004  0.1418790E+03  0.7546771E-02  0.1295752E+00
          2   -1    0    0  502    0  0.00000000000E+00  0.00000000000E+00  0.63813184147E+02  0.63813184147E+02  0.00000000000E+00 0. -1.
          1   -1    0    0  503    0 -0.00000000000E+00 -0.00000000000E+00 -0.83282466841E+03  0.83282466841E+03  0.00000000000E+00 0. -1.
         25    2    1    2    0    0 -0.92175473706E+02  0.51935228145E+02 -0.12907763074E+03  0.20851438318E+03  0.12499450932E+03 0.  0.
          4    1    3    3  501    0 -0.37525402357E+02  0.83820392735E+02 -0.10808758099E+03  0.14183988199E+03  0.12700000000E+01 0. -1.
         -4    1    3    3    0  501 -0.54650071349E+02 -0.31885164591E+02 -0.20990049752E+02  0.66674501183E+02  0.12700000000E+01 0. -1.
          2    1    1    2  502    0 -0.56636490561E+02 -0.22539377913E+02 -0.49522630423E+02  0.78537930606E+02  0.00000000000E+00 0. -1.
          1    1    1    2  503    0  0.14881196427E+03 -0.29395850232E+02 -0.59041122310E+03  0.60958553877E+03  0.00000000000E+00 0. -1.
<mgrwt>
<rscale>  0 0.92997153E+02</rscale>
<asrwt>0</asrwt>
<pdfrwt beam="1">  1        2 0.98174130E-02 0.60956670E+02</pdfrwt>
<pdfrwt beam="2">  1        1 0.12812687E+00 0.14187899E+03</pdfrwt>
<totfact> 0.18167644E+03</totfact>
</mgrwt>
</event>
<event>
 7    1  0.3113151E-004  0.1226647E+03  0.7546771E-02  0.1389697E+00
          1   -1    0    0  503    0  0.00000000000E+00  0.00000000000E+00  0.91858993989E+02  0.91858993989E+02  0.00000000000E+00 0. -1.
         -1   -1    0    0    0  501 -0.00000000000E+00 -0.00000000000E+00 -0.52528314488E+03  0.52528314488E+03  0.00000000000E+00 0.  1.
         25    2    1    2    0    0 -0.99521726679E+02 -0.83269002794E+02 -0.42038797556E+03  0.45737161590E+03  0.12499777649E+03 0.  0.
          4    1    3    3  502    0  0.30246863733E+01 -0.77364320227E+02 -0.17765208400E+03  0.19379438233E+03  0.12700000000E+01 0. -1.
         -4    1    3    3    0  502 -0.10254641305E+03 -0.59046825670E+01 -0.24273589156E+03  0.26357723357E+03  0.12700000000E+01 0. -1.
          1    1    1    2  503    0  0.31212213074E+02 -0.25890581773E+01  0.28605848708E+02  0.42416978293E+02  0.00000000000E+00 0. -1.
         -1    1    1    2    0  501  0.68309513604E+02  0.85858060971E+02 -0.41642024042E+02  0.11735354468E+03  0.00000000000E+00 0.  1.
<mgrwt>
<rscale>  0 0.61982148E+02</rscale>
<asrwt>0</asrwt>
<pdfrwt beam="1">  1        1 0.14132153E-01 0.31319410E+02</pdfrwt>
<pdfrwt beam="2">  1       -1 0.80812794E-01 0.12266472E+03</pdfrwt>
<totfact> 0.59322368E+02</totfact>
</mgrwt>
</event>
<event>
 7    1  0.3113151E-004  0.4760497E+02  0.7546771E-02  0.1513282E+00
          2   -1    0    0  503    0  0.00000000000E+00  0.00000000000E+00  0.12304382615E+03  0.12304382615E+03  0.00000000000E+00 0. -1.
         -1   -1    0    0    0  501 -0.00000000000E+00 -0.00000000000E+00 -0.64908893068E+03  0.64908893068E+03  0.00000000000E+00 0.  1.
         25    2    1    2    0    0 -0.54693417914E+02 -0.52828171278E+02 -0.17034601023E+03  0.22455979915E+03  0.12500861791E+03 0.  0.
          4    1    3    3  502    0 -0.32444273756E+02 -0.56922522535E+01  0.11866042293E+02  0.35034961038E+02  0.12700000000E+01 0.  1.
         -4    1    3    3    0  502 -0.22249144158E+02 -0.47135919025E+02 -0.18221205252E+03  0.18952483811E+03  0.12700000000E+01 0.  1.
          2    1    1    2  503    0  0.25043430708E+02  0.39578927631E+02  0.89593720787E+02  0.10109747642E+03  0.00000000000E+00 0. -1.
         -1    1    1    2    0  501  0.29649987206E+02  0.13249243648E+02 -0.44529281509E+03  0.44647548126E+03  0.00000000000E+00 0.  1.
<mgrwt>
<rscale>  0 0.39319201E+02</rscale>
<asrwt>0</asrwt>
<pdfrwt beam="1">  1        2 0.18929820E-01 0.47604967E+02</pdfrwt>
<pdfrwt beam="2">  1       -1 0.99859834E-01 0.32475594E+02</pdfrwt>
<totfact> 0.34983328E+02</totfact>
</mgrwt>
</event>
<event>
 7    1  0.3113151E-004  0.2960100E+02  0.7546771E-02  0.1610487E+00
         -2   -1    0    0    0  501 -0.00000000000E+00  0.00000000000E+00  0.46353227414E+03  0.46353227414E+03  0.00000000000E+00 0.  1.
          1   -1    0    0  503    0  0.00000000000E+00 -0.00000000000E+00 -0.22132833954E+02  0.22132833954E+02  0.00000000000E+00 0. -1.
         25    2    1    2    0    0 -0.85846008432E+00  0.11597637049E+02  0.27433805932E+03  0.30169000513E+03  0.12498098362E+03 0.  0.
          4    1    3    3  502    0 -0.25284837645E+01  0.41864136606E+02  0.21703773543E+02  0.47240510687E+02  0.12700000000E+01 0.  1.
         -4    1    3    3    0  502  0.16700236802E+01 -0.30266499557E+02  0.25263428578E+03  0.25444949445E+03  0.12700000000E+01 0.  1.
          1    1    1    2  503    0  0.30214871275E+02 -0.78002486459E+01  0.28415569678E+02  0.42204584173E+02  0.00000000000E+00 0. -1.
         -2    1    1    2    0  501 -0.29356411191E+02 -0.37973884033E+01  0.13864581119E+03  0.14177051878E+03  0.00000000000E+00 0.  1.
<mgrwt>
<rscale>  0 0.28907660E+02</rscale>
<asrwt>0</asrwt>
<pdfrwt beam="2">  1        1 0.34050517E-02 0.28230563E+02</pdfrwt>
<pdfrwt beam="1">  1       -2 0.71312650E-01 0.29600997E+02</pdfrwt>
<totfact> 0.36435953E+03</totfact>
</mgrwt>
</event>
<event>
 7    1  0.3113151E-004  0.1009741E+03  0.7546771E-02  0.1379426E+00
          2   -1    0    0  503    0  0.00000000000E+00  0.00000000000E+00  0.83020248443E+03  0.83020248443E+03  0.00000000000E+00 0. -1.
         -3   -1    0    0    0  501 -0.00000000000E+00 -0.00000000000E+00 -0.18943488968E+03  0.18943488968E+03  0.00000000000E+00 0.  1.
         25    2    1    2    0    0 -0.12095043349E+03 -0.33789286544E+02  0.23213080916E+01  0.17720742269E+03  0.12500543564E+03 0.  0.
          4    1    3    3  502    0  0.24620625089E+02 -0.17506898328E+02 -0.44703228155E+01  0.30565721894E+02  0.12700000000E+01 0.  1.
         -4    1    3    3    0  502 -0.14557105858E+03 -0.16282388216E+02  0.67916309071E+01  0.14664170080E+03  0.12700000000E+01 0.  1.
          2    1    1    2  503    0  0.25357240634E+02  0.32659925395E+02  0.71730909447E+03  0.71849982420E+03  0.00000000000E+00 0. -1.
         -3    1    1    2    0  501  0.95593192859E+02  0.11293611490E+01 -0.78862807799E+02  0.12393012721E+03  0.00000000000E+00 0.  1.
<mgrwt>
<rscale>  0 0.64614859E+02</rscale>
<asrwt>0</asrwt>
<pdfrwt beam="1">  1        2 0.12772346E+00 0.41348040E+02</pdfrwt>
<pdfrwt beam="2">  1       -3 0.29143830E-01 0.10097407E+03</pdfrwt>
<totfact> 0.24374414E+02</totfact>
</mgrwt>
</event>
<event>
 7    1  0.3113151E-004  0.2372477E+02  0.7546771E-02  0.1687535E+00
         -1   -1    0    0    0  501  0.00000000000E+00  0.00000000000E+00  0.68823668222E+02  0.68823668222E+02  0.00000000000E+00 0.  1.
         -1   -1    0    0    0  502 -0.00000000000E+00 -0.00000000000E+00 -0.48471159607E+03  0.48471159607E+03  0.00000000000E+00 0.  1.
         25    2    1    2    0    0  0.26505945774E+02 -0.36659822379E+02 -0.84163154582E+02  0.15734649829E+03  0.12501190421E+03 0.  0.
          4    1    3    3  503    0  0.25013329153E+02  0.13400808197E+02 -0.10066802224E+03  0.10459881403E+03  0.12700000000E+01 0.  1.
         -4    1    3    3    0  503  0.14926166217E+01 -0.50060630575E+02  0.16504867654E+02  0.52747684255E+02  0.12700000000E+01 0.  1.
         -1    1    1    2    0  501 -0.10470175214E+02  0.20481419555E+02  0.27721097394E+02  0.36021831669E+02  0.00000000000E+00 0.  1.
         -1    1    1    2    0  502 -0.16035770560E+02  0.16178402823E+02 -0.35944587066E+03  0.36016693434E+03  0.00000000000E+00 0.  1.
<mgrwt>
<rscale>  0 0.23247117E+02</rscale>
<asrwt>0</asrwt>
<pdfrwt beam="1">  1       -1 0.10588257E-01 0.23724767E+02</pdfrwt>
<pdfrwt beam="2">  1       -1 0.74571012E-01 0.22779084E+02</pdfrwt>
<totfact> 0.79399346E+02</totfact>
</mgrwt>
</event>
<event>
 7    1  0.3113151E-004  0.3221946E+03  0.7546771E-02  0.1208945E+00
          2   -1    0    0  502    0  0.00000000000E+00  0.00000000000E+00  0.18477278885E+04  0.18477278885E+04  0.00000000000E+00 0. -1.
          2   -1    0    0  503    0 -0.00000000000E+00 -0.00000000000E+00 -0.33360070195E+03  0.33360070195E+03  0.00000000000E+00 0. -1.
         25    2    1    2    0    0  0.53228281155E+02 -0.34552965267E+03  0.14285398811E+03  0.39782408112E+03  0.12503098340E+03 0.  0.
          4    1    3    3  501    0 -0.47513464676E+01 -0.17162440251E+03  0.11069921747E+02  0.17205134959E+03  0.12700000000E+01 0.  1.
         -4    1    3    3    0  501  0.57979627622E+02 -0.17390525016E+03  0.13178406636E+03  0.22577273153E+03  0.12700000000E+01 0.  1.
          2    1    1    2  502    0  0.41115098998E+02  0.48709556552E+02  0.14586382963E+04  0.14600303941E+04  0.00000000000E+00 0. -1.
          2    1    1    2  503    0 -0.94343380152E+02  0.29682009612E+03 -0.87365097939E+02  0.32347411516E+03  0.00000000000E+00 0. -1.
<mgrwt>
<rscale>  0 0.14330876E+03</rscale>
<asrwt>0</asrwt>
<pdfrwt beam="1">  1        2 0.28426582E+00 0.63742233E+02</pdfrwt>
<pdfrwt beam="2">  1        2 0.51323186E-01 0.32219458E+03</pdfrwt>
<totfact> 0.15598636E+02</totfact>
</mgrwt>
</event>
<event>
 7    1  0.3113151E-004  0.7927078E+02  0.7546771E-02  0.1394007E+00
          2   -1    0    0  503    0  0.00000000000E+00  0.00000000000E+00  0.41673501523E+03  0.41673501523E+03  0.00000000000E+00 0. -1.
         -3   -1    0    0    0  501 -0.00000000000E+00 -0.00000000000E+00 -0.96720373572E+03  0.96720373572E+03  0.00000000000E+00 0.  1.
         25    2    1    2    0    0 -0.63735399657E+02 -0.42962812043E+01 -0.28583163054E+03  0.31844191974E+03  0.12499950410E+03 0.  0.
          4    1    3    3  502    0 -0.38473301171E+02  0.39350839674E+02 -0.41451988160E+02  0.68909823018E+02  0.12700000000E+01 0.  1.
         -4    1    3    3    0  502 -0.25262098486E+02 -0.43647120878E+02 -0.24437964238E+03  0.24953209672E+03  0.12700000000E+01 0.  1.
          2    1    1    2  503    0 -0.83404694161E+01  0.46069923336E+02  0.39643818509E+03  0.39919323124E+03  0.00000000000E+00 0. -1.
         -3    1    1    2    0  501  0.72075869073E+02 -0.41773642132E+02 -0.66107527504E+03  0.66630359998E+03  0.00000000000E+00 0.  1.
<mgrwt>
<rscale>  0 0.60920964E+02</rscale>
<asrwt>0</asrwt>
<pdfrwt beam="1">  1        2 0.64113080E-01 0.46818813E+02</pdfrwt>
<pdfrwt beam="2">  1       -3 0.14880057E+00 0.79270781E+02</pdfrwt>
<totfact> 0.16779053E+01</totfact>
</mgrwt>
</event>
<event>
 7    1  0.3113151E-004  0.5593247E+02  0.7546771E-02  0.1459305E+00
         -3   -1    0    0    0  501 -0.00000000000E+00  0.00000000000E+00  0.11797530541E+03  0.11797530541E+03  0.00000000000E+00 0.  1.
          2   -1    0    0  503    0  0.00000000000E+00 -0.00000000000E+00 -0.91140489643E+03  0.91140489643E+03  0.00000000000E+00 0. -1.
         25    2    1    2    0    0  0.38488110425E+01  0.32234572103E+02 -0.37898690167E+03  0.40038590732E+03  0.12499568857E+03 0.  0.
          4    1    3    3  502    0 -0.58397763621E+02  0.30917849877E+02 -0.21701323156E+03  0.22685362640E+03  0.12700000000E+01 0.  1.
         -4    1    3    3    0  502  0.62246574664E+02  0.13167222257E+01 -0.16197367010E+03  0.17353228092E+03  0.12700000000E+01 0.  1.
          2    1    1    2  503    0 -0.42570009454E+02 -0.43551029631E+02 -0.51607108548E+03  0.51965205970E+03  0.00000000000E+00 0. -1.
         -3    1    1    2    0  501  0.38721198412E+02  0.11316457528E+02  0.10162839612E+03  0.10934223482E+03  0.00000000000E+00 0.  1.
<mgrwt>
<rscale>  0 0.47501263E+02</rscale>
<asrwt>0</asrwt>
<pdfrwt beam="2">  1        2 0.14021614E+00 0.55932474E+02</pdfrwt>
<pdfrwt beam="1">  1       -3 0.18150046E-01 0.40340965E+02</pdfrwt>
<totfact> 0.44916149E+02</totfact>
</mgrwt>
</event>
<event>
 7    1  0.3113151E-004  0.3477921E+03  0.7546771E-02  0.1123578E+00
          2   -1    0    0  502    0  0.00000000000E+00  0.00000000000E+00  0.57078609816E+03  0.57078609816E+03  0.00000000000E+00 0. -1.
          1   -1    0    0  503    0 -0.00000000000E+00 -0.00000000000E+00 -0.72727479848E+03  0.72727479848E+03  0.00000000000E+00 0. -1.
         25    2    1    2    0    0  0.31938740433E+03  0.11177836151E+03  0.16569980125E+03  0.39696982057E+03  0.12500359262E+03 0.  0.
          4    1    3    3  501    0  0.10718081658E+03  0.83665215760E+02  0.18613559090E+02  0.13724311732E+03  0.12700000000E+01 0. -1.
         -4    1    3    3    0  501  0.21220658775E+03  0.28113145752E+02  0.14708624216E+03  0.25972670325E+03  0.12700000000E+01 0. -1.
          2    1    1    2  502    0  0.33304820990E+02 -0.15443222263E+03  0.20903647482E+03  0.26202055318E+03  0.00000000000E+00 0. -1.
          1    1    1    2  503    0 -0.35269222532E+03  0.42653861115E+02 -0.53122497640E+03  0.63907052288E+03  0.00000000000E+00 0. -1.
<mgrwt>
<rscale>  0 0.23440374E+03</rscale>
<asrwt>0</asrwt>
<pdfrwt beam="1">  1        2 0.87813246E-01 0.15798267E+03</pdfrwt>
<pdfrwt beam="2">  1        1 0.11188843E+00 0.34779205E+03</pdfrwt>
<totfact> 0.19542874E+02</totfact>
</mgrwt>
</event>
<event>
 7    1  0.3113151E-004  0.6816274E+02  0.7546771E-02  0.1394506E+00
          1   -1    0    0  503    0  0.00000000000E+00  0.00000000000E+00  0.13637817081E+03  0.13637817081E+03  0.00000000000E+00 0. -1.
         -2   -1    0    0    0  501 -0.00000000000E+00 -0.00000000000E+00 -0.17559831788E+03  0.17559831788E+03  0.00000000000E+00 0.  1.
         25    2    1    2    0    0 -0.85709424072E+02 -0.48315314493E+02 -0.80372127850E+02  0.17822364666E+03  0.12499405707E+03 0.  0.
          4    1    3    3  502    0 -0.44195239640E+02  0.33123134841E+02 -0.65362288761E+02  0.85581557363E+02  0.12700000000E+01 0. -1.
         -4    1    3    3    0  502 -0.41514184432E+02 -0.81438449335E+02 -0.15009839089E+02  0.92642089293E+02  0.12700000000E+01 0. -1.
          1    1    1    2  503    0  0.54219965999E+02  0.11488335703E+01  0.52985345210E+02  0.75819333540E+02  0.00000000000E+00 0. -1.
         -2    1    1    2    0  501  0.31489458073E+02  0.47166480923E+02 -0.11833364423E+02  0.57933508490E+02  0.00000000000E+00 0.  1.
<mgrwt>
<rscale>  0 0.60799762E+02</rscale>
<asrwt>0</asrwt>
<pdfrwt beam="1">  1        1 0.20981257E-01 0.54232136E+02</pdfrwt>
<pdfrwt beam="2">  1       -2 0.27015126E-01 0.68162743E+02</pdfrwt>
<totfact> 0.23963694E+03</totfact>
</mgrwt>
</event>
<event>
 7    1  0.3113151E-004  0.1209613E+03  0.7546771E-02  0.1293043E+00
         -1   -1    0    0    0  501 -0.00000000000E+00  0.00000000000E+00  0.24973343309E+03  0.24973343309E+03  0.00000000000E+00 0.  1.
          1   -1    0    0  503    0  0.00000000000E+00 -0.00000000000E+00 -0.90284964290E+03  0.90284964290E+03  0.00000000000E+00 0. -1.
         25    2    1    2    0    0 -0.64100990491E+02 -0.11092444677E+03  0.73601368104E+01  0.17914410338E+03  0.12500107315E+03 0.  0.
          4    1    3    3  502    0 -0.36822136951E+02 -0.46907090518E+02  0.65404100370E+02  0.88518100724E+02  0.12700000000E+01 0.  1.
         -4    1    3    3    0  502 -0.27278853540E+02 -0.64017356256E+02 -0.58043963559E+02  0.90626002660E+02  0.12700000000E+01 0.  1.
          1    1    1    2  503    0 -0.46971470062E+02  0.56301072790E+02 -0.79051576585E+03  0.79390887755E+03  0.00000000000E+00 0. -1.
         -1    1    1    2    0  501  0.11107246055E+03  0.54623373985E+02  0.13003941922E+03  0.17953009505E+03  0.00000000000E+00 0.  1.
<mgrwt>
<rscale>  0 0.94176079E+02</rscale>
<asrwt>0</asrwt>
<pdfrwt beam="2">  1        1 0.13889995E+00 0.73322096E+02</pdfrwt>
<pdfrwt beam="1">  1       -1 0.38420528E-01 0.12096127E+03</pdfrwt>
<totfact> 0.13694132E+02</totfact>
</mgrwt>
</event>
<event>
 7    1  0.3113151E-004  0.2629108E+03  0.7546771E-02  0.1254400E+00
          2   -1    0    0  503    0  0.00000000000E+00  0.00000000000E+00  0.32492756843E+04  0.32492756843E+04  0.00000000000E+00 0. -1.
         -1   -1    0    0    0  501 -0.00000000000E+00 -0.00000000000E+00 -0.16230805996E+03  0.16230805996E+03  0.00000000000E+00 0.  1.
         25    2    1    2    0    0  0.33235787105E+02  0.24220683278E+03  0.15489143979E+04  0.15730629676E+04  0.12499008320E+03 0.  0.
          4    1    3    3  502    0 -0.33117116799E+02  0.16940308271E+03  0.11004840915E+04  0.11139394043E+04  0.12700000000E+01 0.  1.
         -4    1    3    3    0  502  0.66352903904E+02  0.72803750063E+02  0.44843030637E+03  0.45912356338E+03  0.12700000000E+01 0.  1.
          2    1    1    2  503    0  0.47965801811E+02  0.95758831503E+01  0.15711450762E+04  0.15719062523E+04  0.00000000000E+00 0. -1.
         -1    1    1    2    0  501 -0.81201588916E+02 -0.25178271593E+03 -0.33091849639E+02  0.26661452435E+03  0.00000000000E+00 0.  1.
<mgrwt>
<rscale>  0 0.11340009E+03</rscale>
<asrwt>0</asrwt>
<pdfrwt beam="1">  1        2 0.49988852E+00 0.48912326E+02</pdfrwt>
<pdfrwt beam="2">  1       -1 0.24970473E-01 0.26291084E+03</pdfrwt>
<totfact> 0.31630646E+01</totfact>
</mgrwt>
</event>
<event>
 7    1  0.3113151E-004  0.1208460E+03  0.7546771E-02  0.1398358E+00
         -2   -1    0    0    0  501 -0.00000000000E+00  0.00000000000E+00  0.53985297311E+02  0.53985297311E+02  0.00000000000E+00 0.  1.
          2   -1    0    0  503    0  0.00000000000E+00 -0.00000000000E+00 -0.56949337968E+03  0.56949337968E+03  0.00000000000E+00 0. -1.
         25    2    1    2    0    0  0.11115128324E+03  0.63200867579E+02 -0.17307352425E+03  0.24885424584E+03  0.12500013380E+03 0.  0.
          4    1    3    3  502    0  0.87057639832E+02  0.97435497322E+02 -0.15633195088E+03  0.20374984799E+03  0.12700000000E+01 0. -1.
         -4    1    3    3    0  502  0.24093643411E+02 -0.34234629743E+02 -0.16741573365E+02  0.45104397848E+02  0.12700000000E+01 0. -1.
          2    1    1    2  503    0 -0.87614986515E+02 -0.81259084558E+02 -0.29930193259E+03  0.32227483851E+03  0.00000000000E+00 0. -1.
         -2    1    1    2    0  501 -0.23536296727E+02  0.18058216979E+02 -0.43132625538E+02  0.52349592643E+02  0.00000000000E+00 0.  1.
<mgrwt>
<rscale>  0 0.59874759E+02</rscale>
<asrwt>0</asrwt>
<pdfrwt beam="2">  1        2 0.87614365E-01 0.12084600E+03</pdfrwt>
<pdfrwt beam="1">  1       -2 0.83054305E-02 0.29665746E+02</pdfrwt>
<totfact> 0.40714423E+03</totfact>
</mgrwt>
</event>
<event>
 7    1  0.3113151E-004  0.1294444E+03  0.7546771E-02  0.1324602E+00
          2   -1    0    0  502    0  0.00000000000E+00  0.00000000000E+00  0.49259254664E+03  0.49259254664E+03  0.00000000000E+00 0. -1.
          3   -1    0    0  503    0 -0.00000000000E+00 -0.00000000000E+00 -0.13866049535E+03  0.13866049535E+03  0.00000000000E+00 0. -1.
         25    2    1    2    0    0 -0.51954234144E+02  0.15992902550E+03  0.14593291541E+03  0.25533859324E+03  0.12499938302E+03 0.  0.
          4    1    3    3  501    0  0.29774658576E+02  0.94591237470E+02  0.10070145993E+03  0.14133799712E+03  0.12700000000E+01 0. -1.
         -4    1    3    3    0  501 -0.81728892720E+02  0.65337788031E+02  0.45231455480E+02  0.11400059612E+03  0.12700000000E+01 0. -1.
          2    1    1    2  502    0  0.31547460464E+02 -0.40611980500E+02  0.24420923445E+03  0.24956507251E+03  0.00000000000E+00 0. -1.
          3    1    1    2  503    0  0.20406773681E+02 -0.11931704500E+03 -0.36210098573E+02  0.12634937625E+03  0.00000000000E+00 0. -1.
<mgrwt>
<rscale>  0 0.81588799E+02</rscale>
<asrwt>0</asrwt>
<pdfrwt beam="1">  1        2 0.75783468E-01 0.51425434E+02</pdfrwt>
<pdfrwt beam="2">  1        3 0.21332384E-01 0.12944436E+03</pdfrwt>
<totfact> 0.77216643E+02</totfact>
</mgrwt>
</event>
<event>
 7    1  0.3113151E-004  0.3770952E+02  0.7546771E-02  0.1572684E+00
          1   -1    0    0  503    0  0.00000000000E+00  0.00000000000E+00  0.12667164272E+03  0.12667164272E+03  0.00000000000E+00 0. -1.
         -2   -1    0    0    0  501 -0.00000000000E+00 -0.00000000000E+00 -0.22897354672E+03  0.22897354672E+03  0.00000000000E+00 0.  1.
         25    2    1    2    0    0 -0.26911156480E+02 -0.40922501403E+01 -0.19317331546E+03  0.23172248526E+03  0.12505368254E+03 0.  0.
          4    1    3    3  502    0  0.10558077611E+02  0.13469761262E+02  0.12939415439E+02  0.21492995212E+02  0.12700000000E+01 0. -1.
         -4    1    3    3    0  502 -0.37469234091E+02 -0.17562011402E+02 -0.20611273090E+03  0.21022949005E+03  0.12700000000E+01 0. -1.
          1    1    1    2  503    0  0.11820040174E+02 -0.35809145617E+02  0.61461019816E+02  0.72107317357E+02  0.00000000000E+00 0. -1.
         -2    1    1    2    0  501  0.15091116306E+02  0.39901395757E+02  0.29410391644E+02  0.51815386821E+02  0.00000000000E+00 0.  1.
<mgrwt>
<rscale>  0 0.32429979E+02</rscale>
<asrwt>0</asrwt>
<pdfrwt beam="1">  1        1 0.19487945E-01 0.37709525E+02</pdfrwt>
<pdfrwt beam="2">  1       -2 0.35226699E-01 0.27889600E+02</pdfrwt>
<totfact> 0.15727328E+03</totfact>
</mgrwt>
</event>
<event>
 7    1  0.3113151E-004  0.1848697E+03  0.7546771E-02  0.1247085E+00
          1   -1    0    0  502    0  0.00000000000E+00  0.00000000000E+00  0.10411180143E+04  0.10411180143E+04  0.00000000000E+00 0. -1.
          1   -1    0    0  503    0 -0.00000000000E+00 -0.00000000000E+00 -0.10124187460E+04  0.10124187460E+04  0.00000000000E+00 0. -1.
         25    2    1    2    0    0  0.21571133633E+03  0.11692566946E+03 -0.45082633823E+02  0.27902914882E+03  0.12498731625E+03 0.  0.
          4    1    3    3  501    0  0.11977779116E+02  0.52128777984E+02  0.17453826242E+02  0.56277221299E+02  0.12700000000E+01 0.  1.
         -4    1    3    3    0  501  0.20373355721E+03  0.64796891474E+02 -0.62536460065E+02  0.22275192753E+03  0.12700000000E+01 0.  1.
          1    1    1    2  502    0 -0.44748517773E+02 -0.59971346936E+02  0.91305052735E+03  0.91611148764E+03  0.00000000000E+00 0. -1.
          1    1    1    2  503    0 -0.17096281855E+03 -0.56954322522E+02 -0.83926862516E+03  0.85839612380E+03  0.00000000000E+00 0. -1.
<mgrwt>
<rscale>  0 0.11761436E+03</rscale>
<asrwt>0</asrwt>
<pdfrwt beam="1">  1        1 0.16017200E+00 0.74826414E+02</pdfrwt>
<pdfrwt beam="2">  1        1 0.15575673E+00 0.18486971E+03</pdfrwt>
<totfact> 0.31471369E+01</totfact>
</mgrwt>
</event>
<event>
 7    1  0.3113151E-004  0.1355249E+03  0.7546771E-02  0.1290559E+00
          2   -1    0    0  503    0  0.00000000000E+00  0.00000000000E+00  0.19069493675E+04  0.19069493675E+04  0.00000000000E+00 0. -1.
         -2   -1    0    0    0  501 -0.00000000000E+00 -0.00000000000E+00 -0.15281116757E+04  0.15281116757E+04  0.00000000000E+00 0.  1.
         25    2    1    2    0    0  0.49593837719E+02 -0.49938483130E+02  0.73832781588E+03  0.75212781023E+03  0.12495950695E+03 0.  0.
          4    1    3    3  502    0  0.35558815824E+02 -0.47878423415E+02  0.73511044526E+03  0.73752678083E+03  0.12700000000E+01 0. -1.
         -4    1    3    3    0  502  0.14035021895E+02 -0.20600597154E+01  0.32173706152E+01  0.14601029392E+02  0.12700000000E+01 0. -1.
          2    1    1    2  503    0  0.59206013594E+02 -0.31316397993E+02  0.11577212660E+04  0.11596571039E+04  0.00000000000E+00 0. -1.
         -2    1    1    2    0  501 -0.10879985131E+03  0.81254881123E+02 -0.15172113901E+04  0.15232761291E+04  0.00000000000E+00 0.  1.
<mgrwt>
<rscale>  0 0.95274363E+02</rscale>
<asrwt>0</asrwt>
<pdfrwt beam="1">  1        2 0.29337682E+00 0.66978122E+02</pdfrwt>
<pdfrwt beam="2">  1       -2 0.23509411E+00 0.13552492E+03</pdfrwt>
<totfact> 0.90681791E-01</totfact>
</mgrwt>
</event>
<event>
 7    1  0.3113151E-004  0.7292974E+02  0.7546771E-02  0.1450745E+00
          1   -1    0    0  503    0  0.00000000000E+00  0.00000000000E+00  0.15890684915E+04  0.15890684915E+04  0.00000000000E+00 0. -1.
         -1   -1    0    0    0  501 -0.00000000000E+00 -0.00000000000E+00 -0.12263319414E+02  0.12263319414E+02  0.00000000000E+00 0.  1.
         25    2    1    2    0    0 -0.61513142751E+02 -0.51235068454E+01  0.72626767428E+03  0.73952642141E+03  0.12499790478E+03 0.  0.
          4    1    3    3  502    0 -0.64568113135E+02 -0.29687078845E+02  0.19281755107E+03  0.20550081456E+03  0.12700000000E+01 0. -1.
         -4    1    3    3    0  502  0.30549703840E+01  0.24563572000E+02  0.53345012321E+03  0.53402560685E+03  0.12700000000E+01 0. -1.
          1    1    1    2  503    0  0.67780695890E+02  0.37459797557E+02  0.78133952369E+03  0.78516807784E+03  0.00000000000E+00 0. -1.
         -1    1    1    2    0  501 -0.62675531391E+01 -0.32336290711E+02  0.69197974120E+02  0.76637311680E+02  0.00000000000E+00 0.  1.
<mgrwt>
<rscale>  0 0.49011902E+02</rscale>
<asrwt>0</asrwt>
<pdfrwt beam="1">  1        1 0.24447191E+00 0.72929740E+02</pdfrwt>
<pdfrwt beam="2">  1       -1 0.18866658E-02 0.32938092E+02</pdfrwt>
<totfact> 0.39708525E+03</totfact>
</mgrwt>
</event>
<event>
 7    1  0.3113151E-004  0.1198454E+03  0.7546771E-02  0.1270333E+00
          2   -1    0    0  502    0  0.00000000000E+00  0.00000000000E+00  0.19944453555E+04  0.19944453555E+04  0.00000000000E+00 0. -1.
          1   -1    0    0  503    0 -0.00000000000E+00 -0.00000000000E+00 -0.16650550459E+03  0.16650550459E+03  0.00000000000E+00 0. -1.
         25    2    1    2    0    0  0.15687638230E+03 -0.60860339886E+02  0.10333918451E+03  0.23370066732E+03  0.12499133792E+03 0.  0.
          4    1    3    3  501    0  0.50865153152E+02 -0.89934115454E+01  0.10349305684E+03  0.11567441796E+03  0.12700000000E+01 0.  1.
         -4    1    3    3    0  501  0.10601122915E+03 -0.51866928341E+02 -0.15387232983E+00  0.11802624936E+03  0.12700000000E+01 0.  1.
          2    1    1    2  502    0 -0.11709140194E+03 -0.21875074428E+02  0.18027540369E+04  0.18066850951E+04  0.00000000000E+00 0. -1.
          1    1    1    2  503    0 -0.39784980362E+02  0.82735414314E+02 -0.78153370531E+02  0.12056509764E+03  0.00000000000E+00 0. -1.
<mgrwt>
<rscale>  0 0.10489183E+03</rscale>
<asrwt>0</asrwt>
<pdfrwt beam="1">  1        2 0.30683773E+00 0.11984536E+03</pdfrwt>
<pdfrwt beam="2">  1        1 0.25616233E-01 0.91804104E+02</pdfrwt>
<totfact> 0.20098950E+02</totfact>
</mgrwt>
</event>
<event>
 7    1  0.3113151E-004  0.1605733E+03  0.7546771E-02  0.1281016E+00
          2   -1    0    0  502    0  0.00000000000E+00  0.00000000000E+00  0.21615076395E+04  0.21615076395E+04  0.00000000000E+00 0.  1.
          1   -1    0    0  503    0 -0.00000000000E+00 -0.00000000000E+00 -0.38176137509E+03  0.38176137509E+03  0.00000000000E+00 0. -1.
         25    2    1    2    0    0  0.13681743591E+03  0.11839388479E+03  0.32411290430E+03  0.39167547845E+03  0.12499753182E+03 0.  0.
          4    1    3    3  501    0  0.77530082347E+02  0.12912003536E+03  0.27655012514E+03  0.31490392474E+03  0.12700000000E+01 0.  1.
         -4    1    3    3    0  501  0.59287353560E+02 -0.10726150570E+02  0.47562779160E+02  0.76771553713E+02  0.12700000000E+01 0.  1.
          2    1    1    2  502    0  0.12420861533E+02 -0.60592035497E+02  0.17846480353E+04  0.17857195419E+04  0.00000000000E+00 0.  1.
          1    1    1    2  503    0 -0.14923829744E+03 -0.57801849297E+02 -0.32901467514E+03  0.36587399424E+03  0.00000000000E+00 0. -1.
<mgrwt>
<rscale>  0 0.99658326E+02</rscale>
<asrwt>0</asrwt>
<pdfrwt beam="1">  1        2 0.33253963E+00 0.61852022E+02</pdfrwt>
<pdfrwt beam="2">  1        1 0.58732521E-01 0.16057328E+03</pdfrwt>
<totfact> 0.64190390E+01</totfact>
</mgrwt>
</event>
<event>
 7    1  0.3113151E-004  0.9990579E+02  0.7546771E-02  0.1298465E+00
         -3   -1    0    0    0  502 -0.00000000000E+00  0.00000000000E+00  0.58003008485E+03  0.58003008485E+03  0.00000000000E+00 0.  1.
         -2   -1    0    0    0  501  0.00000000000E+00 -0.00000000000E+00 -0.58942308518E+03  0.58942308518E+03  0.00000000000E+00 0.  1.
         25    2    1    2    0    0  0.10021155451E+03 -0.18313501315E+02  0.26566444724E+03  0.31077491322E+03  0.12500283267E+03 0.  0.
          4    1    3    3  503    0  0.67255867229E+02  0.50825521657E+02  0.12904224146E+03  0.15414310983E+03  0.12700000000E+01 0.  1.
         -4    1    3    3    0  503  0.32955687279E+02 -0.69139022972E+02  0.13662220578E+03  0.15663180339E+03  0.12700000000E+01 0.  1.
         -2    1    1    2    0  501 -0.40715466901E+02 -0.73951017312E+02 -0.55322574915E+03  0.55962954866E+03  0.00000000000E+00 0.  1.
         -3    1    1    2    0  502 -0.59496087608E+02  0.92264518627E+02  0.27816830158E+03  0.29904870814E+03  0.00000000000E+00 0.  1.
<mgrwt>
<rscale>  0 0.91836312E+02</rscale>
<asrwt>0</asrwt>
<pdfrwt beam="2">  1       -2 0.90680475E-01 0.84418613E+02</pdfrwt>
<pdfrwt beam="1">  1       -3 0.89235398E-01 0.99905790E+02</pdfrwt>
<totfact> 0.51443176E+00</totfact>
</mgrwt>
</event>
<event>
 7    1  0.3113151E-004  0.6160478E+02  0.7546771E-02  0.1403481E+00
          2   -1    0    0  503    0  0.00000000000E+00  0.00000000000E+00  0.36347439144E+03  0.36347439144E+03  0.00000000000E+00 0. -1.
         -3   -1    0    0    0  501 -0.00000000000E+00 -0.00000000000E+00 -0.12349356959E+03  0.12349356959E+03  0.00000000000E+00 0.  1.
         25    2    1    2    0    0  0.95884714623E+02  0.51206683636E+02  0.21180796708E+03  0.26889652602E+03  0.12500689518E+03 0.  0.
          4    1    3    3  502    0  0.54619904619E+02 -0.13553648151E+02  0.15931315576E+02  0.58501752750E+02  0.12700000000E+01 0.  1.
         -4    1    3    3    0  502  0.41264810005E+02  0.64760331788E+02  0.19587665150E+03  0.21039477327E+03  0.12700000000E+01 0.  1.
          2    1    1    2  503    0 -0.36724421936E+02 -0.42122020557E+02  0.10603664626E+03  0.11986124533E+03  0.00000000000E+00 0. -1.
         -3    1    1    2    0  501 -0.59160292687E+02 -0.90846630794E+01 -0.77863791477E+02  0.98210189682E+02  0.00000000000E+00 0.  1.
<mgrwt>
<rscale>  0 0.58674363E+02</rscale>
<asrwt>0</asrwt>
<pdfrwt beam="1">  1        2 0.55919137E-01 0.55883341E+02</pdfrwt>
<pdfrwt beam="2">  1       -3 0.18999011E-01 0.61604779E+02</pdfrwt>
<totfact> 0.12072559E+03</totfact>
</mgrwt>
</event>
<event>
 7    1  0.3113151E-004  0.1140239E+03  0.7546771E-02  0.1271911E+00
          1   -1    0    0  502    0  0.00000000000E+00  0.00000000000E+00  0.60841692017E+03  0.60841692017E+03  0.00000000000E+00 0. -1.
          1   -1    0    0  503    0 -0.00000000000E+00 -0.00000000000E+00 -0.24469112061E+04  0.24469112061E+04  0.00000000000E+00 0. -1.
         25    2    1    2    0    0  0.10699253549E+03  0.10645395035E+03 -0.11063689409E+04  0.11235903752E+04  0.12499300707E+03 0.  0.
          4    1    3    3  501    0  0.72483148860E+02  0.79350037954E+02 -0.35435602783E+03  0.37029723568E+03  0.12700000000E+01 0.  1.
         -4    1    3    3    0  501  0.34509386631E+02  0.27103912395E+02 -0.75201291305E+03  0.75329313957E+03  0.12700000000E+01 0.  1.
          1    1    1    2  502    0 -0.94958941881E+02  0.37383486571E+01  0.59371459946E+03  0.60127215261E+03  0.00000000000E+00 0. -1.
          1    1    1    2  503    0 -0.12033593610E+02 -0.11019229901E+03 -0.13258399445E+04  0.13304655984E+04  0.00000000000E+00 0. -1.
<mgrwt>
<rscale>  0 0.10409600E+03</rscale>
<asrwt>0</asrwt>
<pdfrwt beam="1">  1        1 0.93602603E-01 0.95032499E+02</pdfrwt>
<pdfrwt beam="2">  1        1 0.37644788E+00 0.11402392E+03</pdfrwt>
<totfact> 0.83556124E+00</totfact>
</mgrwt>
</event>
<event>
 7    1  0.3113151E-004  0.2403762E+02  0.7546771E-02  0.1693536E+00
         -1   -1    0    0    0  501 -0.00000000000E+00  0.00000000000E+00  0.22289583147E+02  0.22289583147E+02  0.00000000000E+00 0.  1.
          2   -1    0    0  503    0  0.00000000000E+00 -0.00000000000E+00 -0.62169265382E+03  0.62169265382E+03  0.00000000000E+00 0. -1.
         25    2    1    2    0    0 -0.41472658176E+01  0.28344058211E+02 -0.21629228870E+03  0.25144988525E+03  0.12499642071E+03 0.  0.
          4    1    3    3  502    0  0.33084035994E+02 -0.37554958724E+02 -0.11101394724E+03  0.12178110586E+03  0.12700000000E+01 0. -1.
         -4    1    3    3    0  502 -0.37231301812E+02  0.65899016935E+02 -0.10527834147E+03  0.12966877939E+03  0.12700000000E+01 0. -1.
          2    1    1    2  503    0 -0.16177404979E+02 -0.14567342079E+02 -0.35303940865E+03  0.35370996586E+03  0.00000000000E+00 0. -1.
         -1    1    1    2    0  501  0.20324670797E+02 -0.13776716132E+02 -0.30071373313E+02  0.38822385853E+02  0.00000000000E+00 0.  1.
<mgrwt>
<rscale>  0 0.22875525E+02</rscale>
<asrwt>0</asrwt>
<pdfrwt beam="2">  1        2 0.95645016E-01 0.21769609E+02</pdfrwt>
<pdfrwt beam="1">  1       -1 0.34291669E-02 0.24037622E+02</pdfrwt>
<totfact> 0.13503960E+04</totfact>
</mgrwt>
</event>
<event>
 7    1  0.3113151E-004  0.9194300E+02  0.7546771E-02  0.1468569E+00
         -1   -1    0    0    0  501 -0.00000000000E+00  0.00000000000E+00  0.47633395674E+02  0.47633395674E+02  0.00000000000E+00 0.  1.
          1   -1    0    0  503    0  0.00000000000E+00 -0.00000000000E+00 -0.16993614720E+04  0.16993614720E+04  0.00000000000E+00 0. -1.
         25    2    1    2    0    0  0.21238387618E+01  0.10858775949E+03 -0.25114047544E+03  0.30082049005E+03  0.12500246649E+03 0.  0.
          4    1    3    3  502    0 -0.44800283398E+02  0.10303375297E+01 -0.44409584331E+02  0.63102702545E+02  0.12700000000E+01 0. -1.
         -4    1    3    3    0  502  0.46924122159E+02  0.10755742196E+03 -0.20673089110E+03  0.23771778751E+03  0.12700000000E+01 0. -1.
          1    1    1    2  503    0  0.11708726840E+02 -0.90271930740E+02 -0.14157452672E+04  0.14186686637E+04  0.00000000000E+00 0. -1.
         -1    1    1    2    0  501 -0.13832565602E+02 -0.18315828754E+02  0.15157666267E+02  0.27505713966E+02  0.00000000000E+00 0.  1.
<mgrwt>
<rscale>  0 0.45938067E+02</rscale>
<asrwt>0</asrwt>
<pdfrwt beam="2">  1        1 0.26144023E+00 0.91942996E+02</pdfrwt>
<pdfrwt beam="1">  1       -1 0.73282146E-02 0.22952330E+02</pdfrwt>
<totfact> 0.47114348E+02</totfact>
</mgrwt>
</event>
<event>
 7    1  0.3113151E-004  0.9080251E+02  0.7546771E-02  0.1469262E+00
          1   -1    0    0  503    0 -0.00000000000E+00  0.00000000000E+00  0.15618669606E+02  0.15618669606E+02  0.00000000000E+00 0. -1.
          2   -1    0    0  502    0  0.00000000000E+00 -0.00000000000E+00 -0.20428460979E+04  0.20428460979E+04  0.00000000000E+00 0. -1.
         25    2    1    2    0    0 -0.19266519295E+02  0.70950924830E+02 -0.66986555255E+03  0.68538258973E+03  0.12499681317E+03 0.  0.
          4    1    3    3  501    0 -0.20862405411E+02 -0.32924913729E+02 -0.13501722462E+03  0.14053666336E+03  0.12700000000E+01 0. -1.
         -4    1    3    3    0  501  0.15958861162E+01  0.10387583856E+03 -0.53484832793E+03  0.54484592637E+03  0.12700000000E+01 0. -1.
          2    1    1    2  502    0  0.14234961383E+02 -0.93522320123E+02 -0.13419759175E+04  0.13453060698E+04  0.00000000000E+00 0. -1.
          1    1    1    2  503    0  0.50315579115E+01  0.22571395293E+02 -0.15385958286E+02  0.27776107950E+02  0.00000000000E+00 0. -1.
<mgrwt>
<rscale>  0 0.45824066E+02</rscale>
<asrwt>0</asrwt>
<pdfrwt beam="2">  1        2 0.31428420E+00 0.90802509E+02</pdfrwt>
<pdfrwt beam="1">  1        1 0.24028709E-02 0.23125407E+02</pdfrwt>
<totfact> 0.36201557E+03</totfact>
</mgrwt>
</event>
<event>
 7    1  0.3113151E-004  0.1107464E+03  0.7546771E-02  0.1393866E+00
         -1   -1    0    0    0  501 -0.00000000000E+00  0.00000000000E+00  0.95366248634E+02  0.95366248634E+02  0.00000000000E+00 0.  1.
          2   -1    0    0  503    0  0.00000000000E+00 -0.00000000000E+00 -0.13774797517E+04  0.13774797517E+04  0.00000000000E+00 0. -1.
         25    2    1    2    0    0 -0.63601831429E+02  0.59213553623E+02 -0.54395204022E+03  0.56485696758E+03  0.12501253485E+03 0.  0.
          4    1    3    3  502    0 -0.11212408502E+02  0.32253809353E+02 -0.24436061721E+02  0.42009050628E+02  0.12700000000E+01 0. -1.
         -4    1    3    3    0  502 -0.52389422927E+02  0.26959744270E+02 -0.51951597850E+03  0.52284791696E+03  0.12700000000E+01 0. -1.
          2    1    1    2  503    0 -0.33466572510E+02 -0.23654256305E+01 -0.78530387532E+03  0.78602021813E+03  0.00000000000E+00 0. -1.
         -1    1    1    2    0  501  0.97068403939E+02 -0.56848127992E+02  0.47142412438E+02  0.12196881466E+03  0.00000000000E+00 0.  1.
<mgrwt>
<rscale>  0 0.60955288E+02</rscale>
<asrwt>0</asrwt>
<pdfrwt beam="2">  1        2 0.21191995E+00 0.33550063E+02</pdfrwt>
<pdfrwt beam="1">  1       -1 0.14671732E-01 0.11074636E+03</pdfrwt>
<totfact> 0.68144604E+02</totfact>
</mgrwt>
</event>
<event>
 7    1  0.3113151E-004  0.5544519E+02  0.7546771E-02  0.1489470E+00
          2   -1    0    0  502    0  0.00000000000E+00  0.00000000000E+00  0.19287380372E+04  0.19287380372E+04  0.00000000000E+00 0. -1.
          1   -1    0    0  503    0 -0.00000000000E+00 -0.00000000000E+00 -0.86236655011E+03  0.86236655011E+03  0.00000000000E+00 0.  1.
         25    2    1    2    0    0 -0.28099015898E+02  0.53426668498E+01  0.65084920420E+02  0.14380249774E+03  0.12500005082E+03 0.  0.
          4    1    3    3  501    0 -0.56857154916E+02  0.22501680623E+01 -0.14820503779E+02  0.58813770102E+02  0.12700000000E+01 0. -1.
         -4    1    3    3    0  501  0.28758139018E+02  0.30924987876E+01  0.79905424199E+02  0.84988727635E+02  0.12700000000E+01 0. -1.
          2    1    1    2  502    0  0.53629670313E+02  0.15297435545E+02  0.18235404635E+04  0.18243930430E+04  0.00000000000E+00 0. -1.
          1    1    1    2  503    0 -0.25530654415E+02 -0.20640102395E+02 -0.82225389685E+03  0.82290904663E+03  0.00000000000E+00 0.  1.
<mgrwt>
<rscale>  0 0.42664761E+02</rscale>
<asrwt>0</asrwt>
<pdfrwt beam="1">  1        2 0.29672893E+00 0.55445191E+02</pdfrwt>
<pdfrwt beam="2">  1        1 0.13267178E+00 0.32830293E+02</pdfrwt>
<totfact> 0.30190466E+01</totfact>
</mgrwt>
</event>
<event>
 7    1  0.3113151E-004  0.9603944E+02  0.7546771E-02  0.1359868E+00
          2   -1    0    0  502    0  0.00000000000E+00  0.00000000000E+00  0.86585737282E+03  0.86585737282E+03  0.00000000000E+00 0. -1.
          1   -1    0    0  503    0 -0.00000000000E+00 -0.00000000000E+00 -0.13185757327E+04  0.13185757327E+04  0.00000000000E+00 0. -1.
         25    2    1    2    0    0 -0.13585055347E+03  0.77479856777E+01  0.41917676684E+02  0.18946855706E+03  0.12500335329E+03 0.  0.
          4    1    3    3  501    0 -0.15386837789E+03  0.20512644047E+02  0.17019193443E+02  0.15616501569E+03  0.12700000000E+01 0. -1.
         -4    1    3    3    0  501  0.18017824416E+02 -0.12764658369E+02  0.24898483241E+02  0.33303541368E+02  0.12700000000E+01 0. -1.
          2    1    1    2  502    0  0.92576980808E+02  0.19462244510E+02  0.74665368019E+03  0.75262274380E+03  0.00000000000E+00 0. -1.
          1    1    1    2  503    0  0.43273572662E+02 -0.27210230188E+02 -0.12412897167E+04  0.12423418046E+04  0.00000000000E+00 0. -1.
<mgrwt>
<rscale>  0 0.70066368E+02</rscale>
<asrwt>0</asrwt>
<pdfrwt beam="1">  1        2 0.13320883E+00 0.96039438E+02</pdfrwt>
<pdfrwt beam="2">  1        1 0.20285781E+00 0.51117499E+02</pdfrwt>
<totfact> 0.50108877E+01</totfact>
</mgrwt>
</event>
<event>
 7    1  0.3113151E-004  0.5417325E+02  0.7546771E-02  0.1526077E+00
          2   -1    0    0  503    0  0.00000000000E+00  0.00000000000E+00  0.95326676341E+03  0.95326676341E+03  0.00000000000E+00 0. -1.
         -1   -1    0    0    0  501 -0.00000000000E+00 -0.00000000000E+00 -0.12857511962E+02  0.12857511962E+02  0.00000000000E+00 0.  1.
         25    2    1    2    0    0 -0.31013543511E+02  0.18503578107E+02  0.46877755884E+03  0.48649830689E+03  0.12499592252E+03 0.  0.
          4    1    3    3  502    0  0.20428869238E+01 -0.37738630530E+02  0.34036310360E+03  0.34245734452E+03  0.12700000000E+01 0.  1.
         -4    1    3    3    0  502 -0.33056430435E+02  0.56242208637E+02  0.12841445524E+03  0.14404096237E+03  0.12700000000E+01 0.  1.
          2    1    1    2  503    0  0.41254492005E+02 -0.42616012259E+02  0.36714488926E+03  0.37190513215E+03  0.00000000000E+00 0. -1.
         -1    1    1    2    0  501 -0.10240948494E+02  0.24112434152E+02  0.10448680335E+03  0.10772083633E+03  0.00000000000E+00 0.  1.
<mgrwt>
<rscale>  0 0.37672011E+02</rscale>
<asrwt>0</asrwt>
<pdfrwt beam="1">  1        2 0.14665637E+00 0.54173250E+02</pdfrwt>
<pdfrwt beam="2">  1       -1 0.19780795E-02 0.26197071E+02</pdfrwt>
<totfact> 0.17283437E+04</totfact>
</mgrwt>
</event>
<event>
 7    1  0.3113151E-004  0.1355849E+03  0.7546771E-02  0.1431296E+00
          2   -1    0    0  502    0  0.00000000000E+00  0.00000000000E+00  0.43756649752E+03  0.43756649752E+03  0.00000000000E+00 0. -1.
          1   -1    0    0  503    0 -0.00000000000E+00 -0.00000000000E+00 -0.71433421287E+03  0.71433421287E+03  0.00000000000E+00 0. -1.
         25    2    1    2    0    0 -0.14140427088E+02 -0.14667036265E+03  0.11672580574E+03  0.22574899314E+03  0.12500218886E+03 0.  0.
          4    1    3    3  501    0  0.36251089501E+02 -0.18273358525E+02 -0.60761497488E+01  0.41068109496E+02  0.12700000000E+01 0. -1.
         -4    1    3    3    0  501 -0.50391516588E+02 -0.12839700413E+03  0.12280195549E+03  0.18468088365E+03  0.12700000000E+01 0. -1.
          2    1    1    2  502    0  0.16917042049E+02  0.11550945800E+02  0.25900004814E+03  0.25980884434E+03  0.00000000000E+00 0. -1.
          1    1    1    2  503    0 -0.27766149612E+01  0.13511941685E+03 -0.65249356922E+03  0.66634287291E+03  0.00000000000E+00 0. -1.
<mgrwt>
<rscale>  0 0.52700816E+02</rscale>
<asrwt>0</asrwt>
<pdfrwt beam="1">  1        2 0.67317923E-01 0.20484400E+02</pdfrwt>
<pdfrwt beam="2">  1        1 0.10989757E+00 0.13558493E+03</pdfrwt>
<totfact> 0.28298835E+02</totfact>
</mgrwt>
</event>
<event>
 7    1  0.3113151E-004  0.9603632E+02  0.7546771E-02  0.1356094E+00
          2   -1    0    0  503    0  0.00000000000E+00  0.00000000000E+00  0.10287106141E+04  0.10287106141E+04  0.00000000000E+00 0. -1.
         -1   -1    0    0    0  501 -0.00000000000E+00 -0.00000000000E+00 -0.78003787127E+03  0.78003787127E+03  0.00000000000E+00 0.  1.
         25    2    1    2    0    0 -0.13617562380E+03 -0.18096842572E+02  0.17545580192E+03  0.25549541055E+03  0.12498748000E+03 0.  0.
          4    1    3    3  502    0 -0.28170760863E+01 -0.12356615794E+02 -0.17021349820E+02  0.21259377255E+02  0.12700000000E+01 0. -1.
         -4    1    3    3    0  502 -0.13335854771E+03 -0.57402267776E+01  0.19247715174E+03  0.23423603329E+03  0.12700000000E+01 0. -1.
          2    1    1    2  503    0  0.41719537397E+02  0.32315221231E+02  0.80928968237E+03  0.81100837438E+03  0.00000000000E+00 0. -1.
         -1    1    1    2    0  501  0.94456086402E+02 -0.14218378659E+02 -0.73607274148E+03  0.74224470042E+03  0.00000000000E+00 0.  1.
<mgrwt>
<rscale>  0 0.71189510E+02</rscale>
<asrwt>0</asrwt>
<pdfrwt beam="1">  1        2 0.15826317E+00 0.52771141E+02</pdfrwt>
<pdfrwt beam="2">  1       -1 0.12000583E+00 0.96036322E+02</pdfrwt>
<totfact> 0.22182788E+01</totfact>
</mgrwt>
</event>
<event>
 7    1  0.3113151E-004  0.6577983E+02  0.7546771E-02  0.1500313E+00
         -1   -1    0    0    0  501 -0.00000000000E+00  0.00000000000E+00  0.71289890359E+01  0.71289890359E+01  0.00000000000E+00 0.  1.
          2   -1    0    0  503    0  0.00000000000E+00 -0.00000000000E+00 -0.20587020228E+04  0.20587020228E+04  0.00000000000E+00 0. -1.
         25    2    1    2    0    0  0.18754855135E+02 -0.56941391181E+02 -0.10442040177E+04  0.10533683651E+04  0.12501526066E+03 0.  0.
          4    1    3    3  502    0  0.44707800396E+02 -0.87638169688E+02 -0.75224628377E+03  0.75865362357E+03  0.12700000000E+01 0. -1.
         -4    1    3    3    0  502 -0.25952945262E+02  0.30696778506E+02 -0.29195773390E+03  0.29471474151E+03  0.12700000000E+01 0. -1.
          2    1    1    2  503    0  0.42370416274E+01  0.68361802421E+02 -0.87165455442E+03  0.87434143834E+03  0.00000000000E+00 0. -1.
         -1    1    1    2    0  501 -0.22991896762E+02 -0.11420411240E+02 -0.13571446171E+03  0.13812120846E+03  0.00000000000E+00 0.  1.
<mgrwt>
<rscale>  0 0.41093816E+02</rscale>
<asrwt>0</asrwt>
<pdfrwt beam="2">  1        2 0.31672413E+00 0.65779829E+02</pdfrwt>
<pdfrwt beam="1">  1       -1 0.10967650E-02 0.25672030E+02</pdfrwt>
<totfact> 0.10251696E+04</totfact>
</mgrwt>
</event>
<event>
 7    1  0.3113151E-004  0.3782037E+02  0.7546771E-02  0.1563276E+00
          3   -1    0    0  503    0 -0.00000000000E+00  0.00000000000E+00  0.80035277209E+02  0.80035277209E+02  0.00000000000E+00 0. -1.
          2   -1    0    0  502    0  0.00000000000E+00 -0.00000000000E+00 -0.14126461574E+04  0.14126461574E+04  0.00000000000E+00 0. -1.
         25    2    1    2    0    0 -0.50009573222E+02 -0.29242916311E+02 -0.55511015208E+03  0.57195213973E+03  0.12500345444E+03 0.  0.
          4    1    3    3  501    0  0.36047436089E+02 -0.32331231185E+02 -0.26248253587E+03  0.26691463185E+03  0.12700000000E+01 0.  1.
         -4    1    3    3    0  501 -0.86057009311E+02  0.30883148747E+01 -0.29262761621E+03  0.30503750787E+03  0.12700000000E+01 0.  1.
          2    1    1    2  502    0  0.29406398349E+02 -0.23244263141E+01 -0.84387883517E+03  0.84439423711E+03  0.00000000000E+00 0. -1.
          3    1    1    2  503    0  0.20603174873E+02  0.31567342625E+02  0.66378107106E+02  0.76335057728E+02  0.00000000000E+00 0. -1.
<mgrwt>
<rscale>  0 0.33401049E+02</rscale>
<asrwt>0</asrwt>
<pdfrwt beam="2">  1        2 0.21733017E+00 0.29498122E+02</pdfrwt>
<pdfrwt beam="1">  1        3 0.12313120E-01 0.37820375E+02</pdfrwt>
<totfact> 0.47761186E+02</totfact>
</mgrwt>
</event>
<event>
 7    1  0.3113151E-004  0.5779216E+02  0.7546771E-02  0.1453728E+00
          1   -1    0    0  503    0 -0.00000000000E+00  0.00000000000E+00  0.35860011207E+03  0.35860011207E+03  0.00000000000E+00 0. -1.
          2   -1    0    0  502    0  0.00000000000E+00 -0.00000000000E+00 -0.13772404502E+03  0.13772404502E+03  0.00000000000E+00 0. -1.
         25    2    1    2    0    0 -0.20045089313E+02 -0.65902939670E+02  0.46304531884E+02  0.15004662134E+03  0.12499950335E+03 0.  0.
          4    1    3    3  501    0 -0.59184581571E+02  0.18026043572E+01  0.40228556574E+02  0.71596185249E+02  0.12700000000E+01 0.  1.
         -4    1    3    3    0  501  0.39139492258E+02 -0.67705544027E+02  0.60759753100E+01  0.78450436086E+02  0.12700000000E+01 0.  1.
          2    1    1    2  502    0  0.39078292476E+02  0.11247953512E+02 -0.77568149968E+02  0.87581089800E+02  0.00000000000E+00 0. -1.
          1    1    1    2  503    0 -0.19033203163E+02  0.54654986158E+02  0.25213968513E+03  0.25869644596E+03  0.00000000000E+00 0. -1.
<mgrwt>
<rscale>  0 0.48477923E+02</rscale>
<asrwt>0</asrwt>
<pdfrwt beam="2">  1        2 0.21188315E-01 0.40664842E+02</pdfrwt>
<pdfrwt beam="1">  1        1 0.55169248E-01 0.57792158E+02</pdfrwt>
<totfact> 0.23231965E+03</totfact>
</mgrwt>
</event>
<event>
 7    1  0.3113151E-004  0.2623305E+03  0.7546771E-02  0.1227488E+00
          1   -1    0    0  502    0  0.00000000000E+00  0.00000000000E+00  0.42695464631E+03  0.42695464631E+03  0.00000000000E+00 0. -1.
          1   -1    0    0  503    0 -0.00000000000E+00 -0.00000000000E+00 -0.99918060217E+03  0.99918060217E+03  0.00000000000E+00 0. -1.
         25    2    1    2    0    0  0.21147692274E+03  0.17854833499E+03 -0.46012415004E+03  0.55130824956E+03  0.12499822320E+03 0.  0.
          4    1    3    3  501    0  0.15734573116E+03  0.96203793033E+02 -0.38664394216E+03  0.42837833724E+03  0.12700000000E+01 0. -1.
         -4    1    3    3    0  501  0.54131191586E+02  0.82344541961E+02 -0.73480207880E+02  0.12292991232E+03  0.12700000000E+01 0. -1.
          1    1    1    2  502    0 -0.23351617358E+03 -0.11803558115E+03  0.33389589616E+03  0.42420357284E+03  0.00000000000E+00 0. -1.
          1    1    1    2  503    0  0.22039250836E+02 -0.60512753848E+02 -0.44599770198E+03  0.45062342608E+03  0.00000000000E+00 0. -1.
<mgrwt>
<rscale>  0 0.12997852E+03</rscale>
<asrwt>0</asrwt>
<pdfrwt beam="1">  1        1 0.65685330E-01 0.26233053E+03</pdfrwt>
<pdfrwt beam="2">  1        1 0.15372009E+00 0.64401257E+02</pdfrwt>
<totfact> 0.11761223E+02</totfact>
</mgrwt>
</event>
<event>
 7    1  0.3113151E-004  0.6690266E+02  0.7546771E-02  0.1407265E+00
          2   -1    0    0  502    0  0.00000000000E+00  0.00000000000E+00  0.22647997052E+04  0.22647997052E+04  0.00000000000E+00 0. -1.
          2   -1    0    0  503    0 -0.00000000000E+00 -0.00000000000E+00 -0.32822983464E+03  0.32822983464E+03  0.00000000000E+00 0.  1.
         25    2    1    2    0    0 -0.80045569338E+02 -0.70050327997E+02 -0.13548850921E+02  0.16469964909E+03  0.12501224510E+03 0.  0.
          4    1    3    3  501    0 -0.99713765441E+00  0.31959891726E+02 -0.15651160364E+02  0.35623035853E+02  0.12700000000E+01 0.  1.
         -4    1    3    3    0  501 -0.79048431683E+02 -0.10201021972E+03  0.21023094426E+01  0.12907661324E+03  0.12700000000E+01 0.  1.
          2    1    1    2  502    0  0.31357957354E+02  0.58887717339E+02  0.21861010678E+04  0.21871188727E+04  0.00000000000E+00 0. -1.
          2    1    1    2  503    0  0.48687611984E+02  0.11162610658E+02 -0.23598234633E+03  0.24121101802E+03  0.00000000000E+00 0.  1.
<mgrwt>
<rscale>  0 0.57808691E+02</rscale>
<asrwt>0</asrwt>
<pdfrwt beam="1">  1        2 0.34843071E+00 0.66902660E+02</pdfrwt>
<pdfrwt beam="2">  1        2 0.50496899E-01 0.49950850E+02</pdfrwt>
<totfact> 0.97595879E+01</totfact>
</mgrwt>
</event>
<event>
 7    1  0.3113151E-004  0.5305478E+03  0.7546771E-02  0.1177884E+00
          2   -1    0    0  502    0  0.00000000000E+00  0.00000000000E+00  0.12126376039E+04  0.12126376039E+04  0.00000000000E+00 0. -1.
          1   -1    0    0  503    0 -0.00000000000E+00 -0.00000000000E+00 -0.16608017152E+04  0.16608017152E+04  0.00000000000E+00 0. -1.
         25    2    1    2    0    0 -0.49840589612E+03 -0.11110668760E+03 -0.91091856870E+03  0.10517370544E+04  0.12500023805E+03 0.  0.
          4    1    3    3  501    0 -0.58357816769E+02 -0.63486330850E+01 -0.20566396277E+03  0.21388131850E+03  0.12700000000E+01 0.  1.
         -4    1    3    3    0  501 -0.44004807935E+03 -0.10475805451E+03 -0.70525460593E+03  0.83785573591E+03  0.12700000000E+01 0.  1.
          2    1    1    2  502    0 -0.54442425224E+02  0.88224139251E+00  0.10244555544E+04  0.10259015250E+04  0.00000000000E+00 0. -1.
          1    1    1    2  503    0  0.55284832134E+03  0.11022444620E+03 -0.56170109702E+03  0.79580073972E+03  0.00000000000E+00 0. -1.
<mgrwt>
<rscale>  0 0.16996501E+03</rscale>
<asrwt>0</asrwt>
<pdfrwt beam="1">  1        2 0.18655963E+00 0.54449573E+02</pdfrwt>
<pdfrwt beam="2">  1        1 0.25550796E+00 0.53054785E+03</pdfrwt>
<totfact> 0.15839158E+01</totfact>
</mgrwt>
</event>
<event>
 7    1  0.3113151E-004  0.6589787E+02  0.7546771E-02  0.1410610E+00
          3   -1    0    0  503    0  0.00000000000E+00  0.00000000000E+00  0.19623763382E+04  0.19623763382E+04  0.00000000000E+00 0. -1.
         -2   -1    0    0    0  501 -0.00000000000E+00 -0.00000000000E+00 -0.71478331912E+02  0.71478331912E+02  0.00000000000E+00 0. -1.
         25    2    1    2    0    0  0.21950468548E+02  0.92187377559E+02  0.40821556389E+03  0.43731720276E+03  0.12500421424E+03 0.  0.
          4    1    3    3  502    0  0.18441601795E+02 -0.70083872228E+01  0.24837874034E+03  0.24916424648E+03  0.12700000000E+01 0. -1.
         -4    1    3    3    0  502  0.35088667532E+01  0.99195764782E+02  0.15983682355E+03  0.18815295628E+03  0.12700000000E+01 0. -1.
          3    1    1    2  503    0 -0.39620592699E+02 -0.29511763232E+02  0.15204543508E+04  0.15212567727E+04  0.00000000000E+00 0. -1.
         -2    1    1    2    0  501  0.17670124151E+02 -0.62675614327E+02 -0.37771908438E+02  0.75280694642E+02  0.00000000000E+00 0. -1.
<mgrwt>
<rscale>  0 0.57057912E+02</rscale>
<asrwt>0</asrwt>
<pdfrwt beam="1">  1        3 0.30190401E+00 0.49403801E+02</pdfrwt>
<pdfrwt beam="2">  1       -2 0.10996668E-01 0.65897872E+02</pdfrwt>
<totfact> 0.10313227E+01</totfact>
</mgrwt>
</event>
<event>
 7    1  0.3113151E-004  0.5738908E+02  0.7546771E-02  0.1505249E+00
          2   -1    0    0  503    0  0.00000000000E+00  0.00000000000E+00  0.23082396191E+04  0.23082396191E+04  0.00000000000E+00 0. -1.
         -1   -1    0    0    0  501 -0.00000000000E+00 -0.00000000000E+00 -0.55704930189E+01  0.55704930189E+01  0.00000000000E+00 0.  1.
         25    2    1    2    0    0 -0.21360773444E+02 -0.40600655260E+02  0.14437162071E+04  0.14498430069E+04  0.12499424894E+03 0.  0.
          4    1    3    3  502    0 -0.27887805132E+02  0.41048975753E+02  0.65715128871E+03  0.65902365454E+03  0.12700000000E+01 0.  1.
         -4    1    3    3    0  502  0.65270316883E+01 -0.81649631013E+02  0.78656491835E+03  0.79081935236E+03  0.12700000000E+01 0.  1.
          2    1    1    2  503    0  0.18145334617E+02 -0.21909595274E+02  0.35587888111E+03  0.35701409153E+03  0.00000000000E+00 0. -1.
         -1    1    1    2    0  501  0.32154388276E+01  0.62510250534E+02  0.50307403792E+03  0.50695301370E+03  0.00000000000E+00 0.  1.
<mgrwt>
<rscale>  0 0.40405438E+02</rscale>
<asrwt>0</asrwt>
<pdfrwt beam="1">  1        2 0.35511302E+00 0.28447909E+02</pdfrwt>
<pdfrwt beam="2">  1       -1 0.85700077E-03 0.57389083E+02</pdfrwt>
<totfact> 0.14272175E+04</totfact>
</mgrwt>
</event>
<event>
 7    1  0.3113151E-004  0.1238621E+03  0.7546771E-02  0.1391673E+00
          1   -1    0    0  503    0  0.00000000000E+00  0.00000000000E+00  0.14878154884E+04  0.14878154884E+04  0.00000000000E+00 0. -1.
         -2   -1    0    0    0  501 -0.00000000000E+00 -0.00000000000E+00 -0.29621063827E+03  0.29621063827E+03  0.00000000000E+00 0.  1.
         25    2    1    2    0    0  0.59705859926E+02 -0.99347075505E+02 -0.87628822184E+02  0.19166753950E+03  0.12499201614E+03 0.  0.
          4    1    3    3  502    0  0.14219396850E+02 -0.39616837901E+02 -0.10626157833E+03  0.11430144803E+03  0.12700000000E+01 0.  1.
         -4    1    3    3    0  502  0.45486463076E+02 -0.59730237604E+02  0.18632756147E+02  0.77366091468E+02  0.12700000000E+01 0.  1.
          1    1    1    2  503    0 -0.87881583387E+02  0.87594848477E+02  0.14315983962E+04  0.14369655522E+04  0.00000000000E+00 0. -1.
         -2    1    1    2    0  501  0.28175723461E+02  0.11752227029E+02 -0.15236472389E+03  0.15539303497E+03  0.00000000000E+00 0.  1.
<mgrwt>
<rscale>  0 0.61492410E+02</rscale>
<asrwt>0</asrwt>
<pdfrwt beam="1">  1        1 0.22889469E+00 0.12386205E+03</pdfrwt>
<pdfrwt beam="2">  1       -2 0.45570868E-01 0.30528450E+02</pdfrwt>
<totfact> 0.31764854E+01</totfact>
</mgrwt>
</event>
<event>
 7    1  0.3113151E-004  0.1193778E+03  0.7546771E-02  0.1283655E+00
          2   -1    0    0  502    0  0.00000000000E+00  0.00000000000E+00  0.88387609739E+03  0.88387609739E+03  0.00000000000E+00 0. -1.
          1   -1    0    0  503    0 -0.00000000000E+00 -0.00000000000E+00 -0.46451586355E+03  0.46451586355E+03  0.00000000000E+00 0. -1.
         25    2    1    2    0    0  0.27026207217E+02 -0.25069491717E+00 -0.14747190759E+03  0.19520158017E+03  0.12500085859E+03 0.  0.
          4    1    3    3  501    0 -0.29464823234E+02 -0.44883505182E+02 -0.81111508208E+02  0.97279980004E+02  0.12700000000E+01 0. -1.
         -4    1    3    3    0  501  0.56491030451E+02  0.44632810265E+02 -0.66360399378E+02  0.97921600167E+02  0.12700000000E+01 0. -1.
          2    1    1    2  502    0 -0.77058761767E+01 -0.11912885972E+03  0.84315442312E+03  0.85156353079E+03  0.00000000000E+00 0. -1.
          1    1    1    2  503    0 -0.19320331040E+02  0.11937955464E+03 -0.27632228170E+03  0.30162684997E+03  0.00000000000E+00 0. -1.
<mgrwt>
<rscale>  0 0.98419677E+02</rscale>
<asrwt>0</asrwt>
<pdfrwt beam="1">  1        2 0.13598094E+00 0.11937783E+03</pdfrwt>
<pdfrwt beam="2">  1        1 0.71463979E-01 0.81140971E+02</pdfrwt>
<totfact> 0.22521794E+02</totfact>
</mgrwt>
</event>
<event>
 7    1  0.3113151E-004  0.4365565E+02  0.7546771E-02  0.1599690E+00
         -1   -1    0    0    0  501 -0.00000000000E+00  0.00000000000E+00  0.73669131317E+03  0.73669131317E+03  0.00000000000E+00 0.  1.
          2   -1    0    0  503    0  0.00000000000E+00 -0.00000000000E+00 -0.32041781278E+02  0.32041781278E+02  0.00000000000E+00 0. -1.
         25    2    1    2    0    0  0.33429020648E+02 -0.15674473868E+02  0.64811066934E+03  0.66108751171E+03  0.12500427946E+03 0.  0.
          4    1    3    3  502    0  0.73182564688E+02 -0.11853320919E+02  0.55264888694E+03  0.55760074796E+03  0.12700000000E+01 0.  1.
         -4    1    3    3    0  502 -0.39753544040E+02 -0.38211529496E+01  0.95461782398E+02  0.10348676375E+03  0.12700000000E+01 0.  1.
          2    1    1    2  503    0  0.19983529308E+02  0.41892880846E+01 -0.90070747584E+01  0.22316338722E+02  0.00000000000E+00 0. -1.
         -1    1    1    2    0  501 -0.53412549955E+02  0.11485185784E+02  0.65545937308E+02  0.85329244007E+02  0.00000000000E+00 0.  1.
<mgrwt>
<rscale>  0 0.29855615E+02</rscale>
<asrwt>0</asrwt>
<pdfrwt beam="2">  1        2 0.49295054E-02 0.20417923E+02</pdfrwt>
<pdfrwt beam="1">  1       -1 0.11333711E+00 0.43655652E+02</pdfrwt>
<totfact> 0.11660792E+03</totfact>
</mgrwt>
</event>
<event>
 7    1  0.3113151E-004  0.1361564E+03  0.7546771E-02  0.1275107E+00
          2   -1    0    0  502    0  0.00000000000E+00  0.00000000000E+00  0.14745208419E+04  0.14745208419E+04  0.00000000000E+00 0. -1.
          1   -1    0    0  503    0 -0.00000000000E+00 -0.00000000000E+00 -0.44434299318E+03  0.44434299318E+03  0.00000000000E+00 0. -1.
         25    2    1    2    0    0  0.18311370396E+03  0.78246473200E+02 -0.14068201912E+03  0.27398747606E+03  0.12499826955E+03 0.  0.
          4    1    3    3  501    0  0.17402611607E+02  0.66751233829E+02 -0.41994454543E+02  0.80769581037E+02  0.12700000000E+01 0.  1.
         -4    1    3    3    0  501  0.16571109235E+03  0.11495239371E+02 -0.98687564573E+02  0.19321789502E+03  0.12700000000E+01 0.  1.
          2    1    1    2  502    0 -0.13396722285E+03 -0.18741748358E+02  0.13982336065E+04  0.14047617906E+04  0.00000000000E+00 0. -1.
          1    1    1    2  503    0 -0.49146481104E+02 -0.59504724842E+02 -0.22737373872E+03  0.24011456837E+03  0.00000000000E+00 0. -1.
<mgrwt>
<rscale>  0 0.10250880E+03</rscale>
<asrwt>0</asrwt>
<pdfrwt beam="1">  1        2 0.22684936E+00 0.13615639E+03</pdfrwt>
<pdfrwt beam="2">  1        1 0.68360461E-01 0.77176349E+02</pdfrwt>
<totfact> 0.11001428E+02</totfact>
</mgrwt>
</event>
<event>
 7    1  0.3113151E-004  0.5848950E+02  0.7546771E-02  0.1516501E+00
         -1   -1    0    0    0  502 -0.00000000000E+00  0.00000000000E+00  0.56336847606E+03  0.56336847606E+03  0.00000000000E+00 0.  1.
         -2   -1    0    0    0  501  0.00000000000E+00 -0.00000000000E+00 -0.32603523573E+02  0.32603523573E+02  0.00000000000E+00 0.  1.
         25    2    1    2    0    0  0.67467478541E+02 -0.37968761341E+02  0.26172573479E+03  0.30019785033E+03  0.12499960637E+03 0.  0.
          4    1    3    3  503    0 -0.32045119911E+02  0.85930147231E+01  0.34948290919E+02  0.48205036566E+02  0.12700000000E+01 0.  1.
         -4    1    3    3    0  503  0.99512598452E+02 -0.46561776064E+02  0.22677744387E+03  0.25199281376E+03  0.12700000000E+01 0.  1.
         -2    1    1    2    0  501 -0.41730150189E+02  0.35398265344E+02  0.46712480133E+02  0.71947886865E+02  0.00000000000E+00 0.  1.
         -1    1    1    2    0  502 -0.25737328352E+02  0.25704959969E+01  0.22232673757E+03  0.22382626244E+03  0.00000000000E+00 0.  1.
<mgrwt>
<rscale>  0 0.38895408E+02</rscale>
<asrwt>0</asrwt>
<pdfrwt beam="2">  1       -2 0.50159271E-02 0.58489501E+02</pdfrwt>
<pdfrwt beam="1">  1       -1 0.86672066E-01 0.25865373E+02</pdfrwt>
<totfact> 0.18652823E+03</totfact>
</mgrwt>
</event>
<event>
 7    1  0.3113151E-004  0.4297894E+02  0.7546771E-02  0.1530216E+00
          2   -1    0    0  502    0  0.00000000000E+00  0.00000000000E+00  0.25414097964E+03  0.25414097964E+03  0.00000000000E+00 0. -1.
          1   -1    0    0  503    0 -0.00000000000E+00 -0.00000000000E+00 -0.57900310597E+03  0.57900310597E+03  0.00000000000E+00 0. -1.
         25    2    1    2    0    0 -0.18046696774E+02 -0.63397858197E+02 -0.29845272678E+03  0.33021545943E+03  0.12499299114E+03 0.  0.
          4    1    3    3  501    0 -0.94435545059E+00  0.35800221070E+02 -0.45159227540E+02  0.57649946816E+02  0.12700000000E+01 0. -1.
         -4    1    3    3    0  501 -0.17102341324E+02 -0.99198079266E+02 -0.25329349924E+03  0.27256551262E+03  0.12700000000E+01 0. -1.
          2    1    1    2  502    0 -0.75457339233E+01  0.31230003723E+02  0.23556646793E+03  0.23774737022E+03  0.00000000000E+00 0. -1.
          1    1    1    2  503    0  0.25592430697E+02  0.32167854474E+02 -0.26197586748E+03  0.26518125596E+03  0.00000000000E+00 0. -1.
<mgrwt>
<rscale>  0 0.37159869E+02</rscale>
<asrwt>0</asrwt>
<pdfrwt beam="1">  1        2 0.39098613E-01 0.32128667E+02</pdfrwt>
<pdfrwt beam="2">  1        1 0.89077400E-01 0.42978935E+02</pdfrwt>
<totfact> 0.67706507E+02</totfact>
</mgrwt>
</event>
<event>
 7    1  0.3113151E-004  0.2522887E+03  0.7546771E-02  0.1262969E+00
          2   -1    0    0  503    0  0.00000000000E+00  0.00000000000E+00  0.37231092438E+03  0.37231092438E+03  0.00000000000E+00 0. -1.
          2   -1    0    0  502    0 -0.00000000000E+00 -0.00000000000E+00 -0.51957564361E+03  0.51957564361E+03  0.00000000000E+00 0. -1.
         25    2    1    2    0    0  0.14062730300E+03  0.15783910684E+03 -0.31298765231E+03  0.39783647664E+03  0.12499347842E+03 0.  0.
          4    1    3    3  501    0 -0.95677618066E+01  0.59399643727E+02 -0.11983821747E+03  0.13409948176E+03  0.12700000000E+01 0.  1.
         -4    1    3    3    0  501  0.15019506481E+03  0.98439463113E+02 -0.19314943484E+03  0.26373699488E+03  0.12700000000E+01 0.  1.
          2    1    1    2  502    0  0.29231314266E+02  0.36608029064E+02 -0.10802946449E+03  0.11774966125E+03  0.00000000000E+00 0. -1.
          2    1    1    2  503    0 -0.16985861727E+03 -0.19444713590E+03  0.27375239757E+03  0.37630043011E+03  0.00000000000E+00 0. -1.
<mgrwt>
<rscale>  0 0.10871479E+03</rscale>
<asrwt>0</asrwt>
<pdfrwt beam="1">  1        2 0.57278604E-01 0.25228873E+03</pdfrwt>
<pdfrwt beam="2">  1        2 0.79934714E-01 0.46846745E+02</pdfrwt>
<totfact> 0.81989035E+02</totfact>
</mgrwt>
</event>
<event>
 7    1  0.3113151E-004  0.6392978E+02  0.7546771E-02  0.1411454E+00
          2   -1    0    0  502    0  0.00000000000E+00  0.00000000000E+00  0.17867684835E+04  0.17867684835E+04  0.00000000000E+00 0. -1.
          1   -1    0    0  503    0 -0.00000000000E+00 -0.00000000000E+00 -0.34304509248E+02  0.34304509248E+02  0.00000000000E+00 0. -1.
         25    2    1    2    0    0 -0.22321438043E+02 -0.35011683795E+02  0.11951428272E+03  0.17784550847E+03  0.12498518516E+03 0.  0.
          4    1    3    3  501    0 -0.92682231363E+01 -0.53007069871E+02  0.13849449613E+03  0.14858663391E+03  0.12700000000E+01 0.  1.
         -4    1    3    3    0  501 -0.13053214906E+02  0.17995386076E+02 -0.18980213414E+02  0.29258874563E+02  0.12700000000E+01 0.  1.
          2    1    1    2  502    0  0.28446645614E+02 -0.57252116209E+02  0.11327689078E+04  0.11345714675E+04  0.00000000000E+00 0. -1.
          1    1    1    2  503    0 -0.61252075710E+01  0.92263800004E+02  0.50018078377E+03  0.50865601679E+03  0.00000000000E+00 0. -1.
<mgrwt>
<rscale>  0 0.56870551E+02</rscale>
<asrwt>0</asrwt>
<pdfrwt beam="1">  1        2 0.27488739E+00 0.63929778E+02</pdfrwt>
<pdfrwt beam="2">  1        1 0.52776182E-02 0.50590816E+02</pdfrwt>
<totfact> 0.19954062E+03</totfact>
</mgrwt>
</event>
<event>
 7    1  0.3113151E-004  0.9679833E+02  0.7546771E-02  0.1432555E+00
         -2   -1    0    0    0  501 -0.00000000000E+00  0.00000000000E+00  0.59229805700E+03  0.59229805700E+03  0.00000000000E+00 0.  1.
          1   -1    0    0  503    0  0.00000000000E+00 -0.00000000000E+00 -0.40876601084E+02  0.40876601084E+02  0.00000000000E+00 0. -1.
         25    2    1    2    0    0  0.11305098835E+03 -0.12717059934E+02  0.26153034975E+03  0.31139470470E+03  0.12500515469E+03 0.  0.
          4    1    3    3  502    0  0.12269209533E+03 -0.84817270854E+01  0.12825177264E+03  0.17769473835E+03  0.12700000000E+01 0. -1.
         -4    1    3    3    0  502 -0.96411069825E+01 -0.42353328481E+01  0.13327857710E+03  0.13369996635E+03  0.12700000000E+01 0. -1.
          1    1    1    2  503    0 -0.24859659215E+02 -0.13774067414E+02  0.15548973405E+02  0.32395959059E+02  0.00000000000E+00 0. -1.
         -2    1    1    2    0  501 -0.88191329130E+02  0.26491127347E+02  0.27434213276E+03  0.28938399433E+03  0.00000000000E+00 0.  1.
<mgrwt>
<rscale>  0 0.52450563E+02</rscale>
<asrwt>0</asrwt>
<pdfrwt beam="2">  1        1 0.62887083E-02 0.28420549E+02</pdfrwt>
<pdfrwt beam="1">  1       -2 0.91122772E-01 0.96798326E+02</pdfrwt>
<totfact> 0.95545933E+02</totfact>
</mgrwt>
</event>
<event>
 7    1  0.3113151E-004  0.1746857E+03  0.7546771E-02  0.1257756E+00
          1   -1    0    0  502    0  0.00000000000E+00  0.00000000000E+00  0.48438121792E+03  0.48438121792E+03  0.00000000000E+00 0. -1.
          1   -1    0    0  503    0 -0.00000000000E+00 -0.00000000000E+00 -0.78688089510E+03  0.78688089510E+03  0.00000000000E+00 0. -1.
         25    2    1    2    0    0  0.22039716726E+03 -0.14910763185E+02  0.22808490703E+03  0.34124101199E+03  0.12500184500E+03 0.  0.
          4    1    3    3  501    0 -0.38064428941E+01 -0.27701124329E+02  0.15436108789E+02  0.31964474830E+02  0.12700000000E+01 0.  1.
         -4    1    3    3    0  501  0.22420361015E+03  0.12790361144E+02  0.21264879824E+03  0.30927653716E+03  0.12700000000E+01 0.  1.
          1    1    1    2  502    0 -0.14959639461E+03  0.22555378175E+02  0.16899890269E+03  0.22682251977E+03  0.00000000000E+00 0. -1.
          1    1    1    2  503    0 -0.70800772650E+02 -0.76446149897E+01 -0.69958348690E+03  0.70319858126E+03  0.00000000000E+00 0. -1.
<mgrwt>
<rscale>  0 0.11153372E+03</rscale>
<asrwt>0</asrwt>
<pdfrwt beam="1">  1        1 0.74520187E-01 0.17468574E+03</pdfrwt>
<pdfrwt beam="2">  1        1 0.12105860E+00 0.71212285E+02</pdfrwt>
<totfact> 0.14442083E+02</totfact>
</mgrwt>
</event>
<event>
 7    1  0.3113151E-004  0.1128033E+03  0.7546771E-02  0.1407883E+00
          1   -1    0    0  503    0 -0.00000000000E+00  0.00000000000E+00  0.59060755331E+03  0.59060755331E+03  0.00000000000E+00 0. -1.
          2   -1    0    0  502    0  0.00000000000E+00 -0.00000000000E+00 -0.10430217755E+04  0.10430217755E+04  0.00000000000E+00 0. -1.
         25    2    1    2    0    0  0.11100738166E+03  0.76570988127E+02  0.15062712163E+03  0.23769695848E+03  0.12500223714E+03 0.  0.
          4    1    3    3  501    0  0.96593020120E+02  0.69163113303E+02  0.17310666270E+03  0.20995541752E+03  0.12700000000E+01 0. -1.
         -4    1    3    3    0  501  0.14414361545E+02  0.74078748240E+01 -0.22479541062E+02  0.27741540954E+02  0.12700000000E+01 0. -1.
          2    1    1    2  502    0 -0.14460830262E+02 -0.25692316675E+02 -0.99175323204E+03  0.99219135454E+03  0.00000000000E+00 0. -1.
          1    1    1    2  503    0 -0.96546551403E+02 -0.50878671452E+02  0.38871188822E+03  0.40374101580E+03  0.00000000000E+00 0. -1.
<mgrwt>
<rscale>  0 0.57668962E+02</rscale>
<asrwt>0</asrwt>
<pdfrwt beam="2">  1        2 0.16046489E+00 0.29482380E+02</pdfrwt>
<pdfrwt beam="1">  1        1 0.90862701E-01 0.11280328E+03</pdfrwt>
<totfact> 0.14143942E+02</totfact>
</mgrwt>
</event>
<event>
 7    1  0.3113151E-004  0.6254271E+02  0.7546771E-02  0.1525400E+00
          2   -1    0    0  503    0  0.00000000000E+00  0.00000000000E+00  0.10580425035E+04  0.10580425035E+04  0.00000000000E+00 0. -1.
         -1   -1    0    0    0  501 -0.00000000000E+00 -0.00000000000E+00 -0.13813075338E+02  0.13813075338E+02  0.00000000000E+00 0.  1.
         25    2    1    2    0    0  0.54939716485E+02  0.30782001367E+02  0.59872720132E+03  0.61486795771E+03  0.12498975865E+03 0.  0.
          4    1    3    3  502    0 -0.46057415338E+01 -0.15808235861E+02  0.63644994047E+01  0.17698387746E+02  0.12700000000E+01 0. -1.
         -4    1    3    3    0  502  0.59545458018E+02  0.46590237228E+02  0.59236270192E+03  0.59716956997E+03  0.12700000000E+01 0. -1.
          2    1    1    2  503    0  0.77635512965E+01 -0.21430577927E+02  0.25907620492E+03  0.26007695468E+03  0.00000000000E+00 0. -1.
         -1    1    1    2    0  501 -0.62703267781E+02 -0.93514234393E+01  0.18642602194E+03  0.19691066647E+03  0.00000000000E+00 0.  1.
<mgrwt>
<rscale>  0 0.37756663E+02</rscale>
<asrwt>0</asrwt>
<pdfrwt beam="1">  1        2 0.16277571E+00 0.22793473E+02</pdfrwt>
<pdfrwt beam="2">  1       -1 0.21250894E-02 0.62542712E+02</pdfrwt>
<totfact> 0.16549340E+04</totfact>
</mgrwt>
</event>
<event>
 7    1  0.3113151E-004  0.1192053E+03  0.7546771E-02  0.1448573E+00
         -2   -1    0    0    0  501 -0.00000000000E+00  0.00000000000E+00  0.10917788732E+04  0.10917788732E+04  0.00000000000E+00 0. -1.
          1   -1    0    0  503    0  0.00000000000E+00 -0.00000000000E+00 -0.18632092548E+03  0.18632092548E+03  0.00000000000E+00 0. -1.
         25    2    1    2    0    0 -0.16944685866E+02  0.11033894151E+03  0.41935843349E+03  0.45160568201E+03  0.12499756754E+03 0.  0.
          4    1    3    3  502    0  0.47352920167E+02  0.32072412137E+02  0.86753437608E+02  0.10391684418E+03  0.12700000000E+01 0.  1.
         -4    1    3    3    0  502 -0.64297606032E+02  0.78266529369E+02  0.33260499588E+03  0.34768883782E+03  0.12700000000E+01 0.  1.
          1    1    1    2  503    0 -0.13013910628E+01 -0.11963283182E+03 -0.14898671612E+03  0.19107786279E+03  0.00000000000E+00 0. -1.
         -2    1    1    2    0  501  0.18246076929E+02  0.92938903172E+01  0.63508623039E+03  0.63541625393E+03  0.00000000000E+00 0. -1.
<mgrwt>
<rscale>  0 0.49405790E+02</rscale>
<asrwt>0</asrwt>
<pdfrwt beam="2">  1        1 0.28664759E-01 0.11920528E+03</pdfrwt>
<pdfrwt beam="1">  1       -2 0.16796598E+00 0.20476712E+02</pdfrwt>
<totfact> 0.37811951E+01</totfact>
</mgrwt>
</event>
<event>
 7    1  0.3113151E-004  0.6895537E+02  0.7546771E-02  0.1436018E+00
          1   -1    0    0  503    0  0.00000000000E+00  0.00000000000E+00  0.76580364234E+02  0.76580364234E+02  0.00000000000E+00 0. -1.
         -2   -1    0    0    0  501 -0.00000000000E+00 -0.00000000000E+00 -0.29011960534E+03  0.29011960534E+03  0.00000000000E+00 0.  1.
         25    2    1    2    0    0  0.63541011692E+02 -0.38524046012E+02 -0.21238781578E+03  0.25740077358E+03  0.12500004664E+03 0.  0.
          4    1    3    3  502    0  0.89238356507E+02 -0.38468344890E+01 -0.86633459657E+02  0.12443975104E+03  0.12700000000E+01 0.  1.
         -4    1    3    3    0  502 -0.25697344815E+02 -0.34677211523E+02 -0.12575435613E+03  0.13296102254E+03  0.12700000000E+01 0.  1.
          1    1    1    2  503    0 -0.32291896294E+02  0.61638430758E+02 -0.72240027736E+01  0.69958908858E+02  0.00000000000E+00 0. -1.
         -2    1    1    2    0  501 -0.31249115398E+02 -0.23114384746E+02  0.60725774458E+01  0.39340287139E+02  0.00000000000E+00 0.  1.
<mgrwt>
<rscale>  0 0.51770756E+02</rscale>
<asrwt>0</asrwt>
<pdfrwt beam="1">  1        1 0.11781595E-01 0.68955372E+02</pdfrwt>
<pdfrwt beam="2">  1       -2 0.44633785E-01 0.38868779E+02</pdfrwt>
<totfact> 0.19981170E+03</totfact>
</mgrwt>
</event>
<event>
 7    1  0.3113151E-004  0.8097041E+02  0.7546771E-02  0.1377893E+00
          2   -1    0    0  503    0  0.00000000000E+00  0.00000000000E+00  0.53991547942E+03  0.53991547942E+03  0.00000000000E+00 0. -1.
         -3   -1    0    0    0  501 -0.00000000000E+00 -0.00000000000E+00 -0.71010385242E+02  0.71010385242E+02  0.00000000000E+00 0.  1.
         25    2    1    2    0    0  0.35838579398E+02 -0.74429210225E+02  0.21982233851E+03  0.26601093646E+03  0.12496338144E+03 0.  0.
          4    1    3    3  502    0  0.54678999056E+02 -0.43182088945E+02  0.21864590029E+03  0.22948230511E+03  0.12700000000E+01 0. -1.
         -4    1    3    3    0  502 -0.18840419658E+02 -0.31247121281E+02  0.11764382140E+01  0.36528631347E+02  0.12700000000E+01 0. -1.
          2    1    1    2  503    0 -0.74370556121E+02  0.39194354832E+02  0.27432733543E+03  0.28691926396E+03  0.00000000000E+00 0. -1.
         -3    1    1    2    0  501  0.38531976723E+02  0.35234855393E+02 -0.25244579753E+02  0.57995664249E+02  0.00000000000E+00 0.  1.
<mgrwt>
<rscale>  0 0.65020891E+02</rscale>
<asrwt>0</asrwt>
<pdfrwt beam="1">  1        2 0.83063917E-01 0.80970405E+02</pdfrwt>
<pdfrwt beam="2">  1       -3 0.10924675E-01 0.52213104E+02</pdfrwt>
<totfact> 0.19564459E+03</totfact>
</mgrwt>
</event>
<event>
 7    1  0.3113151E-004  0.1066364E+03  0.7546771E-02  0.1393994E+00
          2   -1    0    0  503    0  0.00000000000E+00  0.00000000000E+00  0.72394519408E+03  0.72394519408E+03  0.00000000000E+00 0.  1.
         -1   -1    0    0    0  501 -0.00000000000E+00 -0.00000000000E+00 -0.15037148001E+03  0.15037148001E+03  0.00000000000E+00 0.  1.
         25    2    1    2    0    0  0.12574420479E+03  0.23990863060E+02  0.18973766373E+03  0.26079071311E+03  0.12499699380E+03 0.  0.
          4    1    3    3  502    0  0.48124968547E+02  0.21879369611E+02  0.17359740537E+03  0.18147283947E+03  0.12700000000E+01 0.  1.
         -4    1    3    3    0  502  0.77619236246E+02  0.21114934491E+01  0.16140258357E+02  0.79317873647E+02  0.12700000000E+01 0.  1.
          2    1    1    2  503    0 -0.95340402310E+02 -0.40937127141E+02  0.49048560760E+03  0.50133997641E+03  0.00000000000E+00 0.  1.
         -1    1    1    2    0  501 -0.30403802483E+02  0.16946264080E+02 -0.10664955725E+03  0.11218598456E+03  0.00000000000E+00 0.  1.
<mgrwt>
<rscale>  0 0.60924172E+02</rscale>
<asrwt>0</asrwt>
<pdfrwt beam="1">  1        2 0.11137618E+00 0.10663642E+03</pdfrwt>
<pdfrwt beam="2">  1       -1 0.23134074E-01 0.34807572E+02</pdfrwt>
<totfact> 0.70514403E+02</totfact>
</mgrwt>
</event>
<event>
 7    1  0.3113151E-004  0.1029015E+03  0.7546771E-02  0.1377167E+00
          3   -1    0    0  503    0 -0.00000000000E+00  0.00000000000E+00  0.26870292931E+04  0.26870292931E+04  0.00000000000E+00 0.  1.
          1   -1    0    0  502    0  0.00000000000E+00 -0.00000000000E+00 -0.23909795596E+03  0.23909795596E+03  0.00000000000E+00 0. -1.
         25    2    1    2    0    0  0.13590603756E+03  0.33963103798E+02  0.62030169392E+03  0.64809194337E+03  0.12500012850E+03 0.  0.
          4    1    3    3  501    0  0.89676521391E+02 -0.40849559988E+02  0.29036246344E+03  0.30663094775E+03  0.12700000000E+01 0. -1.
         -4    1    3    3    0  501  0.46229516169E+02  0.74812663787E+02  0.32993923047E+03  0.34146099562E+03  0.12700000000E+01 0. -1.
          1    1    1    2  502    0 -0.94803329273E+02 -0.38292073505E+02 -0.21337778722E+03  0.23660945504E+03  0.00000000000E+00 0. -1.
          3    1    1    2  503    0 -0.41102708286E+02  0.43289697069E+01  0.20410074304E+04  0.20414258507E+04  0.00000000000E+00 0.  1.
<mgrwt>
<rscale>  0 0.65214442E+02</rscale>
<asrwt>0</asrwt>
<pdfrwt beam="2">  1        1 0.36784303E-01 0.10290150E+03</pdfrwt>
<pdfrwt beam="1">  1        3 0.41338910E+00 0.41330045E+02</pdfrwt>
<totfact> 0.90842444E-01</totfact>
</mgrwt>
</event>
<event>
 7    1  0.3113151E-004  0.1165497E+03  0.7546771E-02  0.1368771E+00
          1   -1    0    0  503    0  0.00000000000E+00  0.00000000000E+00  0.25994566479E+03  0.25994566479E+03  0.00000000000E+00 0. -1.
         -1   -1    0    0    0  501 -0.00000000000E+00 -0.00000000000E+00 -0.10743736508E+04  0.10743736508E+04  0.00000000000E+00 0.  1.
         25    2    1    2    0    0 -0.84295681970E+01 -0.12135034382E+03 -0.92281765629E+02  0.19731442364E+03  0.12498037424E+03 0.  0.
          4    1    3    3  502    0  0.48099361129E+02 -0.10257793488E+03 -0.72613707136E+02  0.13457393741E+03  0.12700000000E+01 0.  1.
         -4    1    3    3    0  502 -0.56528929326E+02 -0.18772408936E+02 -0.19668058493E+02  0.62740486234E+02  0.12700000000E+01 0.  1.
          1    1    1    2  503    0 -0.29723366460E+02  0.11277641358E+03  0.19058400010E+03  0.22343737169E+03  0.00000000000E+00 0. -1.
         -1    1    1    2    0  501  0.38152934657E+02  0.85739302341E+01 -0.91273022046E+03  0.91356752025E+03  0.00000000000E+00 0.  1.
<mgrwt>
<rscale>  0 0.67510082E+02</rscale>
<asrwt>0</asrwt>
<pdfrwt beam="1">  1        1 0.39991642E-01 0.11654966E+03</pdfrwt>
<pdfrwt beam="2">  1       -1 0.16528825E+00 0.39104459E+02</pdfrwt>
<totfact> 0.35471524E+01</totfact>
</mgrwt>
</event>
<event>
 7    1  0.3113151E-004  0.7419659E+02  0.7546771E-02  0.1492552E+00
          1   -1    0    0  503    0  0.00000000000E+00  0.00000000000E+00  0.76096026017E+03  0.76096026017E+03  0.00000000000E+00 0. -1.
         -2   -1    0    0    0  501 -0.00000000000E+00 -0.00000000000E+00 -0.28514686053E+02  0.28514686053E+02  0.00000000000E+00 0. -1.
         25    2    1    2    0    0  0.14074764869E+02 -0.90726343247E+02  0.30877902102E+03  0.34554211850E+03  0.12500201388E+03 0.  0.
          4    1    3    3  502    0 -0.44485569789E+01 -0.11903868545E+03  0.26184386633E+03  0.28766963957E+03  0.12700000000E+01 0. -1.
         -4    1    3    3    0  502  0.18523321848E+02  0.28312342199E+02  0.46935154684E+02  0.57872478936E+02  0.12700000000E+01 0. -1.
          1    1    1    2  503    0 -0.33762015128E+01  0.23774274264E+02  0.31456212578E+03  0.31547733014E+03  0.00000000000E+00 0. -1.
         -2    1    1    2    0  501 -0.10698563356E+02  0.66952068983E+02  0.10910442732E+03  0.12845549758E+03  0.00000000000E+00 0. -1.
<mgrwt>
<rscale>  0 0.42209814E+02</rscale>
<asrwt>0</asrwt>
<pdfrwt beam="1">  1        1 0.11707079E+00 0.24012806E+02</pdfrwt>
<pdfrwt beam="2">  1       -2 0.43868754E-02 0.74196593E+02</pdfrwt>
<totfact> 0.51832778E+03</totfact>
</mgrwt>
</event>
<event>
 7    1  0.3113151E-004  0.9105687E+02  0.7546771E-02  0.1481439E+00
          2   -1    0    0  503    0  0.00000000000E+00  0.00000000000E+00  0.31373139105E+03  0.31373139105E+03  0.00000000000E+00 0. -1.
         -2   -1    0    0    0  501 -0.00000000000E+00 -0.00000000000E+00 -0.12046463777E+03  0.12046463777E+03  0.00000000000E+00 0.  1.
         25    2    1    2    0    0 -0.60189077732E+02  0.43698303819E+02  0.85490463202E+02  0.16871464867E+03  0.12499498607E+03 0.  0.
          4    1    3    3  502    0 -0.45629451543E+02  0.53155998637E+02 -0.10773549448E+02  0.70889274978E+02  0.12700000000E+01 0.  1.
         -4    1    3    3    0  502 -0.14559626189E+02 -0.94576948179E+01  0.96264012650E+02  0.97825373689E+02  0.12700000000E+01 0.  1.
          2    1    1    2  503    0 -0.12935394775E+02  0.16731076674E+02  0.15713101580E+03  0.15854781453E+03  0.00000000000E+00 0. -1.
         -2    1    1    2    0  501  0.73124472507E+02 -0.60429380493E+02 -0.49354725716E+02  0.10693356562E+03  0.00000000000E+00 0.  1.
<mgrwt>
<rscale>  0 0.43882844E+02</rscale>
<asrwt>0</asrwt>
<pdfrwt beam="1">  1        2 0.48266368E-01 0.21148366E+02</pdfrwt>
<pdfrwt beam="2">  1       -2 0.18533021E-01 0.91056870E+02</pdfrwt>
<totfact> 0.23471689E+03</totfact>
</mgrwt>
</event>
<event>
 7    1  0.3113151E-004  0.7393564E+02  0.7546771E-02  0.1428385E+00
          3   -1    0    0  503    0 -0.00000000000E+00  0.00000000000E+00  0.11189275565E+03  0.11189275565E+03  0.00000000000E+00 0. -1.
          2   -1    0    0  502    0  0.00000000000E+00 -0.00000000000E+00 -0.37811065572E+03  0.37811065572E+03  0.00000000000E+00 0.  1.
         25    2    1    2    0    0 -0.23680055850E+02 -0.54600293786E+02 -0.26570001021E+03  0.29960336753E+03  0.12499498105E+03 0.  0.
          4    1    3    3  501    0 -0.10192531821E+02 -0.86685856448E+02 -0.11196281148E+03  0.14197045280E+03  0.12700000000E+01 0.  1.
         -4    1    3    3    0  501 -0.13487524029E+02  0.32085562662E+02 -0.15373719872E+03  0.15763291473E+03  0.12700000000E+01 0.  1.
          2    1    1    2  502    0  0.25149030027E+02  0.92975272775E+02 -0.64400236559E+02  0.11586313274E+03  0.00000000000E+00 0.  1.
          3    1    1    2  503    0 -0.14689741769E+01 -0.38374978989E+02  0.63882346688E+02  0.74536911097E+02  0.00000000000E+00 0. -1.
<mgrwt>
<rscale>  0 0.53285613E+02</rscale>
<asrwt>0</asrwt>
<pdfrwt beam="2">  1        2 0.58170870E-01 0.73935638E+02</pdfrwt>
<pdfrwt beam="1">  1        3 0.17214270E-01 0.38403084E+02</pdfrwt>
<totfact> 0.12913880E+03</totfact>
</mgrwt>
</event>
<event>
 7    1  0.3151718E-004  0.5212118E+02  0.7546771E-02  0.1440808E+00
         -1   -1    0    0    0  501 -0.00000000000E+00  0.00000000000E+00  0.92278974545E+01  0.92278974545E+01  0.00000000000E+00 0.  1.
          2   -1    0    0  503    0  0.00000000000E+00 -0.00000000000E+00 -0.17605011410E+04  0.17605011410E+04  0.00000000000E+00 0. -1.
         25    2    1    2    0    0  0.27681571698E+02 -0.64694171540E+02 -0.83662342666E+03  0.84883157357E+03  0.12499870808E+03 0.  0.
          4    1    3    3  502    0 -0.40213060441E+02  0.39354601684E+01 -0.14603330704E+03  0.15152530396E+03  0.12700000000E+01 0. -1.
         -4    1    3    3    0  502  0.67894632139E+02 -0.68629631708E+02 -0.69059011962E+03  0.69730626961E+03  0.12700000000E+01 0. -1.
          2    1    1    2  503    0 -0.48073722551E+02  0.19468419735E+02 -0.61351346882E+03  0.61570193974E+03  0.00000000000E+00 0. -1.
         -1    1    1    2    0  501  0.20392150853E+02  0.45225751804E+02 -0.30113634805E+03  0.30519552513E+03  0.00000000000E+00 0.  1.
<mgrwt>
<rscale>  0 0.50850384E+02</rscale>
<asrwt>0</asrwt>
<pdfrwt beam="2">  1        2 0.27084649E+00 0.52121183E+02</pdfrwt>
<pdfrwt beam="1">  1       -1 0.14196757E-02 0.49610568E+02</pdfrwt>
<totfact> 0.11749328E+04</totfact>
</mgrwt>
</event>
<event>
 7    1  0.3113151E-004  0.8026790E+02  0.7546771E-02  0.1464800E+00
          3   -1    0    0  503    0 -0.00000000000E+00  0.00000000000E+00  0.14551803708E+03  0.14551803708E+03  0.00000000000E+00 0. -1.
          2   -1    0    0  502    0  0.00000000000E+00 -0.00000000000E+00 -0.16308361079E+04  0.16308361079E+04  0.00000000000E+00 0. -1.
         25    2    1    2    0    0  0.55248633727E+02 -0.37199052661E+02 -0.37986031389E+03  0.40540908142E+03  0.12500593660E+03 0.  0.
          4    1    3    3  501    0  0.94805249622E+02 -0.37773869197E+02 -0.27404795292E+03  0.29243596555E+03  0.12700000000E+01 0. -1.
         -4    1    3    3    0  501 -0.39556615895E+02  0.57481653577E+00 -0.10581236097E+03  0.11297311587E+03  0.12700000000E+01 0. -1.
          2    1    1    2  502    0 -0.51373733026E+02  0.63933346008E+02 -0.12354531607E+04  0.12381725427E+04  0.00000000000E+00 0. -1.
          3    1    1    2  503    0 -0.38749007006E+01 -0.26734293347E+02  0.12999540378E+03  0.13277252087E+03  0.00000000000E+00 0. -1.
<mgrwt>
<rscale>  0 0.46565320E+02</rscale>
<asrwt>0</asrwt>
<pdfrwt beam="2">  1        2 0.25089785E+00 0.80267902E+02</pdfrwt>
<pdfrwt beam="1">  1        3 0.22387392E-01 0.27013650E+02</pdfrwt>
<totfact> 0.11987479E+02</totfact>
</mgrwt>
</event>
<event>
 7    1  0.3113151E-004  0.4132668E+02  0.7546771E-02  0.1559798E+00
         -1   -1    0    0    0  501 -0.00000000000E+00  0.00000000000E+00  0.39985865051E+02  0.39985865051E+02  0.00000000000E+00 0.  1.
          2   -1    0    0  503    0  0.00000000000E+00 -0.00000000000E+00 -0.55926344047E+03  0.55926344047E+03  0.00000000000E+00 0. -1.
         25    2    1    2    0    0  0.23711813983E+02 -0.63426781175E+02 -0.11972708592E+03  0.18586364600E+03  0.12500205241E+03 0.  0.
          4    1    3    3  502    0  0.33352985267E+02 -0.58599737439E+02 -0.14414519372E+03  0.15914082011E+03  0.12700000000E+01 0.  1.
         -4    1    3    3    0  502 -0.96411712843E+01 -0.48270437357E+01  0.24418107796E+02  0.26722825885E+02  0.12700000000E+01 0.  1.
          2    1    1    2  503    0 -0.17252678710E+02  0.36597465921E+02 -0.37267610482E+03  0.37486598744E+03  0.00000000000E+00 0. -1.
         -1    1    1    2    0  501 -0.64591352726E+01  0.26829315255E+02 -0.26874384669E+02  0.38519672076E+02  0.00000000000E+00 0.  1.
<mgrwt>
<rscale>  0 0.33770491E+02</rscale>
<asrwt>0</asrwt>
<pdfrwt beam="2">  1        2 0.86040526E-01 0.41326678E+02</pdfrwt>
<pdfrwt beam="1">  1       -1 0.61516718E-02 0.27595880E+02</pdfrwt>
<totfact> 0.67144259E+03</totfact>
</mgrwt>
</event>
<event>
 7    1  0.3113151E-004  0.6343374E+02  0.7546771E-02  0.1456836E+00
          2   -1    0    0  503    0  0.00000000000E+00  0.00000000000E+00  0.29579838014E+02  0.29579838014E+02  0.00000000000E+00 0. -1.
         -2   -1    0    0    0  501 -0.00000000000E+00 -0.00000000000E+00 -0.69724938079E+03  0.69724938079E+03  0.00000000000E+00 0.  1.
         25    2    1    2    0    0 -0.91771087774E+02  0.18092020916E+02 -0.37505008753E+03  0.40624744554E+03  0.12500066033E+03 0.  0.
          4    1    3    3  502    0  0.47664965230E+01 -0.17364721874E+02 -0.74309587335E+00  0.18067045866E+02  0.12700000000E+01 0. -1.
         -4    1    3    3    0  502 -0.96537584297E+02  0.35456742790E+02 -0.37430699166E+03  0.38818039968E+03  0.12700000000E+01 0. -1.
          2    1    1    2  503    0  0.34565428808E+02 -0.10808556174E+02 -0.18895038282E+02  0.40848699208E+02  0.00000000000E+00 0. -1.
         -2    1    1    2    0  501  0.57205658965E+02 -0.72834647414E+01 -0.27372441696E+03  0.27973307405E+03  0.00000000000E+00 0.  1.
<mgrwt>
<rscale>  0 0.47930284E+02</rscale>
<asrwt>0</asrwt>
<pdfrwt beam="1">  1        2 0.45507447E-02 0.36215932E+02</pdfrwt>
<pdfrwt beam="2">  1       -2 0.10726913E+00 0.63433742E+02</pdfrwt>
<totfact> 0.11195975E+03</totfact>
</mgrwt>
</event>
<event>
 7    1  0.3113151E-004  0.5410050E+02  0.7546771E-02  0.1435222E+00
          2   -1    0    0  502    0  0.00000000000E+00  0.00000000000E+00  0.12921174946E+04  0.12921174946E+04  0.00000000000E+00 0. -1.
          2   -1    0    0  503    0 -0.00000000000E+00 -0.00000000000E+00 -0.26360768482E+02  0.26360768482E+02  0.00000000000E+00 0. -1.
         25    2    1    2    0    0  0.23641015816E+02  0.20302756172E+02  0.80739318262E+03  0.81760590669E+03  0.12499827111E+03 0.  0.
          4    1    3    3  501    0 -0.75119419540E+01 -0.73058304971E+01  0.15281214779E+01  0.10665481069E+02  0.12700000000E+01 0. -1.
         -4    1    3    3    0  501  0.31152957770E+02  0.27608586669E+02  0.80586506114E+03  0.80694042562E+03  0.12700000000E+01 0. -1.
          2    1    1    2  502    0 -0.11104607329E+02 -0.68539259555E+02  0.44344585589E+03  0.44884871561E+03  0.00000000000E+00 0. -1.
          2    1    1    2  503    0 -0.12536408487E+02  0.48236503383E+02  0.14917687617E+02  0.52023640782E+02  0.00000000000E+00 0. -1.
<mgrwt>
<rscale>  0 0.51926030E+02</rscale>
<asrwt>0</asrwt>
<pdfrwt beam="1">  1        2 0.19878726E+00 0.54100500E+02</pdfrwt>
<pdfrwt beam="2">  1        2 0.40555039E-02 0.49838959E+02</pdfrwt>
<totfact> 0.53941028E+03</totfact>
</mgrwt>
</event>
<event>
 7    1  0.3113151E-004  0.1306851E+03  0.7546771E-02  0.1359483E+00
         -2   -1    0    0    0  501 -0.00000000000E+00  0.00000000000E+00  0.10517202863E+04  0.10517202863E+04  0.00000000000E+00 0.  1.
          2   -1    0    0  503    0  0.00000000000E+00 -0.00000000000E+00 -0.30728444323E+03  0.30728444323E+03  0.00000000000E+00 0. -1.
         25    2    1    2    0    0 -0.11602715921E+03 -0.11513942809E+02  0.72110305186E+03  0.74108430592E+03  0.12498585730E+03 0.  0.
          4    1    3    3  502    0 -0.11927786470E+03 -0.13632604419E+02  0.35113257818E+03  0.37109130584E+03  0.12700000000E+01 0. -1.
         -4    1    3    3    0  502  0.32507054882E+01  0.21186616096E+01  0.36997047367E+03  0.36999300007E+03  0.12700000000E+01 0. -1.
          2    1    1    2  503    0  0.12885242320E+03 -0.23924013158E+02 -0.28163428093E+03  0.31063350361E+03  0.00000000000E+00 0. -1.
         -2    1    1    2    0  501 -0.12825263993E+02  0.35437955967E+02  0.30496707215E+03  0.30728692002E+03  0.00000000000E+00 0.  1.
<mgrwt>
<rscale>  0 0.70179586E+02</rscale>
<asrwt>0</asrwt>
<pdfrwt beam="2">  1        2 0.47274530E-01 0.13068509E+03</pdfrwt>
<pdfrwt beam="1">  1       -2 0.16180312E+00 0.37687347E+02</pdfrwt>
<totfact> 0.30895337E+01</totfact>
</mgrwt>
</event>
<event>
 7    1  0.3113151E-004  0.1197342E+03  0.7546771E-02  0.1319672E+00
          1   -1    0    0  502    0  0.00000000000E+00  0.00000000000E+00  0.79678350439E+03  0.79678350439E+03  0.00000000000E+00 0. -1.
          1   -1    0    0  503    0 -0.00000000000E+00 -0.00000000000E+00 -0.13789726089E+04  0.13789726089E+04  0.00000000000E+00 0. -1.
         25    2    1    2    0    0  0.78727219096E+02  0.13729911480E+03 -0.32728747567E+03  0.38443231883E+03  0.12498837577E+03 0.  0.
          4    1    3    3  501    0  0.29547397069E+02  0.11226004846E+03 -0.10889034113E+03  0.15916685096E+03  0.12700000000E+01 0.  1.
         -4    1    3    3    0  501  0.49179822027E+02  0.25039066339E+02 -0.21839713454E+03  0.22526546786E+03  0.12700000000E+01 0.  1.
          1    1    1    2  502    0  0.57253785825E+01 -0.57807875368E+02  0.76381782628E+03  0.76602363029E+03  0.00000000000E+00 0. -1.
          1    1    1    2  503    0 -0.84452597678E+02 -0.79491239431E+02 -0.10187194551E+04  0.10253001642E+04  0.00000000000E+00 0. -1.
<mgrwt>
<rscale>  0 0.83399316E+02</rscale>
<asrwt>0</asrwt>
<pdfrwt beam="1">  1        1 0.12258208E+00 0.58090709E+02</pdfrwt>
<pdfrwt beam="2">  1        1 0.21214963E+00 0.11973422E+03</pdfrwt>
<totfact> 0.27955386E+01</totfact>
</mgrwt>
</event>
<event>
 7    1  0.3113151E-004  0.1178754E+03  0.7546771E-02  0.1290953E+00
         -3   -1    0    0    0  501 -0.00000000000E+00  0.00000000000E+00  0.88655873262E+02  0.88655873262E+02  0.00000000000E+00 0.  1.
          1   -1    0    0  503    0  0.00000000000E+00 -0.00000000000E+00 -0.10080644733E+04  0.10080644733E+04  0.00000000000E+00 0.  1.
         25    2    1    2    0    0  0.81717906262E+02 -0.42054116026E+02 -0.97297388049E+02  0.18313382910E+03  0.12499941104E+03 0.  0.
          4    1    3    3  502    0  0.80752915202E+02  0.65993540048E+01 -0.79952750387E+01  0.81425561772E+02  0.12700000000E+01 0. -1.
         -4    1    3    3    0  502  0.96499105923E+00 -0.48653470030E+02 -0.89302113010E+02  0.10170826732E+03  0.12700000000E+01 0. -1.
          1    1    1    2  503    0 -0.50015543183E+02  0.11192180752E+03 -0.82763455350E+03  0.83666420965E+03  0.00000000000E+00 0.  1.
         -3    1    1    2    0  501 -0.31702363078E+02 -0.69867691499E+02  0.55233415024E+01  0.76922307827E+02  0.00000000000E+00 0.  1.
<mgrwt>
<rscale>  0 0.95099126E+02</rscale>
<asrwt>0</asrwt>
<pdfrwt beam="2">  1        1 0.15508685E+00 0.11787541E+03</pdfrwt>
<pdfrwt beam="1">  1       -3 0.13639365E-01 0.76723752E+02</pdfrwt>
<totfact> 0.35901361E+02</totfact>
</mgrwt>
</event>
<event>
 7    1  0.3113151E-004  0.5748946E+02  0.7546771E-02  0.1534045E+00
          2   -1    0    0  503    0  0.00000000000E+00  0.00000000000E+00  0.16865030417E+02  0.16865030417E+02  0.00000000000E+00 0. -1.
         -1   -1    0    0    0  501 -0.00000000000E+00 -0.00000000000E+00 -0.88053865187E+03  0.88053865187E+03  0.00000000000E+00 0.  1.
         25    2    1    2    0    0 -0.34401360878E+02  0.33016266913E+02 -0.66110102000E+03  0.67450170167E+03  0.12499783754E+03 0.  0.
          4    1    3    3  502    0 -0.37836563811E+02  0.11939796847E+02 -0.64841857986E+03  0.64963253606E+03  0.12700000000E+01 0. -1.
         -4    1    3    3    0  502  0.34352029326E+01  0.21076470066E+02 -0.12682440147E+02  0.24869165601E+02  0.12700000000E+01 0. -1.
          2    1    1    2  503    0 -0.23290653873E+02  0.24760736665E+01 -0.34557427042E+02  0.41746871289E+02  0.00000000000E+00 0. -1.
         -1    1    1    2    0  501  0.57692014751E+02 -0.35492340579E+02 -0.16801517440E+03  0.18115510933E+03  0.00000000000E+00 0.  1.
<mgrwt>
<rscale>  0 0.36694855E+02</rscale>
<asrwt>0</asrwt>
<pdfrwt beam="1">  1        2 0.25946197E-02 0.23421902E+02</pdfrwt>
<pdfrwt beam="2">  1       -1 0.13546750E+00 0.57489456E+02</pdfrwt>
<totfact> 0.17248960E+03</totfact>
</mgrwt>
</event>
<event>
 7    1  0.3113151E-004  0.1110140E+03  0.7546771E-02  0.1415278E+00
         -1   -1    0    0    0  501 -0.00000000000E+00  0.00000000000E+00  0.25264994922E+02  0.25264994922E+02  0.00000000000E+00 0.  1.
          2   -1    0    0  503    0  0.00000000000E+00 -0.00000000000E+00 -0.13424949628E+04  0.13424949628E+04  0.00000000000E+00 0. -1.
         25    2    1    2    0    0 -0.11701799466E+03 -0.49367367259E+01 -0.10630014389E+04  0.10767174226E+04  0.12502306400E+03 0.  0.
          4    1    3    3  502    0  0.17781846276E+02  0.23918587332E+02 -0.28890463561E+03  0.29044068974E+03  0.12700000000E+01 0.  1.
         -4    1    3    3    0  502 -0.13479984094E+03 -0.28855324058E+02 -0.77409680327E+03  0.78627673282E+03  0.12700000000E+01 0.  1.
          2    1    1    2  503    0  0.11016302733E+02 -0.26047797611E+02 -0.79064451754E+02  0.83970436568E+02  0.00000000000E+00 0. -1.
         -1    1    1    2    0  501  0.10600169193E+03  0.30984534337E+02 -0.17516407722E+03  0.20707209857E+03  0.00000000000E+00 0.  1.
<mgrwt>
<rscale>  0 0.56032565E+02</rscale>
<asrwt>0</asrwt>
<pdfrwt beam="2">  1        2 0.20653770E+00 0.28281561E+02</pdfrwt>
<pdfrwt beam="1">  1       -1 0.38869220E-02 0.11101397E+03</pdfrwt>
<totfact> 0.52739692E+03</totfact>
</mgrwt>
</event>
<event>
 7    1  0.3113151E-004  0.5984435E+02  0.7546771E-02  0.1487823E+00
          1   -1    0    0  503    0  0.00000000000E+00  0.00000000000E+00  0.37826851941E+02  0.37826851941E+02  0.00000000000E+00 0. -1.
          1   -1    0    0  502    0 -0.00000000000E+00 -0.00000000000E+00 -0.10105073003E+04  0.10105073003E+04  0.00000000000E+00 0. -1.
         25    2    1    2    0    0  0.49917520165E+02  0.33534487457E+02 -0.42244799746E+03  0.44463809055E+03  0.12499760137E+03 0.  0.
          4    1    3    3  501    0  0.31659510440E+02  0.42862513520E+02 -0.42065417546E+03  0.42401776838E+03  0.12700000000E+01 0.  1.
         -4    1    3    3    0  501  0.18258009724E+02 -0.93280260636E+01 -0.17938219941E+01  0.20620322177E+02  0.12700000000E+01 0.  1.
          1    1    1    2  502    0 -0.22936537881E+02  0.20509125275E+02 -0.54183835204E+03  0.54271125724E+03  0.00000000000E+00 0. -1.
          1    1    1    2  503    0 -0.26980982284E+02 -0.54043612732E+02 -0.83940989026E+01  0.60984804489E+02  0.00000000000E+00 0. -1.
<mgrwt>
<rscale>  0 0.42910710E+02</rscale>
<asrwt>0</asrwt>
<pdfrwt beam="1">  1        1 0.58195160E-02 0.59844349E+02</pdfrwt>
<pdfrwt beam="2">  1        1 0.15546265E+00 0.30768636E+02</pdfrwt>
<totfact> 0.25727860E+03</totfact>
</mgrwt>
</event>
<event>
 7    1  0.3113151E-004  0.4782196E+02  0.7546771E-02  0.1500877E+00
          1   -1    0    0  502    0  0.00000000000E+00  0.00000000000E+00  0.32114589771E+03  0.32114589771E+03  0.00000000000E+00 0. -1.
          3   -1    0    0  503    0 -0.00000000000E+00 -0.00000000000E+00 -0.24642902166E+03  0.24642902166E+03  0.00000000000E+00 0. -1.
         25    2    1    2    0    0  0.63438273799E+02  0.43311044936E+02 -0.10192537866E+03  0.17864494718E+03  0.12499989257E+03 0.  0.
          4    1    3    3  501    0  0.10309514218E+02 -0.10234513189E+02  0.26185158931E+02  0.29971766579E+02  0.12700000000E+01 0.  1.
         -4    1    3    3    0  501  0.53128759581E+02  0.53545558125E+02 -0.12811053759E+03  0.14867318060E+03  0.12700000000E+01 0.  1.
          1    1    1    2  502    0 -0.28696185415E+02 -0.37803852488E+02  0.27780290547E+03  0.28182806213E+03  0.00000000000E+00 0. -1.
          3    1    1    2  503    0 -0.34742088384E+02 -0.55071924481E+01 -0.10116065076E+03  0.10710191005E+03  0.00000000000E+00 0. -1.
<mgrwt>
<rscale>  0 0.41014377E+02</rscale>
<asrwt>0</asrwt>
<pdfrwt beam="1">  1        1 0.49407061E-01 0.47821961E+02</pdfrwt>
<pdfrwt beam="2">  1        3 0.37912157E-01 0.35175871E+02</pdfrwt>
<totfact> 0.26607783E+02</totfact>
</mgrwt>
</event>
<event>
 7    1  0.3113151E-004  0.6835935E+02  0.7546771E-02  0.1514208E+00
         -2   -1    0    0    0  501 -0.00000000000E+00  0.00000000000E+00  0.53774346455E+02  0.53774346455E+02  0.00000000000E+00 0.  1.
          1   -1    0    0  503    0  0.00000000000E+00 -0.00000000000E+00 -0.26561086692E+03  0.26561086692E+03  0.00000000000E+00 0. -1.
         25    2    1    2    0    0  0.42073917868E+02  0.35977049268E+02 -0.14211461734E+03  0.19721902380E+03  0.12503685955E+03 0.  0.
          4    1    3    3  502    0 -0.30598398498E+01  0.47802856361E+01  0.22738619858E+02  0.23470651540E+02  0.12700000000E+01 0.  1.
         -4    1    3    3    0  502  0.45133757718E+02  0.31196763632E+02 -0.16485323720E+03  0.17374837226E+03  0.12700000000E+01 0.  1.
          1    1    1    2  503    0 -0.56685981838E+02 -0.53053674504E+02 -0.57225362656E+02  0.96450687123E+02  0.00000000000E+00 0. -1.
         -2    1    1    2    0  501  0.14612063970E+02  0.17076625235E+02 -0.12496540466E+02  0.25715502455E+02  0.00000000000E+00 0.  1.
<mgrwt>
<rscale>  0 0.39196598E+02</rscale>
<asrwt>0</asrwt>
<pdfrwt beam="2">  1        1 0.40863210E-01 0.68359353E+02</pdfrwt>
<pdfrwt beam="1">  1       -2 0.82729764E-02 0.22474954E+02</pdfrwt>
<totfact> 0.64828739E+03</totfact>
</mgrwt>
</event>
<event>
 7    1  0.3113151E-004  0.1052972E+03  0.7546771E-02  0.1364823E+00
          2   -1    0    0  503    0  0.00000000000E+00  0.00000000000E+00  0.12203060249E+03  0.12203060249E+03  0.00000000000E+00 0. -1.
         -2   -1    0    0    0  501 -0.00000000000E+00 -0.00000000000E+00 -0.83982316978E+03  0.83982316978E+03  0.00000000000E+00 0. -1.
         25    2    1    2    0    0 -0.27199210387E+02  0.59650790840E+02 -0.33528610485E+03  0.36379346303E+03  0.12502358877E+03 0.  0.
          4    1    3    3  502    0 -0.13079762016E+02  0.47350307982E+01  0.78355915029E+01  0.16015932232E+02  0.12700000000E+01 0. -1.
         -4    1    3    3    0  502 -0.14119448370E+02  0.54915760042E+02 -0.34312169635E+03  0.34777753080E+03  0.12700000000E+01 0. -1.
          2    1    1    2  503    0  0.29846976270E+02 -0.10430059622E+03  0.79118909805E+02  0.13427307344E+03  0.00000000000E+00 0. -1.
         -2    1    1    2    0  501 -0.26477658831E+01  0.44649805375E+02 -0.46162537225E+03  0.46378723580E+03  0.00000000000E+00 0. -1.
<mgrwt>
<rscale>  0 0.68627682E+02</rscale>
<asrwt>0</asrwt>
<pdfrwt beam="1">  1        2 0.18773939E-01 0.10529720E+03</pdfrwt>
<pdfrwt beam="2">  1       -2 0.12920357E+00 0.44728244E+02</pdfrwt>
<totfact> 0.14446142E+02</totfact>
</mgrwt>
</event>
<event>
 7    1  0.3113151E-004  0.5535268E+02  0.7546771E-02  0.1451577E+00
          1   -1    0    0  503    0  0.00000000000E+00  0.00000000000E+00  0.18112437323E+04  0.18112437323E+04  0.00000000000E+00 0.  1.
         -2   -1    0    0    0  501 -0.00000000000E+00 -0.00000000000E+00 -0.25417080593E+03  0.25417080593E+03  0.00000000000E+00 0.  1.
         25    2    1    2    0    0  0.20058971423E+02 -0.37114483064E+02  0.22558324617E+03  0.26132559735E+03  0.12499367860E+03 0.  0.
          4    1    3    3  502    0  0.18259294735E+00 -0.66176837029E+02  0.51916296584E+02  0.84120876424E+02  0.12700000000E+01 0. -1.
         -4    1    3    3    0  502  0.19876378476E+02  0.29062353965E+02  0.17366694958E+03  0.17720472092E+03  0.12700000000E+01 0. -1.
          1    1    1    2  503    0 -0.40544581591E+02 -0.14716216354E+02  0.15642017140E+04  0.15647962910E+04  0.00000000000E+00 0.  1.
         -2    1    1    2    0  501  0.20485610167E+02  0.51830699418E+02 -0.23271203380E+03  0.23929264991E+03  0.00000000000E+00 0.  1.
<mgrwt>
<rscale>  0 0.48862159E+02</rscale>
<asrwt>0</asrwt>
<pdfrwt beam="1">  1        1 0.27865287E+00 0.43132704E+02</pdfrwt>
<pdfrwt beam="2">  1       -2 0.39103202E-01 0.55352676E+02</pdfrwt>
<totfact> 0.30038917E+01</totfact>
</mgrwt>
</event>
<event>
 7    1  0.3113151E-004  0.1761801E+03  0.7546771E-02  0.1272943E+00
          1   -1    0    0  503    0 -0.00000000000E+00  0.00000000000E+00  0.30448146114E+03  0.30448146114E+03  0.00000000000E+00 0. -1.
          2   -1    0    0  502    0  0.00000000000E+00 -0.00000000000E+00 -0.12317861039E+04  0.12317861039E+04  0.00000000000E+00 0. -1.
         25    2    1    2    0    0  0.11223301345E+03  0.11075198607E+03 -0.20596758080E+03  0.28794172445E+03  0.12500216243E+03 0.  0.
          4    1    3    3  501    0  0.97503278034E+02  0.12735888630E+03 -0.21109637341E+03  0.26512349370E+03  0.12700000000E+01 0.  1.
         -4    1    3    3    0  501  0.14729735416E+02 -0.16606900233E+02  0.51287926089E+01  0.22818230747E+02  0.12700000000E+01 0.  1.
          2    1    1    2  502    0 -0.16373687308E+03 -0.78259351512E+02 -0.97280586170E+03  0.98958856817E+03  0.00000000000E+00 0. -1.
          1    1    1    2  503    0  0.51503859632E+02 -0.32492634555E+02  0.25146879978E+03  0.25873727238E+03  0.00000000000E+00 0. -1.
<mgrwt>
<rscale>  0 0.10357993E+03</rscale>
<asrwt>0</asrwt>
<pdfrwt beam="2">  1        2 0.18950555E+00 0.17618008E+03</pdfrwt>
<pdfrwt beam="1">  1        1 0.46843302E-01 0.60896789E+02</pdfrwt>
<totfact> 0.23202635E+02</totfact>
</mgrwt>
</event>
<event>
 7    1  0.3113151E-004  0.6185506E+02  0.7546771E-02  0.1521784E+00
         -2   -1    0    0    0  501 -0.00000000000E+00  0.00000000000E+00  0.59584118126E+01  0.59584118126E+01  0.00000000000E+00 0.  1.
          1   -1    0    0  503    0  0.00000000000E+00 -0.00000000000E+00 -0.22663175148E+04  0.22663175148E+04  0.00000000000E+00 0. -1.
         25    2    1    2    0    0 -0.37548418131E+02 -0.37501481567E+02 -0.13821674977E+04  0.13888253469E+04  0.12503042678E+03 0.  0.
          4    1    3    3  502    0 -0.27448983005E+02  0.20536449963E+02 -0.10846341630E+03  0.11375903490E+03  0.12700000000E+01 0. -1.
         -4    1    3    3    0  502 -0.10099435126E+02 -0.58037931530E+02 -0.12737040814E+04  0.12750663120E+04  0.12700000000E+01 0. -1.
          1    1    1    2  503    0  0.29532592986E+02  0.59707081335E+02 -0.76068162713E+03  0.76359259259E+03  0.00000000000E+00 0. -1.
         -2    1    1    2    0  501  0.80158251446E+01 -0.22205599768E+02 -0.11750997811E+03  0.11985798709E+03  0.00000000000E+00 0.  1.
<mgrwt>
<rscale>  0 0.38213612E+02</rscale>
<asrwt>0</asrwt>
<pdfrwt beam="2">  1        1 0.34866425E+00 0.61855063E+02</pdfrwt>
<pdfrwt beam="1">  1       -2 0.91667871E-03 0.23608094E+02</pdfrwt>
<totfact> 0.38246767E+03</totfact>
</mgrwt>
</event>
<event>
 7    1  0.3113151E-004  0.4215816E+02  0.7546771E-02  0.1522455E+00
          1   -1    0    0  503    0  0.00000000000E+00  0.00000000000E+00  0.52109359375E+03  0.52109359375E+03  0.00000000000E+00 0. -1.
         -2   -1    0    0    0  501 -0.00000000000E+00 -0.00000000000E+00 -0.22616530526E+02  0.22616530526E+02  0.00000000000E+00 0.  1.
         25    2    1    2    0    0 -0.42741515333E+01  0.33503778032E+02  0.27391318079E+03  0.30297564741E+03  0.12500016321E+03 0.  0.
          4    1    3    3  502    0 -0.64232376223E+02  0.10066601410E+02  0.14244590676E+03  0.15658730431E+03  0.12700000000E+01 0. -1.
         -4    1    3    3    0  502  0.59958224690E+02  0.23437176622E+02  0.13146727402E+03  0.14638834310E+03  0.12700000000E+01 0. -1.
          1    1    1    2  503    0  0.33625074222E+02  0.76466581360E+01  0.68510664877E+02  0.76699597124E+02  0.00000000000E+00 0. -1.
         -2    1    1    2    0  501 -0.29350922688E+02 -0.41150436168E+02  0.15605321756E+03  0.16403487974E+03  0.00000000000E+00 0.  1.
<mgrwt>
<rscale>  0 0.38128261E+02</rscale>
<asrwt>0</asrwt>
<pdfrwt beam="1">  1        1 0.80168237E-01 0.34483576E+02</pdfrwt>
<pdfrwt beam="2">  1       -2 0.34794666E-02 0.42158165E+02</pdfrwt>
<totfact> 0.10890865E+04</totfact>
</mgrwt>
</event>
<event>
 7    1  0.3113151E-004  0.1687964E+03  0.7546771E-02  0.1324218E+00
         -2   -1    0    0    0  501 -0.00000000000E+00  0.00000000000E+00  0.39061352296E+03  0.39061352296E+03  0.00000000000E+00 0.  1.
          2   -1    0    0  503    0  0.00000000000E+00 -0.00000000000E+00 -0.96120977589E+03  0.96120977589E+03  0.00000000000E+00 0. -1.
         25    2    1    2    0    0 -0.15679878651E+02 -0.13487855522E+03 -0.53694887429E+02  0.19221491915E+03  0.12500140381E+03 0.  0.
          4    1    3    3  502    0  0.12053408876E+02 -0.46123259403E+02  0.38480231972E+02  0.61277898758E+02  0.12700000000E+01 0. -1.
         -4    1    3    3    0  502 -0.27733287527E+02 -0.88755295814E+02 -0.92175119401E+02  0.13093702039E+03  0.12700000000E+01 0. -1.
          2    1    1    2  503    0 -0.82232207889E+01 -0.38707120366E+02 -0.81385241074E+03  0.81481384929E+03  0.00000000000E+00 0. -1.
         -2    1    1    2    0  501  0.23903099440E+02  0.17358567558E+03  0.29695104524E+03  0.34479453041E+03  0.00000000000E+00 0.  1.
<mgrwt>
<rscale>  0 0.81727827E+02</rscale>
<asrwt>0</asrwt>
<pdfrwt beam="2">  1        2 0.14787843E+00 0.39570981E+02</pdfrwt>
<pdfrwt beam="1">  1       -2 0.60094388E-01 0.16879636E+03</pdfrwt>
<totfact> 0.81811265E+01</totfact>
</mgrwt>
</event>
<event>
 7    1  0.3113151E-004  0.8021019E+02  0.7546771E-02  0.1391206E+00
          2   -1    0    0  502    0  0.00000000000E+00  0.00000000000E+00  0.67772020346E+03  0.67772020346E+03  0.00000000000E+00 0. -1.
          1   -1    0    0  503    0 -0.00000000000E+00 -0.00000000000E+00 -0.12922242056E+03  0.12922242056E+03  0.00000000000E+00 0. -1.
         25    2    1    2    0    0 -0.23637819750E+02 -0.37791020844E+02  0.21075781370E+03  0.24905194423E+03  0.12498442746E+03 0.  0.
          4    1    3    3  501    0 -0.62068434854E+02  0.10404248488E+02  0.14916425397E+03  0.16190221294E+03  0.12700000000E+01 0.  1.
         -4    1    3    3    0  501  0.38430615104E+02 -0.48195269333E+02  0.61593559729E+02  0.87149731287E+02  0.12700000000E+01 0.  1.
          2    1    1    2  502    0  0.25597002966E+02  0.85069884513E+02  0.43805653770E+03  0.44697384939E+03  0.00000000000E+00 0. -1.
          1    1    1    2  503    0 -0.19591832153E+01 -0.47278863669E+02 -0.10031656851E+03  0.11091683040E+03  0.00000000000E+00 0. -1.
<mgrwt>
<rscale>  0 0.61607638E+02</rscale>
<asrwt>0</asrwt>
<pdfrwt beam="1">  1        2 0.10426464E+00 0.80210187E+02</pdfrwt>
<pdfrwt beam="2">  1        1 0.19880373E-01 0.47319439E+02</pdfrwt>
<totfact> 0.14860453E+03</totfact>
</mgrwt>
</event>
<event>
 7    1  0.3113151E-004  0.8095318E+02  0.7546771E-02  0.1447212E+00
          1   -1    0    0  502    0  0.00000000000E+00  0.00000000000E+00  0.81799515302E+03  0.81799515302E+03  0.00000000000E+00 0. -1.
          1   -1    0    0  503    0 -0.00000000000E+00 -0.00000000000E+00 -0.11819395816E+03  0.11819395816E+03  0.00000000000E+00 0. -1.
         25    2    1    2    0    0 -0.51411690904E+02  0.75137436233E+02  0.21655056676E+03  0.26609741593E+03  0.12499956206E+03 0.  0.
          4    1    3    3  501    0 -0.72249672734E+02  0.96119009635E+02  0.14316112203E+03  0.18696416497E+03  0.12700000000E+01 0. -1.
         -4    1    3    3    0  501  0.20837981830E+02 -0.20981573402E+02  0.73389444729E+02  0.79133250956E+02  0.12700000000E+01 0. -1.
          1    1    1    2  502    0 -0.13436227926E+02 -0.27333172367E+02  0.55880997871E+03  0.55963937213E+03  0.00000000000E+00 0. -1.
          1    1    1    2  503    0  0.64847918830E+02 -0.47804263866E+02 -0.75559350608E+02  0.11045232313E+03  0.00000000000E+00 0. -1.
<mgrwt>
<rscale>  0 0.49654794E+02</rscale>
<asrwt>0</asrwt>
<pdfrwt beam="1">  1        1 0.12584540E+00 0.30457093E+02</pdfrwt>
<pdfrwt beam="2">  1        1 0.18183686E-01 0.80953181E+02</pdfrwt>
<totfact> 0.82468034E+02</totfact>
</mgrwt>
</event>
<event>
 7    1  0.3113151E-004  0.2093701E+03  0.7546771E-02  0.1250060E+00
          1   -1    0    0  503    0 -0.00000000000E+00  0.00000000000E+00  0.37405163417E+03  0.37405163417E+03  0.00000000000E+00 0. -1.
          2   -1    0    0  502    0  0.00000000000E+00 -0.00000000000E+00 -0.48468049763E+03  0.48468049763E+03  0.00000000000E+00 0. -1.
         25    2    1    2    0    0  0.43407850354E+02 -0.19239207275E+03  0.22287650537E+03  0.32278663952E+03  0.12497330467E+03 0.  0.
          4    1    3    3  501    0  0.80239187686E+02 -0.13674963207E+03  0.19268456271E+03  0.24953505309E+03  0.12700000000E+01 0.  1.
         -4    1    3    3    0  501 -0.36831337332E+02 -0.55642440677E+02  0.30191942660E+02  0.73251586438E+02  0.12700000000E+01 0.  1.
          2    1    1    2  502    0  0.49679119326E+02 -0.40556482422E+02 -0.26953378200E+03  0.27705830218E+03  0.00000000000E+00 0. -1.
          1    1    1    2  503    0 -0.93086969680E+02  0.23294855517E+03 -0.63971586819E+02  0.25888719010E+03  0.00000000000E+00 0. -1.
<mgrwt>
<rscale>  0 0.11587583E+03</rscale>
<asrwt>0</asrwt>
<pdfrwt beam="2">  1        2 0.74566231E-01 0.64131452E+02</pdfrwt>
<pdfrwt beam="1">  1        1 0.57546405E-01 0.20937009E+03</pdfrwt>
<totfact> 0.59332939E+02</totfact>
</mgrwt>
</event>
<event>
 7    1  0.3113151E-004  0.1175007E+03  0.7546771E-02  0.1280249E+00
         -1   -1    0    0    0  501 -0.00000000000E+00  0.00000000000E+00  0.16403949130E+03  0.16403949130E+03  0.00000000000E+00 0.  1.
          1   -1    0    0  503    0  0.00000000000E+00 -0.00000000000E+00 -0.15433639019E+04  0.15433639019E+04  0.00000000000E+00 0. -1.
         25    2    1    2    0    0 -0.17104501953E+03 -0.41237158036E+02 -0.90058995367E+03  0.92609003483E+03  0.12499434408E+03 0.  0.
          4    1    3    3  502    0 -0.12579313384E+03 -0.42916582200E+02 -0.83992612810E+03  0.85037830353E+03  0.12700000000E+01 0.  1.
         -4    1    3    3    0  502 -0.45251885685E+02  0.16794241640E+01 -0.60663825569E+02  0.75711731299E+02  0.12700000000E+01 0.  1.
          1    1    1    2  503    0  0.86463166365E+02  0.51004007007E+02 -0.61363405784E+03  0.62179099769E+03  0.00000000000E+00 0. -1.
         -1    1    1    2    0  501  0.84581853160E+02 -0.97668489708E+01  0.13489960093E+03  0.15952236067E+03  0.00000000000E+00 0.  1.
<mgrwt>
<rscale>  0 0.10002234E+03</rscale>
<asrwt>0</asrwt>
<pdfrwt beam="2">  1        1 0.23744059E+00 0.11750072E+03</pdfrwt>
<pdfrwt beam="1">  1       -1 0.25236846E-01 0.85143885E+02</pdfrwt>
<totfact> 0.97710672E+01</totfact>
</mgrwt>
</event>
<event>
 7    1  0.3113151E-004  0.8469359E+02  0.7546771E-02  0.1498674E+00
         -1   -1    0    0    0  501 -0.00000000000E+00  0.00000000000E+00  0.13203027356E+02  0.13203027356E+02  0.00000000000E+00 0.  1.
          2   -1    0    0  503    0  0.00000000000E+00 -0.00000000000E+00 -0.15813848028E+04  0.15813848028E+04  0.00000000000E+00 0. -1.
         25    2    1    2    0    0  0.93045033053E+02 -0.63131933649E+01 -0.11283080745E+04  0.11390352300E+04  0.12499963905E+03 0.  0.
          4    1    3    3  502    0  0.59531981695E+02  0.38973902681E+02 -0.28158229001E+03  0.29043625959E+03  0.12700000000E+01 0. -1.
         -4    1    3    3    0  502  0.33513051359E+02 -0.45287096046E+02 -0.84672578445E+03  0.84859897044E+03  0.12700000000E+01 0. -1.
          2    1    1    2  503    0 -0.77058398909E+02  0.18603605550E+02 -0.41936241783E+03  0.42678909132E+03  0.00000000000E+00 0. -1.
         -1    1    1    2    0  501 -0.15986634144E+02 -0.12290412185E+02 -0.20511283185E+02  0.28763508841E+02  0.00000000000E+00 0.  1.
<mgrwt>
<rscale>  0 0.41326083E+02</rscale>
<asrwt>0</asrwt>
<pdfrwt beam="2">  1        2 0.24329005E+00 0.84693587E+02</pdfrwt>
<pdfrwt beam="1">  1       -1 0.20312343E-02 0.20164987E+02</pdfrwt>
<totfact> 0.71248058E+03</totfact>
</mgrwt>
</event>
<event>
 7    1  0.3113151E-004  0.3841734E+02  0.7546771E-02  0.1560822E+00
          1   -1    0    0  503    0 -0.00000000000E+00  0.00000000000E+00  0.22445427133E+03  0.22445427133E+03  0.00000000000E+00 0. -1.
          2   -1    0    0  502    0  0.00000000000E+00 -0.00000000000E+00 -0.30503457074E+03  0.30503457074E+03  0.00000000000E+00 0.  1.
         25    2    1    2    0    0 -0.23955302836E+02 -0.57688868927E+02 -0.55394308304E+02  0.15031921914E+03  0.12500190446E+03 0.  0.
          4    1    3    3  501    0 -0.50971059633E+02 -0.13643524922E+02 -0.77776788804E+02  0.93994874696E+02  0.12700000000E+01 0.  1.
         -4    1    3    3    0  501  0.27015756797E+02 -0.44045344005E+02  0.22382480500E+02  0.56324344445E+02  0.12700000000E+01 0.  1.
          2    1    1    2  502    0  0.24921428555E+02  0.28210977729E+02 -0.19917383131E+03  0.20269965946E+03  0.00000000000E+00 0.  1.
          1    1    1    2  503    0 -0.96612571924E+00  0.29477891198E+02  0.17398784021E+03  0.17646996347E+03  0.00000000000E+00 0. -1.
<mgrwt>
<rscale>  0 0.33661111E+02</rscale>
<asrwt>0</asrwt>
<pdfrwt beam="2">  1        2 0.46928395E-01 0.38417345E+02</pdfrwt>
<pdfrwt beam="1">  1        1 0.34531426E-01 0.29493719E+02</pdfrwt>
<totfact> 0.17626889E+03</totfact>
</mgrwt>
</event>
<event>
 7    1  0.3113151E-004  0.4669746E+02  0.7546771E-02  0.1483781E+00
          2   -1    0    0  503    0  0.00000000000E+00  0.00000000000E+00  0.45461428229E+02  0.45461428229E+02  0.00000000000E+00 0. -1.
          2   -1    0    0  502    0 -0.00000000000E+00 -0.00000000000E+00 -0.25127827565E+04  0.25127827565E+04  0.00000000000E+00 0. -1.
         25    2    1    2    0    0 -0.56119441598E+02 -0.32246457027E+02 -0.18807425958E+04  0.18860023327E+04  0.12499144650E+03 0.  0.
          4    1    3    3  501    0  0.31359768388E+01 -0.15670070737E+02 -0.28203644657E+02  0.32441392380E+02  0.12700000000E+01 0.  1.
         -4    1    3    3    0  501 -0.59255418437E+02 -0.16576386290E+02 -0.18525389511E+04  0.18535609404E+04  0.12700000000E+01 0.  1.
          2    1    1    2  502    0  0.43778769766E+02 -0.63945050979E+01 -0.61883610275E+03  0.62041566102E+03  0.00000000000E+00 0. -1.
          2    1    1    2  503    0  0.12340671833E+02  0.38640962125E+02  0.32257370268E+02  0.51826190983E+02  0.00000000000E+00 0. -1.
<mgrwt>
<rscale>  0 0.43522675E+02</rscale>
<asrwt>0</asrwt>
<pdfrwt beam="1">  1        2 0.69940619E-02 0.40563729E+02</pdfrwt>
<pdfrwt beam="2">  1        2 0.38658218E+00 0.46697462E+02</pdfrwt>
<totfact> 0.67491778E+02</totfact>
</mgrwt>
</event>
<event>
 7    1  0.3113151E-004  0.3568806E+03  0.7546771E-02  0.1218953E+00
          2   -1    0    0  503    0  0.00000000000E+00  0.00000000000E+00  0.35136506778E+04  0.35136506778E+04  0.00000000000E+00 0.  1.
         -3   -1    0    0    0  501 -0.00000000000E+00 -0.00000000000E+00 -0.75638225718E+03  0.75638225718E+03  0.00000000000E+00 0.  1.
         25    2    1    2    0    0 -0.18890684898E+03  0.26617627031E+03 -0.12370958700E+02  0.34973336056E+03  0.12499911360E+03 0.  0.
          4    1    3    3  502    0 -0.16500158188E+03  0.20327501457E+03 -0.58330264316E+02  0.26823550512E+03  0.12700000000E+01 0.  1.
         -4    1    3    3    0  502 -0.23905267105E+02  0.62901255734E+02  0.45959305616E+02  0.81497855438E+02  0.12700000000E+01 0.  1.
          2    1    1    2  503    0  0.36427136504E+01  0.51623185794E+02  0.32859441753E+04  0.32863516771E+04  0.00000000000E+00 0.  1.
         -3    1    1    2    0  501  0.18526413533E+03 -0.31779945610E+03 -0.51630479597E+03  0.63394789729E+03  0.00000000000E+00 0.  1.
<mgrwt>
<rscale>  0 0.13590115E+03</rscale>
<asrwt>0</asrwt>
<pdfrwt beam="1">  1        2 0.54056163E+00 0.51751548E+02</pdfrwt>
<pdfrwt beam="2">  1       -3 0.11636650E+00 0.35688059E+03</pdfrwt>
<totfact> 0.53047795E-01</totfact>
</mgrwt>
</event>
<event>
 7    1  0.3113151E-004  0.9030623E+02  0.7546771E-02  0.1341103E+00
          1   -1    0    0  502    0  0.00000000000E+00  0.00000000000E+00  0.90136697523E+03  0.90136697523E+03  0.00000000000E+00 0. -1.
          1   -1    0    0  503    0 -0.00000000000E+00 -0.00000000000E+00 -0.17821946848E+03  0.17821946848E+03  0.00000000000E+00 0. -1.
         25    2    1    2    0    0 -0.51269170824E+02  0.11128632975E+03  0.30433620867E+03  0.35108102125E+03  0.12499672200E+03 0.  0.
          4    1    3    3  501    0  0.88231748600E+01 -0.11905473633E+02 -0.24423796045E+01  0.15072054776E+02  0.12700000000E+01 0. -1.
         -4    1    3    3    0  501 -0.60092345684E+02  0.12319180339E+03  0.30677858827E+03  0.33600896648E+03  0.12700000000E+01 0. -1.
          1    1    1    2  502    0 -0.78300299459E+01 -0.87266747004E+02  0.56355588444E+03  0.57032624820E+03  0.00000000000E+00 0. -1.
          1    1    1    2  503    0  0.59099200770E+02 -0.24019582749E+02 -0.14474458636E+03  0.15817917425E+03  0.00000000000E+00 0. -1.
<mgrwt>
<rscale>  0 0.75901135E+02</rscale>
<asrwt>0</asrwt>
<pdfrwt beam="1">  1        1 0.13867184E+00 0.90306226E+02</pdfrwt>
<pdfrwt beam="2">  1        1 0.27418380E-01 0.63793855E+02</pdfrwt>
<totfact> 0.40048461E+02</totfact>
</mgrwt>
</event>
<event>
 7    1  0.3113151E-004  0.1165656E+03  0.7546771E-02  0.1317324E+00
          1   -1    0    0  503    0 -0.00000000000E+00  0.00000000000E+00  0.14851886514E+04  0.14851886514E+04  0.00000000000E+00 0. -1.
          2   -1    0    0  502    0  0.00000000000E+00 -0.00000000000E+00 -0.13747286729E+04  0.13747286729E+04  0.00000000000E+00 0. -1.
         25    2    1    2    0    0  0.12491026764E+03  0.12501161853E+03  0.13654503494E+03  0.25593018096E+03  0.12500092491E+03 0.  0.
          4    1    3    3  501    0 -0.12712412777E+02  0.57048718126E+02  0.15587065038E+02  0.60503976522E+02  0.12700000000E+01 0. -1.
         -4    1    3    3    0  501  0.13762268042E+03  0.67962900406E+02  0.12095796990E+03  0.19542620444E+03  0.12700000000E+01 0. -1.
          2    1    1    2  502    0 -0.81726065663E+02 -0.82016803380E+02 -0.13117644490E+04  0.13168644104E+04  0.00000000000E+00 0. -1.
          1    1    1    2  503    0 -0.43184201980E+02 -0.42994815153E+02  0.12856793925E+04  0.12871227330E+04  0.00000000000E+00 0. -1.
<mgrwt>
<rscale>  0 0.84280853E+02</rscale>
<asrwt>0</asrwt>
<pdfrwt beam="2">  1        2 0.21149672E+00 0.11656556E+03</pdfrwt>
<pdfrwt beam="1">  1        1 0.22849056E+00 0.60937915E+02</pdfrwt>
<totfact> 0.19648986E+01</totfact>
</mgrwt>
</event>
<event>
 7    1  0.3113151E-004  0.1029893E+03  0.7546771E-02  0.1361361E+00
          2   -1    0    0  503    0  0.00000000000E+00  0.00000000000E+00  0.11121954049E+04  0.11121954049E+04  0.00000000000E+00 0. -1.
         -1   -1    0    0    0  501 -0.00000000000E+00 -0.00000000000E+00 -0.48918038675E+02  0.48918038675E+02  0.00000000000E+00 0.  1.
         25    2    1    2    0    0  0.11564998869E+03  0.61007320327E+02  0.96015946469E+03  0.97705042420E+03  0.12499808315E+03 0.  0.
          4    1    3    3  502    0  0.11449470339E+03  0.91027536240E+02  0.86413853200E+03  0.87643143762E+03  0.12700000000E+01 0. -1.
         -4    1    3    3    0  502  0.11552853084E+01 -0.30020215914E+02  0.96020932684E+02  0.10061898658E+03  0.12700000000E+01 0. -1.
          2    1    1    2  503    0 -0.45537445119E+02  0.11930136429E+02  0.53876266178E+02  0.71544665213E+02  0.00000000000E+00 0. -1.
         -1    1    1    2    0  501 -0.70112543575E+02 -0.72937456756E+02  0.49241635324E+02  0.11251835412E+03  0.00000000000E+00 0.  1.
<mgrwt>
<rscale>  0 0.69628622E+02</rscale>
<asrwt>0</asrwt>
<pdfrwt beam="1">  1        2 0.17110697E+00 0.47074272E+02</pdfrwt>
<pdfrwt beam="2">  1       -1 0.75258530E-02 0.10298927E+03</pdfrwt>
<totfact> 0.25031928E+03</totfact>
</mgrwt>
</event>
<event>
 7    1  0.3113151E-004  0.1053379E+03  0.7546771E-02  0.1324004E+00
          2   -1    0    0  502    0  0.00000000000E+00  0.00000000000E+00  0.15871507419E+04  0.15871507419E+04  0.00000000000E+00 0. -1.
          1   -1    0    0  503    0 -0.00000000000E+00 -0.00000000000E+00 -0.59761412056E+02  0.59761412056E+02  0.00000000000E+00 0. -1.
         25    2    1    2    0    0  0.18726058407E+02  0.44885557435E+02  0.86935740575E+03  0.87964367960E+03  0.12500130241E+03 0.  0.
          4    1    3    3  501    0 -0.50997562625E+02  0.51335356459E+00  0.36779393301E+03  0.37131523667E+03  0.12700000000E+01 0.  1.
         -4    1    3    3    0  501  0.69723621033E+02  0.44372203870E+02  0.50156347274E+03  0.50832844293E+03  0.12700000000E+01 0.  1.
          2    1    1    2  502    0  0.48543888216E+02  0.40982690512E+02  0.65507424597E+03  0.65814767168E+03  0.00000000000E+00 0. -1.
          1    1    1    2  503    0 -0.67269946623E+02 -0.85868247947E+02  0.29576781621E+01  0.10912080271E+03  0.00000000000E+00 0. -1.
<mgrwt>
<rscale>  0 0.81805490E+02</rscale>
<asrwt>0</asrwt>
<pdfrwt beam="1">  1        2 0.24417701E+00 0.63530229E+02</pdfrwt>
<pdfrwt beam="2">  1        1 0.91940646E-02 0.10533786E+03</pdfrwt>
<totfact> 0.12784583E+03</totfact>
</mgrwt>
</event>
<event>
 7    1  0.3113151E-004  0.6482169E+02  0.7546771E-02  0.1437016E+00
         -2   -1    0    0    0  501 -0.00000000000E+00  0.00000000000E+00  0.16173379608E+02  0.16173379608E+02  0.00000000000E+00 0.  1.
          2   -1    0    0  503    0  0.00000000000E+00 -0.00000000000E+00 -0.12712330847E+04  0.12712330847E+04  0.00000000000E+00 0. -1.
         25    2    1    2    0    0 -0.11509791163E+02 -0.70998082359E+02 -0.45425715900E+03  0.47660168569E+03  0.12500558909E+03 0.  0.
          4    1    3    3  502    0 -0.47985478696E+02 -0.67935885565E+02 -0.41359107974E+03  0.42187330426E+03  0.12700000000E+01 0.  1.
         -4    1    3    3    0  502  0.36475687533E+02 -0.30621967934E+01 -0.40666079264E+02  0.54728381421E+02  0.12700000000E+01 0.  1.
          2    1    1    2  503    0  0.39285131615E+02  0.11868661975E+02 -0.55349343004E+03  0.55501276003E+03  0.00000000000E+00 0. -1.
         -2    1    1    2    0  501 -0.27775340452E+02  0.59129420384E+02 -0.24730911605E+03  0.25579201859E+03  0.00000000000E+00 0.  1.
<mgrwt>
<rscale>  0 0.51577197E+02</rscale>
<asrwt>0</asrwt>
<pdfrwt beam="2">  1        2 0.19557436E+00 0.41038844E+02</pdfrwt>
<pdfrwt beam="1">  1       -2 0.24882118E-02 0.64821690E+02</pdfrwt>
<totfact> 0.98012912E+03</totfact>
</mgrwt>
</event>
<event>
 7    1  0.3113151E-004  0.4818245E+03  0.7546771E-02  0.1126521E+00
         -1   -1    0    0    0  501 -0.00000000000E+00  0.00000000000E+00  0.21729414550E+04  0.21729414550E+04  0.00000000000E+00 0.  1.
          2   -1    0    0  503    0  0.00000000000E+00 -0.00000000000E+00 -0.26275405413E+04  0.26275405413E+04  0.00000000000E+00 0. -1.
         25    2    1    2    0    0 -0.41544489370E+02 -0.46701401115E+03  0.84984415016E+03  0.97861742430E+03  0.12501580850E+03 0.  0.
          4    1    3    3  502    0  0.65681176350E+01 -0.40012618911E+03  0.74029293338E+03  0.84153392534E+03  0.12700000000E+01 0. -1.
         -4    1    3    3    0  502 -0.48112607005E+02 -0.66887822038E+02  0.10955121678E+03  0.13708349896E+03  0.12700000000E+01 0. -1.
          2    1    1    2  503    0  0.15114031181E+03  0.45816045808E+03 -0.25379849329E+04  0.25834321974E+04  0.00000000000E+00 0. -1.
         -1    1    1    2    0  501 -0.10959582244E+03  0.88535530744E+01  0.12335416964E+04  0.12384323746E+04  0.00000000000E+00 0.  1.
<mgrwt>
<rscale>  0 0.23016944E+03</rscale>
<asrwt>0</asrwt>
<pdfrwt beam="2">  1        2 0.40423701E+00 0.48182446E+03</pdfrwt>
<pdfrwt beam="1">  1       -1 0.33429869E+00 0.10995285E+03</pdfrwt>
<totfact> 0.97794753E-02</totfact>
</mgrwt>
</event>
<event>
 7    1  0.3113151E-004  0.7757244E+02  0.7546771E-02  0.1347127E+00
          2   -1    0    0  502    0  0.00000000000E+00  0.00000000000E+00  0.12630713617E+03  0.12630713617E+03  0.00000000000E+00 0.  1.
          3   -1    0    0  503    0 -0.00000000000E+00 -0.00000000000E+00 -0.18277167802E+04  0.18277167802E+04  0.00000000000E+00 0. -1.
         25    2    1    2    0    0  0.83515964485E+02  0.88380864905E+02 -0.26781855159E+03  0.31958550087E+03  0.12498808818E+03 0.  0.
          4    1    3    3  501    0  0.11576557532E+03  0.75338350355E+02 -0.22911070436E+03  0.26752731302E+03  0.12700000000E+01 0.  1.
         -4    1    3    3    0  501 -0.32249610833E+02  0.13042514551E+02 -0.38707847231E+02  0.52058187847E+02  0.12700000000E+01 0.  1.
          2    1    1    2  502    0 -0.91629405373E+01 -0.69914684163E+02  0.86961631645E+02  0.11195690206E+03  0.00000000000E+00 0.  1.
          3    1    1    2  503    0 -0.74353023947E+02 -0.18466180743E+02 -0.15205527241E+04  0.15224815134E+04  0.00000000000E+00 0. -1.
<mgrwt>
<rscale>  0 0.73958314E+02</rscale>
<asrwt>0</asrwt>
<pdfrwt beam="1">  1        2 0.19431868E-01 0.70512570E+02</pdfrwt>
<pdfrwt beam="2">  1        3 0.28118719E+00 0.77572442E+02</pdfrwt>
<totfact> 0.10209798E+01</totfact>
</mgrwt>
</event>
<event>
 7    1  0.3113151E-004  0.5328610E+02  0.7546771E-02  0.1471783E+00
          1   -1    0    0  502    0  0.00000000000E+00  0.00000000000E+00  0.40194310367E+03  0.40194310367E+03  0.00000000000E+00 0. -1.
          1   -1    0    0  503    0 -0.00000000000E+00 -0.00000000000E+00 -0.16471053760E+03  0.16471053760E+03  0.00000000000E+00 0. -1.
         25    2    1    2    0    0  0.78180635354E+02  0.39477692635E+02  0.94030074075E+02  0.17926794012E+03  0.12499855825E+03 0.  0.
          4    1    3    3  501    0  0.42911670196E+02 -0.39752082861E+02  0.65810167756E+02  0.88058109285E+02  0.12700000000E+01 0. -1.
         -4    1    3    3    0  501  0.35268965159E+02  0.79229775496E+02  0.28219906318E+02  0.91209830836E+02  0.12700000000E+01 0. -1.
          1    1    1    2  502    0 -0.49578737406E+02 -0.13404884184E+02  0.25964712681E+03  0.26467786568E+03  0.00000000000E+00 0. -1.
          1    1    1    2  503    0 -0.28601897948E+02 -0.26072808451E+02 -0.11644463482E+03  0.12270783546E+03  0.00000000000E+00 0. -1.
<mgrwt>
<rscale>  0 0.45412431E+02</rscale>
<asrwt>0</asrwt>
<pdfrwt beam="1">  1        1 0.61837400E-01 0.53286097E+02</pdfrwt>
<pdfrwt beam="2">  1        1 0.25340083E-01 0.38702195E+02</pdfrwt>
<totfact> 0.13110773E+03</totfact>
</mgrwt>
</event>
<event>
 7    1  0.3113151E-004  0.5558318E+02  0.7546771E-02  0.1544715E+00
         -2   -1    0    0    0  501 -0.00000000000E+00  0.00000000000E+00  0.96240341563E+01  0.96240341563E+01  0.00000000000E+00 0.  1.
          1   -1    0    0  503    0  0.00000000000E+00 -0.00000000000E+00 -0.14631431868E+04  0.14631431868E+04  0.00000000000E+00 0. -1.
         25    2    1    2    0    0 -0.39022460184E+02 -0.99899746690E+01 -0.58719912093E+03  0.60170587629E+03  0.12499840776E+03 0.  0.
          4    1    3    3  502    0  0.40230084867E+02 -0.12954631659E+01 -0.96429831792E+02  0.10450102063E+03  0.12700000000E+01 0.  1.
         -4    1    3    3    0  502 -0.79252545051E+02 -0.86945115031E+01 -0.49076928914E+03  0.49720485566E+03  0.12700000000E+01 0.  1.
          1    1    1    2  503    0  0.60156972536E+02  0.19883285208E+01 -0.43434515423E+03  0.43849575574E+03  0.00000000000E+00 0. -1.
         -2    1    1    2    0  501 -0.21134512352E+02  0.80016461482E+01 -0.43197487747E+03  0.43256558892E+03  0.00000000000E+00 0.  1.
<mgrwt>
<rscale>  0 0.35441483E+02</rscale>
<asrwt>0</asrwt>
<pdfrwt beam="2">  1        1 0.22509904E+00 0.55583184E+02</pdfrwt>
<pdfrwt beam="1">  1       -2 0.14806201E-02 0.22598539E+02</pdfrwt>
<totfact> 0.62922380E+03</totfact>
</mgrwt>
</event>
<event>
 7    1  0.3113151E-004  0.8750639E+02  0.7546771E-02  0.1378976E+00
          3   -1    0    0  503    0 -0.00000000000E+00  0.00000000000E+00  0.36361262275E+03  0.36361262275E+03  0.00000000000E+00 0. -1.
          2   -1    0    0  502    0  0.00000000000E+00 -0.00000000000E+00 -0.93166432679E+03  0.93166432679E+03  0.00000000000E+00 0. -1.
         25    2    1    2    0    0  0.99390608918E+01 -0.39982190064E+02  0.14124076754E+02  0.13238401164E+03  0.12501470530E+03 0.  0.
          4    1    3    3  501    0 -0.24800494129E+02 -0.49231560759E+02 -0.39488498887E+02  0.67821571260E+02  0.12700000000E+01 0. -1.
         -4    1    3    3    0  501  0.34739555020E+02  0.92493706951E+01  0.53612575641E+02  0.64562440382E+02  0.12700000000E+01 0. -1.
          2    1    1    2  502    0 -0.16176609936E+02  0.87461490718E+02 -0.86827243058E+03  0.87281625144E+03  0.00000000000E+00 0. -1.
          3    1    1    2  503    0  0.62375490442E+01 -0.47479300654E+02  0.28609664979E+03  0.29007668646E+03  0.00000000000E+00 0. -1.
<mgrwt>
<rscale>  0 0.64733628E+02</rscale>
<asrwt>0</asrwt>
<pdfrwt beam="2">  1        2 0.14333297E+00 0.87506392E+02</pdfrwt>
<pdfrwt beam="1">  1        3 0.55940404E-01 0.47887274E+02</pdfrwt>
<totfact> 0.56118498E+01</totfact>
</mgrwt>
</event>
<event>
 7    1  0.3113151E-004  0.6476652E+02  0.7546771E-02  0.1486984E+00
         -1   -1    0    0    0  501 -0.00000000000E+00  0.00000000000E+00  0.29949325365E+03  0.29949325365E+03  0.00000000000E+00 0.  1.
          1   -1    0    0  503    0  0.00000000000E+00 -0.00000000000E+00 -0.75796517449E+02  0.75796517449E+02  0.00000000000E+00 0. -1.
         25    2    1    2    0    0  0.80538530994E+01 -0.58740864475E+02  0.22852764640E+03  0.26714037712E+03  0.12499496874E+03 0.  0.
          4    1    3    3  502    0  0.29534145038E+02 -0.78564169454E+02  0.80687752200E+02  0.11643333157E+03  0.12700000000E+01 0.  1.
         -4    1    3    3    0  502 -0.21480291939E+02  0.19823304979E+02  0.14783989420E+03  0.15070704555E+03  0.12700000000E+01 0.  1.
          1    1    1    2  503    0 -0.21002549297E+02 -0.19408881980E+02  0.18213001543E+01  0.28655346987E+02  0.00000000000E+00 0. -1.
         -1    1    1    2    0  501  0.12948696198E+02  0.78149746455E+02 -0.66522103541E+01  0.79494046990E+02  0.00000000000E+00 0.  1.
<mgrwt>
<rscale>  0 0.43036667E+02</rscale>
<asrwt>0</asrwt>
<pdfrwt beam="2">  1        1 0.11661003E-01 0.28597409E+02</pdfrwt>
<pdfrwt beam="1">  1       -1 0.46075885E-01 0.64766522E+02</pdfrwt>
<totfact> 0.21855158E+03</totfact>
</mgrwt>
</event>
<event>
 7    1  0.3113151E-004  0.2534807E+03  0.7546771E-02  0.1170419E+00
          1   -1    0    0  503    0  0.00000000000E+00  0.00000000000E+00  0.83321573997E+03  0.83321573997E+03  0.00000000000E+00 0. -1.
         -3   -1    0    0    0  501 -0.00000000000E+00 -0.00000000000E+00 -0.29872312541E+03  0.29872312541E+03  0.00000000000E+00 0.  1.
         25    2    1    2    0    0 -0.31748506068E+03  0.58046243752E+02 -0.54632255837E+02  0.35039688338E+03  0.12500864905E+03 0.  0.
          4    1    3    3  502    0 -0.91475334650E+02 -0.27073313758E+02  0.20274506536E+02  0.97536504358E+02  0.12700000000E+01 0. -1.
         -4    1    3    3    0  502 -0.22600972603E+03  0.85119557510E+02 -0.74906762374E+02  0.25286037902E+03  0.12700000000E+01 0. -1.
          1    1    1    2  503    0  0.11715468263E+03 -0.40774888311E+02  0.56566233514E+03  0.57910421219E+03  0.00000000000E+00 0. -1.
         -3    1    1    2    0  501  0.20033037804E+03 -0.17271355441E+02  0.23462535255E+02  0.20243776981E+03  0.00000000000E+00 0.  1.
<mgrwt>
<rscale>  0 0.17732366E+03</rscale>
<asrwt>0</asrwt>
<pdfrwt beam="1">  1        1 0.12818704E+00 0.12404762E+03</pdfrwt>
<pdfrwt beam="2">  1       -3 0.45957404E-01 0.25348072E+03</pdfrwt>
<totfact> 0.58287961E+01</totfact>
</mgrwt>
</event>
<event>
 7    1  0.3113151E-004  0.6557135E+02  0.7546771E-02  0.1456296E+00
         -1   -1    0    0    0  501 -0.00000000000E+00  0.00000000000E+00  0.62364331685E+02  0.62364331685E+02  0.00000000000E+00 0.  1.
          2   -1    0    0  503    0  0.00000000000E+00 -0.00000000000E+00 -0.31619561367E+03  0.31619561367E+03  0.00000000000E+00 0. -1.
         25    2    1    2    0    0 -0.83043409230E+02  0.38800669141E+02 -0.17265080269E+03  0.23204892713E+03  0.12504681192E+03 0.  0.
          4    1    3    3  502    0  0.15286325862E+02 -0.27416784065E+02 -0.63743561054E+02  0.71064803403E+02  0.12700000000E+01 0. -1.
         -4    1    3    3    0  502 -0.98329735092E+02  0.66217453206E+02 -0.10890724164E+03  0.16098412373E+03  0.12700000000E+01 0. -1.
          2    1    1    2  503    0  0.48415466611E+02 -0.32629045828E+02 -0.92652836113E+02  0.10951374379E+03  0.00000000000E+00 0. -1.
         -1    1    1    2    0  501  0.34627942619E+02 -0.61716233136E+01  0.11472356821E+02  0.36997274431E+02  0.00000000000E+00 0.  1.
<mgrwt>
<rscale>  0 0.48024803E+02</rscale>
<asrwt>0</asrwt>
<pdfrwt beam="2">  1        2 0.48645479E-01 0.65571353E+02</pdfrwt>
<pdfrwt beam="1">  1       -1 0.95945126E-02 0.35173617E+02</pdfrwt>
<totfact> 0.65575132E+03</totfact>
</mgrwt>
</event>
<event>
 7    1  0.3113151E-004  0.7367249E+03  0.7546771E-02  0.1123140E+00
          2   -1    0    0  503    0  0.00000000000E+00  0.00000000000E+00  0.17043240968E+04  0.17043240968E+04  0.00000000000E+00 0. -1.
          2   -1    0    0  502    0 -0.00000000000E+00 -0.00000000000E+00 -0.13275243057E+04  0.13275243057E+04  0.00000000000E+00 0. -1.
         25    2    1    2    0    0 -0.63732518152E+03 -0.42070927678E+03  0.57019352875E+03  0.96121079657E+03  0.12500341051E+03 0.  0.
          4    1    3    3  501    0 -0.58721117834E+03 -0.40877347971E+03  0.56024171955E+03  0.90872719938E+03  0.12700000000E+01 0. -1.
         -4    1    3    3    0  501 -0.50114003184E+02 -0.11935797078E+02  0.99518091977E+01  0.52483597184E+02  0.12700000000E+01 0. -1.
          2    1    1    2  502    0  0.71521000858E+02 -0.22536666679E+02 -0.99279841621E+03  0.99562636071E+03  0.00000000000E+00 0. -1.
          2    1    1    2  503    0  0.56580418066E+03  0.44324594346E+03  0.79940467857E+03  0.10750112452E+04  0.00000000000E+00 0. -1.
<mgrwt>
<rscale>  0 0.23504320E+03</rscale>
<asrwt>0</asrwt>
<pdfrwt beam="1">  1        2 0.26220371E+00 0.73672491E+03</pdfrwt>
<pdfrwt beam="2">  1        2 0.20423451E+00 0.74987698E+02</pdfrwt>
<totfact> 0.28509773E+01</totfact>
</mgrwt>
</event>
<event>
 7    1  0.3113151E-004  0.7185358E+02  0.7546771E-02  0.1384659E+00
          3   -1    0    0  503    0  0.00000000000E+00  0.00000000000E+00  0.11911611278E+04  0.11911611278E+04  0.00000000000E+00 0. -1.
         -2   -1    0    0    0  501 -0.00000000000E+00 -0.00000000000E+00 -0.19533588637E+03  0.19533588637E+03  0.00000000000E+00 0.  1.
         25    2    1    2    0    0  0.56114918374E+02  0.67465950070E+02  0.13061095059E+03  0.20095948740E+03  0.12499982672E+03 0.  0.
          4    1    3    3  502    0 -0.60331128898E+01  0.83115362782E+02  0.99238284575E+02  0.12959325602E+03  0.12700000000E+01 0.  1.
         -4    1    3    3    0  502  0.62148031264E+02 -0.15649412712E+02  0.31372666013E+02  0.71366231377E+02  0.12700000000E+01 0.  1.
          3    1    1    2  503    0 -0.61208013521E+00 -0.71965158976E+02  0.10192283026E+04  0.10217659672E+04  0.00000000000E+00 0. -1.
         -2    1    1    2    0  501 -0.55502838239E+02  0.44992089058E+01 -0.15401401176E+03  0.16377155965E+03  0.00000000000E+00 0.  1.
<mgrwt>
<rscale>  0 0.63254717E+02</rscale>
<asrwt>0</asrwt>
<pdfrwt beam="1">  1        3 0.18325555E+00 0.71853579E+02</pdfrwt>
<pdfrwt beam="2">  1       -2 0.30051676E-01 0.55684899E+02</pdfrwt>
<totfact> 0.82907299E+00</totfact>
</mgrwt>
</event>
<event>
 7    1  0.3113151E-004  0.1074698E+03  0.7546771E-02  0.1273995E+00
          1   -1    0    0  503    0  0.00000000000E+00  0.00000000000E+00  0.16494387530E+04  0.16494387530E+04  0.00000000000E+00 0. -1.
          1   -1    0    0  502    0 -0.00000000000E+00 -0.00000000000E+00 -0.75680817344E+03  0.75680817344E+03  0.00000000000E+00 0. -1.
         25    2    1    2    0    0  0.14023216866E+03 -0.60861661664E+02  0.27190629353E+03  0.33604492308E+03  0.12499581943E+03 0.  0.
          4    1    3    3  501    0 -0.10267683220E+01  0.24441222424E+02  0.76252397027E+02  0.80090377444E+02  0.12700000000E+01 0.  1.
         -4    1    3    3    0  501  0.14125893699E+03 -0.85302884088E+02  0.19565389651E+03  0.25595454563E+03  0.12700000000E+01 0.  1.
          1    1    1    2  502    0 -0.92588576772E+02 -0.34554415162E+02 -0.71924121053E+03  0.72599901589E+03  0.00000000000E+00 0. -1.
          1    1    1    2  503    0 -0.47643591891E+02  0.95416076826E+02  0.13399654965E+04  0.13442029874E+04  0.00000000000E+00 0. -1.
<mgrwt>
<rscale>  0 0.10305750E+03</rscale>
<asrwt>0</asrwt>
<pdfrwt beam="1">  1        1 0.25375981E+00 0.10746977E+03</pdfrwt>
<pdfrwt beam="2">  1        1 0.11643203E+00 0.98826374E+02</pdfrwt>
<totfact> 0.19868094E+01</totfact>
</mgrwt>
</event>
<event>
 7    1  0.3113151E-004  0.6252658E+02  0.7546771E-02  0.1493587E+00
          3   -1    0    0  503    0  0.00000000000E+00  0.00000000000E+00  0.11031669855E+03  0.11031669855E+03  0.00000000000E+00 0. -1.
         -2   -1    0    0    0  501 -0.00000000000E+00 -0.00000000000E+00 -0.73833671777E+03  0.73833671777E+03  0.00000000000E+00 0.  1.
         25    2    1    2    0    0 -0.29589603059E+02 -0.72424034701E+02 -0.13488346184E+03  0.19984664198E+03  0.12499738646E+03 0.  0.
          4    1    3    3  502    0  0.35233677880E+02 -0.59652875419E+02 -0.10840202024E+03  0.12865647475E+03  0.12700000000E+01 0. -1.
         -4    1    3    3    0  502 -0.64823280939E+02 -0.12771159282E+02 -0.26481441597E+02  0.71190167230E+02  0.12700000000E+01 0. -1.
          3    1    1    2  503    0  0.26232322545E+02  0.10593684473E+02  0.73520882672E+02  0.78776145410E+02  0.00000000000E+00 0. -1.
         -2    1    1    2    0  501  0.33572805141E+01  0.61830350228E+02 -0.56665744006E+03  0.57003062893E+03  0.00000000000E+00 0.  1.
<mgrwt>
<rscale>  0 0.42058501E+02</rscale>
<asrwt>0</asrwt>
<pdfrwt beam="1">  1        3 0.16971799E-01 0.28290650E+02</pdfrwt>
<pdfrwt beam="2">  1       -2 0.11359027E+00 0.62526577E+02</pdfrwt>
<totfact> 0.64465452E+01</totfact>
</mgrwt>
</event>
<event>
 7    1  0.3113151E-004  0.1088903E+03  0.7546771E-02  0.1294948E+00
          1   -1    0    0  503    0 -0.00000000000E+00  0.00000000000E+00  0.27664503604E+03  0.27664503604E+03  0.00000000000E+00 0. -1.
          2   -1    0    0  502    0  0.00000000000E+00 -0.00000000000E+00 -0.33860174067E+04  0.33860174067E+04  0.00000000000E+00 0. -1.
         25    2    1    2    0    0 -0.76739374604E+02 -0.94278811943E+02 -0.90871595828E+03  0.92529273709E+03  0.12499812190E+03 0.  0.
          4    1    3    3  501    0  0.21733617107E+02 -0.49401905794E+02 -0.16160456909E+03  0.17038353224E+03  0.12700000000E+01 0.  1.
         -4    1    3    3    0  501 -0.98472991711E+02 -0.44876906150E+02 -0.74711138919E+03  0.75490920484E+03  0.12700000000E+01 0.  1.
          2    1    1    2  502    0  0.78641175664E+02 -0.14784300145E+02 -0.24572503415E+04  0.24585528774E+04  0.00000000000E+00 0. -1.
          1    1    1    2  503    0 -0.19018010595E+01  0.10906311209E+03  0.25659392912E+03  0.27881682827E+03  0.00000000000E+00 0. -1.
<mgrwt>
<rscale>  0 0.93344931E+02</rscale>
<asrwt>0</asrwt>
<pdfrwt beam="2">  1        2 0.52092574E+00 0.80018811E+02</pdfrwt>
<pdfrwt beam="1">  1        1 0.42560776E-01 0.10889035E+03</pdfrwt>
<totfact> 0.19767323E+01</totfact>
</mgrwt>
</event>
<event>
 7    1  0.3113151E-004  0.6291458E+02  0.7546771E-02  0.1465403E+00
         -2   -1    0    0    0  501 -0.00000000000E+00  0.00000000000E+00  0.19476914886E+02  0.19476914886E+02  0.00000000000E+00 0.  1.
          2   -1    0    0  503    0  0.00000000000E+00 -0.00000000000E+00 -0.10222483650E+04  0.10222483650E+04  0.00000000000E+00 0. -1.
         25    2    1    2    0    0  0.55415964607E+02  0.43414850139E+02 -0.34763198546E+03  0.37607085522E+03  0.12500204995E+03 0.  0.
          4    1    3    3  502    0  0.90423764715E+02  0.16767054596E+02 -0.28534856133E+03  0.29980494609E+03  0.12700000000E+01 0.  1.
         -4    1    3    3    0  502 -0.35007800108E+02  0.26647795543E+02 -0.62283424126E+02  0.76265909137E+02  0.12700000000E+01 0.  1.
          2    1    1    2  503    0  0.56136580691E+01 -0.33852757170E+02 -0.45272112771E+03  0.45401975926E+03  0.00000000000E+00 0. -1.
         -2    1    1    2    0  501 -0.61029622676E+02 -0.95620929693E+01 -0.20241833691E+03  0.21163466537E+03  0.00000000000E+00 0.  1.
<mgrwt>
<rscale>  0 0.46464143E+02</rscale>
<asrwt>0</asrwt>
<pdfrwt beam="2">  1        2 0.15726897E+00 0.34315045E+02</pdfrwt>
<pdfrwt beam="1">  1       -2 0.29964486E-02 0.62914578E+02</pdfrwt>
<totfact> 0.10236901E+04</totfact>
</mgrwt>
</event>
<event>
 7    1  0.3113151E-004  0.3724826E+03  0.7546771E-02  0.1161578E+00
          1   -1    0    0  503    0  0.00000000000E+00  0.00000000000E+00  0.14830726395E+04  0.14830726395E+04  0.00000000000E+00 0. -1.
          1   -1    0    0  502    0 -0.00000000000E+00 -0.00000000000E+00 -0.92964388236E+03  0.92964388236E+03  0.00000000000E+00 0. -1.
         25    2    1    2    0    0 -0.39886768295E+03 -0.11860317523E+03  0.16987263722E+01  0.43450023062E+03  0.12500169226E+03 0.  0.
          4    1    3    3  501    0 -0.32962015523E+03 -0.13920369707E+03 -0.21915400808E+02  0.35848153886E+03  0.12700000000E+01 0.  1.
         -4    1    3    3    0  501 -0.69247527717E+02  0.20600521839E+02  0.23614127180E+02  0.76018691763E+02  0.12700000000E+01 0.  1.
          1    1    1    2  502    0  0.32141778068E+02  0.87764437190E+02 -0.68322681723E+03  0.68959014937E+03  0.00000000000E+00 0. -1.
          1    1    1    2  503    0  0.36672590488E+03  0.30838738042E+02  0.12349568480E+04  0.12886261419E+04  0.00000000000E+00 0. -1.
<mgrwt>
<rscale>  0 0.18658524E+03</rscale>
<asrwt>0</asrwt>
<pdfrwt beam="1">  1        1 0.22816502E+00 0.37248256E+03</pdfrwt>
<pdfrwt beam="2">  1        1 0.14302214E+00 0.93464915E+02</pdfrwt>
<totfact> 0.16690104E+01</totfact>
</mgrwt>
</event>
<event>
 7    1  0.3113151E-004  0.7767189E+02  0.7546771E-02  0.1346762E+00
          2   -1    0    0  503    0  0.00000000000E+00  0.00000000000E+00  0.41867130193E+04  0.41867130193E+04  0.00000000000E+00 0. -1.
         -2   -1    0    0    0  501 -0.00000000000E+00 -0.00000000000E+00 -0.13904777003E+04  0.13904777003E+04  0.00000000000E+00 0.  1.
         25    2    1    2    0    0  0.13220992732E+03 -0.65596869516E+02  0.94245699952E+02  0.21515011290E+03  0.12499961980E+03 0.  0.
          4    1    3    3  502    0  0.72173331096E+01  0.32088199025E+02  0.28074839783E+02  0.43261437132E+02  0.12700000000E+01 0. -1.
         -4    1    3    3    0  502  0.12499259421E+03 -0.97685068541E+02  0.66170860170E+02  0.17188867577E+03  0.12700000000E+01 0. -1.
          2    1    1    2  503    0 -0.61380558412E+02  0.34970081093E+02  0.40305860362E+04  0.40312050649E+04  0.00000000000E+00 0. -1.
         -2    1    1    2    0  501 -0.70829368907E+02  0.30626788423E+02 -0.13285964172E+04  0.13308355418E+04  0.00000000000E+00 0.  1.
<mgrwt>
<rscale>  0 0.74074293E+02</rscale>
<asrwt>0</asrwt>
<pdfrwt beam="1">  1        2 0.64410969E+00 0.70643326E+02</pdfrwt>
<pdfrwt beam="2">  1       -2 0.21391965E+00 0.77671894E+02</pdfrwt>
<totfact> 0.56433684E-02</totfact>
</mgrwt>
</event>
<event>
 7    1  0.3113151E-004  0.5472337E+02  0.7546771E-02  0.1494203E+00
          1   -1    0    0  503    0 -0.00000000000E+00  0.00000000000E+00  0.27266505283E+03  0.27266505283E+03  0.00000000000E+00 0. -1.
          2   -1    0    0  502    0  0.00000000000E+00 -0.00000000000E+00 -0.20039608903E+03  0.20039608903E+03  0.00000000000E+00 0. -1.
         25    2    1    2    0    0  0.31785109476E+02  0.79363696693E+02  0.52445374404E+02  0.16026344260E+03  0.12499985681E+03 0.  0.
          4    1    3    3  501    0  0.46681497886E+02 -0.37558363996E+01 -0.18098033443E+02  0.50223702237E+02  0.12700000000E+01 0. -1.
         -4    1    3    3    0  501 -0.14896388410E+02  0.83119533092E+02  0.70543407847E+02  0.11003974037E+03  0.12700000000E+01 0. -1.
          2    1    1    2  502    0 -0.19876594356E+02 -0.49460457587E+02 -0.13997942751E+03  0.14978536642E+03  0.00000000000E+00 0. -1.
          1    1    1    2  503    0 -0.11908515120E+02 -0.29903239106E+02  0.15980301691E+03  0.16301233283E+03  0.00000000000E+00 0. -1.
<mgrwt>
<rscale>  0 0.41968950E+02</rscale>
<asrwt>0</asrwt>
<pdfrwt beam="2">  1        2 0.30830167E-01 0.54723375E+02</pdfrwt>
<pdfrwt beam="1">  1        1 0.41948470E-01 0.32187209E+02</pdfrwt>
<totfact> 0.21794184E+03</totfact>
</mgrwt>
</event>
<event>
 7    1  0.3113151E-004  0.8455455E+02  0.7546771E-02  0.1426639E+00
         -2   -1    0    0    0  501 -0.00000000000E+00  0.00000000000E+00  0.37300213422E+02  0.37300213422E+02  0.00000000000E+00 0.  1.
          2   -1    0    0  503    0  0.00000000000E+00 -0.00000000000E+00 -0.63849720630E+03  0.63849720630E+03  0.00000000000E+00 0. -1.
         25    2    1    2    0    0 -0.13608424991E+02 -0.95906397973E+02 -0.41723747585E+03  0.44620049034E+03  0.12499815969E+03 0.  0.
          4    1    3    3  502    0  0.74304715314E+01  0.11164923389E+02  0.14277851663E+01  0.13546914481E+02  0.12700000000E+01 0. -1.
         -4    1    3    3    0  502 -0.21038896523E+02 -0.10707132136E+03 -0.41866526101E+03  0.43265357586E+03  0.12700000000E+01 0. -1.
          2    1    1    2  503    0  0.30732842916E+02  0.14610557248E+02 -0.12004948033E+03  0.12477922000E+03  0.00000000000E+00 0. -1.
         -2    1    1    2    0  501 -0.17124417925E+02  0.81295840725E+02 -0.63910036703E+02  0.10481770938E+03  0.00000000000E+00 0.  1.
<mgrwt>
<rscale>  0 0.53640570E+02</rscale>
<asrwt>0</asrwt>
<pdfrwt beam="2">  1        2 0.98230335E-01 0.34029047E+02</pdfrwt>
<pdfrwt beam="1">  1       -2 0.57384946E-02 0.84554551E+02</pdfrwt>
<totfact> 0.70971897E+03</totfact>
</mgrwt>
</event>
<event>
 7    1  0.4899515E-004  0.4758147E+03  0.7546771E-02  0.1020292E+00
         -1   -1    0    0    0  501 -0.00000000000E+00  0.00000000000E+00  0.15390700186E+02  0.15390700186E+02  0.00000000000E+00 0.  1.
          2   -1    0    0  503    0  0.00000000000E+00 -0.00000000000E+00 -0.36775395864E+04  0.36775395864E+04  0.00000000000E+00 0. -1.
         25    2    1    2    0    0 -0.15660425342E+03  0.31791861589E+02 -0.80451627477E+03  0.82970279774E+03  0.12499872623E+03 0.  0.
          4    1    3    3  502    0 -0.32165381096E+02  0.66198069208E+02 -0.30794396550E+03  0.31661947965E+03  0.12700000000E+01 0.  1.
         -4    1    3    3    0  502 -0.12443887232E+03 -0.34406207619E+02 -0.49657230927E+03  0.51308331809E+03  0.12700000000E+01 0.  1.
          2    1    1    2  503    0  0.56733492627E+02  0.27140542728E+02 -0.97175314185E+03  0.97378615052E+03  0.00000000000E+00 0. -1.
         -1    1    1    2    0  501  0.99870760790E+02 -0.58932404317E+02 -0.18858794696E+04  0.18894413384E+04  0.00000000000E+00 0.  1.
<mgrwt>
<rscale>  0 0.47581471E+03</rscale>
<asrwt>0</asrwt>
<pdfrwt beam="2">  1        2 0.56577532E+00 0.47581471E+03</pdfrwt>
<pdfrwt beam="1">  1       -1 0.23678000E-02 0.47581471E+03</pdfrwt>
<totfact> 0.44771368E+02</totfact>
</mgrwt>
</event>
<event>
 7    1  0.3113151E-004  0.1146419E+03  0.7546771E-02  0.1338227E+00
          1   -1    0    0  503    0  0.00000000000E+00  0.00000000000E+00  0.51380993894E+03  0.51380993894E+03  0.00000000000E+00 0. -1.
         -1   -1    0    0    0  501 -0.00000000000E+00 -0.00000000000E+00 -0.37962065544E+03  0.37962065544E+03  0.00000000000E+00 0.  1.
         25    2    1    2    0    0  0.55250130829E+02  0.61135526683E+02 -0.89144317989E+02  0.17424587201E+03  0.12499913961E+03 0.  0.
          4    1    3    3  502    0 -0.61796303703E+01  0.72329129628E+02 -0.97873609374E+01  0.73260467910E+02  0.12700000000E+01 0.  1.
         -4    1    3    3    0  502  0.61429761200E+02 -0.11193602945E+02 -0.79356957052E+02  0.10098540410E+03  0.12700000000E+01 0.  1.
          1    1    1    2  503    0  0.50298938534E+02  0.11152137752E+02  0.45319885099E+03  0.45611791451E+03  0.00000000000E+00 0. -1.
         -1    1    1    2    0  501 -0.10554906936E+03 -0.72287664435E+02 -0.22986524950E+03  0.26306680787E+03  0.00000000000E+00 0.  1.
<mgrwt>
<rscale>  0 0.76853084E+02</rscale>
<asrwt>0</asrwt>
<pdfrwt beam="1">  1        1 0.79047683E-01 0.51520417E+02</pdfrwt>
<pdfrwt beam="2">  1       -1 0.58403178E-01 0.11464186E+03</pdfrwt>
<totfact> 0.14238522E+02</totfact>
</mgrwt>
</event>
<event>
 7    1  0.3113151E-004  0.1278417E+03  0.7546771E-02  0.1301685E+00
          1   -1    0    0  503    0  0.00000000000E+00  0.00000000000E+00  0.12120782350E+04  0.12120782350E+04  0.00000000000E+00 0. -1.
         -1   -1    0    0    0  501 -0.00000000000E+00 -0.00000000000E+00 -0.36572986060E+02  0.36572986060E+02  0.00000000000E+00 0.  1.
         25    2    1    2    0    0  0.15164629453E+02 -0.14720989908E+03  0.30635760548E+03  0.36246638639E+03  0.12500471371E+03 0.  0.
          4    1    3    3  502    0  0.22860004400E+02 -0.16713556315E+03  0.24481005123E+03  0.29730531504E+03  0.12700000000E+01 0. -1.
         -4    1    3    3    0  502 -0.76953749471E+01  0.19925664069E+02  0.61547554256E+02  0.65161071347E+02  0.12700000000E+01 0. -1.
          1    1    1    2  503    0  0.34288330261E+02  0.54090077028E+02  0.41818644947E+03  0.42306185427E+03  0.00000000000E+00 0. -1.
         -1    1    1    2    0  501 -0.49452959715E+02  0.93119822056E+02  0.45096119398E+03  0.46312298038E+03  0.00000000000E+00 0.  1.
<mgrwt>
<rscale>  0 0.90483632E+02</rscale>
<asrwt>0</asrwt>
<pdfrwt beam="1">  1        1 0.18647354E+00 0.64042377E+02</pdfrwt>
<pdfrwt beam="2">  1       -1 0.56266142E-02 0.12784172E+03</pdfrwt>
<totfact> 0.17431909E+03</totfact>
</mgrwt>
</event>
<event>
 7    1  0.3113151E-004  0.1157405E+03  0.7546771E-02  0.1281032E+00
          2   -1    0    0  503    0  0.00000000000E+00  0.00000000000E+00  0.17259694930E+03  0.17259694930E+03  0.00000000000E+00 0. -1.
         -2   -1    0    0    0  501 -0.00000000000E+00 -0.00000000000E+00 -0.10645669330E+04  0.10645669330E+04  0.00000000000E+00 0. -1.
         25    2    1    2    0    0  0.42946604876E+02  0.39395197608E+02 -0.57044515785E+02  0.14925397434E+03  0.12500511833E+03 0.  0.
          4    1    3    3  502    0  0.46090505630E+02 -0.31084612695E+02 -0.55661471010E+02  0.78679095767E+02  0.12700000000E+01 0.  1.
         -4    1    3    3    0  502 -0.31439007540E+01  0.70479810304E+02 -0.13830447750E+01  0.70574878570E+02  0.12700000000E+01 0.  1.
          2    1    1    2  503    0  0.78684870565E+02 -0.34204249491E+02  0.10756360624E+03  0.13759058444E+03  0.00000000000E+00 0. -1.
         -2    1    1    2    0  501 -0.12163147544E+03 -0.51909481166E+01 -0.94248907417E+03  0.95031932354E+03  0.00000000000E+00 0. -1.
<mgrwt>
<rscale>  0 0.99650693E+02</rscale>
<asrwt>0</asrwt>
<pdfrwt beam="1">  1        2 0.26553376E-01 0.85797666E+02</pdfrwt>
<pdfrwt beam="2">  1       -2 0.16377953E+00 0.11574045E+03</pdfrwt>
<totfact> 0.51876713E+01</totfact>
</mgrwt>
</event>
<event>
 7    1  0.3113151E-004  0.6946925E+02  0.7546771E-02  0.1394811E+00
          1   -1    0    0  503    0  0.00000000000E+00  0.00000000000E+00  0.42511353005E+03  0.42511353005E+03  0.00000000000E+00 0. -1.
         -2   -1    0    0    0  501 -0.00000000000E+00 -0.00000000000E+00 -0.43927420828E+02  0.43927420828E+02  0.00000000000E+00 0.  1.
         25    2    1    2    0    0 -0.29227214740E+02 -0.83560182650E+02  0.24182699375E+03  0.28625547104E+03  0.12500146235E+03 0.  0.
          4    1    3    3  502    0  0.86382485837E+01  0.30344187276E+02  0.35170517110E+02  0.47264862359E+02  0.12700000000E+01 0.  1.
         -4    1    3    3    0  502 -0.37865463324E+02 -0.11390436993E+03  0.20665647664E+03  0.23899060868E+03  0.12700000000E+01 0.  1.
          1    1    1    2  503    0 -0.19334578162E+02  0.62123024128E+02  0.81028334752E+02  0.10391673144E+03  0.00000000000E+00 0. -1.
         -2    1    1    2    0  501  0.48561792902E+02  0.21437158521E+02  0.58330780723E+02  0.78868748406E+02  0.00000000000E+00 0.  1.
<mgrwt>
<rscale>  0 0.60725883E+02</rscale>
<asrwt>0</asrwt>
<pdfrwt beam="1">  1        1 0.65402079E-01 0.69469254E+02</pdfrwt>
<pdfrwt beam="2">  1       -2 0.67580650E-02 0.53082949E+02</pdfrwt>
<totfact> 0.54071403E+03</totfact>
</mgrwt>
</event>
<event>
 7    1  0.4689105E-004  0.4763591E+03  0.7546771E-02  0.1020141E+00
          1   -1    0    0  503    0  0.00000000000E+00  0.00000000000E+00  0.40652916555E+03  0.40652916555E+03  0.00000000000E+00 0. -1.
         -2   -1    0    0    0  501 -0.00000000000E+00 -0.00000000000E+00 -0.13954595827E+03  0.13954595827E+03  0.00000000000E+00 0.  1.
         25    2    1    2    0    0 -0.67881393463E+02  0.20180393550E+03  0.16323082986E+03  0.29597365075E+03  0.12499354447E+03 0.  0.
          4    1    3    3  502    0 -0.84446354920E+02  0.11039927347E+03  0.46039425252E+02  0.14642550331E+03  0.12700000000E+01 0.  1.
         -4    1    3    3    0  502  0.16564961457E+02  0.91404662036E+02  0.11719140460E+03  0.14954814744E+03  0.12700000000E+01 0.  1.
          1    1    1    2  503    0  0.35060739594E+02 -0.18759711562E+03  0.78696138361E+02  0.20643404623E+03  0.00000000000E+00 0. -1.
         -2    1    1    2    0  501  0.32820653869E+02 -0.14206819885E+02  0.25056239060E+02  0.43667426847E+02  0.00000000000E+00 0.  1.
<mgrwt>
<rscale>  0 0.47635912E+03</rscale>
<asrwt>0</asrwt>
<pdfrwt beam="1">  1        1 0.62542948E-01 0.47635912E+03</pdfrwt>
<pdfrwt beam="2">  1       -2 0.21468609E-01 0.47635912E+03</pdfrwt>
<totfact> 0.97248333E+02</totfact>
</mgrwt>
</event>
<event>
 7    1  0.3113151E-004  0.3294273E+02  0.7546771E-02  0.1575239E+00
         -2   -1    0    0    0  501 -0.00000000000E+00  0.00000000000E+00  0.21725608577E+02  0.21725608577E+02  0.00000000000E+00 0.  1.
          1   -1    0    0  503    0  0.00000000000E+00 -0.00000000000E+00 -0.52298743619E+03  0.52298743619E+03  0.00000000000E+00 0. -1.
         25    2    1    2    0    0 -0.17463928532E+02  0.26646535047E+01 -0.35096858851E+03  0.37298299611E+03  0.12500110434E+03 0.  0.
          4    1    3    3  502    0 -0.17320394159E+02 -0.49651262500E+02 -0.72109317750E+02  0.89255871112E+02  0.12700000000E+01 0.  1.
         -4    1    3    3    0  502 -0.14353437251E+00  0.52315916004E+02 -0.27885927076E+03  0.28372712500E+03  0.12700000000E+01 0.  1.
          1    1    1    2  503    0  0.11570737213E+02 -0.35075971460E+02 -0.12458073748E+03  0.12994062446E+03  0.00000000000E+00 0. -1.
         -2    1    1    2    0  501  0.58931913186E+01  0.32411317956E+02 -0.25712501628E+02  0.41789424207E+02  0.00000000000E+00 0.  1.
<mgrwt>
<rscale>  0 0.32173196E+02</rscale>
<asrwt>0</asrwt>
<pdfrwt beam="2">  1        1 0.80459600E-01 0.31421641E+02</pdfrwt>
<pdfrwt beam="1">  1       -2 0.33424015E-02 0.32942727E+02</pdfrwt>
<totfact> 0.11104225E+04</totfact>
</mgrwt>
</event>
<event>
 7    1  0.5269869E-004  0.1616085E+03  0.7546771E-02  0.1393428E+00
          2   -1    0    0  503    0  0.00000000000E+00  0.00000000000E+00  0.18410770346E+04  0.18410770346E+04  0.00000000000E+00 0. -1.
         -1   -1    0    0    0  501 -0.00000000000E+00 -0.00000000000E+00 -0.23939938626E+02  0.23939938626E+02  0.00000000000E+00 0.  1.
         25    2    1    2    0    0  0.16174172858E+02  0.16480968603E+03  0.12939573265E+04  0.13104862821E+04  0.12499958539E+03 0.  0.
          4    1    3    3  502    0 -0.20195249565E+02  0.92051228345E+02  0.10293471922E+04  0.10336530036E+04  0.12700000000E+01 0.  1.
         -4    1    3    3    0  502  0.36369422422E+02  0.72758457686E+02  0.26461013421E+03  0.27683327849E+03  0.12700000000E+01 0.  1.
          2    1    1    2  503    0 -0.22652388111E+02 -0.43784604707E+01  0.57986590392E+02  0.62407902293E+02  0.00000000000E+00 0. -1.
         -1    1    1    2    0  501  0.64782152533E+01 -0.16043122556E+03  0.46519317915E+03  0.49212278888E+03  0.00000000000E+00 0.  1.
<mgrwt>
<rscale>  0 0.61062077E+02</rscale>
<asrwt>0</asrwt>
<pdfrwt beam="1">  1        2 0.28324251E+00 0.23071662E+02</pdfrwt>
<pdfrwt beam="2">  1       -1 0.36830689E-02 0.16160852E+03</pdfrwt>
<totfact> 0.35113038E+03</totfact>
</mgrwt>
</event>
<event>
 7    1  0.3113151E-004  0.2215239E+03  0.7546771E-02  0.1334743E+00
         -2   -1    0    0    0  501 -0.00000000000E+00  0.00000000000E+00  0.68975868584E+02  0.68975868584E+02  0.00000000000E+00 0.  1.
          2   -1    0    0  503    0  0.00000000000E+00 -0.00000000000E+00 -0.14421725850E+04  0.14421725850E+04  0.00000000000E+00 0. -1.
         25    2    1    2    0    0 -0.20825710884E+03  0.25473709278E+02 -0.80062169525E+03  0.83704264440E+03  0.12500142555E+03 0.  0.
          4    1    3    3  502    0 -0.15342888310E+03  0.58255017239E+02 -0.41696673057E+03  0.44810371177E+03  0.12700000000E+01 0.  1.
         -4    1    3    3    0  502 -0.54828225749E+02 -0.32781307961E+02 -0.38365496467E+03  0.38893893262E+03  0.12700000000E+01 0.  1.
          2    1    1    2  503    0 -0.17120238878E+02 -0.21500349962E+02 -0.37007031714E+03  0.37108948686E+03  0.00000000000E+00 0. -1.
         -2    1    1    2    0  501  0.22537734772E+03 -0.39733593162E+01 -0.20250470406E+03  0.30301632236E+03  0.00000000000E+00 0.  1.
<mgrwt>
<rscale>  0 0.78027887E+02</rscale>
<asrwt>0</asrwt>
<pdfrwt beam="2">  1        2 0.22187270E+00 0.27483952E+02</pdfrwt>
<pdfrwt beam="1">  1       -2 0.10611672E-01 0.22152386E+03</pdfrwt>
<totfact> 0.10518025E+03</totfact>
</mgrwt>
</event>
<event>
 7    1  0.3113151E-004  0.2440565E+03  0.7546771E-02  0.1200016E+00
          1   -1    0    0  503    0  0.00000000000E+00  0.00000000000E+00  0.15262035775E+04  0.15262035775E+04  0.00000000000E+00 0. -1.
          1   -1    0    0  502    0 -0.00000000000E+00 -0.00000000000E+00 -0.34785127001E+03  0.34785127001E+03  0.00000000000E+00 0. -1.
         25    2    1    2    0    0 -0.48453214579E+02 -0.19666428301E+03 -0.47595997420E+02  0.24272397374E+03  0.12499997698E+03 0.  0.
          4    1    3    3  501    0 -0.30416458563E+02 -0.20516099051E+03 -0.63802335400E+02  0.21699894903E+03  0.12700000000E+01 0.  1.
         -4    1    3    3    0  501 -0.18036756016E+02  0.84967074950E+01  0.16206337980E+02  0.25725024715E+02  0.12700000000E+01 0.  1.
          1    1    1    2  502    0  0.10577547153E+03  0.26945278075E+03 -0.96887331971E+02  0.30525465849E+03  0.00000000000E+00 0. -1.
          1    1    1    2  503    0 -0.57322256952E+02 -0.72788497737E+02  0.13228356368E+04  0.13260762152E+04  0.00000000000E+00 0. -1.
<mgrwt>
<rscale>  0 0.15037224E+03</rscale>
<asrwt>0</asrwt>
<pdfrwt beam="1">  1        1 0.23480055E+00 0.92649914E+02</pdfrwt>
<pdfrwt beam="2">  1        1 0.53515581E-01 0.24405646E+03</pdfrwt>
<totfact> 0.66430046E+01</totfact>
</mgrwt>
</event>
<event>
 7    1  0.3113151E-004  0.4954417E+02  0.7546771E-02  0.1478522E+00
         -3   -1    0    0    0  501 -0.00000000000E+00  0.00000000000E+00  0.12815017861E+03  0.12815017861E+03  0.00000000000E+00 0.  1.
          1   -1    0    0  503    0  0.00000000000E+00 -0.00000000000E+00 -0.22146354963E+04  0.22146354963E+04  0.00000000000E+00 0. -1.
         25    2    1    2    0    0 -0.28633385127E+02 -0.83386312203E+02 -0.41275576283E+03  0.44018682593E+03  0.12499589660E+03 0.  0.
          4    1    3    3  502    0 -0.40358049997E+02  0.11295909924E+02 -0.23235660278E+03  0.23610924068E+03  0.12700000000E+01 0.  1.
         -4    1    3    3    0  502  0.11724664870E+02 -0.94682222127E+02 -0.18039916005E+03  0.20407758524E+03  0.12700000000E+01 0.  1.
          1    1    1    2  503    0  0.17992353327E+02  0.45162262290E+02 -0.17843838481E+04  0.17850459580E+04  0.00000000000E+00 0. -1.
         -3    1    1    2    0  501  0.10641031801E+02  0.38224049913E+02  0.11065429329E+03  0.11755289096E+03  0.00000000000E+00 0.  1.
<mgrwt>
<rscale>  0 0.44337258E+02</rscale>
<asrwt>0</asrwt>
<pdfrwt beam="2">  1        1 0.34071314E+00 0.49544175E+02</pdfrwt>
<pdfrwt beam="1">  1       -3 0.19715413E-01 0.39677570E+02</pdfrwt>
<totfact> 0.32794437E+01</totfact>
</mgrwt>
</event>
<event>
 7    1  0.3113151E-004  0.3350140E+02  0.7546771E-02  0.1566247E+00
          2   -1    0    0  503    0  0.00000000000E+00  0.00000000000E+00  0.18796089300E+04  0.18796089300E+04  0.00000000000E+00 0. -1.
         -1   -1    0    0    0  501 -0.00000000000E+00 -0.00000000000E+00 -0.66072576131E+01  0.66072576131E+01  0.00000000000E+00 0.  1.
         25    2    1    2    0    0 -0.46382692081E+01 -0.49688434642E+01  0.14865445746E+04  0.14918062708E+04  0.12499989737E+03 0.  0.
          4    1    3    3  502    0  0.34259321138E+02  0.16247386305E+02  0.15684290440E+03  0.16136600698E+03  0.12700000000E+01 0.  1.
         -4    1    3    3    0  502 -0.38897590346E+02 -0.21216229769E+02  0.13297016702E+04  0.13304402638E+04  0.12700000000E+01 0.  1.
          2    1    1    2  503    0 -0.26376091976E+02  0.20655401018E+02  0.28910820416E+03  0.29104277612E+03  0.00000000000E+00 0. -1.
         -1    1    1    2    0  501  0.31014361184E+02 -0.15686557554E+02  0.97348893658E+02  0.10336714074E+03  0.00000000000E+00 0.  1.
<mgrwt>
<rscale>  0 0.33090007E+02</rscale>
<asrwt>0</asrwt>
<pdfrwt beam="1">  1        2 0.28917018E+00 0.33501400E+02</pdfrwt>
<pdfrwt beam="2">  1       -1 0.10165027E-02 0.32683665E+02</pdfrwt>
<totfact> 0.15827682E+04</totfact>
</mgrwt>
</event>
<event>
 7    1  0.3113151E-004  0.4540483E+02  0.7546771E-02  0.1480981E+00
         -2   -1    0    0    0  501 -0.00000000000E+00  0.00000000000E+00  0.10320185604E+02  0.10320185604E+02  0.00000000000E+00 0.  1.
          2   -1    0    0  503    0  0.00000000000E+00 -0.00000000000E+00 -0.13539000204E+04  0.13539000204E+04  0.00000000000E+00 0. -1.
         25    2    1    2    0    0  0.20492343078E+02 -0.41112447744E+02 -0.70580552869E+03  0.71825905580E+03  0.12499782963E+03 0.  0.
          4    1    3    3  502    0  0.85091355035E+01  0.44175626609E+02 -0.18614970316E+03  0.19151296630E+03  0.12700000000E+01 0.  1.
         -4    1    3    3    0  502  0.11983207574E+02 -0.85288074353E+02 -0.51965582553E+03  0.52674608950E+03  0.12700000000E+01 0.  1.
          2    1    1    2  503    0 -0.48001860276E+02  0.49900849054E+01 -0.19576667350E+03  0.20162755266E+03  0.00000000000E+00 0.  1.
         -2    1    1    2    0  501  0.27509517199E+02  0.36122362839E+02 -0.44200763263E+03  0.44433359758E+03  0.00000000000E+00 0. -1.
<mgrwt>
<rscale>  0 0.43953684E+02</rscale>
<asrwt>0</asrwt>
<pdfrwt beam="2">  1        2 0.20829218E+00 0.42548917E+02</pdfrwt>
<pdfrwt beam="1">  1       -2 0.15877219E-02 0.45404831E+02</pdfrwt>
<totfact> 0.15866379E+04</totfact>
</mgrwt>
</event>
<event>
 7    1  0.3113151E-004  0.8713735E+02  0.7546771E-02  0.1390317E+00
          2   -1    0    0  502    0  0.00000000000E+00  0.00000000000E+00  0.11779877268E+04  0.11779877268E+04  0.00000000000E+00 0. -1.
          2   -1    0    0  503    0 -0.00000000000E+00 -0.00000000000E+00 -0.74956061769E+02  0.74956061769E+02  0.00000000000E+00 0.  1.
         25    2    1    2    0    0  0.91774787713E+02 -0.21434063280E+02  0.17020111898E+03  0.23124727993E+03  0.12499941138E+03 0.  0.
          4    1    3    3  501    0  0.64285102097E+02  0.32580036344E+02  0.29206489351E+02  0.77773164009E+02  0.12700000000E+01 0. -1.
         -4    1    3    3    0  501  0.27489685615E+02 -0.54014099624E+02  0.14099462962E+03  0.15347411592E+03  0.12700000000E+01 0. -1.
          2    1    1    2  502    0 -0.84555134568E+02 -0.21837589318E+02  0.96395783219E+03  0.96790554979E+03  0.00000000000E+00 0. -1.
          2    1    1    2  503    0 -0.72196531441E+01  0.43271652598E+02 -0.31127286141E+02  0.53790958837E+02  0.00000000000E+00 0.  1.
<mgrwt>
<rscale>  0 0.61827971E+02</rscale>
<asrwt>0</asrwt>
<pdfrwt beam="1">  1        2 0.18122887E+00 0.87137350E+02</pdfrwt>
<pdfrwt beam="2">  1        2 0.11531703E-01 0.43869800E+02</pdfrwt>
<totfact> 0.16461495E+03</totfact>
</mgrwt>
</event>
<event>
 7    1  0.3113151E-004  0.1376338E+03  0.7546771E-02  0.1304688E+00
          2   -1    0    0  503    0  0.00000000000E+00  0.00000000000E+00  0.13127713733E+04  0.13127713733E+04  0.00000000000E+00 0. -1.
         -3   -1    0    0    0  501 -0.00000000000E+00 -0.00000000000E+00 -0.48461928973E+03  0.48461928973E+03  0.00000000000E+00 0.  1.
         25    2    1    2    0    0 -0.58659976747E+02 -0.95993365478E+02  0.11573455157E+04  0.11694996001E+04  0.12499981120E+03 0.  0.
          4    1    3    3  502    0  0.14624797301E+02  0.21903668344E+02  0.11711361788E+03  0.12004527386E+03  0.12700000000E+01 0.  1.
         -4    1    3    3    0  502 -0.73284774048E+02 -0.11789703382E+03  0.10402318978E+04  0.10494543262E+04  0.12700000000E+01 0.  1.
          2    1    1    2  503    0 -0.55034197240E+02  0.17892067367E+02  0.13327176576E+03  0.14529367670E+03  0.00000000000E+00 0. -1.
         -3    1    1    2    0  501  0.11369417399E+03  0.78101298111E+02 -0.46246519788E+03  0.48259738625E+03  0.00000000000E+00 0.  1.
<mgrwt>
<rscale>  0 0.89245778E+02</rscale>
<asrwt>0</asrwt>
<pdfrwt beam="1">  1        2 0.20196483E+00 0.57869586E+02</pdfrwt>
<pdfrwt beam="2">  1       -3 0.74556814E-01 0.13763376E+03</pdfrwt>
<totfact> 0.20499963E+01</totfact>
</mgrwt>
</event>
<event>
 7    1  0.3113151E-004  0.5444996E+02  0.7546771E-02  0.1529658E+00
          1   -1    0    0  503    0  0.00000000000E+00  0.00000000000E+00  0.32283958106E+03  0.32283958106E+03  0.00000000000E+00 0. -1.
         -1   -1    0    0    0  501 -0.00000000000E+00 -0.00000000000E+00 -0.32357698069E+03  0.32357698069E+03  0.00000000000E+00 0.  1.
         25    2    1    2    0    0 -0.40866691328E+02  0.30295862865E+02 -0.16027791382E+03  0.20953040631E+03  0.12500422291E+03 0.  0.
          4    1    3    3  502    0 -0.67895585964E+02  0.23569010209E+02 -0.16615356117E+03  0.18103570815E+03  0.12700000000E+01 0.  1.
         -4    1    3    3    0  502  0.27028894635E+02  0.67268526563E+01  0.58756473514E+01  0.28494698168E+02  0.12700000000E+01 0.  1.
          1    1    1    2  503    0  0.15631893782E+02  0.20088247884E+02  0.29191201872E+03  0.29301965886E+03  0.00000000000E+00 0. -1.
         -1    1    1    2    0  501  0.25234797546E+02 -0.50384110749E+02 -0.13237150454E+03  0.14386649658E+03  0.00000000000E+00 0.  1.
<mgrwt>
<rscale>  0 0.37228430E+02</rscale>
<asrwt>0</asrwt>
<pdfrwt beam="1">  1        1 0.49667628E-01 0.25453758E+02</pdfrwt>
<pdfrwt beam="2">  1       -1 0.49781074E-01 0.54449955E+02</pdfrwt>
<totfact> 0.33753302E+02</totfact>
</mgrwt>
</event>
<event>
 7    1  0.3113151E-004  0.1917886E+03  0.7546771E-02  0.1176617E+00
          2   -1    0    0  502    0  0.00000000000E+00  0.00000000000E+00  0.16968403271E+03  0.16968403271E+03  0.00000000000E+00 0. -1.
          1   -1    0    0  503    0 -0.00000000000E+00 -0.00000000000E+00 -0.72648921779E+03  0.72648921779E+03  0.00000000000E+00 0. -1.
         25    2    1    2    0    0 -0.83877044499E+02  0.91589061365E+02 -0.16295521087E+02  0.17696218631E+03  0.12500462640E+03 0.  0.
          4    1    3    3  501    0 -0.25544177838E+02  0.10008051860E+03  0.23360809876E+02  0.10590540856E+03  0.12700000000E+01 0. -1.
         -4    1    3    3    0  501 -0.58332866661E+02 -0.84914572339E+01 -0.39656330962E+02  0.71056777750E+02  0.12700000000E+01 0. -1.
          2    1    1    2  502    0  0.85548737246E+02  0.12660155032E+03 -0.19097071835E+02  0.15398453540E+03  0.00000000000E+00 0. -1.
          1    1    1    2  503    0 -0.16716927477E+01 -0.21819061169E+03 -0.52141259216E+03  0.56522652879E+03  0.00000000000E+00 0. -1.
<mgrwt>
<rscale>  0 0.17118553E+03</rscale>
<asrwt>0</asrwt>
<pdfrwt beam="1">  1        2 0.26105236E-01 0.15279574E+03</pdfrwt>
<pdfrwt beam="2">  1        1 0.11176757E+00 0.19178863E+03</pdfrwt>
<totfact> 0.74498862E+02</totfact>
</mgrwt>
</event>
<event>
 7    1  0.3113151E-004  0.7608183E+02  0.7546771E-02  0.1481039E+00
         -1   -1    0    0    0  501 -0.00000000000E+00  0.00000000000E+00  0.32668148395E+02  0.32668148395E+02  0.00000000000E+00 0.  1.
          2   -1    0    0  503    0  0.00000000000E+00 -0.00000000000E+00 -0.47569085134E+03  0.47569085134E+03  0.00000000000E+00 0. -1.
         25    2    1    2    0    0  0.17283280097E+02 -0.68365462864E+02 -0.26163621582E+03  0.29841418079E+03  0.12499986233E+03 0.  0.
          4    1    3    3  502    0  0.47110744904E+02 -0.16444220618E+02 -0.21970188261E+03  0.22530060985E+03  0.12700000000E+01 0. -1.
         -4    1    3    3    0  502 -0.29827464807E+02 -0.51921242246E+02 -0.41934333208E+02  0.73113570934E+02  0.12700000000E+01 0. -1.
          2    1    1    2  503    0  0.25380479399E+02  0.31723371364E+00 -0.41991017009E+02  0.49066433345E+02  0.00000000000E+00 0. -1.
         -1    1    1    2    0  501 -0.42663759496E+02  0.68048229150E+02 -0.13939547012E+03  0.16087838560E+03  0.00000000000E+00 0.  1.
<mgrwt>
<rscale>  0 0.43944786E+02</rscale>
<asrwt>0</asrwt>
<pdfrwt beam="2">  1        2 0.73183206E-01 0.25382462E+02</pdfrwt>
<pdfrwt beam="1">  1       -1 0.50258691E-02 0.76081832E+02</pdfrwt>
<totfact> 0.11951705E+04</totfact>
</mgrwt>
</event>
<event>
 7    1  0.3113151E-004  0.5296714E+02  0.7546771E-02  0.1454636E+00
          1   -1    0    0  502    0  0.00000000000E+00  0.00000000000E+00  0.98557521330E+03  0.98557521330E+03  0.00000000000E+00 0. -1.
          1   -1    0    0  503    0 -0.00000000000E+00 -0.00000000000E+00 -0.70356299281E+02  0.70356299281E+02  0.00000000000E+00 0. -1.
         25    2    1    2    0    0 -0.19846855101E+02  0.66611265881E+02  0.21505219558E+03  0.25827087999E+03  0.12500176891E+03 0.  0.
          4    1    3    3  501    0 -0.62172225358E+02  0.73615149942E+02  0.17387215424E+03  0.19879063063E+03  0.12700000000E+01 0. -1.
         -4    1    3    3    0  501  0.42325370258E+02 -0.70038840610E+01  0.41180041335E+02  0.59480249359E+02  0.12700000000E+01 0. -1.
          1    1    1    2  502    0 -0.23938687296E+02 -0.37007730525E+02  0.73372857930E+03  0.73505119614E+03  0.00000000000E+00 0. -1.
          1    1    1    2  503    0  0.43785542397E+02 -0.29603535356E+02 -0.33561860856E+02  0.62609436450E+02  0.00000000000E+00 0. -1.
<mgrwt>
<rscale>  0 0.48317111E+02</rscale>
<asrwt>0</asrwt>
<pdfrwt beam="1">  1        1 0.15162695E+00 0.44075309E+02</pdfrwt>
<pdfrwt beam="2">  1        1 0.10824047E-01 0.52967143E+02</pdfrwt>
<totfact> 0.11506672E+03</totfact>
</mgrwt>
</event>
<event>
 7    1  0.3113151E-004  0.3776113E+02  0.7546771E-02  0.1550559E+00
          2   -1    0    0  503    0  0.00000000000E+00  0.00000000000E+00  0.37483923236E+02  0.37483923236E+02  0.00000000000E+00 0. -1.
         -1   -1    0    0    0  501 -0.00000000000E+00 -0.00000000000E+00 -0.28921636745E+03  0.28921636745E+03  0.00000000000E+00 0.  1.
         25    2    1    2    0    0  0.13706640621E+02  0.47757192529E+01 -0.14536229497E+03  0.19226364939E+03  0.12499773833E+03 0.  0.
          4    1    3    3  502    0 -0.78508604396E+01 -0.48855874546E+02 -0.11867767596E+03  0.12858668733E+03  0.12700000000E+01 0. -1.
         -4    1    3    3    0  502  0.21557501061E+02  0.53631593799E+02 -0.26684619004E+02  0.63676962057E+02  0.12700000000E+01 0. -1.
          2    1    1    2  503    0  0.28417110714E+02 -0.14788998682E+02 -0.19847392986E+02  0.37685085534E+02  0.00000000000E+00 0. -1.
         -1    1    1    2    0  501 -0.42123751335E+02  0.10013279429E+02 -0.86522756254E+02  0.96751555757E+02  0.00000000000E+00 0.  1.
<mgrwt>
<rscale>  0 0.34780468E+02</rscale>
<asrwt>0</asrwt>
<pdfrwt beam="1">  1        2 0.57667576E-02 0.32035085E+02</pdfrwt>
<pdfrwt beam="2">  1       -1 0.44494824E-01 0.37761129E+02</pdfrwt>
<totfact> 0.62372628E+03</totfact>
</mgrwt>
</event>
<event>
 7    1  0.3113151E-004  0.6488223E+02  0.7546771E-02  0.1430370E+00
         -1   -1    0    0    0  501 -0.00000000000E+00  0.00000000000E+00  0.69155423159E+02  0.69155423159E+02  0.00000000000E+00 0.  1.
          2   -1    0    0  503    0  0.00000000000E+00 -0.00000000000E+00 -0.72327273620E+03  0.72327273620E+03  0.00000000000E+00 0. -1.
         25    2    1    2    0    0 -0.88033551521E+02 -0.14302263955E+02 -0.63536851742E+02  0.16618628017E+03  0.12500594882E+03 0.  0.
          4    1    3    3  502    0 -0.10624576407E+03 -0.32418559658E+02 -0.16132455249E+02  0.11225415095E+03  0.12700000000E+01 0. -1.
         -4    1    3    3    0  502  0.18212212545E+02  0.18116295703E+02 -0.47404396493E+02  0.53932129224E+02  0.12700000000E+01 0. -1.
          2    1    1    2  503    0  0.51984789285E+02  0.37939781965E+02 -0.57766830832E+03  0.58124222129E+03  0.00000000000E+00 0. -1.
         -1    1    1    2    0  501  0.36048762235E+02 -0.23637518010E+02 -0.12912152976E+02  0.44999657897E+02  0.00000000000E+00 0.  1.
<mgrwt>
<rscale>  0 0.52885750E+02</rscale>
<asrwt>0</asrwt>
<pdfrwt beam="2">  1        2 0.11127273E+00 0.64882233E+02</pdfrwt>
<pdfrwt beam="1">  1       -1 0.10639296E-01 0.43107372E+02</pdfrwt>
<totfact> 0.23637754E+03</totfact>
</mgrwt>
</event>
<event>
 7    1  0.3113151E-004  0.7627401E+02  0.7546771E-02  0.1356717E+00
         -1   -1    0    0    0  501 -0.00000000000E+00  0.00000000000E+00  0.28001708716E+02  0.28001708716E+02  0.00000000000E+00 0.  1.
          1   -1    0    0  503    0  0.00000000000E+00 -0.00000000000E+00 -0.19368835314E+04  0.19368835314E+04  0.00000000000E+00 0. -1.
         25    2    1    2    0    0 -0.90955932441E+02 -0.83804054293E+02 -0.89915691991E+03  0.91618965518E+03  0.12499686585E+03 0.  0.
          4    1    3    3  502    0  0.37989503915E+01  0.26416502550E+02 -0.22235431047E+03  0.22395382541E+03  0.12700000000E+01 0.  1.
         -4    1    3    3    0  502 -0.94754882832E+02 -0.11022055684E+03 -0.67680260944E+03  0.69223582977E+03  0.12700000000E+01 0.  1.
          1    1    1    2  503    0  0.27651808598E+02  0.64800229513E+02 -0.96793876182E+03  0.97049942756E+03  0.00000000000E+00 0. -1.
         -1    1    1    2    0  501  0.63304123843E+02  0.19003824780E+02 -0.41786140943E+02  0.78196157365E+02  0.00000000000E+00 0.  1.
<mgrwt>
<rscale>  0 0.71002361E+02</rscale>
<asrwt>0</asrwt>
<pdfrwt beam="2">  1        1 0.29798206E+00 0.76274006E+02</pdfrwt>
<pdfrwt beam="1">  1       -1 0.43079555E-02 0.66095064E+02</pdfrwt>
<totfact> 0.82716383E+02</totfact>
</mgrwt>
</event>
<event>
 7    1  0.3113151E-004  0.9084795E+02  0.7546771E-02  0.1348143E+00
          3   -1    0    0  503    0  0.00000000000E+00  0.00000000000E+00  0.20356148906E+03  0.20356148906E+03  0.00000000000E+00 0. -1.
         -1   -1    0    0    0  501 -0.00000000000E+00 -0.00000000000E+00 -0.25801372981E+03  0.25801372981E+03  0.00000000000E+00 0.  1.
         25    2    1    2    0    0  0.73613272281E+02  0.35269466450E+02 -0.13814305188E+03  0.20339934446E+03  0.12499976569E+03 0.  0.
          4    1    3    3  502    0  0.40304394672E+02  0.42467247371E+02  0.25646488931E+01  0.58618270643E+02  0.12700000000E+01 0. -1.
         -4    1    3    3    0  502  0.33308877609E+02 -0.71977809210E+01 -0.14070770078E+03  0.14478107382E+03  0.12700000000E+01 0. -1.
          3    1    1    2  503    0 -0.39423450522E+02 -0.84194347599E+02  0.14523534576E+03  0.17244188087E+03  0.00000000000E+00 0. -1.
         -1    1    1    2    0  501 -0.34189821759E+02  0.48924881148E+02 -0.61544534622E+02  0.85733993544E+02  0.00000000000E+00 0.  1.
<mgrwt>
<rscale>  0 0.73637489E+02</rscale>
<asrwt>0</asrwt>
<pdfrwt beam="1">  1        3 0.31317152E-01 0.90847953E+02</pdfrwt>
<pdfrwt beam="2">  1       -1 0.39694420E-01 0.59687418E+02</pdfrwt>
<totfact> 0.26683745E+02</totfact>
</mgrwt>
</event>
<event>
 7    1  0.3113151E-004  0.5251225E+02  0.7546771E-02  0.1524460E+00
          2   -1    0    0  502    0  0.00000000000E+00  0.00000000000E+00  0.26842472401E+02  0.26842472401E+02  0.00000000000E+00 0. -1.
          1   -1    0    0  503    0 -0.00000000000E+00 -0.00000000000E+00 -0.13797487222E+04  0.13797487222E+04  0.00000000000E+00 0. -1.
         25    2    1    2    0    0  0.56956549723E+02 -0.53965875356E+02 -0.81466067977E+03  0.82792143703E+03  0.12500207390E+03 0.  0.
          4    1    3    3  501    0  0.79131395467E+01 -0.21122148715E+01  0.16875546477E+01  0.84581303984E+01  0.12700000000E+01 0.  1.
         -4    1    3    3    0  501  0.49043410177E+02 -0.51853660484E+02 -0.81634823441E+03  0.81946330663E+03  0.12700000000E+01 0.  1.
          2    1    1    2  502    0 -0.34957965786E+02  0.37770249407E+02 -0.13490053776E+02  0.53203690315E+02  0.00000000000E+00 0. -1.
          1    1    1    2  503    0 -0.21998583937E+02  0.16195625948E+02 -0.52475551623E+03  0.52546606723E+03  0.00000000000E+00 0. -1.
<mgrwt>
<rscale>  0 0.37874714E+02</rscale>
<asrwt>0</asrwt>
<pdfrwt beam="1">  1        2 0.41296101E-02 0.52512251E+02</pdfrwt>
<pdfrwt beam="2">  1        1 0.21226909E+00 0.27317320E+02</pdfrwt>
<totfact> 0.25010422E+03</totfact>
</mgrwt>
</event>
<event>
 7    1  0.3113151E-004  0.8294645E+02  0.7546771E-02  0.1368952E+00
          1   -1    0    0  502    0  0.00000000000E+00  0.00000000000E+00  0.33272318658E+04  0.33272318658E+04  0.00000000000E+00 0.  1.
          1   -1    0    0  503    0 -0.00000000000E+00 -0.00000000000E+00 -0.14886437845E+02  0.14886437845E+02  0.00000000000E+00 0. -1.
         25    2    1    2    0    0 -0.59488755540E+02  0.85550273001E+02  0.71694382373E+03  0.73518100835E+03  0.12499962961E+03 0.  0.
          4    1    3    3  501    0 -0.44446179000E+01  0.92503643990E+02  0.58116000001E+03  0.58849404184E+03  0.12700000000E+01 0.  1.
         -4    1    3    3    0  501 -0.55044137640E+02 -0.69533709884E+01  0.13578382373E+03  0.14668696651E+03  0.12700000000E+01 0.  1.
          1    1    1    2  502    0  0.47228636203E+01 -0.82269395114E+02  0.24522202204E+04  0.24536044034E+04  0.00000000000E+00 0.  1.
          1    1    1    2  503    0  0.54765891920E+02 -0.32808778873E+01  0.14318138380E+03  0.15333289192E+03  0.00000000000E+00 0. -1.
<mgrwt>
<rscale>  0 0.67459474E+02</rscale>
<asrwt>0</asrwt>
<pdfrwt beam="1">  1        1 0.51188124E+00 0.82946452E+02</pdfrwt>
<pdfrwt beam="2">  1        1 0.22902238E-02 0.54864078E+02</pdfrwt>
<totfact> 0.25611768E+02</totfact>
</mgrwt>
</event>
<event>
 7    1  0.3113151E-004  0.8856376E+02  0.7546771E-02  0.1320101E+00
          2   -1    0    0  503    0  0.00000000000E+00  0.00000000000E+00  0.14598227328E+04  0.14598227328E+04  0.00000000000E+00 0. -1.
         -2   -1    0    0    0  501 -0.00000000000E+00 -0.00000000000E+00 -0.32397916860E+02  0.32397916860E+02  0.00000000000E+00 0.  1.
         25    2    1    2    0    0 -0.66539001886E+02 -0.10612781567E+03  0.72928930022E+03  0.75045186049E+03  0.12499823782E+03 0.  0.
          4    1    3    3  502    0  0.10888511025E+02  0.53345392025E+00  0.18042643541E+01  0.11122612791E+02  0.12700000000E+01 0.  1.
         -4    1    3    3    0  502 -0.77427512911E+02 -0.10666126959E+03  0.72748503587E+03  0.73932924770E+03  0.12700000000E+01 0.  1.
          2    1    1    2  503    0  0.75670514756E+02  0.19871240323E+02  0.62033952775E+03  0.62525356671E+03  0.00000000000E+00 0. -1.
         -2    1    1    2    0  501 -0.91315128702E+01  0.86256575350E+02  0.77795987931E+02  0.11651522242E+03  0.00000000000E+00 0.  1.
<mgrwt>
<rscale>  0 0.83239933E+02</rscale>
<asrwt>0</asrwt>
<pdfrwt beam="1">  1        2 0.22458806E+00 0.78236136E+02</pdfrwt>
<pdfrwt beam="2">  1       -2 0.49842960E-02 0.88563762E+02</pdfrwt>
<totfact> 0.28193674E+03</totfact>
</mgrwt>
</event>
<event>
 7    1  0.3113151E-004  0.1306136E+03  0.7546771E-02  0.1349927E+00
          1   -1    0    0  502    0  0.00000000000E+00  0.00000000000E+00  0.78542882661E+02  0.78542882661E+02  0.00000000000E+00 0. -1.
          1   -1    0    0  503    0 -0.00000000000E+00 -0.00000000000E+00 -0.31330994018E+04  0.31330994018E+04  0.00000000000E+00 0.  1.
         25    2    1    2    0    0  0.92942465513E+02 -0.63798156330E+00 -0.16012527039E+04  0.16088089109E+04  0.12496872037E+03 0.  0.
          4    1    3    3  501    0  0.52884447277E+02  0.10103151526E+02 -0.20550845926E+03  0.21244805991E+03  0.12700000000E+01 0.  1.
         -4    1    3    3    0  501  0.40058018236E+02 -0.10741133089E+02 -0.13957442447E+04  0.13963608510E+04  0.12700000000E+01 0.  1.
          1    1    1    2  502    0 -0.13131613666E+03 -0.13477356595E+02  0.15989921295E+02  0.13297084068E+03  0.00000000000E+00 0. -1.
          1    1    1    2  503    0  0.38373671145E+02  0.14115338159E+02 -0.14692937365E+04  0.14698625329E+04  0.00000000000E+00 0.  1.
<mgrwt>
<rscale>  0 0.73078395E+02</rscale>
<asrwt>0</asrwt>
<pdfrwt beam="1">  1        1 0.12083524E-01 0.13061356E+03</pdfrwt>
<pdfrwt beam="2">  1        1 0.48201516E+00 0.40887424E+02</pdfrwt>
<totfact> 0.46827556E+01</totfact>
</mgrwt>
</event>
<event>
 7    1  0.3113151E-004  0.2963864E+03  0.7546771E-02  0.1142323E+00
          1   -1    0    0  503    0 -0.00000000000E+00  0.00000000000E+00  0.21803061598E+04  0.21803061598E+04  0.00000000000E+00 0. -1.
          2   -1    0    0  502    0  0.00000000000E+00 -0.00000000000E+00 -0.55318412310E+03  0.55318412310E+03  0.00000000000E+00 0. -1.
         25    2    1    2    0    0  0.12889162314E+03 -0.22136100355E+03  0.11537771130E+04  0.11884615025E+04  0.12500148783E+03 0.  0.
          4    1    3    3  501    0  0.87468289482E+02 -0.41006426550E+02  0.48644882504E+03  0.49594989763E+03  0.12700000000E+01 0. -1.
         -4    1    3    3    0  501  0.41423333657E+02 -0.18035457700E+03  0.66732828801E+03  0.69251160488E+03  0.12700000000E+01 0. -1.
          2    1    1    2  502    0 -0.48392855961E+01 -0.14736496262E+03 -0.48702456942E+03  0.50885438203E+03  0.00000000000E+00 0. -1.
          1    1    1    2  503    0 -0.12405233754E+03  0.36872596616E+03  0.96036949312E+03  0.10361743984E+04  0.00000000000E+00 0. -1.
<mgrwt>
<rscale>  0 0.20904668E+03</rscale>
<asrwt>0</asrwt>
<pdfrwt beam="2">  1        2 0.85105251E-01 0.14744440E+03</pdfrwt>
<pdfrwt beam="1">  1        1 0.33543171E+00 0.29638639E+03</pdfrwt>
<totfact> 0.19642676E+01</totfact>
</mgrwt>
</event>
<event>
 7    1  0.3113151E-004  0.5913317E+02  0.7546771E-02  0.1471323E+00
          2   -1    0    0  503    0  0.00000000000E+00  0.00000000000E+00  0.67732240833E+03  0.67732240833E+03  0.00000000000E+00 0. -1.
         -2   -1    0    0    0  501 -0.00000000000E+00 -0.00000000000E+00 -0.31285180258E+02  0.31285180258E+02  0.00000000000E+00 0.  1.
         25    2    1    2    0    0 -0.64444479630E+02  0.21756527115E+02  0.51636356082E+03  0.53561375892E+03  0.12499733746E+03 0.  0.
          4    1    3    3  502    0 -0.86914941220E+02 -0.21074221927E+02  0.26650375548E+03  0.28111242310E+03  0.12700000000E+01 0.  1.
         -4    1    3    3    0  502  0.22470461590E+02  0.42830749042E+02  0.24985980534E+03  0.25450133582E+03  0.12700000000E+01 0.  1.
          2    1    1    2  503    0  0.44796159277E+02  0.71962915868E+01  0.75977205954E+01  0.46002259258E+02  0.00000000000E+00 0.  1.
         -2    1    1    2    0  501  0.19648320352E+02 -0.28952818702E+02  0.12207594666E+03  0.12699157041E+03  0.00000000000E+00 0. -1.
<mgrwt>
<rscale>  0 0.45487233E+02</rscale>
<asrwt>0</asrwt>
<pdfrwt beam="1">  1        2 0.10420344E+00 0.59133171E+02</pdfrwt>
<pdfrwt beam="2">  1       -2 0.48131052E-02 0.34990316E+02</pdfrwt>
<totfact> 0.76989748E+03</totfact>
</mgrwt>
</event>
<event>
 7    1  0.3113151E-004  0.2174453E+03  0.7546771E-02  0.1201146E+00
          3   -1    0    0  503    0 -0.00000000000E+00  0.00000000000E+00  0.65309424394E+03  0.65309424394E+03  0.00000000000E+00 0. -1.
          1   -1    0    0  502    0  0.00000000000E+00 -0.00000000000E+00 -0.18935205020E+04  0.18935205020E+04  0.00000000000E+00 0. -1.
         25    2    1    2    0    0  0.37470998716E+02 -0.30605525708E+03  0.19987361374E+03  0.38813571704E+03  0.12500390890E+03 0.  0.
          4    1    3    3  501    0  0.15445536763E+02 -0.18660973335E+03  0.47333031067E+02  0.19314188028E+03  0.12700000000E+01 0. -1.
         -4    1    3    3    0  501  0.22025461954E+02 -0.11944552373E+03  0.15254058267E+03  0.19499383676E+03  0.12700000000E+01 0. -1.
          1    1    1    2  502    0 -0.62223649052E+02  0.20636056844E+03 -0.17854268294E+04  0.17983896769E+04  0.00000000000E+00 0. -1.
          3    1    1    2  503    0  0.24752650336E+02  0.99694688645E+02  0.34512695756E+03  0.36008935208E+03  0.00000000000E+00 0. -1.
<mgrwt>
<rscale>  0 0.14945342E+03</rscale>
<asrwt>0</asrwt>
<pdfrwt beam="2">  1        1 0.29131085E+00 0.21744527E+03</pdfrwt>
<pdfrwt beam="1">  1        3 0.10047604E+00 0.10272159E+03</pdfrwt>
<totfact> 0.19667297E+00</totfact>
</mgrwt>
</event>
<event>
 7    1  0.3113151E-004  0.1346277E+03  0.7546771E-02  0.1312076E+00
          2   -1    0    0  502    0  0.00000000000E+00  0.00000000000E+00  0.93657797237E+03  0.93657797237E+03  0.00000000000E+00 0. -1.
          2   -1    0    0  503    0 -0.00000000000E+00 -0.00000000000E+00 -0.12819370718E+03  0.12819370718E+03  0.00000000000E+00 0. -1.
         25    2    1    2    0    0 -0.93512440204E+02 -0.73784587710E+01  0.68149030040E+03  0.69918041075E+03  0.12500079648E+03 0.  0.
          4    1    3    3  501    0 -0.90016046712E+02 -0.50375980304E+01  0.22122432626E+03  0.23889345217E+03  0.12700000000E+01 0.  1.
         -4    1    3    3    0  501 -0.34963934917E+01 -0.23408607406E+01  0.46026597413E+03  0.46028695858E+03  0.12700000000E+01 0.  1.
          2    1    1    2  502    0 -0.40343151831E+02  0.37846437120E+02  0.20177309143E+03  0.20921831451E+03  0.00000000000E+00 0. -1.
          2    1    1    2  503    0  0.13385559204E+03 -0.30467978349E+02 -0.74879126639E+02  0.15637295428E+03  0.00000000000E+00 0. -1.
<mgrwt>
<rscale>  0 0.86296841E+02</rscale>
<asrwt>0</asrwt>
<pdfrwt beam="1">  1        2 0.14408891E+00 0.55316568E+02</pdfrwt>
<pdfrwt beam="2">  1        2 0.19722109E-01 0.13462775E+03</pdfrwt>
<totfact> 0.13212830E+03</totfact>
</mgrwt>
</event>
<event>
 7    1  0.3113151E-004  0.9423724E+02  0.7546771E-02  0.1408188E+00
         -1   -1    0    0    0  501 -0.00000000000E+00  0.00000000000E+00  0.54635660595E+02  0.54635660595E+02  0.00000000000E+00 0.  1.
          1   -1    0    0  503    0  0.00000000000E+00 -0.00000000000E+00 -0.52029611113E+03  0.52029611113E+03  0.00000000000E+00 0. -1.
         25    2    1    2    0    0  0.10853880566E+03  0.24541528341E+02 -0.13613571497E+03  0.21573518571E+03  0.12500311402E+03 0.  0.
          4    1    3    3  502    0  0.13981438524E+00 -0.32117959193E+02  0.75989569002E+00  0.32152343495E+02  0.12700000000E+01 0. -1.
         -4    1    3    3    0  502  0.10839899128E+03  0.56659487534E+02 -0.13689561066E+03  0.18358284222E+03  0.12700000000E+01 0. -1.
          1    1    1    2  503    0 -0.91728102312E+02  0.63923090629E+01 -0.29825881516E+03  0.31211092129E+03  0.00000000000E+00 0. -1.
         -1    1    1    2    0  501 -0.16810703351E+02 -0.30933837404E+02 -0.31265920406E+02  0.47085664724E+02  0.00000000000E+00 0.  1.
<mgrwt>
<rscale>  0 0.57600081E+02</rscale>
<asrwt>0</asrwt>
<pdfrwt beam="2">  1        1 0.80045555E-01 0.94237240E+02</pdfrwt>
<pdfrwt beam="1">  1       -1 0.84054863E-02 0.35206563E+02</pdfrwt>
<totfact> 0.30038601E+03</totfact>
</mgrwt>
</event>
<event>
 7    1  0.3113151E-004  0.7608361E+02  0.7546771E-02  0.1494203E+00
         -1   -1    0    0    0  501 -0.00000000000E+00  0.00000000000E+00  0.65339383377E+02  0.65339383377E+02  0.00000000000E+00 0.  1.
          2   -1    0    0  503    0  0.00000000000E+00 -0.00000000000E+00 -0.47047650598E+03  0.47047650598E+03  0.00000000000E+00 0. -1.
         25    2    1    2    0    0  0.37979658107E+02 -0.76835347200E+02 -0.30892676311E+03  0.34409869765E+03  0.12498817443E+03 0.  0.
          4    1    3    3  502    0 -0.33365767962E+02 -0.72142441077E+02 -0.17715382265E+03  0.19417233597E+03  0.12700000000E+01 0. -1.
         -4    1    3    3    0  502  0.71345426069E+02 -0.46929061228E+01 -0.13177294046E+03  0.14992636168E+03  0.12700000000E+01 0. -1.
          2    1    1    2  503    0 -0.15842442104E+02  0.70060564657E+02 -0.13130887843E+03  0.14967126393E+03  0.00000000000E+00 0. -1.
         -1    1    1    2    0  501 -0.22137216003E+02  0.67747825433E+01  0.35098518939E+02  0.42045927777E+02  0.00000000000E+00 0.  1.
<mgrwt>
<rscale>  0 0.41968887E+02</rscale>
<asrwt>0</asrwt>
<pdfrwt beam="2">  1        2 0.72380999E-01 0.76083614E+02</pdfrwt>
<pdfrwt beam="1">  1       -1 0.10052213E-01 0.23150681E+02</pdfrwt>
<totfact> 0.38861795E+03</totfact>
</mgrwt>
</event>
<event>
 7    1  0.3113151E-004  0.1159666E+03  0.7546771E-02  0.1327995E+00
          1   -1    0    0  503    0  0.00000000000E+00  0.00000000000E+00  0.33433572338E+03  0.33433572338E+03  0.00000000000E+00 0.  1.
          1   -1    0    0  502    0 -0.00000000000E+00 -0.00000000000E+00 -0.95000672933E+02  0.95000672933E+02  0.00000000000E+00 0. -1.
         25    2    1    2    0    0  0.78761694416E+02 -0.28828124330E+01  0.16056882420E+03  0.21821874267E+03  0.12500142893E+03 0.  0.
          4    1    3    3  501    0 -0.13662242551E+02  0.36234793991E+02  0.15318833368E+02  0.41664093928E+02  0.12700000000E+01 0. -1.
         -4    1    3    3    0  501  0.92423936967E+02 -0.39117606424E+02  0.14524999083E+03  0.17655464874E+03  0.12700000000E+01 0. -1.
          1    1    1    2  502    0 -0.13114371998E+03 -0.16067547775E+02  0.26548357457E+02  0.13476519085E+03  0.00000000000E+00 0. -1.
          1    1    1    2  503    0  0.52382025560E+02  0.18950360208E+02  0.52217868796E+02  0.76352462798E+02  0.00000000000E+00 0.  1.
<mgrwt>
<rscale>  0 0.80373271E+02</rscale>
<asrwt>0</asrwt>
<pdfrwt beam="1">  1        1 0.51436264E-01 0.55704513E+02</pdfrwt>
<pdfrwt beam="2">  1        1 0.14615488E-01 0.11596660E+03</pdfrwt>
<totfact> 0.33987153E+03</totfact>
</mgrwt>
</event>
<event>
 7    1  0.3113151E-004  0.7823545E+02  0.7546771E-02  0.1495672E+00
          1   -1    0    0  503    0  0.00000000000E+00  0.00000000000E+00  0.75060954935E+03  0.75060954935E+03  0.00000000000E+00 0. -1.
         -2   -1    0    0    0  501 -0.00000000000E+00 -0.00000000000E+00 -0.34753234894E+02  0.34753234894E+02  0.00000000000E+00 0.  1.
         25    2    1    2    0    0 -0.67421398324E+02  0.71499433483E+02  0.56988703421E+03  0.59165509194E+03  0.12500680829E+03 0.  0.
          4    1    3    3  502    0  0.84981054821E+01  0.81756024739E+02  0.30920077642E+03  0.31994217980E+03  0.12700000000E+01 0.  1.
         -4    1    3    3    0  502 -0.75919503806E+02 -0.10256591256E+02  0.26068625780E+03  0.27171291215E+03  0.12700000000E+01 0.  1.
          1    1    1    2  503    0  0.16233496106E+02 -0.15269222591E+02  0.10498873265E+03  0.10732804637E+03  0.00000000000E+00 0. -1.
         -2    1    1    2    0  501  0.51187902217E+02 -0.56230210892E+02  0.40980547599E+02  0.86379645935E+02  0.00000000000E+00 0.  1.
<mgrwt>
<rscale>  0 0.41756107E+02</rscale>
<asrwt>0</asrwt>
<pdfrwt beam="1">  1        1 0.11547838E+00 0.22286219E+02</pdfrwt>
<pdfrwt beam="2">  1       -2 0.53466521E-02 0.78235454E+02</pdfrwt>
<totfact> 0.39790480E+03</totfact>
</mgrwt>
</event>
<event>
 7    1  0.3113151E-004  0.6080691E+02  0.7546771E-02  0.1419264E+00
         -1   -1    0    0    0  501 -0.00000000000E+00  0.00000000000E+00  0.30449274886E+02  0.30449274886E+02  0.00000000000E+00 0.  1.
          2   -1    0    0  503    0  0.00000000000E+00 -0.00000000000E+00 -0.72752784053E+03  0.72752784053E+03  0.00000000000E+00 0. -1.
         25    2    1    2    0    0 -0.14395592255E+02  0.87460900346E+02 -0.23677913840E+03  0.28203571171E+03  0.12499256031E+03 0.  0.
          4    1    3    3  502    0 -0.22493162784E+02  0.10429614824E+03 -0.10770349593E+03  0.15160898669E+03  0.12700000000E+01 0. -1.
         -4    1    3    3    0  502  0.80975705286E+01 -0.16835247897E+02 -0.12907564247E+03  0.13042672502E+03  0.12700000000E+01 0. -1.
          2    1    1    2  503    0  0.39344885195E+02 -0.44051508903E+02 -0.34812944268E+03  0.35310432494E+03  0.00000000000E+00 0. -1.
         -1    1    1    2    0  501 -0.24949292940E+02 -0.43409391443E+02 -0.11216998456E+03  0.12283707877E+03  0.00000000000E+00 0.  1.
<mgrwt>
<rscale>  0 0.55177019E+02</rscale>
<asrwt>0</asrwt>
<pdfrwt beam="2">  1        2 0.11192736E+00 0.60806912E+02</pdfrwt>
<pdfrwt beam="1">  1       -1 0.46845038E-02 0.50068378E+02</pdfrwt>
<totfact> 0.78753650E+03</totfact>
</mgrwt>
</event>
<event>
 7    1  0.3113151E-004  0.2047749E+03  0.7546771E-02  0.1159927E+00
          1   -1    0    0  503    0 -0.00000000000E+00  0.00000000000E+00  0.12598593783E+04  0.12598593783E+04  0.00000000000E+00 0. -1.
          2   -1    0    0  502    0  0.00000000000E+00 -0.00000000000E+00 -0.17385887633E+04  0.17385887633E+04  0.00000000000E+00 0. -1.
         25    2    1    2    0    0  0.47259092650E+02 -0.10496553496E+03  0.49895370139E+03  0.52709938525E+03  0.12501112123E+03 0.  0.
          4    1    3    3  501    0  0.29828336579E+02  0.17178347918E+02  0.21144649185E+03  0.21423365075E+03  0.12700000000E+01 0.  1.
         -4    1    3    3    0  501  0.17430756071E+02 -0.12214388288E+03  0.28750720954E+03  0.31286573449E+03  0.12700000000E+01 0.  1.
          2    1    1    2  502    0  0.18883336332E+02 -0.20390241212E+03 -0.16846372111E+04  0.16970372144E+04  0.00000000000E+00 0. -1.
          1    1    1    2  503    0 -0.66142428982E+02  0.30886794709E+03  0.70695412472E+03  0.77431154202E+03  0.00000000000E+00 0. -1.
<mgrwt>
<rscale>  0 0.18838360E+03</rscale>
<asrwt>0</asrwt>
<pdfrwt beam="2">  1        2 0.26747519E+00 0.20477494E+03</pdfrwt>
<pdfrwt beam="1">  1        1 0.19382452E+00 0.17330432E+03</pdfrwt>
<totfact> 0.15528700E+01</totfact>
</mgrwt>
</event>
<event>
 7    1  0.3113151E-004  0.6127735E+02  0.7546771E-02  0.1399671E+00
          2   -1    0    0  502    0  0.00000000000E+00  0.00000000000E+00  0.32168497921E+04  0.32168497921E+04  0.00000000000E+00 0. -1.
          3   -1    0    0  503    0 -0.00000000000E+00 -0.00000000000E+00 -0.98611265895E+02  0.98611265895E+02  0.00000000000E+00 0. -1.
         25    2    1    2    0    0  0.86628588841E+02  0.22058585118E+02  0.36856491364E+03  0.39931932662E+03  0.12499894183E+03 0.  0.
          4    1    3    3  501    0  0.96853125386E+02 -0.28575676225E+02  0.22134561569E+03  0.24329527668E+03  0.12700000000E+01 0. -1.
         -4    1    3    3    0  501 -0.10224536545E+02  0.50634261343E+02  0.14721929795E+03  0.15602404994E+03  0.12700000000E+01 0. -1.
          2    1    1    2  502    0 -0.55072325155E+02  0.26484370149E+02  0.28224681266E+04  0.28231295947E+04  0.00000000000E+00 0. -1.
          3    1    1    2  503    0 -0.31556263686E+02 -0.48542955267E+02 -0.72794514067E+02  0.93012136639E+02  0.00000000000E+00 0. -1.
<mgrwt>
<rscale>  0 0.59563881E+02</rscale>
<asrwt>0</asrwt>
<pdfrwt beam="1">  1        2 0.49489989E+00 0.61277347E+02</pdfrwt>
<pdfrwt beam="2">  1        3 0.15170966E-01 0.57898327E+02</pdfrwt>
<totfact> 0.39367239E+01</totfact>
</mgrwt>
</event>
<event>
 7    1  0.3113151E-004  0.9822551E+02  0.7546771E-02  0.1417174E+00
          1   -1    0    0  502    0  0.00000000000E+00  0.00000000000E+00  0.90473619361E+03  0.90473619361E+03  0.00000000000E+00 0. -1.
          1   -1    0    0  503    0 -0.00000000000E+00 -0.00000000000E+00 -0.80232070275E+03  0.80232070275E+03  0.00000000000E+00 0. -1.
         25    2    1    2    0    0 -0.18227309694E+02  0.99191862025E+02  0.22017389341E+03  0.27253287790E+03  0.12500546342E+03 0.  0.
          4    1    3    3  501    0  0.23422014345E+02  0.99820717767E+01  0.14868814267E+03  0.15085757914E+03  0.12700000000E+01 0. -1.
         -4    1    3    3    0  501 -0.41649324038E+02  0.89209790249E+02  0.71485750735E+02  0.12167529876E+03  0.12700000000E+01 0. -1.
          1    1    1    2  502    0  0.47056849949E+02 -0.86502589792E+02  0.65437776059E+03  0.66174564504E+03  0.00000000000E+00 0. -1.
          1    1    1    2  503    0 -0.28829540256E+02 -0.12689272233E+02 -0.77213616313E+03  0.77277837343E+03  0.00000000000E+00 0. -1.
<mgrwt>
<rscale>  0 0.55623405E+02</rscale>
<asrwt>0</asrwt>
<pdfrwt beam="1">  1        1 0.13919018E+00 0.98225506E+02</pdfrwt>
<pdfrwt beam="2">  1        1 0.12343395E+00 0.31498572E+02</pdfrwt>
<totfact> 0.61886199E+01</totfact>
</mgrwt>
</event>
<event>
 7    1  0.3113151E-004  0.3714117E+02  0.7546771E-02  0.1542782E+00
         -2   -1    0    0    0  501 -0.00000000000E+00  0.00000000000E+00  0.47888079362E+02  0.47888079362E+02  0.00000000000E+00 0.  1.
          2   -1    0    0  503    0  0.00000000000E+00 -0.00000000000E+00 -0.70686949471E+03  0.70686949471E+03  0.00000000000E+00 0. -1.
         25    2    1    2    0    0  0.63836551200E+01 -0.70165556938E+02 -0.34444901768E+03  0.37314093458E+03  0.12500029937E+03 0.  0.
          4    1    3    3  502    0 -0.30200028234E+02 -0.76303737311E+02 -0.11839515971E+03  0.14406015680E+03  0.12700000000E+01 0.  1.
         -4    1    3    3    0  502  0.36583683354E+02  0.61381803735E+01 -0.22605385797E+03  0.22908077778E+03  0.12700000000E+01 0.  1.
          2    1    1    2  503    0 -0.31028002160E+01  0.34104776842E+02 -0.33717543398E+03  0.33891007134E+03  0.00000000000E+00 0. -1.
         -2    1    1    2    0  501 -0.32808549041E+01  0.36060780096E+02  0.22643036316E+02  0.42706568156E+02  0.00000000000E+00 0.  1.
<mgrwt>
<rscale>  0 0.35664027E+02</rscale>
<asrwt>0</asrwt>
<pdfrwt beam="2">  1        2 0.10874914E+00 0.34245630E+02</pdfrwt>
<pdfrwt beam="1">  1       -2 0.73673976E-02 0.37141172E+02</pdfrwt>
<totfact> 0.40354065E+03</totfact>
</mgrwt>
</event>
<event>
 7    1  0.3113151E-004  0.1101626E+03  0.7546771E-02  0.1422407E+00
         -1   -1    0    0    0  501  0.00000000000E+00  0.00000000000E+00  0.45455855838E+03  0.45455855838E+03  0.00000000000E+00 0.  1.
         -1   -1    0    0    0  502 -0.00000000000E+00 -0.00000000000E+00 -0.30081475354E+03  0.30081475354E+03  0.00000000000E+00 0.  1.
         25    2    1    2    0    0  0.57363171873E+02 -0.12183982789E+03  0.10358412852E+03  0.21092636762E+03  0.12499913492E+03 0.  0.
          4    1    3    3  503    0  0.10437130670E+02 -0.60789361650E+02  0.11745914932E+03  0.13267458251E+03  0.12700000000E+01 0.  1.
         -4    1    3    3    0  503  0.46926041203E+02 -0.61050466237E+02 -0.13875020802E+02  0.78251785111E+02  0.12700000000E+01 0.  1.
         -1    1    1    2    0  502 -0.41392029261E+02  0.10009853185E+03 -0.23460683668E+03  0.25840546431E+03  0.00000000000E+00 0.  1.
         -1    1    1    2    0  501 -0.15971142612E+02  0.21741296036E+02  0.28476651300E+03  0.28604147999E+03  0.00000000000E+00 0.  1.
<mgrwt>
<rscale>  0 0.54514801E+02</rscale>
<asrwt>0</asrwt>
<pdfrwt beam="1">  1       -1 0.69932086E-01 0.26977052E+02</pdfrwt>
<pdfrwt beam="2">  1       -1 0.46279193E-01 0.11016265E+03</pdfrwt>
<totfact> 0.91501429E+01</totfact>
</mgrwt>
</event>
<event>
 7    1  0.3113151E-004  0.1029864E+03  0.7546771E-02  0.1442609E+00
          2   -1    0    0  503    0  0.00000000000E+00  0.00000000000E+00  0.68658282031E+02  0.68658282031E+02  0.00000000000E+00 0. -1.
          2   -1    0    0  502    0 -0.00000000000E+00 -0.00000000000E+00 -0.17890786685E+04  0.17890786685E+04  0.00000000000E+00 0. -1.
         25    2    1    2    0    0  0.65503854128E+02  0.95654271935E+02 -0.52722838975E+03  0.55410832729E+03  0.12500307504E+03 0.  0.
          4    1    3    3  501    0  0.73640871077E+02  0.17705325573E+01 -0.18470318867E+03  0.19885420158E+03  0.12700000000E+01 0.  1.
         -4    1    3    3    0  501 -0.81370169495E+01  0.93883739378E+02 -0.34252520108E+03  0.35525412571E+03  0.12700000000E+01 0.  1.
          2    1    1    2  502    0  0.69079559607E+01 -0.23790274987E+02 -0.12010517155E+04  0.12013071715E+04  0.00000000000E+00 0. -1.
          2    1    1    2  503    0 -0.72411810088E+02 -0.71863996948E+02  0.78597188049E+01  0.10232145170E+03  0.00000000000E+00 0. -1.
<mgrwt>
<rscale>  0 0.50510121E+02</rscale>
<asrwt>0</asrwt>
<pdfrwt beam="1">  1        2 0.10562812E-01 0.10298638E+03</pdfrwt>
<pdfrwt beam="2">  1        2 0.27524290E+00 0.24772909E+02</pdfrwt>
<totfact> 0.10697441E+03</totfact>
</mgrwt>
</event>
<event>
 7    1  0.3113151E-004  0.4163030E+02  0.7546771E-02  0.1562330E+00
         -3   -1    0    0    0  501 -0.00000000000E+00  0.00000000000E+00  0.46475436404E+03  0.46475436404E+03  0.00000000000E+00 0.  1.
          2   -1    0    0  503    0  0.00000000000E+00 -0.00000000000E+00 -0.48155876244E+03  0.48155876244E+03  0.00000000000E+00 0. -1.
         25    2    1    2    0    0  0.21237757620E+02  0.68279928457E+01 -0.11037939127E+03  0.16823630589E+03  0.12498872256E+03 0.  0.
          4    1    3    3  502    0  0.18087385015E+02 -0.52071848518E+02 -0.90510098970E+02  0.10598264868E+03  0.12700000000E+01 0. -1.
         -4    1    3    3    0  502  0.31503726048E+01  0.58899841364E+02 -0.19869292302E+02  0.62253657216E+02  0.12700000000E+01 0. -1.
          2    1    1    2  503    0 -0.41148882369E+02  0.11347305079E+02 -0.34050021182E+03  0.34316524606E+03  0.00000000000E+00 0. -1.
         -3    1    1    2    0  501  0.19911124749E+02 -0.18175297925E+02  0.43407520469E+03  0.43491157454E+03  0.00000000000E+00 0.  1.
<mgrwt>
<rscale>  0 0.33500990E+02</rscale>
<asrwt>0</asrwt>
<pdfrwt beam="2">  1        2 0.74085963E-01 0.41630297E+02</pdfrwt>
<pdfrwt beam="1">  1       -3 0.71500672E-01 0.26959124E+02</pdfrwt>
<totfact> 0.71219965E+01</totfact>
</mgrwt>
</event>
<event>
 7    1  0.3113151E-004  0.8842576E+02  0.7546771E-02  0.1391954E+00
          2   -1    0    0  502    0  0.00000000000E+00  0.00000000000E+00  0.16337575193E+04  0.16337575193E+04  0.00000000000E+00 0.  1.
          2   -1    0    0  503    0 -0.00000000000E+00 -0.00000000000E+00 -0.25820031493E+04  0.25820031493E+04  0.00000000000E+00 0. -1.
         25    2    1    2    0    0  0.86873135477E+02  0.96859566715E+02  0.38604210338E+03  0.42612705802E+03  0.12500818639E+03 0.  0.
          4    1    3    3  501    0 -0.21653210313E+02  0.20071082930E+02  0.16927947070E+03  0.17183964033E+03  0.12700000000E+01 0. -1.
         -4    1    3    3    0  501  0.10852634579E+03  0.76788483785E+02  0.21676263268E+03  0.25428741769E+03  0.12700000000E+01 0. -1.
          2    1    1    2  502    0 -0.22723333688E+02 -0.36112243233E+02  0.12265402217E+04  0.12272821026E+04  0.00000000000E+00 0.  1.
          2    1    1    2  503    0 -0.64149801789E+02 -0.60747323482E+02 -0.25608279551E+04  0.25623515079E+04  0.00000000000E+00 0. -1.
<mgrwt>
<rscale>  0 0.61423382E+02</rscale>
<asrwt>0</asrwt>
<pdfrwt beam="1">  1        2 0.25134731E+00 0.42666662E+02</pdfrwt>
<pdfrwt beam="2">  1        2 0.39723125E+00 0.88425757E+02</pdfrwt>
<totfact> 0.89837883E+00</totfact>
</mgrwt>
</event>
<event>
 7    1  0.3113151E-004  0.9068096E+02  0.7546771E-02  0.1307175E+00
          1   -1    0    0  503    0 -0.00000000000E+00  0.00000000000E+00  0.13139453914E+04  0.13139453914E+04  0.00000000000E+00 0. -1.
          2   -1    0    0  502    0  0.00000000000E+00 -0.00000000000E+00 -0.14833507115E+03  0.14833507115E+03  0.00000000000E+00 0. -1.
         25    2    1    2    0    0  0.13627654917E+03  0.97542587255E+01  0.55798585794E+03  0.58791078484E+03  0.12499771940E+03 0.  0.
          4    1    3    3  501    0  0.48171032060E+02  0.17078972825E+02  0.47372703450E+02  0.69698820468E+02  0.12700000000E+01 0.  1.
         -4    1    3    3    0  501  0.88105517112E+02 -0.73247140997E+01  0.51061315449E+03  0.51821196437E+03  0.12700000000E+01 0.  1.
          2    1    1    2  502    0 -0.74882451922E+02  0.50269776026E+02 -0.11528843747E+03  0.14637573501E+03  0.00000000000E+00 0. -1.
          1    1    1    2  503    0 -0.61394097250E+02 -0.60024034752E+02  0.72291289982E+03  0.72799394273E+03  0.00000000000E+00 0. -1.
<mgrwt>
<rscale>  0 0.88238100E+02</rscale>
<asrwt>0</asrwt>
<pdfrwt beam="2">  1        2 0.22820781E-01 0.90680958E+02</pdfrwt>
<pdfrwt beam="1">  1        1 0.20214544E+00 0.85861050E+02</pdfrwt>
<totfact> 0.33058073E+02</totfact>
</mgrwt>
</event>
<event>
 7    1  0.3113151E-004  0.7685360E+02  0.7546771E-02  0.1432363E+00
          1   -1    0    0  503    0 -0.00000000000E+00  0.00000000000E+00  0.63697071954E+03  0.63697071954E+03  0.00000000000E+00 0. -1.
          2   -1    0    0  502    0  0.00000000000E+00 -0.00000000000E+00 -0.24995880190E+03  0.24995880190E+03  0.00000000000E+00 0. -1.
         25    2    1    2    0    0 -0.48491548681E+02 -0.78580430436E+02  0.18676400743E+03  0.24296595324E+03  0.12500138248E+03 0.  0.
          4    1    3    3  501    0 -0.58968698190E+02 -0.10277202992E+03  0.10958895485E+03  0.16140244554E+03  0.12700000000E+01 0.  1.
         -4    1    3    3    0  501  0.10477149509E+02  0.24191599488E+02  0.77175052580E+02  0.81563507700E+02  0.12700000000E+01 0.  1.
          2    1    1    2  502    0 -0.12400550873E+02  0.33634866466E+02 -0.21698282784E+03  0.21992413574E+03  0.00000000000E+00 0. -1.
          1    1    1    2  503    0  0.60892099555E+02  0.44945563970E+02  0.41723073805E+03  0.42403943246E+03  0.00000000000E+00 0. -1.
<mgrwt>
<rscale>  0 0.52488538E+02</rscale>
<asrwt>0</asrwt>
<pdfrwt beam="2">  1        2 0.38455200E-01 0.35847983E+02</pdfrwt>
<pdfrwt beam="1">  1        1 0.97995495E-01 0.76853602E+02</pdfrwt>
<totfact> 0.59700795E+02</totfact>
</mgrwt>
</event>
<event>
 7    1  0.3113151E-004  0.6280996E+02  0.7546771E-02  0.1459689E+00
          2   -1    0    0  503    0  0.00000000000E+00  0.00000000000E+00  0.16272418906E+04  0.16272418906E+04  0.00000000000E+00 0. -1.
          2   -1    0    0  502    0 -0.00000000000E+00 -0.00000000000E+00 -0.51543319827E+02  0.51543319827E+02  0.00000000000E+00 0. -1.
         25    2    1    2    0    0  0.81275557697E+02  0.42602219004E+02  0.96060025350E+03  0.97303665546E+03  0.12500728183E+03 0.  0.
          4    1    3    3  501    0  0.73832648467E+02  0.79146309068E+02  0.83570081966E+03  0.84268195133E+03  0.12700000000E+01 0. -1.
         -4    1    3    3    0  501  0.74429092294E+01 -0.36544090063E+02  0.12489943384E+03  0.13035470413E+03  0.12700000000E+01 0. -1.
          2    1    1    2  502    0 -0.60820079254E+02 -0.13192995318E+02 -0.23220443647E+02  0.66425342823E+02  0.00000000000E+00 0. -1.
          2    1    1    2  503    0 -0.20455478442E+02 -0.29409223686E+02  0.63831876095E+03  0.63932321217E+03  0.00000000000E+00 0. -1.
<mgrwt>
<rscale>  0 0.47434984E+02</rscale>
<asrwt>0</asrwt>
<pdfrwt beam="1">  1        2 0.25034487E+00 0.35823582E+02</pdfrwt>
<pdfrwt beam="2">  1        2 0.79297428E-02 0.62809959E+02</pdfrwt>
<totfact> 0.16806760E+03</totfact>
</mgrwt>
</event>
<event>
 7    1  0.3113151E-004  0.3919053E+02  0.7546771E-02  0.1543513E+00
         -1   -1    0    0    0  501 -0.00000000000E+00  0.00000000000E+00  0.16676034962E+02  0.16676034962E+02  0.00000000000E+00 0.  1.
          2   -1    0    0  503    0  0.00000000000E+00 -0.00000000000E+00 -0.79867964447E+03  0.79867964447E+03  0.00000000000E+00 0. -1.
         25    2    1    2    0    0  0.18556603952E+02 -0.42308063084E+02 -0.39972097650E+03  0.42135030568E+03  0.12499960516E+03 0.  0.
          4    1    3    3  502    0  0.15091783879E+02 -0.23995857650E+02 -0.40157675168E+03  0.40257802165E+03  0.12700000000E+01 0.  1.
         -4    1    3    3    0  502  0.34648200727E+01 -0.18312205434E+02  0.18557751854E+01  0.18772284026E+02  0.12700000000E+01 0.  1.
          2    1    1    2  503    0 -0.36525674471E+02  0.15466106834E+02 -0.33120088447E+03  0.33356761119E+03  0.00000000000E+00 0. -1.
         -1    1    1    2    0  501  0.17969070520E+02  0.26841956250E+02 -0.51081748538E+02  0.60437762570E+02  0.00000000000E+00 0.  1.
<mgrwt>
<rscale>  0 0.35579596E+02</rscale>
<asrwt>0</asrwt>
<pdfrwt beam="2">  1        2 0.12287382E+00 0.39190531E+02</pdfrwt>
<pdfrwt beam="1">  1       -1 0.25655433E-02 0.32301364E+02</pdfrwt>
<totfact> 0.15777435E+04</totfact>
</mgrwt>
</event>
<event>
 7    1  0.1084705E-003  0.1119748E+03  0.7546771E-02  0.1325027E+00
         -2   -1    0    0    0  501 -0.00000000000E+00  0.00000000000E+00  0.31627001411E+02  0.31627001411E+02  0.00000000000E+00 0.  1.
          1   -1    0    0  503    0  0.00000000000E+00 -0.00000000000E+00 -0.10882644975E+04  0.10882644975E+04  0.00000000000E+00 0. -1.
         25    2    1    2    0    0 -0.13187434137E+03  0.64510002812E+02 -0.69559344764E+03  0.72182471491E+03  0.12501316840E+03 0.  0.
          4    1    3    3  502    0  0.35727619340E+01  0.37584938845E+01  0.39890958872E+01  0.66645847668E+01  0.12700000000E+01 0. -1.
         -4    1    3    3    0  502 -0.13544710331E+03  0.60751508927E+02 -0.69958254353E+03  0.71516013014E+03  0.12700000000E+01 0. -1.
          1    1    1    2  503    0  0.91242853638E+02 -0.21420650931E+02 -0.29415935154E+03  0.30872937458E+03  0.00000000000E+00 0. -1.
         -2    1    1    2    0  501  0.40631487735E+02 -0.43089351880E+02 -0.66884696856E+02  0.89337409379E+02  0.00000000000E+00 0.  1.
<mgrwt>
<rscale>  0 0.81435335E+02</rscale>
<asrwt>0</asrwt>
<pdfrwt beam="2">  1        1 0.16742531E+00 0.11197475E+03</pdfrwt>
<pdfrwt beam="1">  1       -2 0.48656925E-02 0.59225079E+02</pdfrwt>
<totfact> 0.22795567E+03</totfact>
</mgrwt>
</event>
<event>
 7    1  0.3113151E-004  0.1742675E+03  0.7546771E-02  0.1294568E+00
         -1   -1    0    0    0  501 -0.00000000000E+00  0.00000000000E+00  0.21189773986E+03  0.21189773986E+03  0.00000000000E+00 0.  1.
          2   -1    0    0  503    0  0.00000000000E+00 -0.00000000000E+00 -0.25049740230E+04  0.25049740230E+04  0.00000000000E+00 0. -1.
         25    2    1    2    0    0 -0.66116387641E+02  0.21248556136E+03 -0.11725153166E+03  0.28087838458E+03  0.12499301879E+03 0.  0.
          4    1    3    3  502    0 -0.19892309294E+02  0.28080023367E+02  0.25739038419E+02  0.42991890864E+02  0.12700000000E+01 0.  1.
         -4    1    3    3    0  502 -0.46224078348E+02  0.18440553799E+03 -0.14299057007E+03  0.23788649371E+03  0.12700000000E+01 0.  1.
          2    1    1    2  503    0  0.50612442903E+02 -0.16476484954E+03 -0.22977195555E+04  0.23041753906E+04  0.00000000000E+00 0. -1.
         -1    1    1    2    0  501  0.15503944738E+02 -0.47720711822E+02  0.12189480399E+03  0.13181798769E+03  0.00000000000E+00 0.  1.
<mgrwt>
<rscale>  0 0.93509675E+02</rscale>
<asrwt>0</asrwt>
<pdfrwt beam="2">  1        2 0.38538063E+00 0.17426750E+03</pdfrwt>
<pdfrwt beam="1">  1       -1 0.32599651E-01 0.50176076E+02</pdfrwt>
<totfact> 0.41979174E+01</totfact>
</mgrwt>
</event>
<event>
 7    1  0.3113151E-004  0.2596123E+03  0.7546771E-02  0.1235045E+00
          2   -1    0    0  502    0  0.00000000000E+00  0.00000000000E+00  0.16877257261E+04  0.16877257261E+04  0.00000000000E+00 0. -1.
          1   -1    0    0  503    0 -0.00000000000E+00 -0.00000000000E+00 -0.11184030873E+03  0.11184030873E+03  0.00000000000E+00 0. -1.
         25    2    1    2    0    0  0.23468383143E+03 -0.25764055133E+02  0.34772460986E+03  0.43849454136E+03  0.12499908489E+03 0.  0.
          4    1    3    3  501    0  0.11282104540E+02 -0.17526356996E+02 -0.44543184695E+01  0.21352117587E+02  0.12700000000E+01 0. -1.
         -4    1    3    3    0  501  0.22340172689E+03 -0.82376981374E+01  0.35217892833E+03  0.41714242377E+03  0.12700000000E+01 0. -1.
          2    1    1    2  502    0  0.43717547628E+02  0.41387863836E+02  0.99716242797E+03  0.99897802128E+03  0.00000000000E+00 0. -1.
          1    1    1    2  503    0 -0.27840137906E+03 -0.15623808703E+02  0.23099837958E+03  0.36209347223E+03  0.00000000000E+00 0. -1.
<mgrwt>
<rscale>  0 0.12501584E+03</rscale>
<asrwt>0</asrwt>
<pdfrwt beam="1">  1        2 0.25965009E+00 0.60201156E+02</pdfrwt>
<pdfrwt beam="2">  1        1 0.17206203E-01 0.25961230E+03</pdfrwt>
<totfact> 0.52361639E+02</totfact>
</mgrwt>
</event>
<event>
 7    1  0.3113151E-004  0.1199079E+03  0.7546771E-02  0.1369087E+00
          3   -1    0    0  503    0 -0.00000000000E+00  0.00000000000E+00  0.21622128366E+03  0.21622128366E+03  0.00000000000E+00 0. -1.
          2   -1    0    0  502    0  0.00000000000E+00 -0.00000000000E+00 -0.76626048875E+03  0.76626048875E+03  0.00000000000E+00 0. -1.
         25    2    1    2    0    0 -0.26400223832E+02 -0.78852320758E+02 -0.61223443407E+03  0.63037388717E+03  0.12500230021E+03 0.  0.
          4    1    3    3  501    0  0.16039736642E+02 -0.10384895981E+02 -0.43796301442E+03  0.43838149381E+03  0.12700000000E+01 0. -1.
         -4    1    3    3    0  501 -0.42439960474E+02 -0.68467424778E+02 -0.17427141965E+03  0.19199239336E+03  0.12700000000E+01 0. -1.
          2    1    1    2  502    0 -0.15078209809E+02 -0.34782068007E+02 -0.12422398104E+03  0.12987972179E+03  0.00000000000E+00 0. -1.
          3    1    1    2  503    0  0.41478433641E+02  0.11363438877E+03  0.18641921002E+03  0.22222816345E+03  0.00000000000E+00 0. -1.
<mgrwt>
<rscale>  0 0.67421598E+02</rscale>
<asrwt>0</asrwt>
<pdfrwt beam="2">  1        2 0.11788623E+00 0.37909691E+02</pdfrwt>
<pdfrwt beam="1">  1        3 0.33264814E-01 0.11990791E+03</pdfrwt>
<totfact> 0.21279350E+02</totfact>
</mgrwt>
</event>
<event>
 7    1  0.3113151E-004  0.2304191E+03  0.7546771E-02  0.1235073E+00
          1   -1    0    0  503    0  0.00000000000E+00  0.00000000000E+00  0.21989580676E+04  0.21989580676E+04  0.00000000000E+00 0. -1.
          1   -1    0    0  502    0 -0.00000000000E+00 -0.00000000000E+00 -0.11936227919E+03  0.11936227919E+03  0.00000000000E+00 0. -1.
         25    2    1    2    0    0 -0.84260181879E+02 -0.16130662783E+03  0.71559042290E+03  0.74887521741E+03  0.12499932591E+03 0.  0.
          4    1    3    3  501    0 -0.16532190911E+02 -0.65952129413E+02  0.91974949852E+02  0.11438531816E+03  0.12700000000E+01 0.  1.
         -4    1    3    3    0  501 -0.67727990968E+02 -0.95354498413E+02  0.62361547305E+03  0.63448989925E+03  0.12700000000E+01 0.  1.
          1    1    1    2  502    0  0.74409379025E+02  0.22839600456E+03  0.39777786642E+02  0.24348257205E+03  0.00000000000E+00 0. -1.
          1    1    1    2  503    0  0.98508028544E+01 -0.67089376731E+02  0.13242275788E+04  0.13259625573E+04  0.00000000000E+00 0. -1.
<mgrwt>
<rscale>  0 0.12499771E+03</rscale>
<asrwt>0</asrwt>
<pdfrwt beam="1">  1        1 0.33830121E+00 0.67808722E+02</pdfrwt>
<pdfrwt beam="2">  1        1 0.18363429E-01 0.23041913E+03</pdfrwt>
<totfact> 0.10162574E+02</totfact>
</mgrwt>
</event>
<event>
 7    1  0.3113151E-004  0.1189123E+03  0.7546771E-02  0.1290992E+00
          3   -1    0    0  503    0 -0.00000000000E+00  0.00000000000E+00  0.27035500528E+03  0.27035500528E+03  0.00000000000E+00 0. -1.
          1   -1    0    0  502    0  0.00000000000E+00 -0.00000000000E+00 -0.13695595368E+04  0.13695595368E+04  0.00000000000E+00 0. -1.
         25    2    1    2    0    0  0.17536907933E+03 -0.13174815986E+00 -0.19829701793E+03  0.29273378874E+03  0.12496812556E+03 0.  0.
          4    1    3    3  501    0  0.72150019716E+00  0.19535291078E+02  0.84866165763E+01  0.21349091806E+02  0.12700000000E+01 0. -1.
         -4    1    3    3    0  501  0.17464757913E+03 -0.19667039238E+02 -0.20678363451E+03  0.27138469693E+03  0.12700000000E+01 0. -1.
          1    1    1    2  502    0 -0.65786707575E+02  0.38107942511E+02 -0.11075826846E+04  0.11101889521E+04  0.00000000000E+00 0. -1.
          3    1    1    2  503    0 -0.10958237175E+03 -0.37976194351E+02  0.20667517101E+03  0.23699180123E+03  0.00000000000E+00 0. -1.
<mgrwt>
<rscale>  0 0.95081804E+02</rscale>
<asrwt>0</asrwt>
<pdfrwt beam="2">  1        1 0.21070147E+00 0.76027010E+02</pdfrwt>
<pdfrwt beam="1">  1        3 0.41593077E-01 0.11891234E+03</pdfrwt>
<totfact> 0.29810981E+01</totfact>
</mgrwt>
</event>
<event>
 7    1  0.3113151E-004  0.1302594E+03  0.7546771E-02  0.1376980E+00
          2   -1    0    0  502    0  0.00000000000E+00  0.00000000000E+00  0.14545299844E+04  0.14545299844E+04  0.00000000000E+00 0. -1.
          2   -1    0    0  503    0 -0.00000000000E+00 -0.00000000000E+00 -0.21180333247E+03  0.21180333247E+03  0.00000000000E+00 0.  1.
         25    2    1    2    0    0  0.14809349194E+03  0.39947536094E+02  0.93779600483E+00  0.19781991617E+03  0.12491737980E+03 0.  0.
          4    1    3    3  501    0  0.16917087626E+03  0.35280675271E+02  0.12556999535E+02  0.17327089357E+03  0.12700000000E+01 0. -1.
         -4    1    3    3    0  501 -0.21077384321E+02  0.46668608233E+01 -0.11619203530E+02  0.24549022596E+02  0.12700000000E+01 0. -1.
          2    1    1    2  502    0 -0.11818286235E+03 -0.53161799712E+02  0.13496230731E+04  0.13558303011E+04  0.00000000000E+00 0. -1.
          2    1    1    2  503    0 -0.29910629589E+02  0.13214263618E+02 -0.10783421722E+03  0.11268309957E+03  0.00000000000E+00 0.  1.
<mgrwt>
<rscale>  0 0.65264285E+02</rscale>
<asrwt>0</asrwt>
<pdfrwt beam="1">  1        2 0.22377384E+00 0.13025938E+03</pdfrwt>
<pdfrwt beam="2">  1        2 0.32585129E-01 0.32699580E+02</pdfrwt>
<totfact> 0.36273059E+02</totfact>
</mgrwt>
</event>
<event>
 7    1  0.3113151E-004  0.1694600E+03  0.7546771E-02  0.1348411E+00
          2   -1    0    0  503    0  0.00000000000E+00  0.00000000000E+00  0.13371784770E+04  0.13371784770E+04  0.00000000000E+00 0.  1.
          2   -1    0    0  502    0 -0.00000000000E+00 -0.00000000000E+00 -0.23511684292E+04  0.23511684292E+04  0.00000000000E+00 0. -1.
         25    2    1    2    0    0 -0.50245503167E+02 -0.17880760441E+03  0.12522263421E+03  0.25651900565E+03  0.12499808863E+03 0.  0.
          4    1    3    3  501    0 -0.49290974828E+02 -0.19262373575E+03  0.89240143081E+02  0.21794246903E+03  0.12700000000E+01 0.  1.
         -4    1    3    3    0  501 -0.95452833923E+00  0.13816131340E+02  0.35982491126E+02  0.38576536615E+02  0.12700000000E+01 0.  1.
          2    1    1    2  502    0  0.29596809665E+02  0.11969077360E+02 -0.22792442672E+04  0.22794678457E+04  0.00000000000E+00 0. -1.
          2    1    1    2  503    0  0.20648693502E+02  0.16683852704E+03  0.11400316809E+04  0.11523600549E+04  0.00000000000E+00 0.  1.
<mgrwt>
<rscale>  0 0.73553222E+02</rscale>
<asrwt>0</asrwt>
<pdfrwt beam="1">  1        2 0.20571977E+00 0.16946005E+03</pdfrwt>
<pdfrwt beam="2">  1        2 0.36171822E+00 0.31925381E+02</pdfrwt>
<totfact> 0.17289391E+01</totfact>
</mgrwt>
</event>
<event>
 7    1  0.3113151E-004  0.6217842E+02  0.7546771E-02  0.1392114E+00
         -2   -1    0    0    0  501 -0.00000000000E+00  0.00000000000E+00  0.15123754421E+03  0.15123754421E+03  0.00000000000E+00 0. -1.
          1   -1    0    0  503    0  0.00000000000E+00 -0.00000000000E+00 -0.17769013114E+04  0.17769013114E+04  0.00000000000E+00 0. -1.
         25    2    1    2    0    0 -0.80414458530E+02  0.52554054729E+02 -0.13921778975E+03  0.21031909320E+03  0.12499645664E+03 0.  0.
          4    1    3    3  502    0 -0.28625853409E+01 -0.35295720474E+02 -0.12144997397E+02  0.37457924934E+02  0.12700000000E+01 0. -1.
         -4    1    3    3    0  502 -0.77551873189E+02  0.87849775203E+02 -0.12707279235E+03  0.17286116827E+03  0.12700000000E+01 0. -1.
          1    1    1    2  503    0  0.61729897155E+02  0.50932376070E+01 -0.15935538174E+04  0.15947571258E+04  0.00000000000E+00 0. -1.
         -2    1    1    2    0  501  0.18684561375E+02 -0.57647292336E+02  0.10710783997E+03  0.12306263662E+03  0.00000000000E+00 0. -1.
<mgrwt>
<rscale>  0 0.61383982E+02</rscale>
<asrwt>0</asrwt>
<pdfrwt beam="2">  1        1 0.27336944E+00 0.62178419E+02</pdfrwt>
<pdfrwt beam="1">  1       -2 0.23267313E-01 0.60599696E+02</pdfrwt>
<totfact> 0.75638859E+01</totfact>
</mgrwt>
</event>
<event>
 7    1  0.3113151E-004  0.5767544E+02  0.7546771E-02  0.1533490E+00
          2   -1    0    0  503    0  0.00000000000E+00  0.00000000000E+00  0.27911299121E+04  0.27911299121E+04  0.00000000000E+00 0. -1.
          2   -1    0    0  502    0 -0.00000000000E+00 -0.00000000000E+00 -0.63674567801E+02  0.63674567801E+02  0.00000000000E+00 0. -1.
         25    2    1    2    0    0 -0.32505586328E+02 -0.56074314606E+02  0.54037963788E+03  0.55842299972E+03  0.12500060673E+03 0.  0.
          4    1    3    3  501    0 -0.41165945609E+02 -0.15146488961E+02  0.51099073324E+02  0.67355618922E+02  0.12700000000E+01 0.  1.
         -4    1    3    3    0  501  0.86603592818E+01 -0.40927825644E+02  0.48928056456E+03  0.49106738080E+03  0.12700000000E+01 0.  1.
          2    1    1    2  502    0  0.23419452380E+02 -0.75588909372E+00 -0.51754480443E+02  0.56811692142E+02  0.00000000000E+00 0. -1.
          2    1    1    2  503    0  0.90861339478E+01  0.56830203699E+02  0.22388301869E+04  0.22395697880E+04  0.00000000000E+00 0. -1.
<mgrwt>
<rscale>  0 0.36761808E+02</rscale>
<asrwt>0</asrwt>
<pdfrwt beam="1">  1        2 0.42940451E+00 0.57675437E+02</pdfrwt>
<pdfrwt beam="2">  1        2 0.97960896E-02 0.23431648E+02</pdfrwt>
<totfact> 0.29689587E+02</totfact>
</mgrwt>
</event>
<event>
 7    1  0.3113151E-004  0.6091835E+02  0.7546771E-02  0.1407146E+00
          2   -1    0    0  503    0  0.00000000000E+00  0.00000000000E+00  0.26705841672E+04  0.26705841672E+04  0.00000000000E+00 0. -1.
         -2   -1    0    0    0  501 -0.00000000000E+00 -0.00000000000E+00 -0.11870636923E+03  0.11870636923E+03  0.00000000000E+00 0.  1.
         25    2    1    2    0    0  0.88668282506E+02  0.34402121077E+02  0.86148133091E+02  0.17914291961E+03  0.12500045821E+03 0.  0.
          4    1    3    3  502    0  0.91407323272E+02  0.47585225577E+02  0.11061612336E+03  0.15118595202E+03  0.12700000000E+01 0.  1.
         -4    1    3    3    0  502 -0.27390407657E+01 -0.13183104500E+02 -0.24467990274E+02  0.27956967586E+02  0.12700000000E+01 0.  1.
          2    1    1    2  503    0 -0.35769732987E+02 -0.49123985982E+02  0.25270819002E+04  0.25278124080E+04  0.00000000000E+00 0. -1.
         -2    1    1    2    0  501 -0.52898549519E+02  0.14721864905E+02 -0.61352235262E+02  0.82335208867E+02  0.00000000000E+00 0.  1.
<mgrwt>
<rscale>  0 0.57835637E+02</rscale>
<asrwt>0</asrwt>
<pdfrwt beam="1">  1        2 0.41085906E+00 0.60918348E+02</pdfrwt>
<pdfrwt beam="2">  1       -2 0.18262520E-01 0.54908923E+02</pdfrwt>
<totfact> 0.92287988E+01</totfact>
</mgrwt>
</event>
<event>
 7    1  0.3113151E-004  0.8493923E+02  0.7546771E-02  0.1362896E+00
          1   -1    0    0  503    0 -0.00000000000E+00  0.00000000000E+00  0.48321279762E+03  0.48321279762E+03  0.00000000000E+00 0. -1.
          2   -1    0    0  502    0  0.00000000000E+00 -0.00000000000E+00 -0.39697286946E+03  0.39697286946E+03  0.00000000000E+00 0. -1.
         25    2    1    2    0    0  0.70290296833E+02 -0.99542252852E+02  0.23559485215E+03  0.29322100727E+03  0.12499695522E+03 0.  0.
          4    1    3    3  501    0 -0.10646327428E+02  0.20904995317E+02  0.11293670134E+02  0.26067661997E+02  0.12700000000E+01 0. -1.
         -4    1    3    3    0  501  0.80936624261E+02 -0.12044724817E+03  0.22430118201E+03  0.26715334527E+03  0.12700000000E+01 0. -1.
          2    1    1    2  502    0 -0.16479517807E+02  0.82822259343E+02 -0.35955728888E+03  0.36934068979E+03  0.00000000000E+00 0. -1.
          1    1    1    2  503    0 -0.53810779025E+02  0.16719993509E+02  0.21020236489E+03  0.21762397002E+03  0.00000000000E+00 0. -1.
<mgrwt>
<rscale>  0 0.69182380E+02</rscale>
<asrwt>0</asrwt>
<pdfrwt beam="2">  1        2 0.61072749E-01 0.84939229E+02</pdfrwt>
<pdfrwt beam="1">  1        1 0.74340430E-01 0.56348541E+02</pdfrwt>
<totfact> 0.54029836E+02</totfact>
</mgrwt>
</event>
<event>
 7    1  0.3113151E-004  0.1332306E+03  0.7546771E-02  0.1420313E+00
          1   -1    0    0  503    0  0.00000000000E+00  0.00000000000E+00  0.18585713332E+02  0.18585713332E+02  0.00000000000E+00 0. -1.
          1   -1    0    0  502    0 -0.00000000000E+00 -0.00000000000E+00 -0.17514532974E+04  0.17514532974E+04  0.00000000000E+00 0. -1.
         25    2    1    2    0    0  0.96031856517E+02 -0.97381415067E+02 -0.62880834645E+03  0.65553789044E+03  0.12499892708E+03 0.  0.
          4    1    3    3  501    0  0.21990060134E+02 -0.90488812438E+02 -0.20379660764E+03  0.22406797653E+03  0.12700000000E+01 0. -1.
         -4    1    3    3    0  501  0.74041796383E+02 -0.68926026281E+01 -0.42501173880E+03  0.43146991390E+03  0.12700000000E+01 0. -1.
          1    1    1    2  502    0 -0.74689850831E+02  0.10501934208E+03 -0.97282050243E+03  0.98131919678E+03  0.00000000000E+00 0. -1.
          1    1    1    2  503    0 -0.21342005686E+02 -0.76379270125E+01 -0.13123873522E+03  0.13318192354E+03  0.00000000000E+00 0. -1.
<mgrwt>
<rscale>  0 0.54954674E+02</rscale>
<asrwt>0</asrwt>
<pdfrwt beam="1">  1        1 0.28593391E-02 0.13323065E+03</pdfrwt>
<pdfrwt beam="2">  1        1 0.26945449E+00 0.22667579E+02</pdfrwt>
<totfact> 0.26283653E+03</totfact>
</mgrwt>
</event>
<event>
 7    1  0.3113151E-004  0.2451109E+03  0.7546771E-02  0.1296572E+00
          2   -1    0    0  503    0  0.00000000000E+00  0.00000000000E+00  0.16991108692E+04  0.16991108692E+04  0.00000000000E+00 0. -1.
          2   -1    0    0  502    0 -0.00000000000E+00 -0.00000000000E+00 -0.12062434982E+04  0.12062434982E+04  0.00000000000E+00 0. -1.
         25    2    1    2    0    0  0.23084556835E+03 -0.14713929757E+03  0.84265897411E+03  0.89478420198E+03  0.12499988855E+03 0.  0.
          4    1    3    3  501    0  0.50461646475E+01 -0.52769689856E+02  0.20581122711E+03  0.21253229884E+03  0.12700000000E+01 0.  1.
         -4    1    3    3    0  501  0.22579940370E+03 -0.94369607711E+02  0.63684774700E+03  0.68225190314E+03  0.12700000000E+01 0.  1.
          2    1    1    2  502    0 -0.21569234213E+03  0.11557147426E+03 -0.11671174911E+04  0.11924945242E+04  0.00000000000E+00 0. -1.
          2    1    1    2  503    0 -0.15153226222E+02  0.31567823310E+02  0.81732588796E+03  0.81807564128E+03  0.00000000000E+00 0. -1.
<mgrwt>
<rscale>  0 0.92643938E+02</rscale>
<asrwt>0</asrwt>
<pdfrwt beam="1">  1        2 0.26140167E+00 0.35016392E+02</pdfrwt>
<pdfrwt beam="2">  1        2 0.18557592E+00 0.24511089E+03</pdfrwt>
<totfact> 0.40491899E+01</totfact>
</mgrwt>
</event>
<event>
 7    1  0.3113151E-004  0.9291636E+02  0.7546771E-02  0.1400920E+00
          1   -1    0    0  503    0 -0.00000000000E+00  0.00000000000E+00  0.60246517692E+02  0.60246517692E+02  0.00000000000E+00 0. -1.
          2   -1    0    0  502    0  0.00000000000E+00 -0.00000000000E+00 -0.12877819536E+04  0.12877819536E+04  0.00000000000E+00 0. -1.
         25    2    1    2    0    0  0.22783873691E+02  0.10506810721E+03 -0.10985732773E+04  0.11108770111E+04  0.12500430437E+03 0.  0.
          4    1    3    3  501    0  0.53877819386E+02  0.35616927600E+01 -0.25559381441E+03  0.26123804459E+03  0.12700000000E+01 0. -1.
         -4    1    3    3    0  501 -0.31093945695E+02  0.10150641445E+03 -0.84297946293E+03  0.84963896654E+03  0.12700000000E+01 0. -1.
          2    1    1    2  502    0 -0.31212675486E+02 -0.68211737227E+02 -0.16727496710E+03  0.18332481235E+03  0.00000000000E+00 0. -1.
          1    1    1    2  503    0  0.84288017951E+01 -0.36856369986E+02  0.38312808579E+02  0.53826647764E+02  0.00000000000E+00 0. -1.
<mgrwt>
<rscale>  0 0.59270326E+02</rscale>
<asrwt>0</asrwt>
<pdfrwt beam="2">  1        2 0.19812029E+00 0.92916356E+02</pdfrwt>
<pdfrwt beam="1">  1        1 0.92686956E-02 0.37807892E+02</pdfrwt>
<totfact> 0.16187819E+03</totfact>
</mgrwt>
</event>
<event>
 7    1  0.3113151E-004  0.9203868E+02  0.7546771E-02  0.1321635E+00
          2   -1    0    0  503    0  0.00000000000E+00  0.00000000000E+00  0.59687389071E+03  0.59687389071E+03  0.00000000000E+00 0. -1.
          2   -1    0    0  502    0 -0.00000000000E+00 -0.00000000000E+00 -0.39291561916E+03  0.39291561916E+03  0.00000000000E+00 0. -1.
         25    2    1    2    0    0  0.75714350717E+02 -0.52257948279E+02  0.59150859820E+02  0.16609547205E+03  0.12500130222E+03 0.  0.
          4    1    3    3  501    0  0.72060717312E+02  0.17870694395E+02 -0.25032711090E-01  0.74254442455E+02  0.12700000000E+01 0.  1.
         -4    1    3    3    0  501  0.36536334045E+01 -0.70128642674E+02  0.59175892531E+02  0.91841029596E+02  0.12700000000E+01 0.  1.
          2    1    1    2  502    0 -0.91435087579E+02 -0.20317781201E+02 -0.33004076343E+03  0.34307447150E+03  0.00000000000E+00 0. -1.
          2    1    1    2  503    0  0.15720736862E+02  0.72575729480E+02  0.47484817515E+03  0.48061956631E+03  0.00000000000E+00 0. -1.
<mgrwt>
<rscale>  0 0.82672167E+02</rscale>
<asrwt>0</asrwt>
<pdfrwt beam="1">  1        2 0.91826753E-01 0.74258859E+02</pdfrwt>
<pdfrwt beam="2">  1        2 0.60448556E-01 0.92038678E+02</pdfrwt>
<totfact> 0.66395445E+02</totfact>
</mgrwt>
</event>
<event>
 7    1  0.3113151E-004  0.5745113E+02  0.7546771E-02  0.1441439E+00
          1   -1    0    0  503    0  0.00000000000E+00  0.00000000000E+00  0.43175703577E+03  0.43175703577E+03  0.00000000000E+00 0. -1.
         -2   -1    0    0    0  501 -0.00000000000E+00 -0.00000000000E+00 -0.40485377012E+03  0.40485377012E+03  0.00000000000E+00 0.  1.
         25    2    1    2    0    0  0.79870449497E+02 -0.41821345471E+02 -0.97972647701E+02  0.18262266754E+03  0.12499634140E+03 0.  0.
          4    1    3    3  502    0  0.11255015523E+03 -0.25481718409E+02 -0.60627749056E+02  0.13036177457E+03  0.12700000000E+01 0.  1.
         -4    1    3    3    0  502 -0.32679705728E+02 -0.16339627062E+02 -0.37344898645E+02  0.52260892968E+02  0.12700000000E+01 0.  1.
          1    1    1    2  503    0 -0.56982009510E+02  0.33134182144E+01  0.38541873340E+03  0.38962228915E+03  0.00000000000E+00 0. -1.
         -2    1    1    2    0  501 -0.22888439987E+02  0.38507927257E+02 -0.26054282004E+03  0.26436584920E+03  0.00000000000E+00 0.  1.
<mgrwt>
<rscale>  0 0.50730847E+02</rscale>
<asrwt>0</asrwt>
<pdfrwt beam="1">  1        1 0.66424159E-01 0.57451127E+02</pdfrwt>
<pdfrwt beam="2">  1       -2 0.62285195E-01 0.44796664E+02</pdfrwt>
<totfact> 0.12394719E+02</totfact>
</mgrwt>
</event>
<event>
 7    1  0.3113151E-004  0.6594561E+02  0.7546771E-02  0.1529150E+00
         -1   -1    0    0    0  501 -0.00000000000E+00  0.00000000000E+00  0.52573559232E+03  0.52573559232E+03  0.00000000000E+00 0.  1.
          2   -1    0    0  503    0  0.00000000000E+00 -0.00000000000E+00 -0.75109443859E+02  0.75109443859E+02  0.00000000000E+00 0. -1.
         25    2    1    2    0    0 -0.81848607512E+02 -0.27864725743E+01  0.14546173496E+02  0.15015111705E+03  0.12500723102E+03 0.  0.
          4    1    3    3  502    0 -0.19531008736E+02  0.17902476099E+02  0.63119104690E+02  0.68466000538E+02  0.12700000000E+01 0. -1.
         -4    1    3    3    0  502 -0.62317598776E+02 -0.20688948674E+02 -0.48572931194E+02  0.81685116510E+02  0.12700000000E+01 0. -1.
          2    1    1    2  503    0  0.17941581609E+02 -0.11080121996E+02  0.18584153133E+02  0.28107653793E+02  0.00000000000E+00 0. -1.
         -1    1    1    2    0  501  0.63907025903E+02  0.13866594570E+02  0.41749582183E+03  0.42258626533E+03  0.00000000000E+00 0.  1.
<mgrwt>
<rscale>  0 0.37290849E+02</rscale>
<asrwt>0</asrwt>
<pdfrwt beam="2">  1        2 0.11555299E-01 0.21087187E+02</pdfrwt>
<pdfrwt beam="1">  1       -1 0.80882397E-01 0.65945610E+02</pdfrwt>
<totfact> 0.86388151E+02</totfact>
</mgrwt>
</event>
<event>
 7    1  0.3113151E-004  0.7079298E+02  0.7546771E-02  0.1488921E+00
          2   -1    0    0  503    0  0.00000000000E+00  0.00000000000E+00  0.43259233448E+03  0.43259233448E+03  0.00000000000E+00 0. -1.
         -1   -1    0    0    0  501 -0.00000000000E+00 -0.00000000000E+00 -0.41967908114E+02  0.41967908114E+02  0.00000000000E+00 0.  1.
         25    2    1    2    0    0 -0.95739682446E+01 -0.65968138535E+02  0.12508930842E+03  0.18900772797E+03  0.12503251569E+03 0.  0.
          4    1    3    3  502    0 -0.17752976106E+02  0.27178313902E+02  0.77601516767E+02  0.84127505679E+02  0.12700000000E+01 0. -1.
         -4    1    3    3    0  502  0.81790078609E+01 -0.93146452437E+02  0.47487791656E+02  0.10488022229E+03  0.12700000000E+01 0. -1.
          2    1    1    2  503    0  0.23084790019E+02 -0.11546169040E+02  0.53827134645E+02  0.59695745022E+02  0.00000000000E+00 0. -1.
         -1    1    1    2    0  501 -0.13510821774E+02  0.77514307575E+02  0.21170798330E+03  0.22585676960E+03  0.00000000000E+00 0.  1.
<mgrwt>
<rscale>  0 0.42746420E+02</rscale>
<asrwt>0</asrwt>
<pdfrwt beam="1">  1        2 0.66552664E-01 0.25811268E+02</pdfrwt>
<pdfrwt beam="2">  1       -1 0.64566016E-02 0.70792975E+02</pdfrwt>
<totfact> 0.90537868E+03</totfact>
</mgrwt>
</event>
<event>
 7    1  0.3765052E-004  0.9185833E+02  0.7546771E-02  0.1406228E+00
          2   -1    0    0  503    0  0.00000000000E+00  0.00000000000E+00  0.82930979751E+03  0.82930979751E+03  0.00000000000E+00 0. -1.
         -1   -1    0    0    0  501 -0.00000000000E+00 -0.00000000000E+00 -0.33439929446E+02  0.33439929446E+02  0.00000000000E+00 0.  1.
         25    2    1    2    0    0  0.80260065547E+02  0.60961242731E+02  0.64279040404E+03  0.66254224644E+03  0.12499909421E+03 0.  0.
          4    1    3    3  502    0  0.76013697203E+02  0.96048313576E+02  0.54374946471E+03  0.55737640242E+03  0.12700000000E+01 0. -1.
         -4    1    3    3    0  502  0.42463683447E+01 -0.35087070844E+02  0.99040939339E+02  0.10516584403E+03  0.12700000000E+01 0. -1.
          2    1    1    2  503    0  0.74009042968E+01 -0.35922791546E+02  0.32221791939E+02  0.48820735478E+02  0.00000000000E+00 0. -1.
         -1    1    1    2    0  501 -0.87660969844E+02 -0.25038451185E+02  0.12085767208E+03  0.15138674504E+03  0.00000000000E+00 0.  1.
<mgrwt>
<rscale>  0 0.58044038E+02</rscale>
<asrwt>0</asrwt>
<pdfrwt beam="1">  1        2 0.12758611E+00 0.36677245E+02</pdfrwt>
<pdfrwt beam="2">  1       -1 0.51446052E-02 0.91858326E+02</pdfrwt>
<totfact> 0.64032226E+03</totfact>
</mgrwt>
</event>
<event>
 7    1  0.3113151E-004  0.1075344E+03  0.7546771E-02  0.1326109E+00
          2   -1    0    0  502    0  0.00000000000E+00  0.00000000000E+00  0.79488194062E+03  0.79488194062E+03  0.00000000000E+00 0.  1.
          1   -1    0    0  503    0 -0.00000000000E+00 -0.00000000000E+00 -0.12315096239E+04  0.12315096239E+04  0.00000000000E+00 0. -1.
         25    2    1    2    0    0  0.13529169659E+03 -0.88191857492E+02 -0.13078542885E+03  0.24251714612E+03  0.12501236285E+03 0.  0.
          4    1    3    3  501    0  0.84887117431E+02  0.31932062269E-01 -0.11268026775E+02  0.85641141122E+02  0.12700000000E+01 0. -1.
         -4    1    3    3    0  501  0.50404579161E+02 -0.88223789554E+02 -0.11951740208E+03  0.15687600499E+03  0.12700000000E+01 0. -1.
          2    1    1    2  502    0 -0.58962904066E+02  0.15951269521E+02  0.73510351356E+03  0.73763693149E+03  0.00000000000E+00 0.  1.
          1    1    1    2  503    0 -0.76328792526E+02  0.72240587971E+02 -0.10409457680E+04  0.10462374869E+04  0.00000000000E+00 0. -1.
<mgrwt>
<rscale>  0 0.81046088E+02</rscale>
<asrwt>0</asrwt>
<pdfrwt beam="1">  1        2 0.12228953E+00 0.61082461E+02</pdfrwt>
<pdfrwt beam="2">  1        1 0.18946302E+00 0.10753444E+03</pdfrwt>
<totfact> 0.60688843E+01</totfact>
</mgrwt>
</event>
<event>
 7    1  0.3113151E-004  0.1775687E+03  0.7546771E-02  0.1245425E+00
          1   -1    0    0  503    0  0.00000000000E+00  0.00000000000E+00  0.10683630413E+04  0.10683630413E+04  0.00000000000E+00 0. -1.
          1   -1    0    0  502    0 -0.00000000000E+00 -0.00000000000E+00 -0.11384172268E+03  0.11384172268E+03  0.00000000000E+00 0. -1.
         25    2    1    2    0    0  0.10755304766E+03  0.48831032363E+02  0.36440351326E+03  0.40294856314E+03  0.12500198509E+03 0.  0.
          4    1    3    3  501    0 -0.24762459056E+02 -0.79792369155E+01  0.36722637713E+02  0.45022356901E+02  0.12700000000E+01 0. -1.
         -4    1    3    3    0  501  0.13231550671E+03  0.56810269279E+02  0.32768087555E+03  0.35792620624E+03  0.12700000000E+01 0. -1.
          1    1    1    2  502    0 -0.16175876653E+03 -0.10659412368E+03  0.10239475163E+02  0.19399240347E+03  0.00000000000E+00 0. -1.
          1    1    1    2  503    0  0.54205718875E+02  0.57763091321E+02  0.57987833017E+03  0.58526379734E+03  0.00000000000E+00 0. -1.
<mgrwt>
<rscale>  0 0.11859976E+03</rscale>
<asrwt>0</asrwt>
<pdfrwt beam="1">  1        1 0.16436354E+00 0.79213854E+02</pdfrwt>
<pdfrwt beam="2">  1        1 0.17514112E-01 0.17756873E+03</pdfrwt>
<totfact> 0.55295232E+02</totfact>
</mgrwt>
</event>
<event>
 7    1  0.3113151E-004  0.7225525E+02  0.7546771E-02  0.1394245E+00
          1   -1    0    0  502    0  0.00000000000E+00  0.00000000000E+00  0.24084599126E+03  0.24084599126E+03  0.00000000000E+00 0. -1.
          1   -1    0    0  503    0 -0.00000000000E+00 -0.00000000000E+00 -0.13600265559E+04  0.13600265559E+04  0.00000000000E+00 0. -1.
         25    2    1    2    0    0  0.24776243106E+02  0.90192170222E+02  0.68047234100E+01  0.15627092644E+03  0.12500323355E+03 0.  0.
          4    1    3    3  501    0 -0.14959346181E+01  0.11728434871E+03 -0.27041729823E+01  0.11733192969E+03  0.12700000000E+01 0.  1.
         -4    1    3    3    0  501  0.26272177724E+02 -0.27092178486E+02  0.95088963923E+01  0.38938996752E+02  0.12700000000E+01 0.  1.
          1    1    1    2  502    0 -0.53246707467E+02 -0.47557111537E+02  0.15076933655E+03  0.16681811520E+03  0.00000000000E+00 0. -1.
          1    1    1    2  503    0  0.28470464361E+02 -0.42635058685E+02 -0.12767546246E+04  0.12777835055E+04  0.00000000000E+00 0. -1.
<mgrwt>
<rscale>  0 0.60863104E+02</rscale>
<asrwt>0</asrwt>
<pdfrwt beam="1">  1        1 0.37053230E-01 0.72255255E+02</pdfrwt>
<pdfrwt beam="2">  1        1 0.20923485E+00 0.51267100E+02</pdfrwt>
<totfact> 0.14126532E+02</totfact>
</mgrwt>
</event>
<event>
 7    1  0.3113151E-004  0.1558183E+03  0.7546771E-02  0.1334458E+00
          2   -1    0    0  502    0  0.00000000000E+00  0.00000000000E+00  0.17372250838E+04  0.17372250838E+04  0.00000000000E+00 0. -1.
          2   -1    0    0  503    0 -0.00000000000E+00 -0.00000000000E+00 -0.25127576745E+03  0.25127576745E+03  0.00000000000E+00 0. -1.
         25    2    1    2    0    0 -0.43561172075E+02  0.18367931856E+03  0.17474111150E+03  0.28599462068E+03  0.12499119661E+03 0.  0.
          4    1    3    3  501    0 -0.36945413084E+02  0.13165372087E+03  0.18744010346E+03  0.23201954886E+03  0.12700000000E+01 0. -1.
         -4    1    3    3    0  501 -0.66157589903E+01  0.52025597686E+02 -0.12698991954E+02  0.53975071823E+02  0.12700000000E+01 0. -1.
          2    1    1    2  502    0  0.50290861232E+02 -0.14509090352E+03  0.15009391568E+04  0.15087739703E+04  0.00000000000E+00 0. -1.
          2    1    1    2  503    0 -0.67296891578E+01 -0.38588415042E+02 -0.18973095203E+03  0.19373226022E+03  0.00000000000E+00 0. -1.
<mgrwt>
<rscale>  0 0.78125113E+02</rscale>
<asrwt>0</asrwt>
<pdfrwt beam="1">  1        2 0.26726539E+00 0.15581830E+03</pdfrwt>
<pdfrwt beam="2">  1        2 0.38657812E-01 0.39170837E+02</pdfrwt>
<totfact> 0.21541027E+02</totfact>
</mgrwt>
</event>
<event>
 7    1  0.3113151E-004  0.8462371E+02  0.7546771E-02  0.1447897E+00
          2   -1    0    0  502    0  0.00000000000E+00  0.00000000000E+00  0.17855786217E+03  0.17855786217E+03  0.00000000000E+00 0. -1.
          2   -1    0    0  503    0 -0.00000000000E+00 -0.00000000000E+00 -0.12861751524E+03  0.12861751524E+03  0.00000000000E+00 0. -1.
         25    2    1    2    0    0  0.14163782256E+02  0.59218197941E+02 -0.27083127239E+02  0.14164478930E+03  0.12498937099E+03 0.  0.
          4    1    3    3  501    0  0.68600255508E+02  0.38752784484E+02 -0.27537599563E+02  0.83472783893E+02  0.12700000000E+01 0. -1.
         -4    1    3    3    0  501 -0.54436473253E+02  0.20465413457E+02  0.45447232370E+00  0.58172005409E+02  0.12700000000E+01 0. -1.
          2    1    1    2  502    0 -0.16293854096E+02 -0.88128837673E+02  0.95647256830E+02  0.13107470942E+03  0.00000000000E+00 0. -1.
          2    1    1    2  503    0  0.21300718405E+01  0.28910639732E+02 -0.18623782658E+02  0.34455878689E+02  0.00000000000E+00 0. -1.
<mgrwt>
<rscale>  0 0.49529355E+02</rscale>
<asrwt>0</asrwt>
<pdfrwt beam="1">  1        2 0.27470440E-01 0.84623710E+02</pdfrwt>
<pdfrwt beam="2">  1        2 0.19787310E-01 0.28989003E+02</pdfrwt>
<totfact> 0.74233956E+03</totfact>
</mgrwt>
</event>
<event>
 7    1  0.3113151E-004  0.1245979E+03  0.7546771E-02  0.1292755E+00
          1   -1    0    0  503    0  0.00000000000E+00  0.00000000000E+00  0.13964656624E+04  0.13964656624E+04  0.00000000000E+00 0. -1.
         -1   -1    0    0    0  501 -0.00000000000E+00 -0.00000000000E+00 -0.10168547569E+04  0.10168547569E+04  0.00000000000E+00 0.  1.
         25    2    1    2    0    0 -0.20346867477E+02  0.12399200681E+03 -0.31968027295E+03  0.36552577722E+03  0.12500241651E+03 0.  0.
          4    1    3    3  502    0 -0.48298889349E+02  0.68103754599E+02 -0.72556749632E+02  0.11062096962E+03  0.12700000000E+01 0. -1.
         -4    1    3    3    0  502  0.27952021872E+02  0.55888252214E+02 -0.24712352331E+03  0.25490480760E+03  0.12700000000E+01 0. -1.
          1    1    1    2  503    0 -0.50344264772E+02 -0.11414793230E+03  0.13688093254E+04  0.13744829081E+04  0.00000000000E+00 0. -1.
         -1    1    1    2    0  501  0.70691132249E+02 -0.98440745079E+01 -0.66951814698E+03  0.67331173398E+03  0.00000000000E+00 0.  1.
<mgrwt>
<rscale>  0 0.94302491E+02</rscale>
<asrwt>0</asrwt>
<pdfrwt beam="1">  1        1 0.21484087E+00 0.12459792E+03</pdfrwt>
<pdfrwt beam="2">  1       -1 0.15643919E+00 0.71373258E+02</pdfrwt>
<totfact> 0.33852702E+00</totfact>
</mgrwt>
</event>
<event>
 7    1  0.3113151E-004  0.7806151E+02  0.7546771E-02  0.1418935E+00
          2   -1    0    0  502    0  0.00000000000E+00  0.00000000000E+00  0.10270613422E+04  0.10270613422E+04  0.00000000000E+00 0. -1.
          1   -1    0    0  503    0 -0.00000000000E+00 -0.00000000000E+00 -0.13451327728E+04  0.13451327728E+04  0.00000000000E+00 0. -1.
         25    2    1    2    0    0  0.10622900375E+03  0.18387363639E+02 -0.29653058316E+03  0.33937582910E+03  0.12499148072E+03 0.  0.
          4    1    3    3  501    0 -0.10544780777E+02 -0.18029074465E+02 -0.26995684507E+01  0.21098352958E+02  0.12700000000E+01 0.  1.
         -4    1    3    3    0  501  0.11677378453E+03  0.36416438104E+02 -0.29383101471E+03  0.31827747615E+03  0.12700000000E+01 0.  1.
          2    1    1    2  502    0 -0.77512283915E+02  0.81488845024E+01  0.10037553946E+04  0.10067767631E+04  0.00000000000E+00 0. -1.
          1    1    1    2  503    0 -0.28716719834E+02 -0.26536248141E+02 -0.10252962420E+04  0.10260415227E+04  0.00000000000E+00 0. -1.
<mgrwt>
<rscale>  0 0.55246877E+02</rscale>
<asrwt>0</asrwt>
<pdfrwt beam="1">  1        2 0.15800944E+00 0.78061509E+02</pdfrwt>
<pdfrwt beam="2">  1        1 0.20694350E+00 0.39100159E+02</pdfrwt>
<totfact> 0.39922877E+01</totfact>
</mgrwt>
</event>
<event>
 7    1  0.3113151E-004  0.1241012E+03  0.7546771E-02  0.1334667E+00
         -1   -1    0    0    0  501 -0.00000000000E+00  0.00000000000E+00  0.12945674742E+03  0.12945674742E+03  0.00000000000E+00 0.  1.
          1   -1    0    0  503    0  0.00000000000E+00 -0.00000000000E+00 -0.20216940673E+04  0.20216940673E+04  0.00000000000E+00 0. -1.
         25    2    1    2    0    0 -0.12444261468E+02  0.94591348004E+02 -0.52510948320E+03  0.54814823321E+03  0.12499653379E+03 0.  0.
          4    1    3    3  502    0  0.46580511876E+02  0.64846002775E+02 -0.18228593499E+03  0.19900885196E+03  0.12700000000E+01 0.  1.
         -4    1    3    3    0  502 -0.59024773344E+02  0.29745345230E+02 -0.34282354821E+03  0.34913938125E+03  0.12700000000E+01 0.  1.
          1    1    1    2  503    0  0.39857549479E+02  0.28660229179E+02 -0.14507363331E+04  0.14515667195E+04  0.00000000000E+00 0. -1.
         -1    1    1    2    0  501 -0.27413288010E+02 -0.12325157718E+03  0.83608496398E+02  0.15143586203E+03  0.00000000000E+00 0.  1.
<mgrwt>
<rscale>  0 0.78053758E+02</rscale>
<asrwt>0</asrwt>
<pdfrwt beam="2">  1        1 0.31102985E+00 0.49092087E+02</pdfrwt>
<pdfrwt beam="1">  1       -1 0.19916423E-01 0.12410125E+03</pdfrwt>
<totfact> 0.80540533E+01</totfact>
</mgrwt>
</event>
<event>
 7    1  0.3113151E-004  0.2030611E+03  0.7546771E-02  0.1249476E+00
          3   -1    0    0  503    0 -0.00000000000E+00  0.00000000000E+00  0.33249082316E+02  0.33249082316E+02  0.00000000000E+00 0. -1.
          1   -1    0    0  502    0  0.00000000000E+00 -0.00000000000E+00 -0.33496657833E+04  0.33496657833E+04  0.00000000000E+00 0. -1.
         25    2    1    2    0    0 -0.11620410881E+03  0.22776533011E+03 -0.11691186274E+04  0.12032637198E+04  0.12499909588E+03 0.  0.
          4    1    3    3  501    0 -0.38220947046E+02  0.13368989831E+03 -0.37804083060E+03  0.40280306876E+03  0.12700000000E+01 0. -1.
         -4    1    3    3    0  501 -0.77983161768E+02  0.94075431803E+02 -0.79107779676E+03  0.80046065100E+03  0.12700000000E+01 0. -1.
          1    1    1    2  502    0  0.92463243024E+02 -0.16563581063E+03 -0.20656480480E+04  0.20743400231E+04  0.00000000000E+00 0. -1.
          3    1    1    2  503    0  0.23740865789E+02 -0.62129519479E+02 -0.81650025658E+02  0.10531112282E+03  0.00000000000E+00 0. -1.
<mgrwt>
<rscale>  0 0.11621441E+03</rscale>
<asrwt>0</asrwt>
<pdfrwt beam="2">  1        1 0.51533317E+00 0.20306115E+03</pdfrwt>
<pdfrwt beam="1">  1        3 0.51152437E-02 0.66510946E+02</pdfrwt>
<totfact> 0.43830083E+01</totfact>
</mgrwt>
</event>
<event>
 7    1  0.3113151E-004  0.3183724E+02  0.7546771E-02  0.1624373E+00
          2   -1    0    0  503    0  0.00000000000E+00  0.00000000000E+00  0.51361935355E+03  0.51361935355E+03  0.00000000000E+00 0. -1.
         -1   -1    0    0    0  501 -0.00000000000E+00 -0.00000000000E+00 -0.39020416320E+03  0.39020416320E+03  0.00000000000E+00 0.  1.
         25    2    1    2    0    0  0.13176243344E+02 -0.22365578026E+02  0.17972473274E+03  0.22045265142E+03  0.12499823796E+03 0.  0.
          4    1    3    3  502    0 -0.11541582844E+02  0.49866818736E+02  0.76641515759E+02  0.92170725197E+02  0.12700000000E+01 0. -1.
         -4    1    3    3    0  502  0.24717826188E+02 -0.72232396762E+02  0.10308321698E+03  0.12828192623E+03  0.12700000000E+01 0. -1.
          2    1    1    2  503    0  0.18082306669E+02  0.16065810147E+02  0.31237492675E+03  0.31331003005E+03  0.00000000000E+00 0. -1.
         -1    1    1    2    0  501 -0.31258550013E+02  0.62997678792E+01 -0.36868446914E+03  0.37006083528E+03  0.00000000000E+00 0.  1.
<mgrwt>
<rscale>  0 0.27750547E+02</rscale>
<asrwt>0</asrwt>
<pdfrwt beam="1">  1        2 0.79018362E-01 0.24188428E+02</pdfrwt>
<pdfrwt beam="2">  1       -1 0.60031410E-01 0.31837242E+02</pdfrwt>
<totfact> 0.21495038E+02</totfact>
</mgrwt>
</event>
<event>
 7    1  0.3113151E-004  0.9219570E+02  0.7546771E-02  0.1467212E+00
          1   -1    0    0  503    0  0.00000000000E+00  0.00000000000E+00  0.36606879391E+03  0.36606879391E+03  0.00000000000E+00 0. -1.
         -2   -1    0    0    0  501 -0.00000000000E+00 -0.00000000000E+00 -0.20982681647E+03  0.20982681647E+03  0.00000000000E+00 0.  1.
         25    2    1    2    0    0  0.21907068856E+02  0.78506849329E+02 -0.10734679392E+03  0.18383777465E+03  0.12501899121E+03 0.  0.
          4    1    3    3  502    0  0.16441798694E+02  0.11099539619E+03 -0.63357518306E+02  0.12886465281E+03  0.12700000000E+01 0. -1.
         -4    1    3    3    0  502  0.54652701617E+01 -0.32488546857E+02 -0.43989275619E+02  0.54973121835E+02  0.12700000000E+01 0. -1.
          1    1    1    2  503    0 -0.36678720417E+01 -0.92704421691E+02  0.31889458676E+03  0.33211642620E+03  0.00000000000E+00 0. -1.
         -2    1    1    2    0  501 -0.18239196814E+02  0.14197572362E+02 -0.55305815392E+02  0.59941409540E+02  0.00000000000E+00 0.  1.
<mgrwt>
<rscale>  0 0.46162497E+02</rscale>
<asrwt>0</asrwt>
<pdfrwt beam="1">  1        1 0.56318276E-01 0.92195697E+02</pdfrwt>
<pdfrwt beam="2">  1       -2 0.32281049E-01 0.23113619E+02</pdfrwt>
<totfact> 0.51182101E+02</totfact>
</mgrwt>
</event>
<event>
 7    1  0.3113151E-004  0.1046690E+03  0.7546771E-02  0.1312499E+00
         -1   -1    0    0    0  501 -0.00000000000E+00  0.00000000000E+00  0.31813490894E+03  0.31813490894E+03  0.00000000000E+00 0.  1.
          3   -1    0    0  503    0  0.00000000000E+00 -0.00000000000E+00 -0.17243945699E+03  0.17243945699E+03  0.00000000000E+00 0. -1.
         25    2    1    2    0    0 -0.25201945852E+02 -0.69234409298E+02 -0.22798776032E+01  0.14511216268E+03  0.12499520155E+03 0.  0.
          4    1    3    3  502    0 -0.64163896862E+02 -0.18875885333E+02 -0.32787751538E+02  0.74498015132E+02  0.12700000000E+01 0. -1.
         -4    1    3    3    0  502  0.38961951010E+02 -0.50358523965E+02  0.30507873935E+02  0.70614147552E+02  0.12700000000E+01 0. -1.
          3    1    1    2  503    0  0.59524198523E+02 -0.38477322119E+02 -0.70187479947E+02  0.99749270015E+02  0.00000000000E+00 0. -1.
         -1    1    1    2    0  501 -0.34322252670E+02  0.10771173142E+03  0.21816280950E+03  0.24571293324E+03  0.00000000000E+00 0.  1.
<mgrwt>
<rscale>  0 0.86131810E+02</rscale>
<asrwt>0</asrwt>
<pdfrwt beam="2">  1        3 0.26529147E-01 0.70877602E+02</pdfrwt>
<pdfrwt beam="1">  1       -1 0.48943832E-01 0.10466901E+03</pdfrwt>
<totfact> 0.24483223E+02</totfact>
</mgrwt>
</event>
<event>
 7    1  0.3113151E-004  0.1947095E+03  0.7546771E-02  0.1208300E+00
          1   -1    0    0  503    0  0.00000000000E+00  0.00000000000E+00  0.83199846467E+03  0.83199846467E+03  0.00000000000E+00 0. -1.
          1   -1    0    0  502    0 -0.00000000000E+00 -0.00000000000E+00 -0.64728442046E+03  0.64728442046E+03  0.00000000000E+00 0. -1.
         25    2    1    2    0    0 -0.50784639079E+02  0.10371208239E+03  0.59892061352E+02  0.18041827660E+03  0.12501367892E+03 0.  0.
          4    1    3    3  501    0 -0.72284066149E+02  0.94538060556E+02  0.84878285001E+02  0.14617922998E+03  0.12700000000E+01 0.  1.
         -4    1    3    3    0  501  0.21499427070E+02  0.91740218332E+01 -0.24986223649E+02  0.34239046616E+02  0.12700000000E+01 0.  1.
          1    1    1    2  502    0 -0.53244807872E+01  0.10607409447E+03 -0.56539895328E+03  0.57528778883E+03  0.00000000000E+00 0. -1.
          1    1    1    2  503    0  0.56109119866E+02 -0.20978617686E+03  0.69022093613E+03  0.72357681970E+03  0.00000000000E+00 0. -1.
<mgrwt>
<rscale>  0 0.14380415E+03</rscale>
<asrwt>0</asrwt>
<pdfrwt beam="1">  1        1 0.12799976E+00 0.19470947E+03</pdfrwt>
<pdfrwt beam="2">  1        1 0.99582219E-01 0.10620764E+03</pdfrwt>
<totfact> 0.86957041E+01</totfact>
</mgrwt>
</event>
<event>
 7    1  0.3113151E-004  0.6259739E+02  0.7546771E-02  0.1416530E+00
          2   -1    0    0  502    0  0.00000000000E+00  0.00000000000E+00  0.55277114078E+03  0.55277114078E+03  0.00000000000E+00 0. -1.
          2   -1    0    0  503    0 -0.00000000000E+00 -0.00000000000E+00 -0.77859107646E+02  0.77859107646E+02  0.00000000000E+00 0. -1.
         25    2    1    2    0    0  0.10531430109E+03 -0.23680423180E+02  0.19687283767E+03  0.25697478680E+03  0.12500104953E+03 0.  0.
          4    1    3    3  501    0  0.41322808292E+02  0.22303196694E+02  0.22815319356E+01  0.47030047373E+02  0.12700000000E+01 0. -1.
         -4    1    3    3    0  501  0.63991492794E+02 -0.45983619874E+02  0.19459130573E+03  0.20994473943E+03  0.12700000000E+01 0. -1.
          2    1    1    2  502    0 -0.57692947091E+02  0.95522190521E+01  0.30942190515E+03  0.31489940683E+03  0.00000000000E+00 0. -1.
          2    1    1    2  503    0 -0.47621353994E+02  0.14128204128E+02 -0.31382709686E+02  0.58756054797E+02  0.00000000000E+00 0. -1.
<mgrwt>
<rscale>  0 0.55761952E+02</rscale>
<asrwt>0</asrwt>
<pdfrwt beam="1">  1        2 0.85041711E-01 0.62597387E+02</pdfrwt>
<pdfrwt beam="2">  1        2 0.11978325E-01 0.49672925E+02</pdfrwt>
<totfact> 0.40981014E+03</totfact>
</mgrwt>
</event>
<event>
 7    1  0.3113151E-004  0.3065860E+03  0.7546771E-02  0.1167029E+00
          1   -1    0    0  503    0  0.00000000000E+00  0.00000000000E+00  0.21171430052E+04  0.21171430052E+04  0.00000000000E+00 0. -1.
         -2   -1    0    0    0  501 -0.00000000000E+00 -0.00000000000E+00 -0.13760959421E+03  0.13760959421E+03  0.00000000000E+00 0.  1.
         25    2    1    2    0    0 -0.24044036806E+03  0.84803167318E+02  0.10268667314E+04  0.10654033256E+04  0.12500325744E+03 0.  0.
          4    1    3    3  502    0 -0.73851804566E+02  0.67628378343E+02  0.57165784485E+03  0.58036367139E+03  0.12700000000E+01 0.  1.
         -4    1    3    3    0  502 -0.16658856349E+03  0.17174788975E+02  0.45520888657E+03  0.48503965423E+03  0.12700000000E+01 0.  1.
          1    1    1    2  503    0 -0.16426839589E+02  0.10535132814E+03  0.84560502910E+03  0.85230077357E+03  0.00000000000E+00 0. -1.
         -2    1    1    2    0  501  0.25686720764E+03 -0.19015449546E+03  0.10706165049E+03  0.33704850024E+03  0.00000000000E+00 0.  1.
<mgrwt>
<rscale>  0 0.18080244E+03</rscale>
<asrwt>0</asrwt>
<pdfrwt beam="1">  1        1 0.32571429E+00 0.10662431E+03</pdfrwt>
<pdfrwt beam="2">  1       -2 0.21170708E-01 0.30658603E+03</pdfrwt>
<totfact> 0.53606291E+01</totfact>
</mgrwt>
</event>
<event>
 7    1  0.3113151E-004  0.6687017E+02  0.7546771E-02  0.1450685E+00
          2   -1    0    0  503    0  0.00000000000E+00  0.00000000000E+00  0.17710950523E+02  0.17710950523E+02  0.00000000000E+00 0. -1.
         -1   -1    0    0    0  501 -0.00000000000E+00 -0.00000000000E+00 -0.10915198235E+04  0.10915198235E+04  0.00000000000E+00 0.  1.
         25    2    1    2    0    0 -0.18709399487E+02  0.72627697949E+02 -0.81901709695E+03  0.83188868593E+03  0.12499982622E+03 0.  0.
          4    1    3    3  502    0  0.21747940578E+02  0.80689552525E+02 -0.71676353748E+03  0.72161995425E+03  0.12700000000E+01 0.  1.
         -4    1    3    3    0  502 -0.40457340066E+02 -0.80618545755E+01 -0.10225355946E+03  0.11026873169E+03  0.12700000000E+01 0.  1.
          2    1    1    2  503    0  0.34496501353E+02 -0.10078590584E+02 -0.43520719509E+02  0.56441470749E+02  0.00000000000E+00 0. -1.
         -1    1    1    2    0  501 -0.15787101865E+02 -0.62549107365E+02 -0.21127105652E+03  0.22090061733E+03  0.00000000000E+00 0.  1.
<mgrwt>
<rscale>  0 0.49022685E+02</rscale>
<asrwt>0</asrwt>
<pdfrwt beam="1">  1        2 0.27247607E-02 0.35938650E+02</pdfrwt>
<pdfrwt beam="2">  1       -1 0.16792618E+00 0.66870168E+02</pdfrwt>
<totfact> 0.99310022E+02</totfact>
</mgrwt>
</event>
<event>
 7    1  0.3113151E-004  0.7745855E+02  0.7546771E-02  0.1456796E+00
          1   -1    0    0  503    0 -0.00000000000E+00  0.00000000000E+00  0.14339490147E+03  0.14339490147E+03  0.00000000000E+00 0. -1.
          2   -1    0    0  502    0  0.00000000000E+00 -0.00000000000E+00 -0.48721658319E+03  0.48721658319E+03  0.00000000000E+00 0. -1.
         25    2    1    2    0    0  0.10524191469E+03  0.10221059343E+02  0.74797044420E+01  0.16390010387E+03  0.12500786939E+03 0.  0.
          4    1    3    3  501    0  0.10579512903E+03  0.48030013815E+02  0.29823481916E+02  0.11996059572E+03  0.12700000000E+01 0. -1.
         -4    1    3    3    0  501 -0.55321433709E+00 -0.37808954472E+02 -0.22343777474E+02  0.43939508147E+02  0.12700000000E+01 0. -1.
          2    1    1    2  502    0 -0.76148446455E+02 -0.44152234571E+01 -0.40134824766E+03  0.40853212358E+03  0.00000000000E+00 0. -1.
          1    1    1    2  503    0 -0.29093468233E+02 -0.58058358855E+01  0.50046861497E+02  0.58179257213E+02  0.00000000000E+00 0. -1.
<mgrwt>
<rscale>  0 0.47937162E+02</rscale>
<asrwt>0</asrwt>
<pdfrwt beam="2">  1        2 0.74956397E-01 0.77458547E+02</pdfrwt>
<pdfrwt beam="1">  1        1 0.22060754E-01 0.29667114E+02</pdfrwt>
<totfact> 0.18468000E+03</totfact>
</mgrwt>
</event>
<event>
 7    1  0.3113151E-004  0.3176710E+03  0.7546771E-02  0.1225379E+00
         -1   -1    0    0    0  501 -0.00000000000E+00  0.00000000000E+00  0.26751570970E+03  0.26751570970E+03  0.00000000000E+00 0.  1.
          2   -1    0    0  503    0  0.00000000000E+00 -0.00000000000E+00 -0.12579454945E+04  0.12579454945E+04  0.00000000000E+00 0. -1.
         25    2    1    2    0    0 -0.26494397785E+02  0.25858522706E+02 -0.71068509754E+03  0.72254322069E+03  0.12499912640E+03 0.  0.
          4    1    3    3  502    0  0.33412475153E+02  0.52257241522E+02 -0.27107582481E+03  0.27808439093E+03  0.12700000000E+01 0.  1.
         -4    1    3    3    0  502 -0.59906872937E+02 -0.26398718816E+02 -0.43960927273E+03  0.44445882976E+03  0.12700000000E+01 0.  1.
          2    1    1    2  503    0 -0.42097585479E+02 -0.33603585972E+03 -0.33965906385E+03  0.47964631279E+03  0.00000000000E+00 0. -1.
         -1    1    1    2    0  501  0.68591983263E+02  0.31017733701E+03  0.59914376596E+02  0.32327167071E+03  0.00000000000E+00 0.  1.
<mgrwt>
<rscale>  0 0.13140932E+03</rscale>
<asrwt>0</asrwt>
<pdfrwt beam="2">  1        2 0.19353008E+00 0.54359422E+02</pdfrwt>
<pdfrwt beam="1">  1       -1 0.41156263E-01 0.31767096E+03</pdfrwt>
<totfact> 0.13915527E+02</totfact>
</mgrwt>
</event>
<event>
 7    1  0.3113151E-004  0.4895107E+02  0.7546771E-02  0.1544672E+00
          3   -1    0    0  503    0 -0.00000000000E+00  0.00000000000E+00  0.21752345789E+02  0.21752345789E+02  0.00000000000E+00 0. -1.
          1   -1    0    0  502    0  0.00000000000E+00 -0.00000000000E+00 -0.20700251740E+04  0.20700251740E+04  0.00000000000E+00 0. -1.
         25    2    1    2    0    0 -0.28148621291E+02  0.31011420444E+02 -0.24498410186E+03  0.27820297528E+03  0.12500252881E+03 0.  0.
          4    1    3    3  501    0  0.81174709748E+01 -0.32737840735E+02 -0.15242959306E+02  0.37035391984E+02  0.12700000000E+01 0. -1.
         -4    1    3    3    0  501 -0.36266092265E+02  0.63749261178E+02 -0.22974114256E+03  0.24116758330E+03  0.12700000000E+01 0. -1.
          1    1    1    2  502    0  0.92219482565E+01 -0.48349050371E+02 -0.17737879631E+04  0.17744707417E+04  0.00000000000E+00 0. -1.
          3    1    1    2  503    0  0.18926673034E+02  0.17337629928E+02 -0.29500763207E+02  0.39103802800E+02  0.00000000000E+00 0. -1.
<mgrwt>
<rscale>  0 0.35446352E+02</rscale>
<asrwt>0</asrwt>
<pdfrwt beam="2">  1        1 0.31846546E+00 0.48951075E+02</pdfrwt>
<pdfrwt beam="1">  1        3 0.33465142E-02 0.25667340E+02</pdfrwt>
<totfact> 0.60602866E+02</totfact>
</mgrwt>
</event>
<event>
 7    1  0.3113151E-004  0.7362575E+02  0.7546771E-02  0.1412786E+00
          2   -1    0    0  503    0  0.00000000000E+00  0.00000000000E+00  0.18003642178E+03  0.18003642178E+03  0.00000000000E+00 0. -1.
         -1   -1    0    0    0  501 -0.00000000000E+00 -0.00000000000E+00 -0.10574778601E+03  0.10574778601E+03  0.00000000000E+00 0.  1.
         25    2    1    2    0    0  0.67120487742E+02 -0.49670436957E+02  0.75479048191E+02  0.16820390045E+03  0.12499261270E+03 0.  0.
          4    1    3    3  502    0  0.18363830391E+02 -0.26909765380E+02  0.10279844472E+03  0.10784479068E+03  0.12700000000E+01 0. -1.
         -4    1    3    3    0  502  0.48756657351E+02 -0.22760671577E+02 -0.27319396526E+02  0.60359109778E+02  0.12700000000E+01 0. -1.
          2    1    1    2  503    0 -0.27005953075E+02  0.66432357965E+02  0.10705518172E+02  0.72506467336E+02  0.00000000000E+00 0. -1.
         -1    1    1    2    0  501 -0.40114534667E+02 -0.16761921008E+02 -0.11895930594E+02  0.45073839997E+02  0.00000000000E+00 0.  1.
<mgrwt>
<rscale>  0 0.56576783E+02</rscale>
<asrwt>0</asrwt>
<pdfrwt beam="1">  1        2 0.27697911E-01 0.73625753E+02</pdfrwt>
<pdfrwt beam="2">  1       -1 0.16268890E-01 0.43475716E+02</pdfrwt>
<totfact> 0.54731931E+03</totfact>
</mgrwt>
</event>
<event>
 7    1  0.3113151E-004  0.1606794E+03  0.7546771E-02  0.1265445E+00
          1   -1    0    0  502    0  0.00000000000E+00  0.00000000000E+00  0.20082984188E+04  0.20082984188E+04  0.00000000000E+00 0. -1.
          3   -1    0    0  503    0 -0.00000000000E+00 -0.00000000000E+00 -0.20898336630E+03  0.20898336630E+03  0.00000000000E+00 0. -1.
         25    2    1    2    0    0  0.15135205229E+03 -0.86690599936E+02  0.76054977654E+03  0.79023633091E+03  0.12495916233E+03 0.  0.
          4    1    3    3  501    0  0.10999398881E+03 -0.11705962060E+03  0.62445634728E+03  0.64478599156E+03  0.12700000000E+01 0.  1.
         -4    1    3    3    0  501  0.41358063477E+02  0.30369020668E+02  0.13609342926E+03  0.14545033936E+03  0.12700000000E+01 0.  1.
          1    1    1    2  502    0 -0.15908120824E+03  0.15308426325E+02  0.12208760536E+04  0.12312918082E+04  0.00000000000E+00 0. -1.
          3    1    1    2  503    0  0.77291559465E+01  0.71382173611E+02 -0.18211077767E+03  0.19575364595E+03  0.00000000000E+00 0. -1.
<mgrwt>
<rscale>  0 0.10740897E+03</rscale>
<asrwt>0</asrwt>
<pdfrwt beam="1">  1        1 0.30896897E+00 0.16067941E+03</pdfrwt>
<pdfrwt beam="2">  1        3 0.32151288E-01 0.71799405E+02</pdfrwt>
<totfact> 0.16978339E+01</totfact>
</mgrwt>
</event>
<event>
 7    1  0.3113151E-004  0.1917453E+03  0.7546771E-02  0.1273595E+00
          1   -1    0    0  503    0 -0.00000000000E+00  0.00000000000E+00  0.22108891024E+04  0.22108891024E+04  0.00000000000E+00 0.  1.
          2   -1    0    0  502    0  0.00000000000E+00 -0.00000000000E+00 -0.45903889567E+02  0.45903889567E+02  0.00000000000E+00 0. -1.
         25    2    1    2    0    0 -0.13369764235E+03 -0.16783492904E+03  0.14492694811E+04  0.14703924172E+04  0.12501283434E+03 0.  0.
          4    1    3    3  501    0 -0.14299297245E+03 -0.10782839886E+03  0.89046604577E+03  0.90829804873E+03  0.12700000000E+01 0.  1.
         -4    1    3    3    0  501  0.92953301025E+01 -0.60006530181E+02  0.55880343531E+03  0.56209436845E+03  0.12700000000E+01 0.  1.
          2    1    1    2  502    0  0.53026050563E+02  0.16733923450E+02  0.55615001200E+01  0.55881271603E+02  0.00000000000E+00 0. -1.
          1    1    1    2  503    0  0.80671591784E+02  0.15110100559E+03  0.71015423168E+03  0.73051930323E+03  0.00000000000E+00 0.  1.
<mgrwt>
<rscale>  0 0.10325587E+03</rscale>
<asrwt>0</asrwt>
<pdfrwt beam="2">  1        2 0.70621385E-02 0.55603833E+02</pdfrwt>
<pdfrwt beam="1">  1        1 0.34013670E+00 0.19174531E+03</pdfrwt>
<totfact> 0.30952636E+02</totfact>
</mgrwt>
</event>
<event>
 7    1  0.3113151E-004  0.3020682E+02  0.7546771E-02  0.1640139E+00
          2   -1    0    0  503    0  0.00000000000E+00  0.00000000000E+00  0.10107030748E+04  0.10107030748E+04  0.00000000000E+00 0. -1.
         -2   -1    0    0    0  501 -0.00000000000E+00 -0.00000000000E+00 -0.24633103869E+02  0.24633103869E+02  0.00000000000E+00 0.  1.
         25    2    1    2    0    0  0.46085938384E+01 -0.34691506472E+02  0.20903419695E+03  0.24604841845E+03  0.12497915414E+03 0.  0.
          4    1    3    3  502    0 -0.48821003117E+02 -0.51570578364E+02  0.91466409030E+02  0.11580471398E+03  0.12700000000E+01 0. -1.
         -4    1    3    3    0  502  0.53429596955E+02  0.16879071892E+02  0.11756778792E+03  0.13024370448E+03  0.12700000000E+01 0. -1.
          2    1    1    2  503    0 -0.22688130252E+02  0.20032372829E+02  0.75960741005E+03  0.76021014504E+03  0.00000000000E+00 0. -1.
         -2    1    1    2    0  501  0.18079536414E+02  0.14659133642E+02  0.17428363964E+02  0.29077615214E+02  0.00000000000E+00 0.  1.
<mgrwt>
<rscale>  0 0.26515767E+02</rscale>
<asrwt>0</asrwt>
<pdfrwt beam="1">  1        2 0.15549275E+00 0.30206818E+02</pdfrwt>
<pdfrwt beam="2">  1       -2 0.37897091E-02 0.23275735E+02</pdfrwt>
<totfact> 0.64983948E+03</totfact>
</mgrwt>
</event>
<event>
 7    1  0.3113151E-004  0.4350802E+02  0.7546771E-02  0.1535982E+00
          2   -1    0    0  502    0  0.00000000000E+00  0.00000000000E+00  0.55329544164E+03  0.55329544164E+03  0.00000000000E+00 0. -1.
          1   -1    0    0  503    0 -0.00000000000E+00 -0.00000000000E+00 -0.12115935753E+03  0.12115935753E+03  0.00000000000E+00 0. -1.
         25    2    1    2    0    0  0.13415594898E+02 -0.63013171444E+02  0.33620220701E+03  0.36441301035E+03  0.12495711325E+03 0.  0.
          4    1    3    3  501    0 -0.55519550416E+02 -0.34909586321E+02  0.17344399981E+03  0.18543336719E+03  0.12700000000E+01 0.  1.
         -4    1    3    3    0  501  0.68935145313E+02 -0.28103585123E+02  0.16275820720E+03  0.17897964317E+03  0.12700000000E+01 0.  1.
          2    1    1    2  502    0  0.70894940063E+01  0.40355982224E+02  0.19867310726E+03  0.20285430677E+03  0.00000000000E+00 0. -1.
          1    1    1    2  503    0 -0.20505088904E+02  0.22657189220E+02 -0.10273923016E+03  0.10718748205E+03  0.00000000000E+00 0. -1.
<mgrwt>
<rscale>  0 0.36462708E+02</rscale>
<asrwt>0</asrwt>
<pdfrwt beam="1">  1        2 0.85122374E-01 0.43508018E+02</pdfrwt>
<pdfrwt beam="2">  1        1 0.18639902E-01 0.30558254E+02</pdfrwt>
<totfact> 0.19945691E+03</totfact>
</mgrwt>
</event>
<event>
 7    1  0.3113151E-004  0.4918214E+02  0.7546771E-02  0.1505591E+00
         -1   -1    0    0    0  501  0.00000000000E+00  0.00000000000E+00  0.45810477967E+02  0.45810477967E+02  0.00000000000E+00 0.  1.
         -1   -1    0    0    0  502 -0.00000000000E+00 -0.00000000000E+00 -0.55287773145E+03  0.55287773145E+03  0.00000000000E+00 0.  1.
         25    2    1    2    0    0  0.77808169604E+02 -0.10201553687E+02 -0.12825974800E+03  0.19553589648E+03  0.12500216358E+03 0.  0.
          4    1    3    3  503    0  0.92433136890E+02 -0.49578793621E+02 -0.82901793703E+02  0.13370213862E+03  0.12700000000E+01 0.  1.
         -4    1    3    3    0  503 -0.14624967286E+02  0.39377239933E+02 -0.45357954296E+02  0.61833757857E+02  0.12700000000E+01 0.  1.
         -1    1    1    2    0  502 -0.45180158374E+02  0.15874525480E+02 -0.36354784284E+03  0.36668826174E+03  0.00000000000E+00 0.  1.
         -1    1    1    2    0  501 -0.32628011229E+02 -0.56729717928E+01 -0.15259662653E+02  0.36464051201E+02  0.00000000000E+00 0.  1.
<mgrwt>
<rscale>  0 0.40358272E+02</rscale>
<asrwt>0</asrwt>
<pdfrwt beam="1">  1       -1 0.70477661E-02 0.33117514E+02</pdfrwt>
<pdfrwt beam="2">  1       -1 0.85058109E-01 0.49182137E+02</pdfrwt>
<totfact> 0.11198100E+03</totfact>
</mgrwt>
</event>
<event>
 7    1  0.3113151E-004  0.1526829E+03  0.7546771E-02  0.1226511E+00
          1   -1    0    0  503    0 -0.00000000000E+00  0.00000000000E+00  0.46928383032E+03  0.46928383032E+03  0.00000000000E+00 0. -1.
          2   -1    0    0  502    0  0.00000000000E+00 -0.00000000000E+00 -0.55893783143E+03  0.55893783143E+03  0.00000000000E+00 0. -1.
         25    2    1    2    0    0  0.11519813434E+03  0.18874303013E+03  0.29721296205E+02  0.25573105149E+03  0.12498189337E+03 0.  0.
          4    1    3    3  501    0  0.86271988383E+02  0.32754876421E+02 -0.80635678742E+01  0.92641092047E+02  0.12700000000E+01 0. -1.
         -4    1    3    3    0  501  0.28926145959E+02  0.15598815371E+03  0.37784864079E+02  0.16308995944E+03  0.12700000000E+01 0. -1.
          2    1    1    2  502    0 -0.10283457450E+03 -0.43808204467E+02 -0.42209063563E+03  0.43664014151E+03  0.00000000000E+00 0. -1.
          1    1    1    2  503    0 -0.12363559845E+02 -0.14493482566E+03  0.30271533832E+03  0.33585046874E+03  0.00000000000E+00 0. -1.
<mgrwt>
<rscale>  0 0.13063858E+03</rscale>
<asrwt>0</asrwt>
<pdfrwt beam="2">  1        2 0.85990436E-01 0.11177705E+03</pdfrwt>
<pdfrwt beam="1">  1        1 0.72197512E-01 0.15268285E+03</pdfrwt>
<totfact> 0.37890440E+02</totfact>
</mgrwt>
</event>
<event>
 7    1  0.3113151E-004  0.7315152E+02  0.7546771E-02  0.1362074E+00
          2   -1    0    0  502    0  0.00000000000E+00  0.00000000000E+00  0.76093479785E+03  0.76093479785E+03  0.00000000000E+00 0. -1.
          1   -1    0    0  503    0 -0.00000000000E+00 -0.00000000000E+00 -0.50071548023E+03  0.50071548023E+03  0.00000000000E+00 0. -1.
         25    2    1    2    0    0 -0.13779127636E+02  0.85124531599E+01  0.90793768776E+02  0.15534159854E+03  0.12500071028E+03 0.  0.
          4    1    3    3  501    0  0.50511575545E+02 -0.24950834597E+01  0.10121868767E+02  0.51591761289E+02  0.12700000000E+01 0. -1.
         -4    1    3    3    0  501 -0.64290703181E+02  0.11007536620E+02  0.80671900009E+02  0.10374983725E+03  0.12700000000E+01 0. -1.
          2    1    1    2  502    0  0.76906506203E+02  0.10332400503E+02  0.63317044110E+03  0.63790765529E+03  0.00000000000E+00 0. -1.
          1    1    1    2  503    0 -0.63127378567E+02 -0.18844853663E+02 -0.46374489225E+03  0.46840102426E+03  0.00000000000E+00 0. -1.
<mgrwt>
<rscale>  0 0.69420700E+02</rscale>
<asrwt>0</asrwt>
<pdfrwt beam="1">  1        2 0.11706689E+00 0.73151524E+02</pdfrwt>
<pdfrwt beam="2">  1        1 0.77033151E-01 0.65880152E+02</pdfrwt>
<totfact> 0.25229646E+02</totfact>
</mgrwt>
</event>
<event>
 7    1  0.3113151E-004  0.1471542E+03  0.7546771E-02  0.1337695E+00
          2   -1    0    0  503    0  0.00000000000E+00  0.00000000000E+00  0.21935898377E+03  0.21935898377E+03  0.00000000000E+00 0. -1.
          2   -1    0    0  502    0 -0.00000000000E+00 -0.00000000000E+00 -0.45732802293E+03  0.45732802293E+03  0.00000000000E+00 0. -1.
         25    2    1    2    0    0  0.10548640995E+03 -0.11493641360E+03 -0.31187635164E+03  0.37044445716E+03  0.12499790105E+03 0.  0.
          4    1    3    3  501    0  0.10409141036E+03 -0.22700335890E+02 -0.14762787729E+03  0.18206023732E+03  0.12700000000E+01 0. -1.
         -4    1    3    3    0  501  0.13949995886E+01 -0.92236077710E+02 -0.16424847435E+03  0.18838421983E+03  0.12700000000E+01 0. -1.
          2    1    1    2  502    0 -0.65544203100E+02  0.12046845403E+03 -0.71979025465E+02  0.15488599383E+03  0.00000000000E+00 0. -1.
          2    1    1    2  503    0 -0.39942206851E+02 -0.55320404345E+01  0.14588633795E+03  0.15135655572E+03  0.00000000000E+00 0. -1.
<mgrwt>
<rscale>  0 0.77030971E+02</rscale>
<asrwt>0</asrwt>
<pdfrwt beam="1">  1        2 0.33747537E-01 0.40323484E+02</pdfrwt>
<pdfrwt beam="2">  1        2 0.70358156E-01 0.14715421E+03</pdfrwt>
<totfact> 0.15904627E+03</totfact>
</mgrwt>
</event>
<event>
 7    1  0.3113151E-004  0.9446415E+02  0.7546771E-02  0.1416221E+00
          1   -1    0    0  503    0  0.00000000000E+00  0.00000000000E+00  0.36494904254E+03  0.36494904254E+03  0.00000000000E+00 0. -1.
         -2   -1    0    0    0  501 -0.00000000000E+00 -0.00000000000E+00 -0.62693659172E+02  0.62693659172E+02  0.00000000000E+00 0.  1.
         25    2    1    2    0    0 -0.74531991595E+02  0.63283719896E+02  0.23336701297E+03  0.28221737157E+03  0.12500654022E+03 0.  0.
          4    1    3    3  502    0  0.16835983722E+02  0.15998396462E+02  0.14421547196E+03  0.14607913708E+03  0.12700000000E+01 0.  1.
         -4    1    3    3    0  502 -0.91367975317E+02  0.47285323434E+02  0.89151541010E+02  0.13613823449E+03  0.12700000000E+01 0.  1.
          1    1    1    2  503    0  0.46895142726E+02 -0.81307765869E+02  0.59456338430E+02  0.11110879075E+03  0.00000000000E+00 0. -1.
         -2    1    1    2    0  501  0.27636848869E+02  0.18024045973E+02  0.94320319632E+01  0.34316539389E+02  0.00000000000E+00 0.  1.
<mgrwt>
<rscale>  0 0.55828599E+02</rscale>
<asrwt>0</asrwt>
<pdfrwt beam="1">  1        1 0.56146005E-01 0.94464146E+02</pdfrwt>
<pdfrwt beam="2">  1       -2 0.96451785E-02 0.32994873E+02</pdfrwt>
<totfact> 0.36502376E+03</totfact>
</mgrwt>
</event>
<event>
 7    1  0.3113151E-004  0.1131808E+03  0.7546771E-02  0.1340296E+00
          1   -1    0    0  503    0 -0.00000000000E+00  0.00000000000E+00  0.88040426856E+03  0.88040426856E+03  0.00000000000E+00 0. -1.
          2   -1    0    0  502    0  0.00000000000E+00 -0.00000000000E+00 -0.36033452891E+03  0.36033452891E+03  0.00000000000E+00 0. -1.
         25    2    1    2    0    0  0.56642386948E+01 -0.64354435506E+02 -0.19329008995E+03  0.23907670779E+03  0.12499214522E+03 0.  0.
          4    1    3    3  501    0  0.39514698600E+02 -0.15991101046E+02 -0.64539526685E+01  0.43132274727E+02  0.12700000000E+01 0.  1.
         -4    1    3    3    0  501 -0.33850459905E+02 -0.48363334460E+02 -0.18683613728E+03  0.19594443306E+03  0.12700000000E+01 0.  1.
          2    1    1    2  502    0 -0.13597445434E+02 -0.49420853836E+02 -0.13565769174E+03  0.14501834589E+03  0.00000000000E+00 0. -1.
          1    1    1    2  503    0  0.79332067388E+01  0.11377528934E+03  0.84901752134E+03  0.85664374379E+03  0.00000000000E+00 0. -1.
<mgrwt>
<rscale>  0 0.76166533E+02</rscale>
<asrwt>0</asrwt>
<pdfrwt beam="2">  1        2 0.55436081E-01 0.51257305E+02</pdfrwt>
<pdfrwt beam="1">  1        1 0.13544681E+00 0.11318076E+03</pdfrwt>
<totfact> 0.25433005E+02</totfact>
</mgrwt>
</event>
<event>
 7    1  0.3113151E-004  0.1874746E+03  0.7546771E-02  0.1289561E+00
          2   -1    0    0  503    0  0.00000000000E+00  0.00000000000E+00  0.83707092310E+03  0.83707092310E+03  0.00000000000E+00 0. -1.
         -3   -1    0    0    0  501 -0.00000000000E+00 -0.00000000000E+00 -0.14293967004E+03  0.14293967004E+03  0.00000000000E+00 0.  1.
         25    2    1    2    0    0  0.98312997284E+02 -0.20596749354E+03  0.98406007939E+02  0.27818194337E+03  0.12495358093E+03 0.  0.
          4    1    3    3  502    0 -0.16124887889E+02 -0.21273335294E+02 -0.17478595261E+02  0.31932444257E+02  0.12700000000E+01 0. -1.
         -4    1    3    3    0  502  0.11443788517E+03 -0.18469415825E+03  0.11588460320E+03  0.24624949911E+03  0.12700000000E+01 0. -1.
          2    1    1    2  503    0 -0.66137543065E+02  0.16918006941E+03  0.62084856313E+03  0.64687634740E+03  0.00000000000E+00 0. -1.
         -3    1    1    2    0  501 -0.32175454219E+02  0.36787424132E+02 -0.25123318009E+02  0.54952302374E+02  0.00000000000E+00 0.  1.
<mgrwt>
<rscale>  0 0.95720718E+02</rscale>
<asrwt>0</asrwt>
<pdfrwt beam="1">  1        2 0.12878014E+00 0.18747463E+03</pdfrwt>
<pdfrwt beam="2">  1       -3 0.21990719E-01 0.48873044E+02</pdfrwt>
<totfact> 0.35064992E+02</totfact>
</mgrwt>
</event>
<event>
 7    1  0.3113151E-004  0.3021422E+02  0.7546771E-02  0.1622470E+00
         -1   -1    0    0    0  502 -0.00000000000E+00  0.00000000000E+00  0.32186940486E+03  0.32186940486E+03  0.00000000000E+00 0.  1.
         -2   -1    0    0    0  501  0.00000000000E+00 -0.00000000000E+00 -0.69265733656E+02  0.69265733656E+02  0.00000000000E+00 0.  1.
         25    2    1    2    0    0  0.16008279638E+02 -0.38757181614E+02  0.10793963668E+03  0.17039729134E+03  0.12500355030E+03 0.  0.
          4    1    3    3  503    0 -0.28128001572E+01  0.36011251534E+02  0.81030056789E+02  0.88725447787E+02  0.12700000000E+01 0. -1.
         -4    1    3    3    0  503  0.18821079795E+02 -0.74768433148E+02  0.26909579893E+02  0.81671843557E+02  0.12700000000E+01 0. -1.
         -2    1    1    2    0  501  0.78533719370E+01  0.29018480137E+02 -0.31006182176E+02  0.43187162136E+02  0.00000000000E+00 0.  1.
         -1    1    1    2    0  502 -0.23861651575E+02  0.97387014770E+01  0.17567021670E+03  0.17755068504E+03  0.00000000000E+00 0.  1.
<mgrwt>
<rscale>  0 0.27905115E+02</rscale>
<asrwt>0</asrwt>
<pdfrwt beam="2">  1       -2 0.10656267E-01 0.30214222E+02</pdfrwt>
<pdfrwt beam="1">  1       -1 0.49518369E-01 0.25772480E+02</pdfrwt>
<totfact> 0.16061794E+03</totfact>
</mgrwt>
</event>
<event>
 7    1  0.3113151E-004  0.7645404E+02  0.7546771E-02  0.1371759E+00
          1   -1    0    0  503    0 -0.00000000000E+00  0.00000000000E+00  0.87521031742E+03  0.87521031742E+03  0.00000000000E+00 0. -1.
          2   -1    0    0  502    0  0.00000000000E+00 -0.00000000000E+00 -0.16033702160E+03  0.16033702160E+03  0.00000000000E+00 0. -1.
         25    2    1    2    0    0 -0.91669695879E+02 -0.92409244559E+02  0.98546280423E+02  0.20562553065E+03  0.12501075093E+03 0.  0.
          4    1    3    3  501    0 -0.97706510267E+02 -0.10542243658E+03  0.11476360123E+03  0.18393680804E+03  0.12700000000E+01 0.  1.
         -4    1    3    3    0  501  0.60368143873E+01  0.13013192022E+02 -0.16217320806E+02  0.21688722615E+02  0.12700000000E+01 0.  1.
          2    1    1    2  502    0  0.52594214368E+02  0.49336244800E+02 -0.93297650426E+02  0.11791805634E+03  0.00000000000E+00 0. -1.
          1    1    1    2  503    0  0.39075481512E+02  0.43072999760E+02  0.70962466582E+03  0.71200375203E+03  0.00000000000E+00 0. -1.
<mgrwt>
<rscale>  0 0.66680566E+02</rscale>
<asrwt>0</asrwt>
<pdfrwt beam="2">  1        2 0.24667234E-01 0.76454037E+02</pdfrwt>
<pdfrwt beam="1">  1        1 0.13464774E+00 0.58156483E+02</pdfrwt>
<totfact> 0.62498237E+02</totfact>
</mgrwt>
</event>
<event>
 7    1  0.3113151E-004  0.1605270E+03  0.7546771E-02  0.1242821E+00
          1   -1    0    0  503    0  0.00000000000E+00  0.00000000000E+00  0.34360003474E+03  0.34360003474E+03  0.00000000000E+00 0. -1.
          1   -1    0    0  502    0 -0.00000000000E+00 -0.00000000000E+00 -0.10698194405E+04  0.10698194405E+04  0.00000000000E+00 0. -1.
         25    2    1    2    0    0  0.63275593566E+02 -0.20886394764E+03 -0.57201282831E+03  0.62486094751E+03  0.12499831443E+03 0.  0.
          4    1    3    3  501    0  0.92551927886E+02 -0.12507458596E+03 -0.28861610369E+03  0.32788775460E+03  0.12700000000E+01 0.  1.
         -4    1    3    3    0  501 -0.29276334320E+02 -0.83789361677E+02 -0.28339672462E+03  0.29697319291E+03  0.12700000000E+01 0.  1.
          1    1    1    2  502    0 -0.63501673206E+01  0.13921202035E+03 -0.45434145823E+03  0.47523307113E+03  0.00000000000E+00 0. -1.
          1    1    1    2  503    0 -0.56925426246E+02  0.69651927289E+02  0.30013488075E+03  0.31332545663E+03  0.00000000000E+00 0. -1.
<mgrwt>
<rscale>  0 0.12016740E+03</rscale>
<asrwt>0</asrwt>
<pdfrwt beam="1">  1        1 0.52861545E-01 0.89954962E+02</pdfrwt>
<pdfrwt beam="2">  1        1 0.16458760E+00 0.16052704E+03</pdfrwt>
<totfact> 0.13133746E+02</totfact>
</mgrwt>
</event>
<event>
 7    1  0.3113151E-004  0.1003050E+03  0.7546771E-02  0.1378783E+00
          2   -1    0    0  502    0  0.00000000000E+00  0.00000000000E+00  0.50350831735E+03  0.50350831735E+03  0.00000000000E+00 0.  1.
          1   -1    0    0  503    0 -0.00000000000E+00 -0.00000000000E+00 -0.15086145339E+04  0.15086145339E+04  0.00000000000E+00 0.  1.
         25    2    1    2    0    0  0.27059522176E+02 -0.84198828124E+02 -0.27946942757E+02  0.15564153682E+03  0.12498638316E+03 0.  0.
          4    1    3    3  501    0 -0.80346565584E+01 -0.91364249524E+02 -0.58291237785E+02  0.10868055530E+03  0.12700000000E+01 0.  1.
         -4    1    3    3    0  501  0.35094178734E+02  0.71654214004E+01  0.30344295028E+02  0.46960981523E+02  0.12700000000E+01 0.  1.
          2    1    1    2  502    0  0.11304393641E+02  0.10090384493E+03  0.43348454124E+03  0.44521705126E+03  0.00000000000E+00 0.  1.
          1    1    1    2  503    0 -0.38363915817E+02 -0.16705016810E+02 -0.14106438150E+04  0.14112642631E+04  0.00000000000E+00 0.  1.
<mgrwt>
<rscale>  0 0.64784835E+02</rscale>
<asrwt>0</asrwt>
<pdfrwt beam="1">  1        2 0.77462820E-01 0.10030499E+03</pdfrwt>
<pdfrwt beam="2">  1        1 0.23209454E+00 0.41843131E+02</pdfrwt>
<totfact> 0.72734752E+01</totfact>
</mgrwt>
</event>
<event>
 7    1  0.3113151E-004  0.2253940E+03  0.7546771E-02  0.1308264E+00
          2   -1    0    0  503    0  0.00000000000E+00  0.00000000000E+00  0.12504773341E+04  0.12504773341E+04  0.00000000000E+00 0. -1.
         -3   -1    0    0    0  501 -0.00000000000E+00 -0.00000000000E+00 -0.28765472578E+03  0.28765472578E+03  0.00000000000E+00 0.  1.
         25    2    1    2    0    0  0.19904718719E+03  0.67423063550E+02  0.87920650733E+02  0.25984937745E+03  0.12500402356E+03 0.  0.
          4    1    3    3  502    0  0.45952631450E+02 -0.33707410244E+02  0.41710628692E+02  0.70634434155E+02  0.12700000000E+01 0. -1.
         -4    1    3    3    0  502  0.15309455574E+03  0.10113047379E+03  0.46210022041E+02  0.18921494329E+03  0.12700000000E+01 0. -1.
          2    1    1    2  503    0  0.98381945739E+01  0.32757406311E+02  0.10096828146E+04  0.10102619581E+04  0.00000000000E+00 0. -1.
         -3    1    1    2    0  501 -0.20888538177E+03 -0.10018046986E+03 -0.13478085706E+03  0.26802072436E+03  0.00000000000E+00 0.  1.
<mgrwt>
<rscale>  0 0.87801629E+02</rscale>
<asrwt>0</asrwt>
<pdfrwt beam="1">  1        2 0.19238113E+00 0.34202891E+02</pdfrwt>
<pdfrwt beam="2">  1       -3 0.44254574E-01 0.22539399E+03</pdfrwt>
<totfact> 0.68070653E+01</totfact>
</mgrwt>
</event>
<event>
 7    1  0.3113151E-004  0.1375257E+03  0.7546771E-02  0.1325807E+00
          1   -1    0    0  503    0 -0.00000000000E+00  0.00000000000E+00  0.15716614972E+03  0.15716614972E+03  0.00000000000E+00 0. -1.
          2   -1    0    0  502    0  0.00000000000E+00 -0.00000000000E+00 -0.84027428242E+03  0.84027428242E+03  0.00000000000E+00 0.  1.
         25    2    1    2    0    0  0.11432084805E+03 -0.61838362718E+02 -0.59041522909E+02  0.18976450013E+03  0.12502569607E+03 0.  0.
          4    1    3    3  501    0  0.12170915731E+03 -0.22060001131E+02 -0.76757888099E+02  0.14557866914E+03  0.12700000000E+01 0. -1.
         -4    1    3    3    0  501 -0.73883092587E+01 -0.39778361588E+02  0.17716365191E+02  0.44185830985E+02  0.12700000000E+01 0. -1.
          2    1    1    2  502    0 -0.18046218871E+02 -0.44359297372E+02 -0.65851436825E+03  0.66025342595E+03  0.00000000000E+00 0.  1.
          1    1    1    2  503    0 -0.96274629182E+02  0.10619766009E+03  0.34447758458E+02  0.14742250607E+03  0.00000000000E+00 0. -1.
<mgrwt>
<rscale>  0 0.81154485E+02</rscale>
<asrwt>0</asrwt>
<pdfrwt beam="2">  1        2 0.12927297E+00 0.47889595E+02</pdfrwt>
<pdfrwt beam="1">  1        1 0.24179408E-01 0.13752571E+03</pdfrwt>
<totfact> 0.95420082E+02</totfact>
</mgrwt>
</event>
<event>
 7    1  0.3113151E-004  0.5648904E+02  0.7546771E-02  0.1424540E+00
         -1   -1    0    0    0  501 -0.00000000000E+00  0.00000000000E+00  0.43040367905E+02  0.43040367905E+02  0.00000000000E+00 0.  1.
          1   -1    0    0  503    0  0.00000000000E+00 -0.00000000000E+00 -0.39553515971E+03  0.39553515971E+03  0.00000000000E+00 0. -1.
         25    2    1    2    0    0 -0.21410164212E+02 -0.59549069328E+02 -0.25325237675E+03  0.28942574005E+03  0.12500402347E+03 0.  0.
          4    1    3    3  502    0  0.36409620053E+02 -0.49556211378E+02 -0.54465570252E+02  0.82155886956E+02  0.12700000000E+01 0.  1.
         -4    1    3    3    0  502 -0.57819784265E+02 -0.99928579495E+01 -0.19878680650E+03  0.20726985309E+03  0.12700000000E+01 0.  1.
          1    1    1    2  503    0 -0.34259712486E+02  0.38796272157E+02 -0.42106460488E+02  0.66722055182E+02  0.00000000000E+00 0. -1.
         -1    1    1    2    0  501  0.55669876697E+02  0.20752797171E+02 -0.57135954558E+02  0.82427732379E+02  0.00000000000E+00 0.  1.
<mgrwt>
<rscale>  0 0.54071741E+02</rscale>
<asrwt>0</asrwt>
<pdfrwt beam="2">  1        1 0.60851566E-01 0.51757885E+02</pdfrwt>
<pdfrwt beam="1">  1       -1 0.66215948E-02 0.56489040E+02</pdfrwt>
<totfact> 0.63401019E+03</totfact>
</mgrwt>
</event>
<event>
 7    1  0.3113151E-004  0.4301801E+02  0.7546771E-02  0.1546078E+00
          2   -1    0    0  503    0  0.00000000000E+00  0.00000000000E+00  0.17481579997E+02  0.17481579997E+02  0.00000000000E+00 0. -1.
         -1   -1    0    0    0  501 -0.00000000000E+00 -0.00000000000E+00 -0.63101973862E+03  0.63101973862E+03  0.00000000000E+00 0.  1.
         25    2    1    2    0    0  0.21810720902E+02  0.15719693085E+02 -0.35540698040E+03  0.37770585790E+03  0.12499910831E+03 0.  0.
          4    1    3    3  502    0  0.66278179214E+02  0.39072430924E+02 -0.19579183370E+03  0.21036992880E+03  0.12700000000E+01 0.  1.
         -4    1    3    3    0  502 -0.44467458313E+02 -0.23352737839E+02 -0.15961514670E+03  0.16733592910E+03  0.12700000000E+01 0.  1.
          2    1    1    2  503    0  0.28124315881E+02 -0.68365041534E+01 -0.12557738875E+03  0.12886968417E+03  0.00000000000E+00 0. -1.
         -1    1    1    2    0  501 -0.49935036783E+02 -0.88831889312E+01 -0.13255378947E+03  0.14192577654E+03  0.00000000000E+00 0.  1.
<mgrwt>
<rscale>  0 0.35285740E+02</rscale>
<asrwt>0</asrwt>
<pdfrwt beam="1">  1        2 0.26894737E-02 0.28943305E+02</pdfrwt>
<pdfrwt beam="2">  1       -1 0.97079964E-01 0.43018011E+02</pdfrwt>
<totfact> 0.36683438E+03</totfact>
</mgrwt>
</event>
<event>
 7    1  0.3113151E-004  0.1830616E+03  0.7546771E-02  0.1344015E+00
          2   -1    0    0  502    0  0.00000000000E+00  0.00000000000E+00  0.12023538463E+04  0.12023538463E+04  0.00000000000E+00 0. -1.
          2   -1    0    0  503    0 -0.00000000000E+00 -0.00000000000E+00 -0.11976418909E+04  0.11976418909E+04  0.00000000000E+00 0. -1.
         25    2    1    2    0    0  0.11720231683E+03 -0.13584318778E+03 -0.32485155386E+03  0.39159437294E+03  0.12501146400E+03 0.  0.
          4    1    3    3  501    0  0.14725614387E+02 -0.10419662548E+03 -0.20716084963E+03  0.23235965872E+03  0.12700000000E+01 0.  1.
         -4    1    3    3    0  501  0.10247670244E+03 -0.31646562299E+02 -0.11769070424E+03  0.15923471422E+03  0.12700000000E+01 0.  1.
          2    1    1    2  502    0 -0.14119487009E+03  0.11670708368E+03  0.11615213374E+04  0.11758776943E+04  0.00000000000E+00 0. -1.
          2    1    1    2  503    0  0.23992553263E+02  0.19136104099E+02 -0.83195782814E+03  0.83252366987E+03  0.00000000000E+00 0. -1.
<mgrwt>
<rscale>  0 0.74953532E+02</rscale>
<asrwt>0</asrwt>
<pdfrwt beam="1">  1        2 0.18497752E+00 0.18306159E+03</pdfrwt>
<pdfrwt beam="2">  1        2 0.18425260E+00 0.30689299E+02</pdfrwt>
<totfact> 0.73672183E+01</totfact>
</mgrwt>
</event>
<event>
 7    1  0.3113151E-004  0.6070426E+02  0.7546771E-02  0.1418627E+00
          2   -1    0    0  502    0  0.00000000000E+00  0.00000000000E+00  0.17854760221E+03  0.17854760221E+03  0.00000000000E+00 0. -1.
          2   -1    0    0  503    0 -0.00000000000E+00 -0.00000000000E+00 -0.11451545003E+04  0.11451545003E+04  0.00000000000E+00 0. -1.
         25    2    1    2    0    0 -0.67406773611E+02 -0.47517293591E+02 -0.87227594291E+02  0.17331783497E+03  0.12501540863E+03 0.  0.
          4    1    3    3  501    0 -0.58760887038E+02 -0.37247731438E+02 -0.11953298023E+03  0.13831117672E+03  0.12700000000E+01 0. -1.
         -4    1    3    3    0  501 -0.86458865731E+01 -0.10269562153E+02  0.32305385937E+02  0.35006658252E+02  0.12700000000E+01 0. -1.
          2    1    1    2  502    0  0.68600513663E+01  0.49930559625E+02  0.12987566043E+03  0.13931190998E+03  0.00000000000E+00 0. -1.
          2    1    1    2  503    0  0.60546722245E+02 -0.24132660342E+01 -0.10092549642E+04  0.10110723576E+04  0.00000000000E+00 0. -1.
<mgrwt>
<rscale>  0 0.55312486E+02</rscale>
<asrwt>0</asrwt>
<pdfrwt beam="1">  1        2 0.27468862E-01 0.50399614E+02</pdfrwt>
<pdfrwt beam="2">  1        2 0.17617762E+00 0.60704257E+02</pdfrwt>
<totfact> 0.67556199E+02</totfact>
</mgrwt>
</event>
<event>
 7    1  0.3113151E-004  0.1680723E+03  0.7546771E-02  0.1243712E+00
          2   -1    0    0  502    0  0.00000000000E+00  0.00000000000E+00  0.81556977506E+03  0.81556977506E+03  0.00000000000E+00 0. -1.
          2   -1    0    0  503    0 -0.00000000000E+00 -0.00000000000E+00 -0.66522133804E+03  0.66522133804E+03  0.00000000000E+00 0. -1.
         25    2    1    2    0    0 -0.10273855740E+03  0.13262620855E+01  0.10212684351E+03  0.19134627030E+03  0.12500613123E+03 0.  0.
          4    1    3    3  501    0  0.86326295969E+00  0.75136513154E+01 -0.25622958014E+02  0.26746010103E+02  0.12700000000E+01 0.  1.
         -4    1    3    3    0  501 -0.10360182036E+03 -0.61873892299E+01  0.12774980152E+03  0.16460026019E+03  0.12700000000E+01 0.  1.
          2    1    1    2  502    0  0.18689991036E+03 -0.14243548251E+02  0.65265769611E+03  0.67904088496E+03  0.00000000000E+00 0. -1.
          2    1    1    2  503    0 -0.84161352960E+02  0.12917286166E+02 -0.60443610260E+03  0.61040395784E+03  0.00000000000E+00 0. -1.
<mgrwt>
<rscale>  0 0.11962790E+03</rscale>
<asrwt>0</asrwt>
<pdfrwt beam="1">  1        2 0.12547227E+00 0.16807234E+03</pdfrwt>
<pdfrwt beam="2">  1        2 0.10234174E+00 0.85146871E+02</pdfrwt>
<totfact> 0.25308697E+02</totfact>
</mgrwt>
</event>
<event>
 7    1  0.3113151E-004  0.9793444E+02  0.7546771E-02  0.1321379E+00
         -3   -1    0    0    0  501 -0.00000000000E+00  0.00000000000E+00  0.20848216851E+04  0.20848216851E+04  0.00000000000E+00 0.  1.
          1   -1    0    0  503    0  0.00000000000E+00 -0.00000000000E+00 -0.92592826034E+03  0.92592826034E+03  0.00000000000E+00 0. -1.
         25    2    1    2    0    0  0.44002843458E+02 -0.15570009916E+03  0.30314290997E+02  0.20669289973E+03  0.12499690976E+03 0.  0.
          4    1    3    3  502    0  0.48424947181E+02 -0.10005670244E+03 -0.38891249094E+02  0.11777292290E+03  0.12700000000E+01 0. -1.
         -4    1    3    3    0  502 -0.44221037230E+01 -0.55643396723E+02  0.69205540091E+02  0.88919976830E+02  0.12700000000E+01 0. -1.
          1    1    1    2  503    0 -0.44277320367E+02  0.85752728052E+02 -0.83433443255E+03  0.83989758709E+03  0.00000000000E+00 0. -1.
         -3    1    1    2    0  501  0.27447690827E+00  0.69947371108E+02  0.19629135663E+04  0.19641594586E+04  0.00000000000E+00 0.  1.
<mgrwt>
<rscale>  0 0.82766595E+02</rscale>
<asrwt>0</asrwt>
<pdfrwt beam="2">  1        1 0.14245050E+00 0.97934438E+02</pdfrwt>
<pdfrwt beam="1">  1       -3 0.32074180E+00 0.69947910E+02</pdfrwt>
<totfact> 0.40088260E-01</totfact>
</mgrwt>
</event>
<event>
 7    1  0.3113151E-004  0.1673127E+03  0.7546771E-02  0.1313986E+00
          2   -1    0    0  502    0  0.00000000000E+00  0.00000000000E+00  0.69703815167E+03  0.69703815167E+03  0.00000000000E+00 0. -1.
          1   -1    0    0  503    0 -0.00000000000E+00 -0.00000000000E+00 -0.26221939884E+03  0.26221939884E+03  0.00000000000E+00 0. -1.
         25    2    1    2    0    0 -0.18697951843E+03  0.65370158248E+02 -0.10655224756E+03  0.25731978489E+03  0.12500196931E+03 0.  0.
          4    1    3    3  501    0 -0.16978425855E+03  0.98856433445E+02 -0.91956425263E+02  0.21692599183E+03  0.12700000000E+01 0. -1.
         -4    1    3    3    0  501 -0.17195259882E+02 -0.33486275197E+02 -0.14595822296E+02  0.40393793056E+02  0.12700000000E+01 0. -1.
          2    1    1    2  502    0  0.16306236331E+03 -0.28737491254E+02  0.60358390172E+03  0.62588234050E+03  0.00000000000E+00 0. -1.
          1    1    1    2  503    0  0.23917155120E+02 -0.36632666994E+02 -0.62212901329E+02  0.76055425132E+02  0.00000000000E+00 0. -1.
<mgrwt>
<rscale>  0 0.85555688E+02</rscale>
<asrwt>0</asrwt>
<pdfrwt beam="1">  1        2 0.10723664E+00 0.16731265E+03</pdfrwt>
<pdfrwt beam="2">  1        1 0.40341446E-01 0.43749087E+02</pdfrwt>
<totfact> 0.59931194E+02</totfact>
</mgrwt>
</event>
<event>
 7    1  0.3113151E-004  0.1205612E+03  0.7546771E-02  0.1257306E+00
          1   -1    0    0  503    0 -0.00000000000E+00  0.00000000000E+00  0.30955403399E+03  0.30955403399E+03  0.00000000000E+00 0. -1.
          2   -1    0    0  502    0  0.00000000000E+00 -0.00000000000E+00 -0.49128301187E+03  0.49128301187E+03  0.00000000000E+00 0.  1.
         25    2    1    2    0    0  0.30627707441E+02 -0.78153270901E+02  0.47196412953E+01  0.15063135649E+03  0.12498616055E+03 0.  0.
          4    1    3    3  501    0  0.27306757340E+02  0.30555965088E+02 -0.55808305625E+01  0.41377343663E+02  0.12700000000E+01 0.  1.
         -4    1    3    3    0  501  0.33209501015E+01 -0.10870923599E+03  0.10300471858E+02  0.10925401283E+03  0.12700000000E+01 0.  1.
          2    1    1    2  502    0 -0.12480404810E+03  0.34882519466E+02 -0.39587071353E+03  0.41654106930E+03  0.00000000000E+00 0.  1.
          1    1    1    2  503    0  0.94176340658E+02  0.43270751435E+02  0.20942209435E+03  0.23366462006E+03  0.00000000000E+00 0. -1.
<mgrwt>
<rscale>  0 0.11178161E+03</rscale>
<asrwt>0</asrwt>
<pdfrwt beam="2">  1        2 0.75582002E-01 0.12056117E+03</pdfrwt>
<pdfrwt beam="1">  1        1 0.47623698E-01 0.10364141E+03</pdfrwt>
<totfact> 0.73841313E+02</totfact>
</mgrwt>
</event>
<event>
 7    1  0.3113151E-004  0.5183274E+02  0.7546771E-02  0.1511818E+00
          2   -1    0    0  503    0  0.00000000000E+00  0.00000000000E+00  0.71818435497E+03  0.71818435497E+03  0.00000000000E+00 0. -1.
         -2   -1    0    0    0  501 -0.00000000000E+00 -0.00000000000E+00 -0.40844011407E+02  0.40844011407E+02  0.00000000000E+00 0.  1.
         25    2    1    2    0    0  0.74482908166E+02  0.20210081633E+02  0.11951097514E+03  0.18938613042E+03  0.12501232823E+03 0.  0.
          4    1    3    3  502    0  0.10416176050E+03  0.13630219338E+02  0.56203171920E+02  0.11914640013E+03  0.12700000000E+01 0.  1.
         -4    1    3    3    0  502 -0.29678852334E+02  0.65798622956E+01  0.63307803216E+02  0.70239730294E+02  0.12700000000E+01 0.  1.
          2    1    1    2  503    0 -0.50972913998E+02 -0.13769362073E+01  0.51362449577E+03  0.51614945178E+03  0.00000000000E+00 0. -1.
         -2    1    1    2    0  501 -0.23509994169E+02 -0.18833145426E+02  0.44204872654E+02  0.53492784175E+02  0.00000000000E+00 0.  1.
<mgrwt>
<rscale>  0 0.39514149E+02</rscale>
<asrwt>0</asrwt>
<pdfrwt beam="1">  1        2 0.11048989E+00 0.51832740E+02</pdfrwt>
<pdfrwt beam="2">  1       -2 0.62836946E-02 0.30123200E+02</pdfrwt>
<totfact> 0.48264168E+03</totfact>
</mgrwt>
</event>
<event>
 7    1  0.3113151E-004  0.8681638E+02  0.7546771E-02  0.1438165E+00
          2   -1    0    0  503    0  0.00000000000E+00  0.00000000000E+00  0.42520790680E+03  0.42520790680E+03  0.00000000000E+00 0. -1.
         -2   -1    0    0    0  501 -0.00000000000E+00 -0.00000000000E+00 -0.41792990964E+03  0.41792990964E+03  0.00000000000E+00 0.  1.
         25    2    1    2    0    0 -0.10460807559E+03  0.16683849575E+02  0.19272404212E+03  0.25296044245E+03  0.12500091487E+03 0.  0.
          4    1    3    3  502    0 -0.60381990617E+02  0.71091642071E+02  0.11910885924E+03  0.15128958858E+03  0.12700000000E+01 0.  1.
         -4    1    3    3    0  502 -0.44226084973E+02 -0.54407792496E+02  0.73615182884E+02  0.10167085387E+03  0.12700000000E+01 0.  1.
          2    1    1    2  503    0  0.25049665734E+02  0.17186710785E+02  0.19636326491E+03  0.19869927173E+03  0.00000000000E+00 0. -1.
         -2    1    1    2    0  501  0.79558409857E+02 -0.33870560360E+02 -0.38180930987E+03  0.39147810225E+03  0.00000000000E+00 0.  1.
<mgrwt>
<rscale>  0 0.51355365E+02</rscale>
<asrwt>0</asrwt>
<pdfrwt beam="1">  1        2 0.65416601E-01 0.30378755E+02</pdfrwt>
<pdfrwt beam="2">  1       -2 0.64296909E-01 0.86816380E+02</pdfrwt>
<totfact> 0.17688905E+02</totfact>
</mgrwt>
</event>
<event>
 7    1  0.3113151E-004  0.7485139E+02  0.7546771E-02  0.1398961E+00
          2   -1    0    0  502    0  0.00000000000E+00  0.00000000000E+00  0.56539246312E+03  0.56539246312E+03  0.00000000000E+00 0. -1.
          1   -1    0    0  503    0 -0.00000000000E+00 -0.00000000000E+00 -0.11537944732E+04  0.11537944732E+04  0.00000000000E+00 0. -1.
         25    2    1    2    0    0 -0.66594199021E+02 -0.85982587800E+02 -0.38478370539E+02  0.17009696344E+03  0.12499839689E+03 0.  0.
          4    1    3    3  501    0 -0.47182669480E+02  0.16855367005E+02 -0.41978598163E+02  0.65376779516E+02  0.12700000000E+01 0. -1.
         -4    1    3    3    0  501 -0.19411529540E+02 -0.10283795480E+03  0.35002276237E+01  0.10472018392E+03  0.12700000000E+01 0. -1.
          2    1    1    2  502    0  0.63407113797E+02  0.38423257317E+02  0.49628683642E+03  0.50179421358E+03  0.00000000000E+00 0. -1.
          1    1    1    2  503    0  0.31870852240E+01  0.47559330483E+02 -0.10462104760E+04  0.10472957593E+04  0.00000000000E+00 0. -1.
<mgrwt>
<rscale>  0 0.59731618E+02</rscale>
<asrwt>0</asrwt>
<pdfrwt beam="1">  1        2 0.86983457E-01 0.74851389E+02</pdfrwt>
<pdfrwt beam="2">  1        1 0.17750684E+00 0.47665999E+02</pdfrwt>
<totfact> 0.10693149E+02</totfact>
</mgrwt>
</event>
<event>
 7    1  0.3113151E-004  0.5690329E+02  0.7546771E-02  0.1493285E+00
          2   -1    0    0  503    0  0.00000000000E+00  0.00000000000E+00  0.39603707917E+03  0.39603707917E+03  0.00000000000E+00 0.  1.
          2   -1    0    0  502    0 -0.00000000000E+00 -0.00000000000E+00 -0.15191852775E+04  0.15191852775E+04  0.00000000000E+00 0. -1.
         25    2    1    2    0    0  0.56224462430E+02 -0.18082298950E+02  0.12042210958E+03  0.18334300082E+03  0.12500004706E+03 0.  0.
          4    1    3    3  501    0 -0.96623145278E+01  0.44851686425E+02  0.52216780900E+02  0.69521501744E+02  0.12700000000E+01 0.  1.
         -4    1    3    3    0  501  0.65886776958E+02 -0.62933985374E+02  0.68205328675E+02  0.11382149908E+03  0.12700000000E+01 0.  1.
          2    1    1    2  502    0 -0.23711790799E+00  0.31150782291E+02 -0.14841746160E+04  0.14845015050E+04  0.00000000000E+00 0. -1.
          2    1    1    2  503    0 -0.55987344522E+02 -0.13068483341E+02  0.24060430812E+03  0.24737785085E+03  0.00000000000E+00 0.  1.
<mgrwt>
<rscale>  0 0.42102654E+02</rscale>
<asrwt>0</asrwt>
<pdfrwt beam="1">  1        2 0.60928783E-01 0.56903293E+02</pdfrwt>
<pdfrwt beam="2">  1        2 0.23372080E+00 0.31151685E+02</pdfrwt>
<totfact> 0.20229702E+02</totfact>
</mgrwt>
</event>
<event>
 7    1  0.3113151E-004  0.7530809E+02  0.7546771E-02  0.1433276E+00
          1   -1    0    0  503    0  0.00000000000E+00  0.00000000000E+00  0.24321554839E+03  0.24321554839E+03  0.00000000000E+00 0. -1.
         -2   -1    0    0    0  501 -0.00000000000E+00 -0.00000000000E+00 -0.26894038837E+03  0.26894038837E+03  0.00000000000E+00 0.  1.
         25    2    1    2    0    0  0.47985147409E+02  0.11337760577E+02 -0.32475914791E+02  0.13824614252E+03  0.12500476668E+03 0.  0.
          4    1    3    3  502    0  0.67597241722E+02 -0.55259462511E+01 -0.66829929154E+02  0.95224868081E+02  0.12700000000E+01 0. -1.
         -4    1    3    3    0  502 -0.19612094313E+02  0.16863706828E+02  0.34354014362E+02  0.43021274436E+02  0.12700000000E+01 0. -1.
          1    1    1    2  503    0  0.31758662795E+02 -0.17647260533E+02  0.17971127768E+03  0.18334716194E+03  0.00000000000E+00 0. -1.
         -2    1    1    2    0  501 -0.79743810204E+02  0.63094999562E+01 -0.17296020286E+03  0.19056263230E+03  0.00000000000E+00 0.  1.
<mgrwt>
<rscale>  0 0.52307923E+02</rscale>
<asrwt>0</asrwt>
<pdfrwt beam="1">  1        1 0.37417777E-01 0.36332334E+02</pdfrwt>
<pdfrwt beam="2">  1       -2 0.41375445E-01 0.75308095E+02</pdfrwt>
<totfact> 0.54805373E+02</totfact>
</mgrwt>
</event>
<event>
 7    1  0.3113151E-004  0.4498467E+02  0.7546771E-02  0.1568733E+00
          2   -1    0    0  502    0  0.00000000000E+00  0.00000000000E+00  0.32262322655E+03  0.32262322655E+03  0.00000000000E+00 0. -1.
          1   -1    0    0  503    0 -0.00000000000E+00 -0.00000000000E+00 -0.58897102080E+03  0.58897102080E+03  0.00000000000E+00 0. -1.
         25    2    1    2    0    0 -0.85111297753E+01 -0.51298556710E+02 -0.11476100478E+03  0.17747923252E+03  0.12499923402E+03 0.  0.
          4    1    3    3  501    0 -0.10129048680E+02 -0.55824366895E+02  0.55908019743E+01  0.57024797528E+02  0.12700000000E+01 0. -1.
         -4    1    3    3    0  501  0.16179189047E+01  0.45258101849E+01 -0.12035180676E+03  0.12045443499E+03  0.12700000000E+01 0. -1.
          2    1    1    2  502    0 -0.13884539621E+02  0.42772629974E+02  0.28920093461E+03  0.29267637229E+03  0.00000000000E+00 0. -1.
          1    1    1    2  503    0  0.22395669396E+02  0.85259267360E+01 -0.44078772407E+03  0.44143864254E+03  0.00000000000E+00 0. -1.
<mgrwt>
<rscale>  0 0.32832875E+02</rscale>
<asrwt>0</asrwt>
<pdfrwt beam="1">  1        2 0.49634343E-01 0.44984669E+02</pdfrwt>
<pdfrwt beam="2">  1        1 0.90610926E-01 0.23963669E+02</pdfrwt>
<totfact> 0.53297252E+02</totfact>
</mgrwt>
</event>
<event>
 7    1  0.3113151E-004  0.1833552E+03  0.7546771E-02  0.1268105E+00
          2   -1    0    0  503    0  0.00000000000E+00  0.00000000000E+00  0.36059509304E+04  0.36059509304E+04  0.00000000000E+00 0. -1.
         -1   -1    0    0    0  501 -0.00000000000E+00 -0.00000000000E+00 -0.22894477293E+02  0.22894477293E+02  0.00000000000E+00 0.  1.
         25    2    1    2    0    0  0.36850514450E+02 -0.19380958491E+03  0.12293685444E+04  0.12513557506E+04  0.12499632388E+03 0.  0.
          4    1    3    3  502    0  0.10631175047E+02 -0.81169317135E+02  0.86977488938E+03  0.87361974052E+03  0.12700000000E+01 0.  1.
         -4    1    3    3    0  502  0.26219339403E+02 -0.11264026777E+03  0.35959365502E+03  0.37773601009E+03  0.12700000000E+01 0.  1.
          2    1    1    2  503    0  0.48937798165E+02  0.36938218708E+02  0.16599368006E+04  0.16610687891E+04  0.00000000000E+00 0. -1.
         -1    1    1    2    0  501 -0.85788312615E+02  0.15687136620E+03  0.69375110807E+03  0.71642086797E+03  0.00000000000E+00 0.  1.
<mgrwt>
<rscale>  0 0.10602896E+03</rscale>
<asrwt>0</asrwt>
<pdfrwt beam="1">  1        2 0.55476123E+00 0.61313458E+02</pdfrwt>
<pdfrwt beam="2">  1       -1 0.35222301E-02 0.18335519E+03</pdfrwt>
<totfact> 0.37209592E+02</totfact>
</mgrwt>
</event>
<event>
 7    1  0.3113151E-004  0.3778210E+02  0.7546771E-02  0.1618913E+00
          1   -1    0    0  502    0  0.00000000000E+00  0.00000000000E+00  0.20933342554E+04  0.20933342554E+04  0.00000000000E+00 0.  1.
          1   -1    0    0  503    0 -0.00000000000E+00 -0.00000000000E+00 -0.16018626065E+02  0.16018626065E+02  0.00000000000E+00 0. -1.
         25    2    1    2    0    0 -0.32741535029E+02  0.13669202341E+02  0.10457093531E+04  0.10537521796E+04  0.12500699811E+03 0.  0.
          4    1    3    3  501    0  0.26320251851E+02  0.39477690790E+02  0.19859013932E+03  0.20418349606E+03  0.12700000000E+01 0.  1.
         -4    1    3    3    0  501 -0.59061786879E+02 -0.25808488449E+02  0.84711921377E+03  0.84956868350E+03  0.12700000000E+01 0.  1.
          1    1    1    2  502    0  0.11327416218E+02  0.17735603052E+02  0.10131099365E+04  0.10133284786E+04  0.00000000000E+00 0.  1.
          1    1    1    2  503    0  0.21414118811E+02 -0.31404805393E+02  0.18496339775E+02  0.42272223401E+02  0.00000000000E+00 0. -1.
<mgrwt>
<rscale>  0 0.28197471E+02</rscale>
<asrwt>0</asrwt>
<pdfrwt beam="1">  1        1 0.32205121E+00 0.21044286E+02</pdfrwt>
<pdfrwt beam="2">  1        1 0.24644057E-02 0.37782103E+02</pdfrwt>
<totfact> 0.17423136E+03</totfact>
</mgrwt>
</event>
<event>
 7    1  0.3113151E-004  0.5735939E+02  0.7546771E-02  0.1433751E+00
         -1   -1    0    0    0  501 -0.00000000000E+00  0.00000000000E+00  0.14995436723E+02  0.14995436723E+02  0.00000000000E+00 0.  1.
          1   -1    0    0  503    0  0.00000000000E+00 -0.00000000000E+00 -0.17072439946E+04  0.17072439946E+04  0.00000000000E+00 0. -1.
         25    2    1    2    0    0  0.76096884053E+02 -0.29100203877E+02 -0.46170825678E+03  0.48521861080E+03  0.12500011306E+03 0.  0.
          4    1    3    3  502    0  0.76053273777E+02 -0.61221345771E+02 -0.42653621033E+03  0.43756931480E+03  0.12700000000E+01 0. -1.
         -4    1    3    3    0  502  0.43610275857E-01  0.32121141893E+02 -0.35172046447E+02  0.47649296004E+02  0.12700000000E+01 0. -1.
          1    1    1    2  503    0 -0.46430007330E+02 -0.10170560052E+02 -0.10072440397E+04  0.10083648851E+04  0.00000000000E+00 0. -1.
         -1    1    1    2    0  501 -0.29666876723E+02  0.39270763930E+02 -0.22329626132E+03  0.22865593540E+03  0.00000000000E+00 0.  1.
<mgrwt>
<rscale>  0 0.52214397E+02</rscale>
<asrwt>0</asrwt>
<pdfrwt beam="2">  1        1 0.26265302E+00 0.47530894E+02</pdfrwt>
<pdfrwt beam="1">  1       -1 0.23069894E-02 0.57359393E+02</pdfrwt>
<totfact> 0.29039627E+03</totfact>
</mgrwt>
</event>
<event>
 7    1  0.3113151E-004  0.4619068E+02  0.7546771E-02  0.1482487E+00
          1   -1    0    0  503    0  0.00000000000E+00  0.00000000000E+00  0.27280462052E+02  0.27280462052E+02  0.00000000000E+00 0. -1.
         -1   -1    0    0    0  501 -0.00000000000E+00 -0.00000000000E+00 -0.77224165617E+03  0.77224165617E+03  0.00000000000E+00 0.  1.
         25    2    1    2    0    0  0.10495777785E+02 -0.12450206996E+02 -0.18146289839E+03  0.22094844255E+03  0.12499704704E+03 0.  0.
          4    1    3    3  502    0  0.11372522743E+02  0.66372169537E+01 -0.19628645715E+03  0.19673172872E+03  0.12700000000E+01 0. -1.
         -4    1    3    3    0  502 -0.87674495796E+00 -0.19087423950E+02  0.14823558760E+02  0.24216713837E+02  0.12700000000E+01 0. -1.
          1    1    1    2  503    0  0.37624279173E+02  0.17234330155E+02 -0.60756958519E+02  0.73512016212E+02  0.00000000000E+00 0. -1.
         -1    1    1    2    0  501 -0.48120056957E+02 -0.47841231584E+01 -0.50274133721E+03  0.50506165946E+03  0.00000000000E+00 0.  1.
<mgrwt>
<rscale>  0 0.43721163E+02</rscale>
<asrwt>0</asrwt>
<pdfrwt beam="1">  1        1 0.41969938E-02 0.41383675E+02</pdfrwt>
<pdfrwt beam="2">  1       -1 0.11880642E+00 0.46190681E+02</pdfrwt>
<totfact> 0.13118857E+03</totfact>
</mgrwt>
</event>
<event>
 7    1  0.3113151E-004  0.6658361E+02  0.7546771E-02  0.1507445E+00
          1   -1    0    0  503    0 -0.00000000000E+00  0.00000000000E+00  0.69735236901E+02  0.69735236901E+02  0.00000000000E+00 0. -1.
          2   -1    0    0  502    0  0.00000000000E+00 -0.00000000000E+00 -0.15550738890E+04  0.15550738890E+04  0.00000000000E+00 0. -1.
         25    2    1    2    0    0 -0.62918359571E+02 -0.29293477181E+02 -0.31571268333E+03  0.34657730884E+03  0.12499801924E+03 0.  0.
          4    1    3    3  501    0 -0.66757737948E+02  0.25227711187E+02 -0.92891971502E+02  0.11714761738E+03  0.12700000000E+01 0.  1.
         -4    1    3    3    0  501  0.38393783768E+01 -0.54521188368E+02 -0.22282071182E+03  0.22942969146E+03  0.12700000000E+01 0.  1.
          2    1    1    2  502    0 -0.35236096738E+01  0.23897088715E+02 -0.12033041908E+04  0.12035466183E+04  0.00000000000E+00 0. -1.
          1    1    1    2  503    0  0.66441969245E+02  0.53963884654E+01  0.33678222021E+02  0.74685198829E+02  0.00000000000E+00 0. -1.
<mgrwt>
<rscale>  0 0.40104343E+02</rscale>
<asrwt>0</asrwt>
<pdfrwt beam="2">  1        2 0.23924213E+00 0.24155469E+02</pdfrwt>
<pdfrwt beam="1">  1        1 0.10728498E-01 0.66583610E+02</pdfrwt>
<totfact> 0.11514521E+03</totfact>
</mgrwt>
</event>
<event>
 7    1  0.3113151E-004  0.6564828E+02  0.7546771E-02  0.1451920E+00
         -3   -1    0    0    0  501 -0.00000000000E+00  0.00000000000E+00  0.29681641206E+02  0.29681641206E+02  0.00000000000E+00 0.  1.
          2   -1    0    0  503    0  0.00000000000E+00 -0.00000000000E+00 -0.20958646132E+04  0.20958646132E+04  0.00000000000E+00 0. -1.
         25    2    1    2    0    0 -0.61482835245E+02 -0.73922945783E+02 -0.10247770119E+04  0.10368431048E+04  0.12502383334E+03 0.  0.
          4    1    3    3  502    0  0.34393059766E+02 -0.43895613421E+02 -0.43613641343E+03  0.43968885756E+03  0.12700000000E+01 0.  1.
         -4    1    3    3    0  502 -0.95875895011E+02 -0.30027332363E+02 -0.58864059847E+03  0.59715424725E+03  0.12700000000E+01 0.  1.
          2    1    1    2  503    0  0.44857021108E+02  0.41680448114E+02 -0.10497049043E+04  0.10514893239E+04  0.00000000000E+00 0. -1.
         -3    1    1    2    0  501  0.16625814137E+02  0.32242497669E+02  0.82989442021E+01  0.37213825745E+02  0.00000000000E+00 0.  1.
<mgrwt>
<rscale>  0 0.48800620E+02</rscale>
<asrwt>0</asrwt>
<pdfrwt beam="2">  1        2 0.32244074E+00 0.65648277E+02</pdfrwt>
<pdfrwt beam="1">  1       -3 0.45664059E-02 0.36276664E+02</pdfrwt>
<totfact> 0.96228407E+02</totfact>
</mgrwt>
</event>
<event>
 7    1  0.3113151E-004  0.4463248E+02  0.7546771E-02  0.1547610E+00
          1   -1    0    0  503    0 -0.00000000000E+00  0.00000000000E+00  0.15833319921E+04  0.15833319921E+04  0.00000000000E+00 0. -1.
          2   -1    0    0  502    0  0.00000000000E+00 -0.00000000000E+00 -0.22955343351E+02  0.22955343351E+02  0.00000000000E+00 0. -1.
         25    2    1    2    0    0  0.35927811487E+02  0.98102889825E+01  0.11704809602E+04  0.11777258055E+04  0.12500138151E+03 0.  0.
          4    1    3    3  501    0  0.14021655281E+01  0.65156031291E+02  0.58033149516E+03  0.58398076309E+03  0.12700000000E+01 0.  1.
         -4    1    3    3    0  501  0.34525645959E+02 -0.55345742309E+02  0.59014946505E+03  0.59374504244E+03  0.12700000000E+01 0.  1.
          2    1    1    2  502    0 -0.28893880419E+01  0.27470372446E+02 -0.70460008981E+01  0.28506421280E+02  0.00000000000E+00 0. -1.
          1    1    1    2  503    0 -0.33038423445E+02 -0.37280661428E+02  0.39694168940E+03  0.40005510861E+03  0.00000000000E+00 0. -1.
<mgrwt>
<rscale>  0 0.35111742E+02</rscale>
<asrwt>0</asrwt>
<pdfrwt beam="2">  1        2 0.35315925E-02 0.27621910E+02</pdfrwt>
<pdfrwt beam="1">  1        1 0.24358945E+00 0.44632482E+02</pdfrwt>
<totfact> 0.19991486E+03</totfact>
</mgrwt>
</event>
<event>
 7    1  0.3113151E-004  0.2720131E+03  0.7546771E-02  0.1110663E+00
          2   -1    0    0  502    0  0.00000000000E+00  0.00000000000E+00  0.17734806602E+04  0.17734806602E+04  0.00000000000E+00 0. -1.
          2   -1    0    0  503    0 -0.00000000000E+00 -0.00000000000E+00 -0.19306942808E+04  0.19306942808E+04  0.00000000000E+00 0. -1.
         25    2    1    2    0    0  0.15141613365E+03  0.34339106402E+03 -0.77420956625E+03  0.86940822598E+03  0.12500377011E+03 0.  0.
          4    1    3    3  501    0  0.37745523845E+02  0.90886724043E+01 -0.46761632079E+02  0.60791378263E+02  0.12700000000E+01 0.  1.
         -4    1    3    3    0  501  0.11367060980E+03  0.33430239162E+03 -0.72744793417E+03  0.80861684771E+03  0.12700000000E+01 0.  1.
          2    1    1    2  502    0 -0.24195069141E+03 -0.12371347854E+03  0.17022516147E+04  0.17238055928E+04  0.00000000000E+00 0. -1.
          2    1    1    2  503    0  0.90534557758E+02 -0.21967758548E+03 -0.10852556691E+04  0.11109611222E+04  0.00000000000E+00 0. -1.
<mgrwt>
<rscale>  0 0.25422602E+03</rscale>
<asrwt>0</asrwt>
<pdfrwt beam="1">  1        2 0.27284318E+00 0.27201306E+03</pdfrwt>
<pdfrwt beam="2">  1        2 0.29702989E+00 0.23760208E+03</pdfrwt>
<totfact> 0.12565291E+01</totfact>
</mgrwt>
</event>
<event>
 7    1  0.3113151E-004  0.9505449E+02  0.7546771E-02  0.1370154E+00
          2   -1    0    0  502    0  0.00000000000E+00  0.00000000000E+00  0.19662950702E+03  0.19662950702E+03  0.00000000000E+00 0. -1.
          3   -1    0    0  503    0 -0.00000000000E+00 -0.00000000000E+00 -0.19033346043E+04  0.19033346043E+04  0.00000000000E+00 0. -1.
         25    2    1    2    0    0  0.12067597634E+03  0.16828358411E+02 -0.13433986723E+03  0.22027194084E+03  0.12500657215E+03 0.  0.
          4    1    3    3  501    0  0.33074283914E+02 -0.18147165485E+02 -0.11881724037E+03  0.12466907147E+03  0.12700000000E+01 0. -1.
         -4    1    3    3    0  501  0.87601692422E+02  0.34975523895E+02 -0.15522626860E+02  0.95602869369E+02  0.12700000000E+01 0. -1.
          2    1    1    2  502    0 -0.28562542662E+02 -0.37829052467E+02  0.14868129838E+03  0.15605442814E+03  0.00000000000E+00 0. -1.
          3    1    1    2  503    0 -0.92113433674E+02  0.21000694056E+02 -0.17210465284E+04  0.17236377424E+04  0.00000000000E+00 0. -1.
<mgrwt>
<rscale>  0 0.67124357E+02</rscale>
<asrwt>0</asrwt>
<pdfrwt beam="1">  1        2 0.30250693E-01 0.47401013E+02</pdfrwt>
<pdfrwt beam="2">  1        3 0.29282071E+00 0.95054494E+02</pdfrwt>
<totfact> 0.53665340E+00</totfact>
</mgrwt>
</event>
<event>
 7    1  0.3113151E-004  0.5052811E+02  0.7546771E-02  0.1542285E+00
          2   -1    0    0  502    0  0.00000000000E+00  0.00000000000E+00  0.21548334637E+04  0.21548334637E+04  0.00000000000E+00 0. -1.
          2   -1    0    0  503    0 -0.00000000000E+00 -0.00000000000E+00 -0.68540540948E+01  0.68540540948E+01  0.00000000000E+00 0.  1.
         25    2    1    2    0    0  0.44726647293E+02  0.38194118054E+02  0.14496152539E+04  0.14561812621E+04  0.12498087903E+03 0.  0.
          4    1    3    3  501    0  0.76612082811E+02  0.57466735061E+02  0.11975832669E+04  0.12014071462E+04  0.12700000000E+01 0.  1.
         -4    1    3    3    0  501 -0.31885435517E+02 -0.19272617006E+02  0.25203198704E+03  0.25477411595E+03  0.12700000000E+01 0.  1.
          2    1    1    2  502    0 -0.20387162586E+02 -0.44927682318E+02  0.64017564909E+03  0.64207397917E+03  0.00000000000E+00 0. -1.
          2    1    1    2  503    0 -0.24339484708E+02  0.67335642633E+01  0.58188506651E+02  0.63432276562E+02  0.00000000000E+00 0.  1.
<mgrwt>
<rscale>  0 0.35721476E+02</rscale>
<asrwt>0</asrwt>
<pdfrwt beam="1">  1        2 0.33151230E+00 0.50528113E+02</pdfrwt>
<pdfrwt beam="2">  1        2 0.10544716E-02 0.25253740E+02</pdfrwt>
<totfact> 0.10501007E+04</totfact>
</mgrwt>
</event>
<event>
 7    1  0.3113151E-004  0.4172871E+02  0.7546771E-02  0.1507301E+00
          2   -1    0    0  503    0  0.00000000000E+00  0.00000000000E+00  0.18786235347E+04  0.18786235347E+04  0.00000000000E+00 0. -1.
         -1   -1    0    0    0  501 -0.00000000000E+00 -0.00000000000E+00 -0.71841840945E+01  0.71841840945E+01  0.00000000000E+00 0.  1.
         25    2    1    2    0    0  0.17121894761E+02  0.42743999301E+02  0.88299052718E+03  0.89298118466E+03  0.12499166500E+03 0.  0.
          4    1    3    3  502    0 -0.27644435475E+02  0.53730964203E+02  0.21308681167E+03  0.22149228776E+03  0.12700000000E+01 0. -1.
         -4    1    3    3    0  502  0.44766330236E+02 -0.10986964901E+02  0.66990371551E+03  0.67148889691E+03  0.12700000000E+01 0. -1.
          2    1    1    2  503    0 -0.41217431434E+02 -0.12612824534E+02  0.75343332297E+03  0.75466531135E+03  0.00000000000E+00 0. -1.
         -1    1    1    2    0  501  0.24095536673E+02 -0.30131174767E+02  0.23501550046E+03  0.23816122278E+03  0.00000000000E+00 0.  1.
<mgrwt>
<rscale>  0 0.40123927E+02</rscale>
<asrwt>0</asrwt>
<pdfrwt beam="1">  1        2 0.28901861E+00 0.41728712E+02</pdfrwt>
<pdfrwt beam="2">  1       -1 0.11052606E-02 0.38580858E+02</pdfrwt>
<totfact> 0.14244327E+04</totfact>
</mgrwt>
</event>
<event>
 7    1  0.3113151E-004  0.4154404E+02  0.7546771E-02  0.1553700E+00
         -1   -1    0    0    0  501 -0.00000000000E+00  0.00000000000E+00  0.87254539562E+01  0.87254539562E+01  0.00000000000E+00 0.  1.
          2   -1    0    0  503    0  0.00000000000E+00 -0.00000000000E+00 -0.15758775292E+04  0.15758775292E+04  0.00000000000E+00 0. -1.
         25    2    1    2    0    0 -0.21316735118E+02 -0.20721632890E+02 -0.59406871124E+03  0.60780554544E+03  0.12500463242E+03 0.  0.
          4    1    3    3  502    0  0.31098785908E+02 -0.24741858924E+02 -0.65470836059E+02  0.76598546606E+02  0.12700000000E+01 0.  1.
         -4    1    3    3    0  502 -0.52415521027E+02  0.40202260337E+01 -0.52859787518E+03  0.53120699883E+03  0.12700000000E+01 0.  1.
          2    1    1    2  503    0 -0.28289443336E+02  0.37594746824E+01 -0.50096260181E+03  0.50177480474E+03  0.00000000000E+00 0. -1.
         -1    1    1    2    0  501  0.49606178454E+02  0.16962158207E+02 -0.47212076217E+03  0.47502263296E+03  0.00000000000E+00 0.  1.
<mgrwt>
<rscale>  0 0.34432402E+02</rscale>
<asrwt>0</asrwt>
<pdfrwt beam="2">  1        2 0.24244258E+00 0.28538154E+02</pdfrwt>
<pdfrwt beam="1">  1       -1 0.13423782E-02 0.41544042E+02</pdfrwt>
<totfact> 0.16042102E+04</totfact>
</mgrwt>
</event>
<event>
 7    1  0.3113151E-004  0.1005289E+03  0.7546771E-02  0.1416021E+00
         -1   -1    0    0    0  501 -0.00000000000E+00  0.00000000000E+00  0.14131338207E+03  0.14131338207E+03  0.00000000000E+00 0.  1.
          2   -1    0    0  503    0  0.00000000000E+00 -0.00000000000E+00 -0.50741001260E+03  0.50741001260E+03  0.00000000000E+00 0. -1.
         25    2    1    2    0    0 -0.41595775182E+02 -0.73880898191E+02 -0.17767112753E+02  0.15208898829E+03  0.12500717753E+03 0.  0.
          4    1    3    3  502    0  0.42592256174E+02 -0.93067578539E+01 -0.14384101480E+02  0.45926368277E+02  0.12700000000E+01 0. -1.
         -4    1    3    3    0  502 -0.84188031355E+02 -0.64574140337E+02 -0.33830112732E+01  0.10616262002E+03  0.12700000000E+01 0. -1.
          2    1    1    2  503    0  0.72593240716E+02  0.72037579126E+02 -0.41269073072E+03  0.42517388281E+03  0.00000000000E+00 0. -1.
         -1    1    1    2    0  501 -0.30997465534E+02  0.18433190650E+01  0.64361212946E+02  0.71460523554E+02  0.00000000000E+00 0.  1.
<mgrwt>
<rscale>  0 0.55871701E+02</rscale>
<asrwt>0</asrwt>
<pdfrwt beam="2">  1        2 0.78063080E-01 0.10052893E+03</pdfrwt>
<pdfrwt beam="1">  1       -1 0.21740520E-01 0.31052225E+02</pdfrwt>
<totfact> 0.11561245E+03</totfact>
</mgrwt>
</event>
<event>
 7    1  0.3113151E-004  0.2701689E+03  0.7546771E-02  0.1167421E+00
          2   -1    0    0  502    0  0.00000000000E+00  0.00000000000E+00  0.19697777968E+03  0.19697777968E+03  0.00000000000E+00 0. -1.
          2   -1    0    0  503    0 -0.00000000000E+00 -0.00000000000E+00 -0.89250271043E+03  0.89250271043E+03  0.00000000000E+00 0. -1.
         25    2    1    2    0    0 -0.13559956708E+03  0.24283273979E+03 -0.47322340001E+02  0.30858304353E+03  0.12501643407E+03 0.  0.
          4    1    3    3  501    0 -0.13584726856E+03  0.11883235772E+03 -0.36126074751E+02  0.18407149642E+03  0.12700000000E+01 0. -1.
         -4    1    3    3    0  501  0.24770148488E+00  0.12400038207E+03 -0.11196265250E+02  0.12451154712E+03  0.12700000000E+01 0. -1.
          2    1    1    2  502    0 -0.86635083165E+02 -0.83684069126E+02 -0.65129375846E+02  0.13693245291E+03  0.00000000000E+00 0. -1.
          2    1    1    2  503    0  0.22223465024E+03 -0.15914867066E+03 -0.58307321490E+03  0.64396499367E+03  0.00000000000E+00 0. -1.
<mgrwt>
<rscale>  0 0.18039501E+03</rscale>
<asrwt>0</asrwt>
<pdfrwt beam="1">  1        2 0.30304273E-01 0.12045190E+03</pdfrwt>
<pdfrwt beam="2">  1        2 0.13730811E+00 0.27016890E+03</pdfrwt>
<totfact> 0.81346750E+02</totfact>
</mgrwt>
</event>
<event>
 7    1  0.3113151E-004  0.1375932E+03  0.7546771E-02  0.1334359E+00
          3   -1    0    0  503    0 -0.00000000000E+00  0.00000000000E+00  0.11230560507E+04  0.11230560507E+04  0.00000000000E+00 0. -1.
          2   -1    0    0  502    0  0.00000000000E+00 -0.00000000000E+00 -0.26673606749E+03  0.26673606749E+03  0.00000000000E+00 0. -1.
         25    2    1    2    0    0  0.73456314776E+02 -0.11188440041E+03  0.18734955586E+03  0.26198500595E+03  0.12498935165E+03 0.  0.
          4    1    3    3  501    0  0.61474528759E+02  0.22062711227E+01  0.10151107419E+03  0.11870171187E+03  0.12700000000E+01 0.  1.
         -4    1    3    3    0  501  0.11981786018E+02 -0.11409067153E+03  0.85838481675E+02  0.14328329408E+03  0.12700000000E+01 0.  1.
          2    1    1    2  502    0 -0.10909275305E+03  0.85404485151E+02 -0.20788818315E+03  0.24982524201E+03  0.00000000000E+00 0. -1.
          3    1    1    2  503    0  0.35636438277E+02  0.26479915259E+02  0.87685861050E+03  0.87798187023E+03  0.00000000000E+00 0. -1.
<mgrwt>
<rscale>  0 0.78158807E+02</rscale>
<asrwt>0</asrwt>
<pdfrwt beam="2">  1        2 0.41036319E-01 0.13759318E+03</pdfrwt>
<pdfrwt beam="1">  1        3 0.17277785E+00 0.44397541E+02</pdfrwt>
<totfact> 0.18665939E+01</totfact>
</mgrwt>
</event>
<event>
 7    1  0.3113151E-004  0.1891118E+03  0.7546771E-02  0.1297327E+00
          1   -1    0    0  503    0  0.00000000000E+00  0.00000000000E+00  0.72003640716E+03  0.72003640716E+03  0.00000000000E+00 0. -1.
          1   -1    0    0  502    0 -0.00000000000E+00 -0.00000000000E+00 -0.54616002520E+03  0.54616002520E+03  0.00000000000E+00 0. -1.
         25    2    1    2    0    0  0.12201496298E+03 -0.18591698451E+03 -0.47152309483E+02  0.25942638062E+03  0.12500372135E+03 0.  0.
          4    1    3    3  501    0  0.84178085125E+02 -0.19214064011E+03 -0.16691228386E+02  0.21043808021E+03  0.12700000000E+01 0. -1.
         -4    1    3    3    0  501  0.37836877859E+02  0.62236556045E+01 -0.30461081097E+02  0.48988300407E+02  0.12700000000E+01 0. -1.
          1    1    1    2  502    0 -0.41258143101E+02  0.18138550270E+02 -0.37737963658E+03  0.38006135226E+03  0.00000000000E+00 0. -1.
          1    1    1    2  503    0 -0.80756819884E+02  0.16777843424E+03  0.59840832803E+03  0.62670869948E+03  0.00000000000E+00 0. -1.
<mgrwt>
<rscale>  0 0.92320840E+02</rscale>
<asrwt>0</asrwt>
<pdfrwt beam="1">  1        1 0.11077483E+00 0.18911184E+03</pdfrwt>
<pdfrwt beam="2">  1        1 0.84024619E-01 0.45069295E+02</pdfrwt>
<totfact> 0.13928964E+02</totfact>
</mgrwt>
</event>
<event>
 7    1  0.3113151E-004  0.4264244E+02  0.7546771E-02  0.1538075E+00
          2   -1    0    0  503    0  0.00000000000E+00  0.00000000000E+00  0.36387365688E+03  0.36387365688E+03  0.00000000000E+00 0. -1.
         -2   -1    0    0    0  501 -0.00000000000E+00 -0.00000000000E+00 -0.34024320747E+02  0.34024320747E+02  0.00000000000E+00 0.  1.
         25    2    1    2    0    0  0.29223716122E+01  0.61197545164E+01  0.13836457080E+03  0.18658929590E+03  0.12499927696E+03 0.  0.
          4    1    3    3  502    0  0.41687106315E+01 -0.54845841466E+02  0.31108524487E+02  0.63204411794E+02  0.12700000000E+01 0.  1.
         -4    1    3    3    0  502 -0.12463390193E+01  0.60965595983E+02  0.10725604632E+03  0.12338488411E+03  0.12700000000E+01 0.  1.
          2    1    1    2  503    0  0.42208822465E+02 -0.60657372703E+01  0.11292580892E+03  0.12070880739E+03  0.00000000000E+00 0.  1.
         -2    1    1    2    0  501 -0.45131194077E+02 -0.54017246093E-01  0.78558956410E+02  0.90599874332E+02  0.00000000000E+00 0. -1.
<mgrwt>
<rscale>  0 0.36214171E+02</rscale>
<asrwt>0</asrwt>
<pdfrwt beam="1">  1        2 0.55980560E-01 0.42642442E+02</pdfrwt>
<pdfrwt beam="2">  1       -2 0.52345111E-02 0.30754950E+02</pdfrwt>
<totfact> 0.13002605E+04</totfact>
</mgrwt>
</event>
<event>
 7    1  0.3113151E-004  0.3660526E+02  0.7546771E-02  0.1554660E+00
          1   -1    0    0  503    0  0.00000000000E+00  0.00000000000E+00  0.35059515949E+03  0.35059515949E+03  0.00000000000E+00 0. -1.
         -2   -1    0    0    0  501 -0.00000000000E+00 -0.00000000000E+00 -0.31473116287E+02  0.31473116287E+02  0.00000000000E+00 0.  1.
         25    2    1    2    0    0  0.14563996617E+02  0.45433032254E+01  0.21538848761E+03  0.24950022481E+03  0.12500163993E+03 0.  0.
          4    1    3    3  502    0  0.40153583396E+02  0.69264721353E+01  0.93028448100E+01  0.41814376683E+02  0.12700000000E+01 0.  1.
         -4    1    3    3    0  502 -0.25589586779E+02 -0.23831689099E+01  0.20608564280E+03  0.20768584813E+03  0.12700000000E+01 0.  1.
          1    1    1    2  503    0 -0.24212529618E+02  0.30767475115E+02  0.79644730850E+02  0.88747773311E+02  0.00000000000E+00 0. -1.
         -2    1    1    2    0  501  0.96485330002E+01 -0.35310778340E+02  0.24088824744E+02  0.43820277653E+02  0.00000000000E+00 0.  1.
<mgrwt>
<rscale>  0 0.34326888E+02</rscale>
<asrwt>0</asrwt>
<pdfrwt beam="1">  1        1 0.53937714E-01 0.32190324E+02</pdfrwt>
<pdfrwt beam="2">  1       -2 0.48420181E-02 0.36605263E+02</pdfrwt>
<totfact> 0.10726544E+04</totfact>
</mgrwt>
</event>
<event>
 7    1  0.3113151E-004  0.9854811E+02  0.7546771E-02  0.1425096E+00
          1   -1    0    0  502    0  0.00000000000E+00  0.00000000000E+00  0.19284097519E+04  0.19284097519E+04  0.00000000000E+00 0. -1.
          1   -1    0    0  503    0 -0.00000000000E+00 -0.00000000000E+00 -0.93759937370E+02  0.93759937370E+02  0.00000000000E+00 0. -1.
         25    2    1    2    0    0  0.11169965666E+03 -0.44801418040E+02  0.31024088880E+03  0.35547412361E+03  0.12501385171E+03 0.  0.
          4    1    3    3  501    0  0.76268830692E+02  0.34330766995E+02  0.18624032997E+03  0.20416319331E+03  0.12700000000E+01 0. -1.
         -4    1    3    3    0  501  0.35430825968E+02 -0.79132185035E+02  0.12400055883E+03  0.15131093029E+03  0.12700000000E+01 0. -1.
          1    1    1    2  502    0 -0.82803776639E+02  0.50949764923E+02  0.15909359939E+04  0.15939039119E+04  0.00000000000E+00 0. -1.
          1    1    1    2  503    0 -0.28895880021E+02 -0.61483468833E+01 -0.66527068143E+02  0.72791653693E+02  0.00000000000E+00 0. -1.
<mgrwt>
<rscale>  0 0.53957224E+02</rscale>
<asrwt>0</asrwt>
<pdfrwt beam="1">  1        1 0.29667839E+00 0.98548105E+02</pdfrwt>
<pdfrwt beam="2">  1        1 0.14424607E-01 0.29542750E+02</pdfrwt>
<totfact> 0.17655174E+02</totfact>
</mgrwt>
</event>
<event>
 7    1  0.3113151E-004  0.7202875E+02  0.7546771E-02  0.1365100E+00
          3   -1    0    0  503    0 -0.00000000000E+00  0.00000000000E+00  0.56347179449E+02  0.56347179449E+02  0.00000000000E+00 0. -1.
          1   -1    0    0  502    0  0.00000000000E+00 -0.00000000000E+00 -0.62183917829E+03  0.62183917829E+03  0.00000000000E+00 0. -1.
         25    2    1    2    0    0  0.18624732690E+02 -0.75265119976E+01 -0.23427217780E+03  0.26629149865E+03  0.12499671960E+03 0.  0.
          4    1    3    3  501    0 -0.30279957845E+02  0.42102997333E+02 -0.13812396226E+03  0.14754450204E+03  0.12700000000E+01 0.  1.
         -4    1    3    3    0  501  0.48904690535E+02 -0.49629509331E+02 -0.96148215544E+02  0.11874699661E+03  0.12700000000E+01 0.  1.
          1    1    1    2  502    0 -0.19054807347E+02  0.79553977401E+02 -0.32986109426E+03  0.33985329557E+03  0.00000000000E+00 0. -1.
          3    1    1    2  503    0  0.43007465702E+00 -0.72027465403E+02 -0.13587267866E+01  0.72041563525E+02  0.00000000000E+00 0. -1.
<mgrwt>
<rscale>  0 0.68548487E+02</rscale>
<asrwt>0</asrwt>
<pdfrwt beam="2">  1        1 0.95667570E-01 0.65236383E+02</pdfrwt>
<pdfrwt beam="1">  1        3 0.86687965E-02 0.72028749E+02</pdfrwt>
<totfact> 0.15797747E+03</totfact>
</mgrwt>
</event>
<event>
 7    1  0.3113151E-004  0.8609916E+02  0.7546771E-02  0.1327389E+00
          1   -1    0    0  502    0  0.00000000000E+00  0.00000000000E+00  0.89342923728E+03  0.89342923728E+03  0.00000000000E+00 0. -1.
          1   -1    0    0  503    0 -0.00000000000E+00 -0.00000000000E+00 -0.54135802761E+03  0.54135802761E+03  0.00000000000E+00 0. -1.
         25    2    1    2    0    0 -0.13018459849E+03 -0.61281496655E+02  0.24860913229E+03  0.31326517368E+03  0.12500046747E+03 0.  0.
          4    1    3    3  501    0 -0.11047315157E+03  0.14101921050E+02  0.12802248125E+03  0.16968956950E+03  0.12700000000E+01 0.  1.
         -4    1    3    3    0  501 -0.19711446922E+02 -0.75383417705E+02  0.12058665104E+03  0.14357560418E+03  0.12700000000E+01 0.  1.
          1    1    1    2  502    0  0.54753894551E+02  0.61061021645E+02  0.60692423546E+03  0.61244058073E+03  0.00000000000E+00 0. -1.
          1    1    1    2  503    0  0.75430703937E+02  0.22047501018E+00 -0.50346215808E+03  0.50908151049E+03  0.00000000000E+00 0. -1.
<mgrwt>
<rscale>  0 0.80588757E+02</rscale>
<asrwt>0</asrwt>
<pdfrwt beam="1">  1        1 0.13745065E+00 0.86099158E+02</pdfrwt>
<pdfrwt beam="2">  1        1 0.83285851E-01 0.75431026E+02</pdfrwt>
<totfact> 0.10431761E+02</totfact>
</mgrwt>
</event>
<event>
 7    1  0.3113151E-004  0.1310151E+03  0.7546771E-02  0.1294752E+00
          2   -1    0    0  503    0  0.00000000000E+00  0.00000000000E+00  0.16084414298E+04  0.16084414298E+04  0.00000000000E+00 0.  1.
          2   -1    0    0  502    0 -0.00000000000E+00 -0.00000000000E+00 -0.78767473324E+02  0.78767473324E+02  0.00000000000E+00 0. -1.
         25    2    1    2    0    0  0.63550499507E+02  0.45037695246E+02  0.34990638044E+03  0.37964133497E+03  0.12500403261E+03 0.  0.
          4    1    3    3  501    0 -0.23467805183E+01  0.64660412269E+02  0.25078704950E+03  0.25900238105E+03  0.12700000000E+01 0. -1.
         -4    1    3    3    0  501  0.65897280025E+02 -0.19622717023E+02  0.99119330939E+02  0.12063895392E+03  0.12700000000E+01 0. -1.
          2    1    1    2  502    0 -0.10447158076E+03 -0.97617426284E+02  0.18250058242E+02  0.14414068727E+03  0.00000000000E+00 0. -1.
          2    1    1    2  503    0  0.40921081252E+02  0.52579731038E+02  0.11615175178E+04  0.11634268809E+04  0.00000000000E+00 0.  1.
<mgrwt>
<rscale>  0 0.93429924E+02</rscale>
<asrwt>0</asrwt>
<pdfrwt beam="1">  1        2 0.24745250E+00 0.66627044E+02</pdfrwt>
<pdfrwt beam="2">  1        2 0.12118074E-01 0.13101513E+03</pdfrwt>
<totfact> 0.10142377E+03</totfact>
</mgrwt>
</event>
<event>
 7    1  0.3113151E-004  0.5761054E+02  0.7546771E-02  0.1435642E+00
          1   -1    0    0  502    0  0.00000000000E+00  0.00000000000E+00  0.12436118211E+04  0.12436118211E+04  0.00000000000E+00 0. -1.
          3   -1    0    0  503    0 -0.00000000000E+00 -0.00000000000E+00 -0.47761943621E+02  0.47761943621E+02  0.00000000000E+00 0. -1.
         25    2    1    2    0    0  0.62574513309E+02  0.37379720085E+02  0.29382721314E+03  0.32751524157E+03  0.12497595405E+03 0.  0.
          4    1    3    3  501    0  0.26034594463E+02  0.82349124517E+02  0.16461577099E+03  0.18590089665E+03  0.12700000000E+01 0.  1.
         -4    1    3    3    0  501  0.36539918847E+02 -0.44969404432E+02  0.12921144215E+03  0.14161434492E+03  0.12700000000E+01 0.  1.
          1    1    1    2  502    0 -0.19126668456E+02 -0.54378292354E+02  0.91389959820E+03  0.91571573303E+03  0.00000000000E+00 0. -1.
          3    1    1    2  503    0 -0.43447844853E+02  0.16998572269E+02 -0.11876933871E+02  0.48142790112E+02  0.00000000000E+00 0. -1.
<mgrwt>
<rscale>  0 0.51844054E+02</rscale>
<asrwt>0</asrwt>
<pdfrwt beam="1">  1        1 0.19132487E+00 0.57610540E+02</pdfrwt>
<pdfrwt beam="2">  1        3 0.73479923E-02 0.46654761E+02</pdfrwt>
<totfact> 0.66233943E+02</totfact>
</mgrwt>
</event>
<event>
 7    1  0.3113151E-004  0.1066399E+03  0.7546771E-02  0.1329298E+00
          1   -1    0    0  503    0  0.00000000000E+00  0.00000000000E+00  0.63910618731E+02  0.63910618731E+02  0.00000000000E+00 0. -1.
         -1   -1    0    0    0  501 -0.00000000000E+00 -0.00000000000E+00 -0.66633107951E+03  0.66633107951E+03  0.00000000000E+00 0.  1.
         25    2    1    2    0    0 -0.84077167770E+01 -0.13341038231E+03 -0.51075230333E+03  0.54256224680E+03  0.12504741695E+03 0.  0.
          4    1    3    3  502    0 -0.58543445125E+02 -0.29423670006E+02 -0.14744499898E+03  0.16135280583E+03  0.12700000000E+01 0.  1.
         -4    1    3    3    0  502  0.50135728348E+02 -0.10398671231E+03 -0.36330730435E+03  0.38120944098E+03  0.12700000000E+01 0.  1.
          1    1    1    2  503    0  0.50471746367E+02  0.90786214795E+02 -0.59244710189E+02  0.11958038996E+03  0.00000000000E+00 0. -1.
         -1    1    1    2    0  501 -0.42064029590E+02  0.42624167520E+02 -0.32423447262E+02  0.68099061480E+02  0.00000000000E+00 0.  1.
<mgrwt>
<rscale>  0 0.79913204E+02</rscale>
<asrwt>0</asrwt>
<pdfrwt beam="1">  1        1 0.98324032E-02 0.10663989E+03</pdfrwt>
<pdfrwt beam="2">  1       -1 0.10251247E+00 0.59884908E+02</pdfrwt>
<totfact> 0.63513506E+02</totfact>
</mgrwt>
</event>
<event>
 7    1  0.3113151E-004  0.5853266E+02  0.7546771E-02  0.1451141E+00
          2   -1    0    0  502    0  0.00000000000E+00  0.00000000000E+00  0.30706801480E+04  0.30706801480E+04  0.00000000000E+00 0. -1.
          1   -1    0    0  503    0 -0.00000000000E+00 -0.00000000000E+00 -0.10796865422E+04  0.10796865422E+04  0.00000000000E+00 0. -1.
         25    2    1    2    0    0 -0.16426030061E+02 -0.13544116184E+02  0.63086788481E+03  0.64348528520E+03  0.12500306652E+03 0.  0.
          4    1    3    3  501    0 -0.56639554356E+02  0.14102731169E+02  0.50691384978E+03  0.51026482354E+03  0.12700000000E+01 0.  1.
         -4    1    3    3    0  501  0.40213524295E+02 -0.27646847353E+02  0.12395403503E+03  0.13322046166E+03  0.12700000000E+01 0.  1.
          2    1    1    2  502    0 -0.63680415129E+01 -0.40421902683E+02  0.24325320318E+04  0.24328761925E+04  0.00000000000E+00 0. -1.
          1    1    1    2  503    0  0.22794071574E+02  0.53966018867E+02 -0.10724063108E+04  0.10740052125E+04  0.00000000000E+00 0. -1.
<mgrwt>
<rscale>  0 0.48940598E+02</rscale>
<asrwt>0</asrwt>
<pdfrwt beam="1">  1        2 0.47241233E+00 0.40920437E+02</pdfrwt>
<pdfrwt beam="2">  1        1 0.16610562E+00 0.58532663E+02</pdfrwt>
<totfact> 0.55282507E+00</totfact>
</mgrwt>
</event>
<event>
 7    1  0.3113151E-004  0.3194565E+02  0.7546771E-02  0.1624154E+00
          2   -1    0    0  503    0  0.00000000000E+00  0.00000000000E+00  0.22586190599E+02  0.22586190599E+02  0.00000000000E+00 0. -1.
         -1   -1    0    0    0  501 -0.00000000000E+00 -0.00000000000E+00 -0.72763534241E+03  0.72763534241E+03  0.00000000000E+00 0.  1.
         25    2    1    2    0    0  0.17118445260E+02  0.23595636765E+01 -0.17836139394E+03  0.21848736463E+03  0.12500133177E+03 0.  0.
          4    1    3    3  502    0 -0.16207721682E+01 -0.41075523351E+02 -0.82890045809E+01  0.41954094174E+02  0.12700000000E+01 0. -1.
         -4    1    3    3    0  502  0.18739217428E+02  0.43435087028E+02 -0.17007238936E+03  0.17653327045E+03  0.12700000000E+01 0. -1.
          2    1    1    2  503    0 -0.13987165606E+02 -0.34151382580E+02 -0.19121106460E+03  0.19473990079E+03  0.00000000000E+00 0. -1.
         -1    1    1    2    0  501 -0.31312796539E+01  0.31791818904E+02 -0.33547669327E+03  0.33699426759E+03  0.00000000000E+00 0.  1.
<mgrwt>
<rscale>  0 0.27768288E+02</rscale>
<asrwt>0</asrwt>
<pdfrwt beam="1">  1        2 0.34747979E-02 0.24137176E+02</pdfrwt>
<pdfrwt beam="2">  1       -1 0.11194392E+00 0.31945652E+02</pdfrwt>
<totfact> 0.19213204E+03</totfact>
</mgrwt>
</event>
<event>
 7    1  0.3113151E-004  0.1139371E+03  0.7546771E-02  0.1420444E+00
          2   -1    0    0  502    0  0.00000000000E+00  0.00000000000E+00  0.24570102917E+02  0.24570102917E+02  0.00000000000E+00 0. -1.
          1   -1    0    0  503    0 -0.00000000000E+00 -0.00000000000E+00 -0.18142463341E+04  0.18142463341E+04  0.00000000000E+00 0. -1.
         25    2    1    2    0    0  0.48818135486E+02 -0.97766858842E+02 -0.12797858859E+04  0.12905114604E+04  0.12500538616E+03 0.  0.
          4    1    3    3  501    0 -0.51631474285E+01  0.12638680004E+02 -0.17382340487E+02  0.22139398918E+02  0.12700000000E+01 0.  1.
         -4    1    3    3    0  501  0.53981282914E+02 -0.11040553885E+03 -0.12624035454E+04  0.12683720615E+04  0.12700000000E+01 0.  1.
          2    1    1    2  502    0 -0.26399559191E+02  0.11185811966E+03 -0.15778695808E+03  0.19520732517E+03  0.00000000000E+00 0. -1.
          1    1    1    2  503    0 -0.22418576294E+02 -0.14091260822E+02 -0.35210338718E+03  0.35309765145E+03  0.00000000000E+00 0. -1.
<mgrwt>
<rscale>  0 0.54927054E+02</rscale>
<asrwt>0</asrwt>
<pdfrwt beam="1">  1        2 0.37800158E-02 0.11393712E+03</pdfrwt>
<pdfrwt beam="2">  1        1 0.27911482E+00 0.26479354E+02</pdfrwt>
<totfact> 0.16768374E+03</totfact>
</mgrwt>
</event>
<event>
 7    1  0.3113151E-004  0.6347274E+02  0.7546771E-02  0.1411514E+00
          2   -1    0    0  502    0  0.00000000000E+00  0.00000000000E+00  0.19397907752E+03  0.19397907752E+03  0.00000000000E+00 0. -1.
          2   -1    0    0  503    0 -0.00000000000E+00 -0.00000000000E+00 -0.44692713625E+03  0.44692713625E+03  0.00000000000E+00 0. -1.
         25    2    1    2    0    0  0.38750484219E+02  0.63717575697E+02 -0.66399784843E+02  0.15998504519E+03  0.12499901510E+03 0.  0.
          4    1    3    3  501    0 -0.40855104998E+02  0.79872047611E+01 -0.43332305512E+02  0.60101885539E+02  0.12700000000E+01 0.  1.
         -4    1    3    3    0  501  0.79605589216E+02  0.55730370936E+02 -0.23067479331E+02  0.99883159651E+02  0.12700000000E+01 0.  1.
          2    1    1    2  502    0  0.12171818739E+02 -0.62746745157E+02  0.13816757139E+03  0.15223529480E+03  0.00000000000E+00 0. -1.
          2    1    1    2  503    0 -0.50922302958E+02 -0.97083054000E+00 -0.32471584528E+03  0.32868587379E+03  0.00000000000E+00 0. -1.
<mgrwt>
<rscale>  0 0.56857414E+02</rscale>
<asrwt>0</asrwt>
<pdfrwt beam="1">  1        2 0.29842935E-01 0.63472742E+02</pdfrwt>
<pdfrwt beam="2">  1        2 0.68758020E-01 0.50931557E+02</pdfrwt>
<totfact> 0.18937140E+03</totfact>
</mgrwt>
</event>
<event>
 7    1  0.3113151E-004  0.5562658E+02  0.7546771E-02  0.1427358E+00
          1   -1    0    0  502    0  0.00000000000E+00  0.00000000000E+00  0.22317480217E+03  0.22317480217E+03  0.00000000000E+00 0. -1.
          1   -1    0    0  503    0 -0.00000000000E+00 -0.00000000000E+00 -0.30243482585E+03  0.30243482585E+03  0.00000000000E+00 0. -1.
         25    2    1    2    0    0 -0.45413849466E+02 -0.92564975673E+02 -0.59613515772E+02  0.17265430732E+03  0.12500018451E+03 0.  0.
          4    1    3    3  501    0 -0.16284403410E+02  0.30833373953E+02 -0.17590398372E+02  0.39075743865E+02  0.12700000000E+01 0. -1.
         -4    1    3    3    0  501 -0.29129446056E+02 -0.12339834963E+03 -0.42023117399E+02  0.13357856345E+03  0.12700000000E+01 0. -1.
          1    1    1    2  502    0  0.32904990875E+02  0.42665759966E+02  0.15856404045E+03  0.16746838634E+03  0.00000000000E+00 0. -1.
          1    1    1    2  503    0  0.12508858591E+02  0.49899215707E+02 -0.17821054837E+03  0.18548693437E+03  0.00000000000E+00 0. -1.
<mgrwt>
<rscale>  0 0.53494012E+02</rscale>
<asrwt>0</asrwt>
<pdfrwt beam="1">  1        1 0.34334585E-01 0.55626576E+02</pdfrwt>
<pdfrwt beam="2">  1        1 0.46528435E-01 0.51443204E+02</pdfrwt>
<totfact> 0.12952396E+03</totfact>
</mgrwt>
</event>
<event>
 7    1  0.3113151E-004  0.9265159E+02  0.7546771E-02  0.1339604E+00
         -1   -1    0    0    0  501  0.00000000000E+00  0.00000000000E+00  0.63552783661E+03  0.63552783661E+03  0.00000000000E+00 0.  1.
         -1   -1    0    0    0  502 -0.00000000000E+00 -0.00000000000E+00 -0.40522892650E+03  0.40522892650E+03  0.00000000000E+00 0.  1.
         25    2    1    2    0    0 -0.11598741225E+03  0.49262957282E+02  0.15493112364E+03  0.23560238594E+03  0.12499964970E+03 0.  0.
          4    1    3    3  503    0 -0.17080987770E+02 -0.29297809841E+01  0.11582701727E+03  0.11712324530E+03  0.12700000000E+01 0. -1.
         -4    1    3    3    0  503 -0.98906424481E+02  0.52192738266E+02  0.39104106375E+02  0.11847914064E+03  0.12700000000E+01 0. -1.
         -1    1    1    2    0  501  0.89928681150E+02  0.80851761079E+01  0.43284890122E+03  0.44216592932E+03  0.00000000000E+00 0.  1.
         -1    1    1    2    0  502  0.26058731101E+02 -0.57348133390E+02 -0.35748111476E+03  0.36298844786E+03  0.00000000000E+00 0.  1.
<mgrwt>
<rscale>  0 0.76395132E+02</rscale>
<asrwt>0</asrwt>
<pdfrwt beam="1">  1       -1 0.97773514E-01 0.92651591E+02</pdfrwt>
<pdfrwt beam="2">  1       -1 0.62342911E-01 0.62990998E+02</pdfrwt>
<totfact> 0.26168430E+01</totfact>
</mgrwt>
</event>
<event>
 7    1  0.3113151E-004  0.7275900E+02  0.7546771E-02  0.1408935E+00
          1   -1    0    0  503    0 -0.00000000000E+00  0.00000000000E+00  0.43735098087E+02  0.43735098087E+02  0.00000000000E+00 0. -1.
          2   -1    0    0  502    0  0.00000000000E+00 -0.00000000000E+00 -0.16724130459E+04  0.16724130459E+04  0.00000000000E+00 0. -1.
         25    2    1    2    0    0 -0.83421069193E+02 -0.74619339279E+02 -0.30895226052E+03  0.35157621579E+03  0.12500886229E+03 0.  0.
          4    1    3    3  501    0 -0.19054918085E+02 -0.71339216646E+02 -0.26096548836E+03  0.27121388745E+03  0.12700000000E+01 0.  1.
         -4    1    3    3    0  501 -0.64366151108E+02 -0.32801226338E+01 -0.47986772158E+02  0.80362328334E+02  0.12700000000E+01 0.  1.
          2    1    1    2  502    0  0.31620198709E+02  0.32485702380E+02 -0.12911436083E+04  0.12919392305E+04  0.00000000000E+00 0. -1.
          1    1    1    2  503    0  0.51800870484E+02  0.42133636899E+02 -0.28582078923E+02  0.72632697711E+02  0.00000000000E+00 0. -1.
<mgrwt>
<rscale>  0 0.57432094E+02</rscale>
<asrwt>0</asrwt>
<pdfrwt beam="2">  1        2 0.25729428E+00 0.45333849E+02</pdfrwt>
<pdfrwt beam="1">  1        1 0.67284776E-02 0.72759000E+02</pdfrwt>
<totfact> 0.17632527E+03</totfact>
</mgrwt>
</event>
<event>
 7    1  0.3113151E-004  0.1178193E+03  0.7546771E-02  0.1324448E+00
          2   -1    0    0  503    0  0.00000000000E+00  0.00000000000E+00  0.30137700078E+04  0.30137700078E+04  0.00000000000E+00 0. -1.
          2   -1    0    0  502    0 -0.00000000000E+00 -0.00000000000E+00 -0.40712222380E+03  0.40712222380E+03  0.00000000000E+00 0. -1.
         25    2    1    2    0    0  0.14051941353E+03 -0.52887066001E+02  0.37021319070E+02  0.19884136958E+03  0.12499825943E+03 0.  0.
          4    1    3    3  501    0  0.60898150610E+02 -0.17576184036E+02 -0.46140194140E+02  0.78409421680E+02  0.12700000000E+01 0.  1.
         -4    1    3    3    0  501  0.79621262923E+02 -0.35310881965E+02  0.83161513210E+02  0.12043194790E+03  0.12700000000E+01 0.  1.
          2    1    1    2  502    0 -0.88323905930E+02  0.74717145529E+02 -0.31566920370E+03  0.33620055080E+03  0.00000000000E+00 0. -1.
          2    1    1    2  503    0 -0.52195507602E+02 -0.21830079528E+02  0.28852956686E+04  0.28858503112E+04  0.00000000000E+00 0. -1.
<mgrwt>
<rscale>  0 0.81644531E+02</rscale>
<asrwt>0</asrwt>
<pdfrwt beam="1">  1        2 0.46365691E+00 0.56576704E+02</pdfrwt>
<pdfrwt beam="2">  1        2 0.62634190E-01 0.11781933E+03</pdfrwt>
<totfact> 0.32202673E+01</totfact>
</mgrwt>
</event>
<event>
 7    1  0.3113151E-004  0.3773341E+02  0.7546771E-02  0.1571548E+00
          2   -1    0    0  502    0  0.00000000000E+00  0.00000000000E+00  0.22589297476E+04  0.22589297476E+04  0.00000000000E+00 0. -1.
          1   -1    0    0  503    0 -0.00000000000E+00 -0.00000000000E+00 -0.42839859519E+02  0.42839859519E+02  0.00000000000E+00 0. -1.
         25    2    1    2    0    0 -0.22619413216E+02 -0.51288057486E+02  0.17081300521E+03  0.21895955588E+03  0.12499640662E+03 0.  0.
          4    1    3    3  501    0  0.42774675983E+02 -0.56979705826E+02  0.92550355937E+02  0.11680556950E+03  0.12700000000E+01 0.  1.
         -4    1    3    3    0  501 -0.65394089199E+02  0.56916483394E+01  0.78262649277E+02  0.10215398639E+03  0.12700000000E+01 0.  1.
          2    1    1    2  502    0  0.23848826325E+02  0.14804286676E+02  0.20461036746E+04  0.20462962104E+04  0.00000000000E+00 0. -1.
          1    1    1    2  503    0 -0.12294131093E+01  0.36483770810E+02 -0.82679173212E+00  0.36513840851E+02  0.00000000000E+00 0. -1.
<mgrwt>
<rscale>  0 0.32545087E+02</rscale>
<asrwt>0</asrwt>
<pdfrwt beam="1">  1        2 0.34752756E+00 0.28070152E+02</pdfrwt>
<pdfrwt beam="2">  1        1 0.65907494E-02 0.37733415E+02</pdfrwt>
<totfact> 0.94484343E+02</totfact>
</mgrwt>
</event>
<event>
 7    1  0.3113151E-004  0.1286142E+03  0.7546771E-02  0.1361486E+00
          3   -1    0    0  503    0 -0.00000000000E+00  0.00000000000E+00  0.42117519298E+02  0.42117519298E+02  0.00000000000E+00 0. -1.
          1   -1    0    0  502    0  0.00000000000E+00 -0.00000000000E+00 -0.95196110725E+03  0.95196110725E+03  0.00000000000E+00 0. -1.
         25    2    1    2    0    0 -0.10007168381E+03 -0.36296733015E+02 -0.17956575368E+03  0.24330821044E+03  0.12499292239E+03 0.  0.
          4    1    3    3  501    0 -0.12540231010E+03 -0.45838371470E+02 -0.12753910419E+03  0.18464758779E+03  0.12700000000E+01 0. -1.
         -4    1    3    3    0  501  0.25330626299E+02  0.95416384550E+01 -0.52026649489E+02  0.58660622654E+02  0.12700000000E+01 0. -1.
          1    1    1    2  502    0  0.11343820681E+03  0.71500144477E+02 -0.61682386807E+03  0.63123068814E+03  0.00000000000E+00 0. -1.
          3    1    1    2  503    0 -0.13366523005E+02 -0.35203411462E+02 -0.11345396620E+03  0.11953972797E+03  0.00000000000E+00 0. -1.
<mgrwt>
<rscale>  0 0.69591974E+02</rscale>
<asrwt>0</asrwt>
<pdfrwt beam="2">  1        1 0.14645554E+00 0.12861415E+03</pdfrwt>
<pdfrwt beam="1">  1        3 0.64796188E-02 0.37655599E+02</pdfrwt>
<totfact> 0.11676164E+03</totfact>
</mgrwt>
</event>
<event>
 7    1  0.3113151E-004  0.9011248E+02  0.7546771E-02  0.1404355E+00
          2   -1    0    0  502    0  0.00000000000E+00  0.00000000000E+00  0.84578545833E+03  0.84578545833E+03  0.00000000000E+00 0. -1.
          2   -1    0    0  503    0 -0.00000000000E+00 -0.00000000000E+00 -0.18250976935E+04  0.18250976935E+04  0.00000000000E+00 0. -1.
         25    2    1    2    0    0  0.57186629731E+02  0.31681895553E+02 -0.83737552781E+03  0.84917453994E+03  0.12500228631E+03 0.  0.
          4    1    3    3  501    0  0.87337634334E+02  0.54155403694E+02 -0.57456396904E+03  0.58368316537E+03  0.12700000000E+01 0. -1.
         -4    1    3    3    0  501 -0.30151004603E+02 -0.22473508141E+02 -0.26281155877E+03  0.26549137457E+03  0.12700000000E+01 0. -1.
          2    1    1    2  502    0  0.37760124486E+02  0.37134489403E+01  0.83684049999E+03  0.83770020838E+03  0.00000000000E+00 0. -1.
          2    1    1    2  503    0 -0.94946754217E+02 -0.35395344493E+02 -0.97877720739E+03  0.98400840355E+03  0.00000000000E+00 0. -1.
<mgrwt>
<rscale>  0 0.58472839E+02</rscale>
<asrwt>0</asrwt>
<pdfrwt beam="1">  1        2 0.13012084E+00 0.37942281E+02</pdfrwt>
<pdfrwt beam="2">  1        2 0.28078426E+00 0.90112475E+02</pdfrwt>
<totfact> 0.57046424E+01</totfact>
</mgrwt>
</event>
<event>
 7    1  0.3113151E-004  0.1535951E+03  0.7546771E-02  0.1408007E+00
          3   -1    0    0  503    0 -0.00000000000E+00  0.00000000000E+00  0.14474940873E+04  0.14474940873E+04  0.00000000000E+00 0. -1.
          1   -1    0    0  502    0  0.00000000000E+00 -0.00000000000E+00 -0.53017915929E+03  0.53017915929E+03  0.00000000000E+00 0. -1.
         25    2    1    2    0    0  0.18513548489E+02 -0.15944062144E+03 -0.36009837682E+03  0.41359417470E+03  0.12500094847E+03 0.  0.
          4    1    3    3  501    0  0.46024154898E+02 -0.16672716446E+03 -0.28635937250E+03  0.33454367925E+03  0.12700000000E+01 0. -1.
         -4    1    3    3    0  501 -0.27510606409E+02  0.72865430242E+01 -0.73739004312E+02  0.79050495452E+02  0.12700000000E+01 0. -1.
          1    1    1    2  502    0 -0.30358794070E+02  0.14134065056E+03 -0.10677530118E+03  0.17972145343E+03  0.00000000000E+00 0. -1.
          3    1    1    2  503    0  0.11845245581E+02  0.18099970874E+02  0.13841886060E+04  0.13843576185E+04  0.00000000000E+00 0. -1.
<mgrwt>
<rscale>  0 0.57640966E+02</rscale>
<asrwt>0</asrwt>
<pdfrwt beam="2">  1        1 0.81566025E-01 0.15359506E+03</pdfrwt>
<pdfrwt beam="1">  1        3 0.22269140E+00 0.21631431E+02</pdfrwt>
<totfact> 0.29575436E+00</totfact>
</mgrwt>
</event>
<event>
 7    1  0.3113151E-004  0.1179887E+03  0.7546771E-02  0.1314888E+00
         -2   -1    0    0    0  501 -0.00000000000E+00  0.00000000000E+00  0.82019981765E+03  0.82019981765E+03  0.00000000000E+00 0.  1.
          1   -1    0    0  503    0  0.00000000000E+00 -0.00000000000E+00 -0.19201606681E+03  0.19201606681E+03  0.00000000000E+00 0. -1.
         25    2    1    2    0    0  0.11458914532E+03 -0.36173432121E+02  0.15493903985E+03  0.23253050815E+03  0.12500056694E+03 0.  0.
          4    1    3    3  502    0  0.61397911026E+02 -0.38056654365E+02  0.38654491706E+01  0.72350307650E+02  0.12700000000E+01 0. -1.
         -4    1    3    3    0  502  0.53191234292E+02  0.18832222434E+01  0.15107359068E+03  0.16018020050E+03  0.12700000000E+01 0. -1.
          1    1    1    2  503    0  0.24337942582E+01  0.61487532708E+02 -0.14101980863E+03  0.15386106219E+03  0.00000000000E+00 0. -1.
         -2    1    1    2    0  501 -0.11702293958E+03 -0.25314100586E+02  0.61426451962E+03  0.62582431412E+03  0.00000000000E+00 0.  1.
<mgrwt>
<rscale>  0 0.85208650E+02</rscale>
<asrwt>0</asrwt>
<pdfrwt beam="2">  1        1 0.29540934E-01 0.61535681E+02</pdfrwt>
<pdfrwt beam="1">  1       -2 0.12618458E+00 0.11798868E+03</pdfrwt>
<totfact> 0.67680215E+01</totfact>
</mgrwt>
</event>
<event>
 7    1  0.3113151E-004  0.1136919E+03  0.7546771E-02  0.1275896E+00
         -2   -1    0    0    0  501 -0.00000000000E+00  0.00000000000E+00  0.55819037003E+02  0.55819037003E+02  0.00000000000E+00 0.  1.
          2   -1    0    0  503    0  0.00000000000E+00 -0.00000000000E+00 -0.81196610881E+03  0.81196610881E+03  0.00000000000E+00 0. -1.
         25    2    1    2    0    0 -0.45494888932E+01 -0.18216985242E+03 -0.40646323254E+03  0.46264854562E+03  0.12499905752E+03 0.  0.
          4    1    3    3  502    0  0.60240999086E+02 -0.85600767335E+02 -0.19226705186E+03  0.21891711096E+03  0.12700000000E+01 0. -1.
         -4    1    3    3    0  502 -0.64790487979E+02 -0.96569085089E+02 -0.21419618068E+03  0.24373143467E+03  0.12700000000E+01 0. -1.
          2    1    1    2  503    0  0.20898496927E+02  0.91908722038E+02 -0.26119930552E+03  0.27768514106E+03  0.00000000000E+00 0. -1.
         -2    1    1    2    0  501 -0.16349008033E+02  0.90261130386E+02 -0.88484533753E+02  0.12745145914E+03  0.00000000000E+00 0.  1.
<mgrwt>
<rscale>  0 0.10212219E+03</rscale>
<asrwt>0</asrwt>
<pdfrwt beam="2">  1        2 0.12491786E+00 0.11369194E+03</pdfrwt>
<pdfrwt beam="1">  1       -2 0.85875447E-02 0.91729830E+02</pdfrwt>
<totfact> 0.28294800E+03</totfact>
</mgrwt>
</event>
<event>
 7    1  0.3113151E-004  0.1064237E+03  0.7546771E-02  0.1433361E+00
         -2   -1    0    0    0  501 -0.00000000000E+00  0.00000000000E+00  0.35356005619E+03  0.35356005619E+03  0.00000000000E+00 0. -1.
          3   -1    0    0  503    0  0.00000000000E+00 -0.00000000000E+00 -0.81511098591E+03  0.81511098591E+03  0.00000000000E+00 0.  1.
         25    2    1    2    0    0 -0.18214039113E+02 -0.10395390206E+03  0.11445452720E+03  0.19965611914E+03  0.12499824853E+03 0.  0.
          4    1    3    3  502    0 -0.71904279700E+02 -0.51687834976E+02  0.65286998444E+02  0.11002664582E+03  0.12700000000E+01 0.  1.
         -4    1    3    3    0  502  0.53690240587E+02 -0.52266067088E+02  0.49167528760E+02  0.89629473319E+02  0.12700000000E+01 0.  1.
          3    1    1    2  503    0 -0.73754972839E+01  0.10625960843E+03 -0.76797861980E+03  0.77533003477E+03  0.00000000000E+00 0.  1.
         -2    1    1    2    0  501  0.25589536397E+02 -0.23057063703E+01  0.19197316287E+03  0.19368488820E+03  0.00000000000E+00 0. -1.
<mgrwt>
<rscale>  0 0.52291169E+02</rscale>
<asrwt>0</asrwt>
<pdfrwt beam="2">  1        3 0.12540169E+00 0.10642373E+03</pdfrwt>
<pdfrwt beam="1">  1       -2 0.54393856E-01 0.25693203E+02</pdfrwt>
<totfact> 0.69328684E+00</totfact>
</mgrwt>
</event>
<event>
 7    1  0.3113151E-004  0.1983715E+03  0.7546771E-02  0.1216369E+00
          1   -1    0    0  502    0  0.00000000000E+00  0.00000000000E+00  0.14638137563E+04  0.14638137563E+04  0.00000000000E+00 0. -1.
          1   -1    0    0  503    0 -0.00000000000E+00 -0.00000000000E+00 -0.32770433743E+03  0.32770433743E+03  0.00000000000E+00 0. -1.
         25    2    1    2    0    0 -0.12879374863E+03  0.17430170290E+03 -0.11217033987E+03  0.27418251074E+03  0.12499980292E+03 0.  0.
          4    1    3    3  501    0 -0.35208722036E+02  0.16513299190E+02  0.23995348747E+02  0.45713595560E+02  0.12700000000E+01 0.  1.
         -4    1    3    3    0  501 -0.93585026592E+02  0.15778840371E+03 -0.13616568862E+03  0.22846891518E+03  0.12700000000E+01 0.  1.
          1    1    1    2  502    0  0.17627193708E+03 -0.91238850500E+02  0.13576165143E+04  0.13720491695E+04  0.00000000000E+00 0. -1.
          1    1    1    2  503    0 -0.47478188450E+02 -0.83062852402E+02 -0.10933675555E+03  0.14528641348E+03  0.00000000000E+00 0. -1.
<mgrwt>
<rscale>  0 0.13776466E+03</rscale>
<asrwt>0</asrwt>
<pdfrwt beam="1">  1        1 0.22520211E+00 0.19837152E+03</pdfrwt>
<pdfrwt beam="2">  1        1 0.50416053E-01 0.95674531E+02</pdfrwt>
<totfact> 0.73707470E+01</totfact>
</mgrwt>
</event>
<event>
 7    1  0.3113151E-004  0.1413029E+03  0.7546771E-02  0.1246308E+00
          2   -1    0    0  503    0  0.00000000000E+00  0.00000000000E+00  0.83433314673E+03  0.83433314673E+03  0.00000000000E+00 0. -1.
          2   -1    0    0  502    0 -0.00000000000E+00 -0.00000000000E+00 -0.50419945960E+03  0.50419945960E+03  0.00000000000E+00 0.  1.
         25    2    1    2    0    0  0.75635514540E+02 -0.67369509186E+02 -0.98034422392E+02  0.18840197294E+03  0.12500069442E+03 0.  0.
          4    1    3    3  501    0 -0.24956912672E+02  0.16464004305E+02 -0.17456650901E+02  0.34644746911E+02  0.12700000000E+01 0. -1.
         -4    1    3    3    0  501  0.10059242721E+03 -0.83833513490E+02 -0.80577771491E+02  0.15375722603E+03  0.12700000000E+01 0. -1.
          2    1    1    2  502    0  0.68722427968E+02  0.70794472472E+02 -0.34744917816E+03  0.36118632428E+03  0.00000000000E+00 0.  1.
          2    1    1    2  503    0 -0.14435794251E+03 -0.34249632866E+01  0.77561728768E+03  0.78894430912E+03  0.00000000000E+00 0. -1.
<mgrwt>
<rscale>  0 0.11807431E+03</rscale>
<asrwt>0</asrwt>
<pdfrwt beam="1">  1        2 0.12835895E+00 0.14130292E+03</pdfrwt>
<pdfrwt beam="2">  1        2 0.77569148E-01 0.98664226E+02</pdfrwt>
<totfact> 0.33590083E+02</totfact>
</mgrwt>
</event>
<event>
 7    1  0.3113151E-004  0.5295690E+02  0.7546771E-02  0.1521301E+00
          2   -1    0    0  503    0  0.00000000000E+00  0.00000000000E+00  0.24480330547E+03  0.24480330547E+03  0.00000000000E+00 0. -1.
         -1   -1    0    0    0  501 -0.00000000000E+00 -0.00000000000E+00 -0.55022575515E+02  0.55022575515E+02  0.00000000000E+00 0.  1.
         25    2    1    2    0    0 -0.33821787411E+02  0.29989602456E+01  0.11379169696E+03  0.17241252068E+03  0.12499847969E+03 0.  0.
          4    1    3    3  502    0  0.41886983079E+02  0.22722933657E+02  0.24196230393E+02  0.53459531710E+02  0.12700000000E+01 0. -1.
         -4    1    3    3    0  502 -0.75708770490E+02 -0.19723973411E+02  0.89595466570E+02  0.11895298898E+03  0.12700000000E+01 0. -1.
          2    1    1    2  503    0 -0.20121667982E+02  0.18984475606E+02  0.61428456216E+02  0.67370223908E+02  0.00000000000E+00 0. -1.
         -1    1    1    2    0  501  0.53943455393E+02 -0.21983435851E+02  0.14560576774E+02  0.60043136390E+02  0.00000000000E+00 0.  1.
<mgrwt>
<rscale>  0 0.38275250E+02</rscale>
<asrwt>0</asrwt>
<pdfrwt beam="1">  1        2 0.37662046E-01 0.27663909E+02</pdfrwt>
<pdfrwt beam="2">  1       -1 0.84650118E-02 0.52956897E+02</pdfrwt>
<totfact> 0.10449480E+04</totfact>
</mgrwt>
</event>
<event>
 7    1  0.3113151E-004  0.1179890E+03  0.7546771E-02  0.1422479E+00
          1   -1    0    0  503    0 -0.00000000000E+00  0.00000000000E+00  0.35522219004E+04  0.35522219004E+04  0.00000000000E+00 0. -1.
          2   -1    0    0  502    0  0.00000000000E+00 -0.00000000000E+00 -0.53957532229E+03  0.53957532229E+03  0.00000000000E+00 0. -1.
         25    2    1    2    0    0  0.93745515020E+02  0.80928014836E+02  0.11334360616E+03  0.20936147727E+03  0.12509152624E+03 0.  0.
          4    1    3    3  501    0  0.20173084923E+02 -0.32417450205E+02  0.41153075440E+02  0.56151873979E+02  0.12700000000E+01 0.  1.
         -4    1    3    3    0  501  0.73572430097E+02  0.11334546504E+03  0.72190530720E+02  0.15320960329E+03  0.12700000000E+01 0.  1.
          2    1    1    2  502    0  0.92035816060E+01 -0.23431141429E+02 -0.49021818120E+03  0.49086412527E+03  0.00000000000E+00 0. -1.
          1    1    1    2  503    0 -0.10294909663E+03 -0.57496873407E+02  0.33895211531E+04  0.33915716201E+04  0.00000000000E+00 0. -1.
<mgrwt>
<rscale>  0 0.54499913E+02</rscale>
<asrwt>0</asrwt>
<pdfrwt beam="2">  1        2 0.83011590E-01 0.25173881E+02</pdfrwt>
<pdfrwt beam="1">  1        1 0.54649566E+00 0.11798898E+03</pdfrwt>
<totfact> 0.27201197E+00</totfact>
</mgrwt>
</event>
<event>
 7    1  0.3113151E-004  0.1214084E+03  0.7546771E-02  0.1297049E+00
          1   -1    0    0  502    0  0.00000000000E+00  0.00000000000E+00  0.94508369218E+03  0.94508369218E+03  0.00000000000E+00 0. -1.
          1   -1    0    0  503    0 -0.00000000000E+00 -0.00000000000E+00 -0.39228333900E+04  0.39228333900E+04  0.00000000000E+00 0. -1.
         25    2    1    2    0    0  0.11580793178E+03 -0.11710129397E+03 -0.28360372279E+03  0.35097146267E+03  0.12500282365E+03 0.  0.
          4    1    3    3  501    0 -0.10314220145E+02 -0.19216133734E+02  0.38244451073E+01  0.22178417736E+02  0.12700000000E+01 0. -1.
         -4    1    3    3    0  501  0.12612215193E+03 -0.97885160232E+02 -0.28742816790E+03  0.32879304494E+03  0.12700000000E+01 0. -1.
          1    1    1    2  502    0 -0.48329329913E+01  0.70216609387E+02  0.90903277507E+03  0.91175342918E+03  0.00000000000E+00 0. -1.
          1    1    1    2  503    0 -0.11097499879E+03  0.46884684579E+02 -0.36031787501E+04  0.36051921903E+04  0.00000000000E+00 0. -1.
<mgrwt>
<rscale>  0 0.92439464E+02</rscale>
<asrwt>0</asrwt>
<pdfrwt beam="1">  1        1 0.14539749E+00 0.70382736E+02</pdfrwt>
<pdfrwt beam="2">  1        1 0.60351283E+00 0.12140839E+03</pdfrwt>
<totfact> 0.39521673E-01</totfact>
</mgrwt>
</event>
<event>
 7    1  0.3113151E-004  0.5852946E+02  0.7546771E-02  0.1453336E+00
         -1   -1    0    0    0  501 -0.00000000000E+00  0.00000000000E+00  0.15834645770E+02  0.15834645770E+02  0.00000000000E+00 0.  1.
          2   -1    0    0  503    0  0.00000000000E+00 -0.00000000000E+00 -0.11074936011E+04  0.11074936011E+04  0.00000000000E+00 0. -1.
         25    2    1    2    0    0  0.65009559536E+02  0.20873804219E+02 -0.42082105391E+03  0.44427095395E+03  0.12499745028E+03 0.  0.
          4    1    3    3  502    0  0.44695500785E+02  0.63126619826E+02 -0.14360376123E+03  0.16311441095E+03  0.12700000000E+01 0.  1.
         -4    1    3    3    0  502  0.20314058751E+02 -0.42252815608E+02 -0.27721729268E+03  0.28115654300E+03  0.12700000000E+01 0.  1.
          2    1    1    2  503    0 -0.31213301757E+02  0.25441301168E+02 -0.41105276080E+03  0.41302046217E+03  0.00000000000E+00 0. -1.
         -1    1    1    2    0  501 -0.33796257779E+02 -0.46315105386E+02 -0.25978514061E+03  0.26603683074E+03  0.00000000000E+00 0.  1.
<mgrwt>
<rscale>  0 0.48547684E+02</rscale>
<asrwt>0</asrwt>
<pdfrwt beam="2">  1        2 0.17038357E+00 0.40268226E+02</pdfrwt>
<pdfrwt beam="1">  1       -1 0.24361002E-02 0.58529464E+02</pdfrwt>
<totfact> 0.12284939E+04</totfact>
</mgrwt>
</event>
<event>
 7    1  0.3113151E-004  0.5860482E+02  0.7546771E-02  0.1505066E+00
          1   -1    0    0  503    0  0.00000000000E+00  0.00000000000E+00  0.62823577400E+03  0.62823577400E+03  0.00000000000E+00 0. -1.
         -2   -1    0    0    0  501 -0.00000000000E+00 -0.00000000000E+00 -0.21024144140E+02  0.21024144140E+02  0.00000000000E+00 0.  1.
         25    2    1    2    0    0 -0.18445419138E+02 -0.50328697319E+02  0.33127499249E+03  0.35810695245E+03  0.12499702987E+03 0.  0.
          4    1    3    3  502    0 -0.13700668690E+02 -0.91506353406E+02  0.25527485109E+03  0.27152897365E+03  0.12700000000E+01 0. -1.
         -4    1    3    3    0  502 -0.47447504487E+01  0.41177656087E+02  0.76000141407E+02  0.86577978791E+02  0.12700000000E+01 0. -1.
          1    1    1    2  503    0  0.45064407046E+02  0.41996420000E+02  0.22256628828E+03  0.23093343793E+03  0.00000000000E+00 0. -1.
         -2    1    1    2    0  501 -0.26618987908E+02  0.83322773190E+01  0.53370349084E+02  0.60219527762E+02  0.00000000000E+00 0.  1.
<mgrwt>
<rscale>  0 0.40430696E+02</rscale>
<asrwt>0</asrwt>
<pdfrwt beam="1">  1        1 0.96651643E-01 0.58604825E+02</pdfrwt>
<pdfrwt beam="2">  1       -2 0.32344842E-02 0.27892604E+02</pdfrwt>
<totfact> 0.87975295E+03</totfact>
</mgrwt>
</event>
<event>
 7    1  0.3523446E-004  0.6922591E+02  0.7546771E-02  0.1447237E+00
          2   -1    0    0  503    0  0.00000000000E+00  0.00000000000E+00  0.10475162966E+04  0.10475162966E+04  0.00000000000E+00 0. -1.
         -1   -1    0    0    0  501 -0.00000000000E+00 -0.00000000000E+00 -0.17029709668E+02  0.17029709668E+02  0.00000000000E+00 0.  1.
         25    2    1    2    0    0  0.56146654811E+02 -0.43899747117E+02  0.76084753092E+03  0.77433408439E+03  0.12499869719E+03 0.  0.
          4    1    3    3  502    0  0.59067281900E+02 -0.65264824142E+01  0.13674161255E+03  0.14910204648E+03  0.12700000000E+01 0. -1.
         -4    1    3    3    0  502 -0.29206270888E+01 -0.37373264703E+02  0.62410591837E+03  0.62523203791E+03  0.12700000000E+01 0. -1.
          2    1    1    2  503    0 -0.28166294226E+02  0.65926645676E+02  0.17755899625E+03  0.19148592609E+03  0.00000000000E+00 0. -1.
         -1    1    1    2    0  501 -0.27980360585E+02 -0.22026898559E+02  0.92080059742E+02  0.98725995769E+02  0.00000000000E+00 0.  1.
<mgrwt>
<rscale>  0 0.49650248E+02</rscale>
<asrwt>0</asrwt>
<pdfrwt beam="1">  1        2 0.16115630E+00 0.69225914E+02</pdfrwt>
<pdfrwt beam="2">  1       -1 0.26199561E-02 0.35610179E+02</pdfrwt>
<totfact> 0.10770857E+04</totfact>
</mgrwt>
</event>
<event>
 7    1  0.3113151E-004  0.1349525E+03  0.7546771E-02  0.1238701E+00
         -1   -1    0    0    0  501 -0.00000000000E+00  0.00000000000E+00  0.68117759054E+03  0.68117759054E+03  0.00000000000E+00 0.  1.
          2   -1    0    0  503    0  0.00000000000E+00 -0.00000000000E+00 -0.54026371168E+03  0.54026371168E+03  0.00000000000E+00 0. -1.
         25    2    1    2    0    0 -0.13579084736E+03  0.17866553497E+03  0.41152456492E+02  0.26015353197E+03  0.12500323160E+03 0.  0.
          4    1    3    3  502    0 -0.14305283096E+03  0.10658984545E+03  0.33505257567E+01  0.17843303092E+03  0.12700000000E+01 0.  1.
         -4    1    3    3    0  502  0.72619836052E+01  0.72075689510E+02  0.37801930735E+02  0.81720501048E+02  0.12700000000E+01 0.  1.
          2    1    1    2  503    0  0.10917310646E+03 -0.70319683121E+02 -0.41486099457E+03  0.43471055868E+03  0.00000000000E+00 0. -1.
         -1    1    1    2    0  501  0.26617740897E+02 -0.10834585184E+03  0.51462241694E+03  0.52657721158E+03  0.00000000000E+00 0.  1.
<mgrwt>
<rscale>  0 0.12270422E+03</rscale>
<asrwt>0</asrwt>
<pdfrwt beam="2">  1        2 0.83117494E-01 0.13495251E+03</pdfrwt>
<pdfrwt beam="1">  1       -1 0.10479655E+00 0.11156759E+03</pdfrwt>
<totfact> 0.62786381E+01</totfact>
</mgrwt>
</event>
<event>
 7    1  0.3113151E-004  0.8989205E+02  0.7546771E-02  0.1360608E+00
          1   -1    0    0  503    0 -0.00000000000E+00  0.00000000000E+00  0.80825065984E+03  0.80825065984E+03  0.00000000000E+00 0. -1.
          2   -1    0    0  502    0  0.00000000000E+00 -0.00000000000E+00 -0.21496078204E+03  0.21496078204E+03  0.00000000000E+00 0. -1.
         25    2    1    2    0    0  0.12252690236E+03  0.63489782625E+02  0.31752065662E+03  0.36808760335E+03  0.12500128824E+03 0.  0.
          4    1    3    3  501    0 -0.16309021266E+02  0.42097130777E+02  0.89900832754E+02  0.10060777914E+03  0.12700000000E+01 0. -1.
         -4    1    3    3    0  501  0.13883592363E+03  0.21392651848E+02  0.22761982386E+03  0.26747982421E+03  0.12700000000E+01 0. -1.
          2    1    1    2  502    0 -0.85160328473E+02 -0.24126333270E+02 -0.17764411010E+03  0.19847365406E+03  0.00000000000E+00 0. -1.
          1    1    1    2  503    0 -0.37366573891E+02 -0.39363449355E+02  0.45341333128E+03  0.45665018447E+03  0.00000000000E+00 0. -1.
<mgrwt>
<rscale>  0 0.69848858E+02</rscale>
<asrwt>0</asrwt>
<pdfrwt beam="2">  1        2 0.33070890E-01 0.89892047E+02</pdfrwt>
<pdfrwt beam="1">  1        1 0.12434625E+00 0.54274690E+02</pdfrwt>
<totfact> 0.51781223E+02</totfact>
</mgrwt>
</event>
<event>
 7    1  0.3113151E-004  0.1262807E+03  0.7546771E-02  0.1297047E+00
          1   -1    0    0  503    0  0.00000000000E+00  0.00000000000E+00  0.72883024744E+03  0.72883024744E+03  0.00000000000E+00 0. -1.
          1   -1    0    0  502    0 -0.00000000000E+00 -0.00000000000E+00 -0.12483965552E+04  0.12483965552E+04  0.00000000000E+00 0. -1.
         25    2    1    2    0    0  0.26260456798E+02  0.17020965465E+03  0.80814311619E+02  0.22763200781E+03  0.12499775953E+03 0.  0.
          4    1    3    3  501    0  0.24344859684E+02  0.17879049042E+03  0.38644256613E+02  0.18453645474E+03  0.12700000000E+01 0.  1.
         -4    1    3    3    0  501  0.19155971139E+01 -0.85808357732E+01  0.42170055005E+02  0.43095553065E+02  0.12700000000E+01 0.  1.
          1    1    1    2  502    0  0.29667585177E+02 -0.60818265510E+02 -0.11674294537E+04  0.11693889672E+04  0.00000000000E+00 0. -1.
          1    1    1    2  503    0 -0.55928041976E+02 -0.10939138914E+03  0.56704883437E+03  0.58020582767E+03  0.00000000000E+00 0. -1.
<mgrwt>
<rscale>  0 0.92440385E+02</rscale>
<asrwt>0</asrwt>
<pdfrwt beam="1">  1        1 0.11212773E+00 0.12628067E+03</pdfrwt>
<pdfrwt beam="2">  1        1 0.19206100E+00 0.67668508E+02</pdfrwt>
<totfact> 0.39221704E+01</totfact>
</mgrwt>
</event>
<event>
 7    1  0.3113151E-004  0.5029979E+02  0.7546771E-02  0.1570401E+00
          1   -1    0    0  503    0  0.00000000000E+00  0.00000000000E+00  0.37305954616E+03  0.37305954616E+03  0.00000000000E+00 0. -1.
         -1   -1    0    0    0  501 -0.00000000000E+00 -0.00000000000E+00 -0.35802992649E+03  0.35802992649E+03  0.00000000000E+00 0.  1.
         25    2    1    2    0    0  0.29108509887E+02 -0.46670403981E+01  0.69384084976E+02  0.14597452794E+03  0.12500129977E+03 0.  0.
          4    1    3    3  502    0 -0.12223376750E+02 -0.42146098491E+02  0.77998679276E+02  0.89504812307E+02  0.12700000000E+01 0. -1.
         -4    1    3    3    0  502  0.41331886637E+02  0.37479058093E+02 -0.86145943000E+01  0.56469715631E+02  0.12700000000E+01 0. -1.
          1    1    1    2  503    0  0.20964270036E+02 -0.32111124899E+01  0.26294160477E+03  0.26379556361E+03  0.00000000000E+00 0. -1.
         -1    1    1    2    0  501 -0.50072779923E+02  0.78781528880E+01 -0.31729607008E+03  0.32131938110E+03  0.00000000000E+00 0.  1.
<mgrwt>
<rscale>  0 0.32661853E+02</rscale>
<asrwt>0</asrwt>
<pdfrwt beam="1">  1        1 0.57393777E-01 0.21208769E+02</pdfrwt>
<pdfrwt beam="2">  1       -1 0.55081527E-01 0.50299791E+02</pdfrwt>
<totfact> 0.23794995E+02</totfact>
</mgrwt>
</event>
<event>
 7    1  0.3113151E-004  0.4638574E+02  0.7546771E-02  0.1469899E+00
          1   -1    0    0  503    0  0.00000000000E+00  0.00000000000E+00  0.30344809785E+04  0.30344809785E+04  0.00000000000E+00 0.  1.
         -1   -1    0    0    0  501 -0.00000000000E+00 -0.00000000000E+00 -0.44361648046E+01  0.44361648046E+01  0.00000000000E+00 0. -1.
         25    2    1    2    0    0  0.42786348015E+02 -0.24299689241E+01  0.16028239254E+04  0.16082600454E+04  0.12497704334E+03 0.  0.
          4    1    3    3  502    0  0.28546472511E+02 -0.57901128916E+02  0.11525061137E+04  0.11543133876E+04  0.12700000000E+01 0. -1.
         -4    1    3    3    0  502  0.14239875505E+02  0.55471159992E+02  0.45031781171E+03  0.45394665776E+03  0.12700000000E+01 0. -1.
          1    1    1    2  503    0 -0.28280074334E+02  0.45094249337E+02  0.68119518659E+03  0.68327164156E+03  0.00000000000E+00 0. -1.
         -1    1    1    2    0  501 -0.14506273682E+02 -0.42664280413E+02  0.74602570164E+03  0.74738545631E+03  0.00000000000E+00 0.  1.
<mgrwt>
<rscale>  0 0.45719579E+02</rscale>
<asrwt>0</asrwt>
<pdfrwt beam="1">  1        1 0.46684157E+00 0.46385739E+02</pdfrwt>
<pdfrwt beam="2">  1       -1 0.68248932E-03 0.45062987E+02</pdfrwt>
<totfact> 0.22325902E+03</totfact>
</mgrwt>
</event>
<event>
 7    1  0.3113151E-004  0.1340931E+03  0.7546771E-02  0.1326947E+00
          1   -1    0    0  503    0  0.00000000000E+00  0.00000000000E+00  0.79950142474E+03  0.79950142474E+03  0.00000000000E+00 0. -1.
         -1   -1    0    0    0  501 -0.00000000000E+00 -0.00000000000E+00 -0.12165685879E+03  0.12165685879E+03  0.00000000000E+00 0.  1.
         25    2    1    2    0    0  0.69202588095E+02 -0.71057708038E+02  0.13398641122E+03  0.20836308580E+03  0.12499848423E+03 0.  0.
          4    1    3    3  502    0 -0.35681161384E+02 -0.26202622470E+02  0.49400116424E+02  0.66345362344E+02  0.12700000000E+01 0.  1.
         -4    1    3    3    0  502  0.10488374948E+03 -0.44855085568E+02  0.84586294801E+02  0.14201772345E+03  0.12700000000E+01 0.  1.
          1    1    1    2  503    0  0.38928156707E+02 -0.29133173177E+02  0.56215287134E+03  0.56425171149E+03  0.00000000000E+00 0. -1.
         -1    1    1    2    0  501 -0.10813074480E+03  0.10019088121E+03 -0.18294716619E+02  0.14854348625E+03  0.00000000000E+00 0.  1.
<mgrwt>
<rscale>  0 0.80746111E+02</rscale>
<asrwt>0</asrwt>
<pdfrwt beam="1">  1        1 0.12300022E+00 0.48622455E+02</pdfrwt>
<pdfrwt beam="2">  1       -1 0.18716440E-01 0.13409307E+03</pdfrwt>
<totfact> 0.55455266E+02</totfact>
</mgrwt>
</event>
<event>
 7    1  0.3113151E-004  0.3882907E+02  0.7546771E-02  0.1525930E+00
         -1   -1    0    0    0  501 -0.00000000000E+00  0.00000000000E+00  0.30503100666E+02  0.30503100666E+02  0.00000000000E+00 0.  1.
          2   -1    0    0  503    0  0.00000000000E+00 -0.00000000000E+00 -0.37844978810E+03  0.37844978810E+03  0.00000000000E+00 0. -1.
         25    2    1    2    0    0 -0.57934342527E+01 -0.25094295188E+02 -0.20398889253E+03  0.24062388372E+03  0.12500039044E+03 0.  0.
          4    1    3    3  502    0  0.44869875480E+02  0.26917736225E+02 -0.11027839853E+03  0.12206886717E+03  0.12700000000E+01 0. -1.
         -4    1    3    3    0  502 -0.50663309732E+02 -0.52012031413E+02 -0.93710494001E+02  0.11855501656E+03  0.12700000000E+01 0. -1.
          2    1    1    2  503    0  0.38028955302E+02 -0.78418918110E+01 -0.46917264753E+02  0.60900955990E+02  0.00000000000E+00 0. -1.
         -1    1    1    2    0  501 -0.32235521050E+02  0.32936186999E+02 -0.97040530148E+02  0.10742804905E+03  0.00000000000E+00 0.  1.
<mgrwt>
<rscale>  0 0.37690418E+02</rscale>
<asrwt>0</asrwt>
<pdfrwt beam="2">  1        2 0.58223041E-01 0.38829070E+02</pdfrwt>
<pdfrwt beam="1">  1       -1 0.46927850E-02 0.36585156E+02</pdfrwt>
<totfact> 0.15289324E+04</totfact>
</mgrwt>
</event>
<event>
 7    1  0.3113151E-004  0.3618551E+02  0.7546771E-02  0.1577819E+00
          2   -1    0    0  503    0  0.00000000000E+00  0.00000000000E+00  0.13470350754E+04  0.13470350754E+04  0.00000000000E+00 0. -1.
         -1   -1    0    0    0  501 -0.00000000000E+00 -0.00000000000E+00 -0.15139581639E+02  0.15139581639E+02  0.00000000000E+00 0.  1.
         25    2    1    2    0    0 -0.21004318502E+02 -0.11416768229E+02  0.11964723819E+04  0.12032222567E+04  0.12500445732E+03 0.  0.
          4    1    3    3  502    0 -0.44154137864E+02 -0.57840496337E+02  0.81376007117E+03  0.81700806437E+03  0.12700000000E+01 0.  1.
         -4    1    3    3    0  502  0.23149819362E+02  0.46423728108E+02  0.38271231070E+03  0.38621419230E+03  0.12700000000E+01 0.  1.
          2    1    1    2  503    0  0.28489671731E+01  0.42718112316E+02  0.97756309395E+02  0.10672042804E+03  0.00000000000E+00 0. -1.
         -1    1    1    2    0  501  0.18155351329E+02 -0.31301344087E+02  0.37666802456E+02  0.52231972305E+02  0.00000000000E+00 0.  1.
<mgrwt>
<rscale>  0 0.31916813E+02</rscale>
<asrwt>0</asrwt>
<pdfrwt beam="1">  1        2 0.20723607E+00 0.28151684E+02</pdfrwt>
<pdfrwt beam="2">  1       -1 0.23291675E-02 0.36185507E+02</pdfrwt>
<totfact> 0.94170964E+03</totfact>
</mgrwt>
</event>
<event>
 7    1  0.3113151E-004  0.9106835E+02  0.7546771E-02  0.1304933E+00
          1   -1    0    0  503    0 -0.00000000000E+00  0.00000000000E+00  0.22053421070E+04  0.22053421070E+04  0.00000000000E+00 0. -1.
          2   -1    0    0  502    0  0.00000000000E+00 -0.00000000000E+00 -0.23639315981E+03  0.23639315981E+03  0.00000000000E+00 0. -1.
         25    2    1    2    0    0 -0.26530970490E+02 -0.16095976044E+02  0.10785386738E+03  0.16798968076E+03  0.12500041317E+03 0.  0.
          4    1    3    3  501    0 -0.30498406856E+02  0.81626851857E+01  0.13066491250E+03  0.13443107717E+03  0.12700000000E+01 0.  1.
         -4    1    3    3    0  501  0.39674363667E+01 -0.24258661230E+02 -0.22811045115E+02  0.33558603595E+02  0.12700000000E+01 0.  1.
          2    1    1    2  502    0  0.83792948242E+02 -0.49753075078E+02 -0.19384049718E+03  0.21695797980E+03  0.00000000000E+00 0. -1.
          1    1    1    2  503    0 -0.57261977752E+02  0.65849051122E+02  0.20549355769E+04  0.20567876062E+04  0.00000000000E+00 0. -1.
<mgrwt>
<rscale>  0 0.89145961E+02</rscale>
<asrwt>0</asrwt>
<pdfrwt beam="2">  1        2 0.36368180E-01 0.91068353E+02</pdfrwt>
<pdfrwt beam="1">  1        1 0.33928339E+00 0.87264149E+02</pdfrwt>
<totfact> 0.54723036E+01</totfact>
</mgrwt>
</event>
<event>
 7    1  0.3113151E-004  0.6105774E+02  0.7546771E-02  0.1499247E+00
          3   -1    0    0  503    0 -0.00000000000E+00  0.00000000000E+00  0.15269775247E+02  0.15269775247E+02  0.00000000000E+00 0. -1.
          2   -1    0    0  502    0  0.00000000000E+00 -0.00000000000E+00 -0.16301223357E+04  0.16301223357E+04  0.00000000000E+00 0. -1.
         25    2    1    2    0    0 -0.37930984318E+02  0.28035901988E+02 -0.77081140721E+03  0.78230383538E+03  0.12499717598E+03 0.  0.
          4    1    3    3  501    0 -0.42859164630E+02  0.32850131374E+02 -0.77306119017E+03  0.77494596958E+03  0.12700000000E+01 0. -1.
         -4    1    3    3    0  501  0.49281803117E+01 -0.48142293856E+01  0.22497829628E+01  0.73578658008E+01  0.12700000000E+01 0. -1.
          2    1    1    2  502    0  0.62882928881E+02 -0.15641093655E+02 -0.82880338586E+03  0.83133264038E+03  0.00000000000E+00 0. -1.
          3    1    1    2  503    0 -0.24951944563E+02 -0.12394808333E+02 -0.15237767394E+02  0.31755635188E+02  0.00000000000E+00 0. -1.
<mgrwt>
<rscale>  0 0.41244694E+02</rscale>
<asrwt>0</asrwt>
<pdfrwt beam="2">  1        2 0.25078812E+00 0.61057740E+02</pdfrwt>
<pdfrwt beam="1">  1        3 0.23491955E-02 0.27860919E+02</pdfrwt>
<totfact> 0.41756885E+03</totfact>
</mgrwt>
</event>
<event>
 7    1  0.3113151E-004  0.1233822E+03  0.7546771E-02  0.1440568E+00
         -1   -1    0    0    0  501 -0.00000000000E+00  0.00000000000E+00  0.28164146507E+03  0.28164146507E+03  0.00000000000E+00 0.  1.
          2   -1    0    0  503    0  0.00000000000E+00 -0.00000000000E+00 -0.22096427347E+03  0.22096427347E+03  0.00000000000E+00 0. -1.
         25    2    1    2    0    0  0.85227946102E+02 -0.11098035403E+03  0.71166166716E+02  0.20066565058E+03  0.12498655231E+03 0.  0.
          4    1    3    3  502    0 -0.23096029461E+02 -0.32409376243E+02 -0.13806513050E+02  0.42142934734E+02  0.12700000000E+01 0. -1.
         -4    1    3    3    0  502  0.10832397556E+03 -0.78570977788E+02  0.84972679765E+02  0.15852271585E+03  0.12700000000E+01 0. -1.
          2    1    1    2  503    0 -0.79275027592E+02  0.90847004585E+02 -0.13191311463E+03  0.17871423574E+03  0.00000000000E+00 0. -1.
         -1    1    1    2    0  501 -0.59529185102E+01  0.20133349446E+02  0.12142413952E+03  0.12322585223E+03  0.00000000000E+00 0.  1.
<mgrwt>
<rscale>  0 0.50896025E+02</rscale>
<asrwt>0</asrwt>
<pdfrwt beam="2">  1        2 0.33994504E-01 0.12338215E+03</pdfrwt>
<pdfrwt beam="1">  1       -1 0.43329456E-01 0.20994976E+02</pdfrwt>
<totfact> 0.91147955E+02</totfact>
</mgrwt>
</event>
<event>
 7    1  0.3113151E-004  0.2305519E+03  0.7546771E-02  0.1131671E+00
          1   -1    0    0  503    0  0.00000000000E+00  0.00000000000E+00  0.95221401903E+03  0.95221401903E+03  0.00000000000E+00 0. -1.
         -1   -1    0    0    0  501 -0.00000000000E+00 -0.00000000000E+00 -0.42022306736E+03  0.42022306736E+03  0.00000000000E+00 0.  1.
         25    2    1    2    0    0 -0.24795851499E+03 -0.17746643525E+03 -0.11111463050E+03  0.34778173299E+03  0.12501164704E+03 0.  0.
          4    1    3    3  502    0 -0.23750363262E+03 -0.19481958355E+03 -0.11318799730E+03  0.32737712393E+03  0.12700000000E+01 0.  1.
         -4    1    3    3    0  502 -0.10454882370E+02  0.17353148293E+02  0.20733668042E+01  0.20404609062E+02  0.12700000000E+01 0.  1.
          1    1    1    2  503    0  0.22808365359E+03 -0.37297324220E+02  0.74938260931E+03  0.78421141191E+03  0.00000000000E+00 0. -1.
         -1    1    1    2    0  501  0.19874861399E+02  0.21476375947E+03 -0.10627702714E+03  0.24044394148E+03  0.00000000000E+00 0.  1.
<mgrwt>
<rscale>  0 0.22299275E+03</rscale>
<asrwt>0</asrwt>
<pdfrwt beam="1">  1        1 0.14649446E+00 0.23055190E+03</pdfrwt>
<pdfrwt beam="2">  1       -1 0.64649703E-01 0.21568144E+03</pdfrwt>
<totfact> 0.45022232E+01</totfact>
</mgrwt>
</event>
<event>
 7    1  0.3113151E-004  0.3534945E+02  0.7546771E-02  0.1586075E+00
          2   -1    0    0  503    0  0.00000000000E+00  0.00000000000E+00  0.20830912777E+04  0.20830912777E+04  0.00000000000E+00 0. -1.
         -1   -1    0    0    0  501 -0.00000000000E+00 -0.00000000000E+00 -0.57730687429E+01  0.57730687429E+01  0.00000000000E+00 0.  1.
         25    2    1    2    0    0 -0.28072192913E+02 -0.22276342504E+02  0.11785647195E+04  0.11857166459E+04  0.12499953109E+03 0.  0.
          4    1    3    3  502    0 -0.65778860028E+02 -0.45648893926E+02  0.57893733267E+03  0.58444908076E+03  0.12700000000E+01 0. -1.
         -4    1    3    3    0  502  0.37706667114E+02  0.23372551423E+02  0.59962738686E+03  0.60126756513E+03  0.12700000000E+01 0. -1.
          2    1    1    2  503    0  0.44346540077E+01  0.36111477512E+02  0.79524794246E+03  0.79607976670E+03  0.00000000000E+00 0. -1.
         -1    1    1    2    0  501  0.23637538905E+02 -0.13835135008E+02  0.10350554698E+03  0.10706793387E+03  0.00000000000E+00 0.  1.
<mgrwt>
<rscale>  0 0.31115552E+02</rscale>
<asrwt>0</asrwt>
<pdfrwt beam="1">  1        2 0.32047498E+00 0.35349449E+02</pdfrwt>
<pdfrwt beam="2">  1       -1 0.88816609E-03 0.27388761E+02</pdfrwt>
<totfact> 0.14534170E+04</totfact>
</mgrwt>
</event>
<event>
 7    1  0.3113151E-004  0.1059649E+03  0.7546771E-02  0.1397120E+00
          2   -1    0    0  503    0  0.00000000000E+00  0.00000000000E+00  0.84632194596E+03  0.84632194596E+03  0.00000000000E+00 0. -1.
         -3   -1    0    0    0  501 -0.00000000000E+00 -0.00000000000E+00 -0.76644978758E+03  0.76644978758E+03  0.00000000000E+00 0.  1.
         25    2    1    2    0    0 -0.57411705524E+02  0.93621779793E+02  0.21740042063E+02  0.16781315968E+03  0.12500994181E+03 0.  0.
          4    1    3    3  502    0 -0.23682781833E+02  0.11693251457E+03 -0.40096956987E+01  0.11938080950E+03  0.12700000000E+01 0. -1.
         -4    1    3    3    0  502 -0.33728923690E+02 -0.23310734774E+02  0.25749737762E+02  0.48432350179E+02  0.12700000000E+01 0. -1.
          2    1    1    2  503    0  0.24597861142E+02 -0.10313945141E+03  0.74738019481E+03  0.75486419759E+03  0.00000000000E+00 0. -1.
         -3    1    1    2    0  501  0.32813844382E+02  0.95176716148E+01 -0.68924807849E+03  0.69009437627E+03  0.00000000000E+00 0.  1.
<mgrwt>
<rscale>  0 0.60169983E+02</rscale>
<asrwt>0</asrwt>
<pdfrwt beam="1">  1        2 0.13020338E+00 0.10596492E+03</pdfrwt>
<pdfrwt beam="2">  1       -3 0.11791535E+00 0.34166277E+02</pdfrwt>
<totfact> 0.12756749E+01</totfact>
</mgrwt>
</event>
<event>
 7    1  0.3113151E-004  0.2466408E+02  0.7546771E-02  0.1667414E+00
         -1   -1    0    0    0  501 -0.00000000000E+00  0.00000000000E+00  0.21586500111E+03  0.21586500111E+03  0.00000000000E+00 0. -1.
          1   -1    0    0  503    0  0.00000000000E+00 -0.00000000000E+00 -0.23716232239E+03  0.23716232239E+03  0.00000000000E+00 0. -1.
         25    2    1    2    0    0  0.65909920506E+01  0.10353293598E+02 -0.39451404866E+02  0.13165186824E+03  0.12500067680E+03 0.  0.
          4    1    3    3  502    0  0.22880501279E+02  0.19646923043E+01  0.42145827187E+02  0.48013133661E+02  0.12700000000E+01 0.  1.
         -4    1    3    3    0  502 -0.16289509228E+02  0.83886012937E+01 -0.81597232053E+02  0.83638734574E+02  0.12700000000E+01 0.  1.
          1    1    1    2  503    0 -0.22971190632E+02  0.83887223944E+01 -0.14970076078E+03  0.15168508180E+03  0.00000000000E+00 0. -1.
         -1    1    1    2    0  501  0.16380198582E+02 -0.18742015992E+02  0.16785484436E+03  0.16969037346E+03  0.00000000000E+00 0. -1.
<mgrwt>
<rscale>  0 0.24559308E+02</rscale>
<asrwt>0</asrwt>
<pdfrwt beam="2">  1        1 0.36486511E-01 0.24454984E+02</pdfrwt>
<pdfrwt beam="1">  1       -1 0.33210000E-01 0.24664077E+02</pdfrwt>
<totfact> 0.94589766E+02</totfact>
</mgrwt>
</event>
<event>
 7    1  0.3113151E-004  0.1002495E+03  0.7546771E-02  0.1326693E+00
          2   -1    0    0  502    0  0.00000000000E+00  0.00000000000E+00  0.15087171862E+04  0.15087171862E+04  0.00000000000E+00 0. -1.
          1   -1    0    0  503    0 -0.00000000000E+00 -0.00000000000E+00 -0.11176806863E+03  0.11176806863E+03  0.00000000000E+00 0. -1.
         25    2    1    2    0    0  0.15008099648E+03  0.14993556334E+01  0.77604426149E+02  0.21017794079E+03  0.12500306502E+03 0.  0.
          4    1    3    3  501    0 -0.16964932137E+02 -0.19499521358E+02  0.18212818959E+02  0.31644271678E+02  0.12700000000E+01 0. -1.
         -4    1    3    3    0  501  0.16704592862E+03  0.20998876991E+02  0.59391607190E+02  0.17853366912E+03  0.12700000000E+01 0. -1.
          2    1    1    2  502    0 -0.64429267595E+02 -0.98870471646E+01  0.13225797758E+04  0.13241850881E+04  0.00000000000E+00 0. -1.
          1    1    1    2  503    0 -0.85651728889E+02  0.83876915312E+01 -0.32350843510E+01  0.86122225944E+02  0.00000000000E+00 0. -1.
<mgrwt>
<rscale>  0 0.80836946E+02</rscale>
<asrwt>0</asrwt>
<pdfrwt beam="1">  1        2 0.23211032E+00 0.65183466E+02</pdfrwt>
<pdfrwt beam="2">  1        1 0.17195089E-01 0.10024953E+03</pdfrwt>
<totfact> 0.61808373E+02</totfact>
</mgrwt>
</event>
<event>
 7    1  0.3113151E-004  0.8393814E+02  0.7546771E-02  0.1405425E+00
          1   -1    0    0  503    0  0.00000000000E+00  0.00000000000E+00  0.36256385418E+03  0.36256385418E+03  0.00000000000E+00 0. -1.
         -1   -1    0    0    0  501 -0.00000000000E+00 -0.00000000000E+00 -0.10633190583E+03  0.10633190583E+03  0.00000000000E+00 0.  1.
         25    2    1    2    0    0 -0.59186871987E+02  0.14065974888E+02  0.14425300602E+03  0.20033879982E+03  0.12500306998E+03 0.  0.
          4    1    3    3  502    0  0.28430764987E+02 -0.29593420892E+02  0.45385358150E+02  0.61200674769E+02  0.12700000000E+01 0.  1.
         -4    1    3    3    0  502 -0.87617636974E+02  0.43659395779E+02  0.98867647869E+02  0.13913812506E+03  0.12700000000E+01 0.  1.
          1    1    1    2  503    0 -0.11224817942E+02  0.38800775279E+02  0.16222617733E+03  0.16717903371E+03  0.00000000000E+00 0. -1.
         -1    1    1    2    0  501  0.70411689928E+02 -0.52866750167E+02 -0.50247235005E+02  0.10137792648E+03  0.00000000000E+00 0.  1.
<mgrwt>
<rscale>  0 0.58227243E+02</rscale>
<asrwt>0</asrwt>
<pdfrwt beam="1">  1        1 0.55779054E-01 0.40391790E+02</pdfrwt>
<pdfrwt beam="2">  1       -1 0.16358755E-01 0.83938143E+02</pdfrwt>
<totfact> 0.18621405E+03</totfact>
</mgrwt>
</event>
<event>
 7    1  0.3113151E-004  0.8859687E+02  0.7546771E-02  0.1439623E+00
         -2   -1    0    0    0  501  0.00000000000E+00  0.00000000000E+00  0.23187269258E+03  0.23187269258E+03  0.00000000000E+00 0.  1.
         -1   -1    0    0    0  502 -0.00000000000E+00 -0.00000000000E+00 -0.41961319896E+03  0.41961319896E+03  0.00000000000E+00 0.  1.
         25    2    1    2    0    0 -0.32901444275E+02 -0.70617807550E+02  0.34312498155E+02  0.15123452781E+03  0.12500062037E+03 0.  0.
          4    1    3    3  503    0 -0.82388845653E+01 -0.22964856979E+02  0.78184967060E+02  0.81913160415E+02  0.12700000000E+01 0. -1.
         -4    1    3    3    0  503 -0.24662559710E+02 -0.47652950571E+02 -0.43872468905E+02  0.69321367394E+02  0.12700000000E+01 0. -1.
         -2    1    1    2    0  501  0.12030840907E+02  0.91389038534E+02  0.12313231653E+03  0.15381243406E+03  0.00000000000E+00 0.  1.
         -1    1    1    2    0  502  0.20870603368E+02 -0.20771230984E+02 -0.34518532106E+03  0.34643892968E+03  0.00000000000E+00 0.  1.
<mgrwt>
<rscale>  0 0.51076041E+02</rscale>
<asrwt>0</asrwt>
<pdfrwt beam="1">  1       -2 0.35672722E-01 0.88596868E+02</pdfrwt>
<pdfrwt beam="2">  1       -1 0.64555877E-01 0.29445307E+02</pdfrwt>
<totfact> 0.14301168E+02</totfact>
</mgrwt>
</event>
<event>
 7    1  0.3113151E-004  0.1243008E+03  0.7546771E-02  0.1369516E+00
          1   -1    0    0  503    0  0.00000000000E+00  0.00000000000E+00  0.15086816161E+04  0.15086816161E+04  0.00000000000E+00 0. -1.
         -3   -1    0    0    0  501 -0.00000000000E+00 -0.00000000000E+00 -0.11990281316E+03  0.11990281316E+03  0.00000000000E+00 0.  1.
         25    2    1    2    0    0 -0.12342578190E+03 -0.83206142022E+02  0.14111260837E+03  0.24019608095E+03  0.12499681338E+03 0.  0.
          4    1    3    3  502    0 -0.14795304520E+03 -0.59718725016E+02  0.10745224514E+03  0.19236430955E+03  0.12700000000E+01 0.  1.
         -4    1    3    3    0  502  0.24527263305E+02 -0.23487417005E+02  0.33660363226E+02  0.47831771400E+02  0.12700000000E+01 0.  1.
          1    1    1    2  503    0  0.11316597087E+03  0.48240089506E+02  0.13102264297E+04  0.13159889590E+04  0.00000000000E+00 0. -1.
         -3    1    1    2    0  501  0.10259811029E+02  0.34966052516E+02 -0.62560235119E+02  0.72399389286E+02  0.00000000000E+00 0.  1.
<mgrwt>
<rscale>  0 0.67301917E+02</rscale>
<asrwt>0</asrwt>
<pdfrwt beam="1">  1        1 0.23210485E+00 0.12430084E+03</pdfrwt>
<pdfrwt beam="2">  1       -3 0.18446588E-01 0.36440205E+02</pdfrwt>
<totfact> 0.89858921E+01</totfact>
</mgrwt>
</event>
<event>
 7    1  0.3113151E-004  0.1829145E+03  0.7546771E-02  0.1254623E+00
          2   -1    0    0  502    0  0.00000000000E+00  0.00000000000E+00  0.13970806352E+04  0.13970806352E+04  0.00000000000E+00 0. -1.
          1   -1    0    0  503    0 -0.00000000000E+00 -0.00000000000E+00 -0.12700171557E+03  0.12700171557E+03  0.00000000000E+00 0. -1.
         25    2    1    2    0    0  0.24212705411E+02  0.22647780786E+03  0.43755049576E+03  0.50887580148E+03  0.12500276972E+03 0.  0.
          4    1    3    3  501    0  0.16546450029E+02  0.24192255861E+03  0.41046366750E+03  0.47674138126E+03  0.12700000000E+01 0.  1.
         -4    1    3    3    0  501  0.76662553829E+01 -0.15444750752E+02  0.27086828262E+02  0.32134420217E+02  0.12700000000E+01 0.  1.
          2    1    1    2  502    0  0.34717635639E+02 -0.60954648546E+02  0.83652445728E+03  0.83946051190E+03  0.00000000000E+00 0. -1.
          1    1    1    2  503    0 -0.58930341050E+02 -0.16552315932E+03 -0.39960334324E+01  0.17574603736E+03  0.00000000000E+00 0. -1.
<mgrwt>
<rscale>  0 0.11327463E+03</rscale>
<asrwt>0</asrwt>
<pdfrwt beam="1">  1        2 0.21493547E+00 0.70148296E+02</pdfrwt>
<pdfrwt beam="2">  1        1 0.19538726E-01 0.18291453E+03</pdfrwt>
<totfact> 0.60659551E+02</totfact>
</mgrwt>
</event>
<event>
 7    1  0.3113151E-004  0.9672519E+02  0.7546771E-02  0.1315890E+00
          1   -1    0    0  502    0  0.00000000000E+00  0.00000000000E+00  0.36975599625E+03  0.36975599625E+03  0.00000000000E+00 0. -1.
          1   -1    0    0  503    0 -0.00000000000E+00 -0.00000000000E+00 -0.32274332941E+04  0.32274332941E+04  0.00000000000E+00 0. -1.
         25    2    1    2    0    0  0.12945808996E+02 -0.51309976121E+02  0.51956313442E+01  0.13582571766E+03  0.12498529262E+03 0.  0.
          4    1    3    3  501    0 -0.54784761188E+02 -0.37210715062E+02  0.70005558174E+01  0.66608017953E+02  0.12700000000E+01 0. -1.
         -4    1    3    3    0  501  0.67730570184E+02 -0.14099261060E+02 -0.18049244732E+01  0.69217699703E+02  0.12700000000E+01 0. -1.
          1    1    1    2  502    0 -0.68698406960E+02 -0.28536961883E+02  0.29385963173E+03  0.30312920095E+03  0.00000000000E+00 0. -1.
          1    1    1    2  503    0  0.55752597964E+02  0.79846938004E+02 -0.31567325609E+04  0.31582343717E+04  0.00000000000E+00 0. -1.
<mgrwt>
<rscale>  0 0.84825460E+02</rscale>
<asrwt>0</asrwt>
<pdfrwt beam="1">  1        1 0.56885538E-01 0.74389712E+02</pdfrwt>
<pdfrwt beam="2">  1        1 0.49652819E+00 0.96725186E+02</pdfrwt>
<totfact> 0.48752551E+00</totfact>
</mgrwt>
</event>
<event>
 7    1  0.3113151E-004  0.1463611E+03  0.7546771E-02  0.1384954E+00
          2   -1    0    0  503    0  0.00000000000E+00  0.00000000000E+00  0.80097917119E+03  0.80097917119E+03  0.00000000000E+00 0. -1.
          2   -1    0    0  502    0 -0.00000000000E+00 -0.00000000000E+00 -0.14429824217E+04  0.14429824217E+04  0.00000000000E+00 0. -1.
         25    2    1    2    0    0 -0.10014259491E+03  0.85590886502E+02  0.14362817492E+03  0.23153645047E+03  0.12500294435E+03 0.  0.
          4    1    3    3  501    0 -0.87954703008E+02  0.10885380303E+03  0.76618698044E+02  0.15955318237E+03  0.12700000000E+01 0. -1.
         -4    1    3    3    0  501 -0.12187891906E+02 -0.23262916529E+02  0.67009476881E+02  0.71983268101E+02  0.12700000000E+01 0. -1.
          2    1    1    2  502    0  0.18082795090E+01  0.27212510812E+02 -0.13897653646E+04  0.13900329346E+04  0.00000000000E+00 0. -1.
          2    1    1    2  503    0  0.98334315406E+02 -0.11280339731E+03  0.60413393911E+03  0.62239220787E+03  0.00000000000E+00 0. -1.
<mgrwt>
<rscale>  0 0.63179405E+02</rscale>
<asrwt>0</asrwt>
<pdfrwt beam="1">  1        2 0.12322757E+00 0.14636112E+03</pdfrwt>
<pdfrwt beam="2">  1        2 0.22199729E+00 0.27272525E+02</pdfrwt>
<totfact> 0.99685145E+01</totfact>
</mgrwt>
</event>
<event>
 7    1  0.3113151E-004  0.9205618E+02  0.7546771E-02  0.1474021E+00
          2   -1    0    0  503    0  0.00000000000E+00  0.00000000000E+00  0.12115737121E+03  0.12115737121E+03  0.00000000000E+00 0. -1.
         -1   -1    0    0    0  501 -0.00000000000E+00 -0.00000000000E+00 -0.15192640849E+03  0.15192640849E+03  0.00000000000E+00 0.  1.
         25    2    1    2    0    0 -0.84857127279E+02  0.25460884267E+02 -0.28400005949E+02  0.15582164634E+03  0.12499934581E+03 0.  0.
          4    1    3    3  502    0 -0.11159678766E+03  0.19843790493E+02 -0.47033796434E+02  0.12272493611E+03  0.12700000000E+01 0.  1.
         -4    1    3    3    0  502  0.26739660381E+02  0.56170937735E+01  0.18633790486E+02  0.33096710224E+02  0.12700000000E+01 0.  1.
          2    1    1    2  503    0  0.94428685603E+02 -0.55992615137E+01  0.27244801273E+01  0.94633774025E+02  0.00000000000E+00 0. -1.
         -1    1    1    2    0  501 -0.95715583239E+01 -0.19861622753E+02 -0.50935114594E+01  0.22628359333E+02  0.00000000000E+00 0.  1.
<mgrwt>
<rscale>  0 0.45051329E+02</rscale>
<asrwt>0</asrwt>
<pdfrwt beam="1">  1        2 0.18639596E-01 0.92056180E+02</pdfrwt>
<pdfrwt beam="2">  1       -1 0.23373294E-01 0.22047648E+02</pdfrwt>
<totfact> 0.46998981E+03</totfact>
</mgrwt>
</event>
<event>
 7    1  0.3113151E-004  0.6977823E+02  0.7546771E-02  0.1380511E+00
          2   -1    0    0  503    0  0.00000000000E+00  0.00000000000E+00  0.30345491956E+04  0.30345491956E+04  0.00000000000E+00 0. -1.
         -1   -1    0    0    0  501 -0.00000000000E+00 -0.00000000000E+00 -0.73268023353E+01  0.73268023353E+01  0.00000000000E+00 0.  1.
         25    2    1    2    0    0  0.95577136930E+02 -0.25214659652E+02  0.20458871831E+04  0.20520843679E+04  0.12500047501E+03 0.  0.
          4    1    3    3  502    0  0.99201255875E+02 -0.24086211819E+02  0.20455187909E+04  0.20480648846E+04  0.12700000000E+01 0.  1.
         -4    1    3    3    0  502 -0.36241189448E+01 -0.11284478333E+01  0.36839216479E+00  0.40194832287E+01  0.12700000000E+01 0.  1.
          2    1    1    2  503    0 -0.33175621522E+02  0.49159325757E+02  0.56793807489E+03  0.57102619737E+03  0.00000000000E+00 0. -1.
         -1    1    1    2    0  501 -0.62401515408E+02 -0.23944666105E+02  0.41339713523E+03  0.41876543265E+03  0.00000000000E+00 0.  1.
<mgrwt>
<rscale>  0 0.64329639E+02</rscale>
<asrwt>0</asrwt>
<pdfrwt beam="1">  1        2 0.46685272E+00 0.59306502E+02</pdfrwt>
<pdfrwt beam="2">  1       -1 0.11272028E-02 0.69778226E+02</pdfrwt>
<totfact> 0.37508254E+03</totfact>
</mgrwt>
</event>
<event>
 7    1  0.3113151E-004  0.9267399E+02  0.7546771E-02  0.1410879E+00
         -2   -1    0    0    0  501 -0.00000000000E+00  0.00000000000E+00  0.28600896651E+02  0.28600896651E+02  0.00000000000E+00 0.  1.
          2   -1    0    0  503    0  0.00000000000E+00 -0.00000000000E+00 -0.15002648858E+04  0.15002648858E+04  0.00000000000E+00 0. -1.
         25    2    1    2    0    0 -0.21176915349E+02 -0.85894222258E+02 -0.24280590748E+03  0.28706462264E+03  0.12500043882E+03 0.  0.
          4    1    3    3  502    0 -0.25811183407E+02 -0.10118752083E+03 -0.24889435833E+03  0.26991692439E+03  0.12700000000E+01 0.  1.
         -4    1    3    3    0  502  0.46342680581E+01  0.15293298574E+02  0.60884508503E+01  0.17147698256E+02  0.12700000000E+01 0.  1.
          2    1    1    2  503    0 -0.13232981239E+02  0.92594076108E+02 -0.11666653956E+04  0.11704088687E+04  0.00000000000E+00 0. -1.
         -2    1    1    2    0  501  0.34409896588E+02 -0.66998538497E+01 -0.62192686095E+02  0.71392291100E+02  0.00000000000E+00 0.  1.
<mgrwt>
<rscale>  0 0.56998134E+02</rscale>
<asrwt>0</asrwt>
<pdfrwt beam="2">  1        2 0.23081000E+00 0.92673993E+02</pdfrwt>
<pdfrwt beam="1">  1       -2 0.44001376E-02 0.35056084E+02</pdfrwt>
<totfact> 0.28611588E+03</totfact>
</mgrwt>
</event>
<event>
 7    1  0.3113151E-004  0.1526036E+03  0.7546771E-02  0.1310891E+00
         -1   -1    0    0    0  501  0.00000000000E+00  0.00000000000E+00  0.17681761719E+04  0.17681761719E+04  0.00000000000E+00 0.  1.
         -1   -1    0    0    0  502 -0.00000000000E+00 -0.00000000000E+00 -0.16730460807E+03  0.16730460807E+03  0.00000000000E+00 0.  1.
         25    2    1    2    0    0 -0.10130362529E+03  0.11500706014E+03  0.24947232575E+03  0.31835707627E+03  0.12500295323E+03 0.  0.
          4    1    3    3  503    0 -0.50311299029E+02  0.10386831289E+03  0.23856699601E+03  0.26502014587E+03  0.12700000000E+01 0. -1.
         -4    1    3    3    0  503 -0.50992326256E+02  0.11138747254E+02  0.10905329739E+02  0.53336930396E+02  0.12700000000E+01 0. -1.
         -1    1    1    2    0  501  0.41607783500E+02  0.26493974719E+02  0.14393165807E+04  0.14401615735E+04  0.00000000000E+00 0.  1.
         -1    1    1    2    0  502  0.59695841785E+02 -0.14150103486E+03 -0.87917342605E+02  0.17696213020E+03  0.00000000000E+00 0.  1.
<mgrwt>
<rscale>  0 0.86760904E+02</rscale>
<asrwt>0</asrwt>
<pdfrwt beam="1">  1       -1 0.27202709E+00 0.49326852E+02</pdfrwt>
<pdfrwt beam="2">  1       -1 0.25739172E-01 0.15260359E+03</pdfrwt>
<totfact> 0.78152226E+00</totfact>
</mgrwt>
</event>
<event>
 7    1  0.3113151E-004  0.5154945E+02  0.7546771E-02  0.1446644E+00
          2   -1    0    0  503    0  0.00000000000E+00  0.00000000000E+00  0.18794984760E+04  0.18794984760E+04  0.00000000000E+00 0. -1.
          2   -1    0    0  502    0 -0.00000000000E+00 -0.00000000000E+00 -0.30412164965E+02  0.30412164965E+02  0.00000000000E+00 0. -1.
         25    2    1    2    0    0  0.68645548760E+02 -0.66897640311E+02  0.39667831953E+03  0.42680659680E+03  0.12499070463E+03 0.  0.
          4    1    3    3  501    0  0.67918306999E+02 -0.96995330165E+02  0.36194494497E+03  0.38082377366E+03  0.12700000000E+01 0.  1.
         -4    1    3    3    0  501  0.72724176141E+00  0.30097689854E+02  0.34733374557E+02  0.45982823133E+02  0.12700000000E+01 0.  1.
          2    1    1    2  502    0 -0.25811219721E+02  0.40506601365E+02  0.23789390049E+02  0.53599803139E+02  0.00000000000E+00 0. -1.
          2    1    1    2  503    0 -0.42834329040E+02  0.26391038946E+02  0.14286186015E+04  0.14295042410E+04  0.00000000000E+00 0. -1.
<mgrwt>
<rscale>  0 0.49759280E+02</rscale>
<asrwt>0</asrwt>
<pdfrwt beam="1">  1        2 0.28915352E+00 0.51549448E+02</pdfrwt>
<pdfrwt beam="2">  1        2 0.46787961E-02 0.48031280E+02</pdfrwt>
<totfact> 0.23012795E+03</totfact>
</mgrwt>
</event>
<event>
 7    1  0.3113151E-004  0.4059435E+02  0.7546771E-02  0.1546285E+00
          1   -1    0    0  503    0 -0.00000000000E+00  0.00000000000E+00  0.67837392436E+02  0.67837392436E+02  0.00000000000E+00 0. -1.
          2   -1    0    0  502    0  0.00000000000E+00 -0.00000000000E+00 -0.15623512391E+04  0.15623512391E+04  0.00000000000E+00 0. -1.
         25    2    1    2    0    0 -0.15211685696E+02  0.41086527802E+02 -0.92668544235E+02  0.16165117330E+03  0.12499657831E+03 0.  0.
          4    1    3    3  501    0 -0.59513805557E+02  0.26249464882E+02 -0.94671374142E+02  0.11487040280E+03  0.12700000000E+01 0. -1.
         -4    1    3    3    0  501  0.44302119861E+02  0.14837062920E+02  0.20028299070E+01  0.46780770492E+02  0.12700000000E+01 0. -1.
          2    1    1    2  502    0 -0.15231138021E+02 -0.37702020851E+02 -0.14278063801E+04  0.14283852733E+04  0.00000000000E+00 0. -1.
          1    1    1    2  503    0  0.30442823717E+02 -0.33845069512E+01  0.25961077655E+02  0.40152184949E+02  0.00000000000E+00 0. -1.
<mgrwt>
<rscale>  0 0.35262168E+02</rscale>
<asrwt>0</asrwt>
<pdfrwt beam="2">  1        2 0.24036172E+00 0.40594350E+02</pdfrwt>
<pdfrwt beam="1">  1        1 0.10436522E-01 0.30630384E+02</pdfrwt>
<totfact> 0.10616241E+03</totfact>
</mgrwt>
</event>
<event>
 7    1  0.3113151E-004  0.1149921E+03  0.7546771E-02  0.1400858E+00
         -2   -1    0    0    0  501 -0.00000000000E+00  0.00000000000E+00  0.20697072770E+03  0.20697072770E+03  0.00000000000E+00 0. -1.
          2   -1    0    0  503    0  0.00000000000E+00 -0.00000000000E+00 -0.33420742692E+04  0.33420742692E+04  0.00000000000E+00 0. -1.
         25    2    1    2    0    0  0.84007271532E+02  0.10157713521E+02  0.12367974666E+03  0.19514323927E+03  0.12499521305E+03 0.  0.
          4    1    3    3  502    0  0.10695672924E+02 -0.42404049854E+02  0.87718971790E+02  0.98024138737E+02  0.12700000000E+01 0. -1.
         -4    1    3    3    0  502  0.73311598608E+02  0.52561763375E+02  0.35960774872E+02  0.97119100536E+02  0.12700000000E+01 0. -1.
          2    1    1    2  503    0 -0.11436363366E+03 -0.13719104696E+02 -0.33003211771E+04  0.33023305598E+04  0.00000000000E+00 0. -1.
         -2    1    1    2    0  501  0.30356362129E+02  0.35613911746E+01  0.41537888907E+02  0.51571197810E+02  0.00000000000E+00 0. -1.
<mgrwt>
<rscale>  0 0.59284771E+02</rscale>
<asrwt>0</asrwt>
<pdfrwt beam="2">  1        2 0.51416522E+00 0.11499214E+03</pdfrwt>
<pdfrwt beam="1">  1       -2 0.31841654E-01 0.30564558E+02</pdfrwt>
<totfact> 0.13123668E+01</totfact>
</mgrwt>
</event>
<event>
 7    1  0.3113151E-004  0.3552891E+02  0.7546771E-02  0.1566983E+00
          1   -1    0    0  503    0  0.00000000000E+00  0.00000000000E+00  0.64002506184E+03  0.64002506184E+03  0.00000000000E+00 0. -1.
          1   -1    0    0  502    0 -0.00000000000E+00 -0.00000000000E+00 -0.32796977909E+02  0.32796977909E+02  0.00000000000E+00 0. -1.
         25    2    1    2    0    0 -0.37368264246E+02  0.52776473971E+02  0.27624457340E+03  0.31003071326E+03  0.12500494173E+03 0.  0.
          4    1    3    3  501    0  0.30116560359E+02 -0.74892316870E+01  0.15859799514E+03  0.16161074458E+03  0.12700000000E+01 0. -1.
         -4    1    3    3    0  501 -0.67484824605E+02  0.60265705658E+02  0.11764657825E+03  0.14841996869E+03  0.12700000000E+01 0. -1.
          1    1    1    2  502    0  0.18560451573E+02 -0.24424137600E+02  0.62206664323E+00  0.30682500338E+02  0.00000000000E+00 0. -1.
          1    1    1    2  503    0  0.18807812673E+02 -0.28352336371E+02  0.33036144389E+03  0.33210882615E+03  0.00000000000E+00 0. -1.
<mgrwt>
<rscale>  0 0.33013508E+02</rscale>
<asrwt>0</asrwt>
<pdfrwt beam="1">  1        1 0.98465385E-01 0.35528909E+02</pdfrwt>
<pdfrwt beam="2">  1        1 0.50456894E-02 0.30676194E+02</pdfrwt>
<totfact> 0.54863990E+03</totfact>
</mgrwt>
</event>
<event>
 7    1  0.3113151E-004  0.4858876E+02  0.7546771E-02  0.1510188E+00
          1   -1    0    0  503    0 -0.00000000000E+00  0.00000000000E+00  0.12449190772E+04  0.12449190772E+04  0.00000000000E+00 0. -1.
          2   -1    0    0  502    0  0.00000000000E+00 -0.00000000000E+00 -0.14112865239E+04  0.14112865239E+04  0.00000000000E+00 0. -1.
         25    2    1    2    0    0 -0.16283504675E+02  0.11923216632E+02 -0.13225292991E+03  0.18307089722E+03  0.12496719698E+03 0.  0.
          4    1    3    3  501    0 -0.50258518118E+02  0.51684885701E+02 -0.59625752129E+02  0.93563290186E+02  0.12700000000E+01 0. -1.
         -4    1    3    3    0  501  0.33975013443E+02 -0.39761669069E+02 -0.72627177776E+02  0.89507607036E+02  0.12700000000E+01 0. -1.
          2    1    1    2  502    0 -0.31995114759E+02 -0.56535925896E+01 -0.12529280469E+04  0.12533492495E+04  0.00000000000E+00 0. -1.
          1    1    1    2  503    0  0.48278619434E+02 -0.62696240424E+01  0.12188135302E+04  0.12197854543E+04  0.00000000000E+00 0. -1.
<mgrwt>
<rscale>  0 0.39732690E+02</rscale>
<asrwt>0</asrwt>
<pdfrwt beam="2">  1        2 0.21712100E+00 0.32490775E+02</pdfrwt>
<pdfrwt beam="1">  1        1 0.19152601E+00 0.48588764E+02</pdfrwt>
<totfact> 0.30232818E+01</totfact>
</mgrwt>
</event>
<event>
 7    1  0.3113151E-004  0.1564646E+03  0.7546771E-02  0.1260547E+00
         -1   -1    0    0    0  501 -0.00000000000E+00  0.00000000000E+00  0.20364325931E+03  0.20364325931E+03  0.00000000000E+00 0.  1.
          1   -1    0    0  503    0  0.00000000000E+00 -0.00000000000E+00 -0.36645721989E+03  0.36645721989E+03  0.00000000000E+00 0. -1.
         25    2    1    2    0    0  0.74826082219E+01  0.38709098377E+01 -0.99043169658E+02  0.15970478774E+03  0.12500038561E+03 0.  0.
          4    1    3    3  502    0 -0.26960402226E+02  0.51763326048E+02 -0.77197952944E+02  0.96785546703E+02  0.12700000000E+01 0. -1.
         -4    1    3    3    0  502  0.34443010448E+02 -0.47892416210E+02 -0.21845216714E+02  0.62919241036E+02  0.12700000000E+01 0. -1.
          1    1    1    2  503    0  0.52452064839E+02 -0.14840117955E+03 -0.16182402449E+03  0.22574575101E+03  0.00000000000E+00 0. -1.
         -1    1    1    2    0  501 -0.59934673061E+02  0.14453026971E+03  0.98053233557E+02  0.18464994045E+03  0.00000000000E+00 0.  1.
<mgrwt>
<rscale>  0 0.11001249E+03</rscale>
<asrwt>0</asrwt>
<pdfrwt beam="2">  1        1 0.56378034E-01 0.77351368E+02</pdfrwt>
<pdfrwt beam="1">  1       -1 0.31329732E-01 0.15646458E+03</pdfrwt>
<totfact> 0.65045838E+02</totfact>
</mgrwt>
</event>
<event>
 7    1  0.3113151E-004  0.6774004E+02  0.7546771E-02  0.1510711E+00
          2   -1    0    0  502    0  0.00000000000E+00  0.00000000000E+00  0.58171683453E+03  0.58171683453E+03  0.00000000000E+00 0. -1.
          2   -1    0    0  503    0 -0.00000000000E+00 -0.00000000000E+00 -0.50464249754E+02  0.50464249754E+02  0.00000000000E+00 0.  1.
         25    2    1    2    0    0 -0.21071255028E+02 -0.42919504798E+02  0.23343898063E+03  0.26908173856E+03  0.12500057067E+03 0.  0.
          4    1    3    3  501    0 -0.18150507349E+02  0.35181371873E+02  0.25934686368E+02  0.47343327945E+02  0.12700000000E+01 0.  1.
         -4    1    3    3    0  501 -0.29207476791E+01 -0.78100876671E+02  0.20750429426E+03  0.22173841061E+03  0.12700000000E+01 0.  1.
          2    1    1    2  502    0 -0.68300061219E+01 -0.22195469262E+02  0.29100703221E+03  0.29193215074E+03  0.00000000000E+00 0. -1.
          2    1    1    2  503    0  0.27901261150E+02  0.65114974061E+02  0.68065719344E+01  0.71167194986E+02  0.00000000000E+00 0.  1.
<mgrwt>
<rscale>  0 0.39662299E+02</rscale>
<asrwt>0</asrwt>
<pdfrwt beam="1">  1        2 0.89494893E-01 0.23222572E+02</pdfrwt>
<pdfrwt beam="2">  1        2 0.77637312E-02 0.67740040E+02</pdfrwt>
<totfact> 0.67918972E+03</totfact>
</mgrwt>
</event>
<event>
 7    1  0.3113151E-004  0.5664347E+02  0.7546771E-02  0.1451571E+00
          1   -1    0    0  503    0 -0.00000000000E+00  0.00000000000E+00  0.12138009330E+04  0.12138009330E+04  0.00000000000E+00 0. -1.
          2   -1    0    0  502    0  0.00000000000E+00 -0.00000000000E+00 -0.51018193551E+02  0.51018193551E+02  0.00000000000E+00 0. -1.
         25    2    1    2    0    0  0.78058648616E+02 -0.50029269381E+02  0.75254871348E+03  0.76847318415E+03  0.12500155271E+03 0.  0.
          4    1    3    3  501    0  0.94786368459E+02 -0.58956620497E+01  0.63044168391E+03  0.63755591456E+03  0.12700000000E+01 0. -1.
         -4    1    3    3    0  501 -0.16727719842E+02 -0.44133607332E+02  0.12210702956E+03  0.13091726959E+03  0.12700000000E+01 0. -1.
          2    1    1    2  502    0 -0.36651131951E+02  0.42143326481E+02 -0.23481668645E+02  0.60586749397E+02  0.00000000000E+00 0. -1.
          1    1    1    2  503    0 -0.41407516665E+02  0.78859429002E+01  0.43371569465E+03  0.43575919304E+03  0.00000000000E+00 0. -1.
<mgrwt>
<rscale>  0 0.48863298E+02</rscale>
<asrwt>0</asrwt>
<pdfrwt beam="2">  1        2 0.78489537E-02 0.56643474E+02</pdfrwt>
<pdfrwt beam="1">  1        1 0.18673858E+00 0.42151756E+02</pdfrwt>
<totfact> 0.13746008E+03</totfact>
</mgrwt>
</event>
<event>
 7    1  0.3113151E-004  0.1689751E+03  0.7546771E-02  0.1243928E+00
         -1   -1    0    0    0  501 -0.00000000000E+00  0.00000000000E+00  0.31604785423E+03  0.31604785423E+03  0.00000000000E+00 0.  1.
          2   -1    0    0  503    0  0.00000000000E+00 -0.00000000000E+00 -0.70996579288E+03  0.70996579288E+03  0.00000000000E+00 0. -1.
         25    2    1    2    0    0  0.21208327028E+02 -0.15388099339E+03 -0.32795529921E+03  0.38380802410E+03  0.12499907129E+03 0.  0.
          4    1    3    3  502    0  0.25773150741E+02 -0.10620837662E+03 -0.31608970708E+03  0.33445297186E+03  0.12700000000E+01 0.  1.
         -4    1    3    3    0  502 -0.45648237127E+01 -0.47672616765E+02 -0.11865592124E+02  0.49355052236E+02  0.12700000000E+01 0.  1.
          2    1    1    2  503    0 -0.84333969147E+02 -0.54179364707E+01 -0.32267618763E+03  0.33355883207E+03  0.00000000000E+00 0. -1.
         -1    1    1    2    0  501  0.63125642119E+02  0.15929892986E+03  0.25671354818E+03  0.30864679095E+03  0.00000000000E+00 0.  1.
<mgrwt>
<rscale>  0 0.11949779E+03</rscale>
<asrwt>0</asrwt>
<pdfrwt beam="2">  1        2 0.10922551E+00 0.84507824E+02</pdfrwt>
<pdfrwt beam="1">  1       -1 0.48622747E-01 0.16897514E+03</pdfrwt>
<totfact> 0.21352715E+02</totfact>
</mgrwt>
</event>
<event>
 7    1  0.3113151E-004  0.7022478E+02  0.7546771E-02  0.1478840E+00
          3   -1    0    0  503    0  0.00000000000E+00  0.00000000000E+00  0.13027784510E+03  0.13027784510E+03  0.00000000000E+00 0. -1.
         -1   -1    0    0    0  501 -0.00000000000E+00 -0.00000000000E+00 -0.18013280470E+03  0.18013280470E+03  0.00000000000E+00 0.  1.
         25    2    1    2    0    0  0.31701304762E+02  0.46788118506E+02  0.43244351381E+02  0.14383833885E+03  0.12500117215E+03 0.  0.
          4    1    3    3  502    0 -0.28726180439E+02  0.17404419447E+02  0.65019927521E+02  0.73193655010E+02  0.12700000000E+01 0.  1.
         -4    1    3    3    0  502  0.60427485201E+02  0.29383699059E+02 -0.21775576140E+02  0.70644683836E+02  0.12700000000E+01 0.  1.
          3    1    1    2  503    0 -0.48656012646E+02 -0.68983073932E+02 -0.17816816446E+02  0.86275784575E+02  0.00000000000E+00 0. -1.
         -1    1    1    2    0  501  0.16954707884E+02  0.22194955426E+02 -0.75282494528E+02  0.80296526377E+02  0.00000000000E+00 0.  1.
<mgrwt>
<rscale>  0 0.44287354E+02</rscale>
<asrwt>0</asrwt>
<pdfrwt beam="1">  1        3 0.20042745E-01 0.70224783E+02</pdfrwt>
<pdfrwt beam="2">  1       -1 0.27712739E-01 0.27929879E+02</pdfrwt>
<totfact> 0.10260807E+03</totfact>
</mgrwt>
</event>
<event>
 7    1  0.3113151E-004  0.4934279E+02  0.7546771E-02  0.1486571E+00
         -2   -1    0    0    0  501 -0.00000000000E+00  0.00000000000E+00  0.32926033864E+02  0.32926033864E+02  0.00000000000E+00 0.  1.
          1   -1    0    0  503    0  0.00000000000E+00 -0.00000000000E+00 -0.41405897834E+03  0.41405897834E+03  0.00000000000E+00 0. -1.
         25    2    1    2    0    0 -0.25907349993E+02  0.31077651096E+02 -0.15481681924E+03  0.20304053149E+03  0.12498079343E+03 0.  0.
          4    1    3    3  502    0  0.33660272371E+02  0.36013301681E+02 -0.12865568945E+03  0.13778196965E+03  0.12700000000E+01 0. -1.
         -4    1    3    3    0  502 -0.59567622365E+02 -0.49356505852E+01 -0.26161129792E+02  0.65258561836E+02  0.12700000000E+01 0. -1.
          1    1    1    2  503    0  0.53048573071E+02 -0.49910196860E+01 -0.13875985130E+03  0.14863834537E+03  0.00000000000E+00 0. -1.
         -2    1    1    2    0  501 -0.27141223077E+02 -0.26086631410E+02 -0.87556273938E+02  0.95306135344E+02  0.00000000000E+00 0.  1.
<mgrwt>
<rscale>  0 0.43098924E+02</rscale>
<asrwt>0</asrwt>
<pdfrwt beam="2">  1        1 0.63701377E-01 0.49342787E+02</pdfrwt>
<pdfrwt beam="1">  1       -2 0.50655440E-02 0.37645163E+02</pdfrwt>
<totfact> 0.82430087E+03</totfact>
</mgrwt>
</event>
<event>
 7    1  0.3113151E-004  0.4735782E+02  0.7546771E-02  0.1514268E+00
          1   -1    0    0  503    0  0.00000000000E+00  0.00000000000E+00  0.70535978890E+03  0.70535978890E+03  0.00000000000E+00 0. -1.
         -2   -1    0    0    0  501 -0.00000000000E+00 -0.00000000000E+00 -0.24908348388E+02  0.24908348388E+02  0.00000000000E+00 0.  1.
         25    2    1    2    0    0 -0.40065046531E+02 -0.46406130007E+02  0.53925395030E+03  0.55693585739E+03  0.12499595788E+03 0.  0.
          4    1    3    3  502    0 -0.51615297065E+02 -0.80632326235E+02  0.29839137752E+03  0.31337635201E+03  0.12700000000E+01 0. -1.
         -4    1    3    3    0  502  0.11550250535E+02  0.34226196228E+02  0.24086257278E+03  0.24355950538E+03  0.12700000000E+01 0. -1.
          1    1    1    2  503    0  0.32428646915E+02  0.86446577153E-01  0.11518354526E+03  0.11966149637E+03  0.00000000000E+00 0. -1.
         -2    1    1    2    0  501  0.76363996157E+01  0.46319683430E+02  0.26013944956E+02  0.53670783526E+02  0.00000000000E+00 0.  1.
<mgrwt>
<rscale>  0 0.39188715E+02</rscale>
<asrwt>0</asrwt>
<pdfrwt beam="1">  1        1 0.10851688E+00 0.32428762E+02</pdfrwt>
<pdfrwt beam="2">  1       -2 0.38320541E-02 0.47357817E+02</pdfrwt>
<totfact> 0.65372067E+03</totfact>
</mgrwt>
</event>
<event>
 7    1  0.3113151E-004  0.4234432E+02  0.7546771E-02  0.1556245E+00
          2   -1    0    0  503    0  0.00000000000E+00  0.00000000000E+00  0.11420663321E+04  0.11420663321E+04  0.00000000000E+00 0. -1.
          2   -1    0    0  502    0 -0.00000000000E+00 -0.00000000000E+00 -0.29821814740E+03  0.29821814740E+03  0.00000000000E+00 0.  1.
         25    2    1    2    0    0 -0.51306807717E+02  0.47118610442E+02  0.91475768501E+03  0.92588246960E+03  0.12499669301E+03 0.  0.
          4    1    3    3  501    0 -0.37294552356E+02 -0.94493614636E+01  0.76870866431E+02  0.85970443022E+02  0.12700000000E+01 0.  1.
         -4    1    3    3    0  501 -0.14012255361E+02  0.56567971906E+02  0.83788681858E+03  0.83991202658E+03  0.12700000000E+01 0.  1.
          2    1    1    2  502    0  0.29414783191E+02 -0.30397005592E+02 -0.29026129911E+03  0.29332717089E+03  0.00000000000E+00 0.  1.
          2    1    1    2  503    0  0.21892024526E+02 -0.16721604851E+02  0.21935179885E+03  0.22107483906E+03  0.00000000000E+00 0. -1.
<mgrwt>
<rscale>  0 0.34153864E+02</rscale>
<asrwt>0</asrwt>
<pdfrwt beam="1">  1        2 0.17570251E+00 0.27547646E+02</pdfrwt>
<pdfrwt beam="2">  1        2 0.45879716E-01 0.42344322E+02</pdfrwt>
<totfact> 0.41871883E+02</totfact>
</mgrwt>
</event>
<event>
 7    1  0.3113151E-004  0.1431013E+03  0.7546771E-02  0.1310240E+00
          1   -1    0    0  503    0 -0.00000000000E+00  0.00000000000E+00  0.14462930132E+04  0.14462930132E+04  0.00000000000E+00 0. -1.
          2   -1    0    0  502    0  0.00000000000E+00 -0.00000000000E+00 -0.23715054006E+04  0.23715054006E+04  0.00000000000E+00 0. -1.
         25    2    1    2    0    0 -0.10258111793E+03 -0.32671208146E+02  0.67605706556E+02  0.17828236688E+03  0.12499510864E+03 0.  0.
          4    1    3    3  501    0 -0.12905763140E+03 -0.39046185978E+02  0.42927822786E+02  0.14150932030E+03  0.12700000000E+01 0. -1.
         -4    1    3    3    0  501  0.26476513467E+02  0.63749778320E+01  0.24677883770E+02  0.36773046584E+02  0.12700000000E+01 0. -1.
          2    1    1    2  502    0 -0.17892388700E+02 -0.49796560469E+02 -0.23118367394E+04  0.23124422035E+04  0.00000000000E+00 0. -1.
          1    1    1    2  503    0  0.12047350663E+03  0.82467768616E+02  0.13190186454E+04  0.13270738433E+04  0.00000000000E+00 0. -1.
<mgrwt>
<rscale>  0 0.87017166E+02</rscale>
<asrwt>0</asrwt>
<pdfrwt beam="2">  1        2 0.36484698E+00 0.52913467E+02</pdfrwt>
<pdfrwt beam="1">  1        1 0.22250662E+00 0.14310132E+03</pdfrwt>
<totfact> 0.65694996E+00</totfact>
</mgrwt>
</event>
<event>
 7    1  0.3113151E-004  0.1163746E+03  0.7546771E-02  0.1399673E+00
          2   -1    0    0  503    0  0.00000000000E+00  0.00000000000E+00  0.12936597396E+04  0.12936597396E+04  0.00000000000E+00 0. -1.
         -2   -1    0    0    0  501 -0.00000000000E+00 -0.00000000000E+00 -0.20545608253E+02  0.20545608253E+02  0.00000000000E+00 0.  1.
         25    2    1    2    0    0  0.20312509648E+02  0.11878350569E+03  0.56469233019E+03  0.59078281721E+03  0.12499916021E+03 0.  0.
          4    1    3    3  502    0  0.11393225570E+02 -0.10209871137E+02  0.46991525444E+01  0.16054344962E+02  0.12700000000E+01 0.  1.
         -4    1    3    3    0  502  0.89192840781E+01  0.12899337683E+03  0.55999317765E+03  0.57472847224E+03  0.12700000000E+01 0.  1.
          2    1    1    2  503    0  0.99667255824E+01 -0.11523851812E+03  0.53775484745E+03  0.55005411337E+03  0.00000000000E+00 0. -1.
         -2    1    1    2    0  501 -0.30279235230E+02 -0.35449875667E+01  0.17066695371E+03  0.17336841729E+03  0.00000000000E+00 0.  1.
<mgrwt>
<rscale>  0 0.59563414E+02</rscale>
<asrwt>0</asrwt>
<pdfrwt beam="1">  1        2 0.19902451E+00 0.11637456E+03</pdfrwt>
<pdfrwt beam="2">  1       -2 0.31608638E-02 0.30486046E+02</pdfrwt>
<totfact> 0.56540271E+03</totfact>
</mgrwt>
</event>
<event>
 7    1  0.3113151E-004  0.1348130E+03  0.7546771E-02  0.1319226E+00
          2   -1    0    0  502    0  0.00000000000E+00  0.00000000000E+00  0.13973476475E+03  0.13973476475E+03  0.00000000000E+00 0. -1.
          2   -1    0    0  503    0 -0.00000000000E+00 -0.00000000000E+00 -0.15981309619E+04  0.15981309619E+04  0.00000000000E+00 0. -1.
         25    2    1    2    0    0  0.16876814147E+03  0.37130824591E+02 -0.75901779465E+03  0.78841208633E+03  0.12499688627E+03 0.  0.
          4    1    3    3  501    0  0.61307076157E+02 -0.43663236485E+02 -0.20719605780E+03  0.22044694390E+03  0.12700000000E+01 0. -1.
         -4    1    3    3    0  501  0.10746106531E+03  0.80794061076E+02 -0.55182173685E+03  0.56796514244E+03  0.12700000000E+01 0. -1.
          2    1    1    2  502    0 -0.13323983750E+03  0.56482230464E+00  0.88448303353E+02  0.15992584434E+03  0.00000000000E+00 0. -1.
          2    1    1    2  503    0 -0.35528303970E+02 -0.37695646896E+02 -0.78782670587E+03  0.78952779600E+03  0.00000000000E+00 0. -1.
<mgrwt>
<rscale>  0 0.83566070E+02</rscale>
<asrwt>0</asrwt>
<pdfrwt beam="1">  1        2 0.21497657E-01 0.13481296E+03</pdfrwt>
<pdfrwt beam="2">  1        2 0.24586629E+00 0.51799828E+02</pdfrwt>
<totfact> 0.54077437E+02</totfact>
</mgrwt>
</event>
<event>
 7    1  0.3113151E-004  0.6450994E+02  0.7546771E-02  0.1420762E+00
         -1   -1    0    0    0  501 -0.00000000000E+00  0.00000000000E+00  0.18204262317E+02  0.18204262317E+02  0.00000000000E+00 0.  1.
          2   -1    0    0  503    0  0.00000000000E+00 -0.00000000000E+00 -0.10629781358E+04  0.10629781358E+04  0.00000000000E+00 0. -1.
         25    2    1    2    0    0  0.56286612547E+02  0.54025384193E+02 -0.78469507429E+03  0.79840963069E+03  0.12499861547E+03 0.  0.
          4    1    3    3  502    0  0.15514098293E+02  0.76911482678E+02 -0.66946470544E+03  0.67404797169E+03  0.12700000000E+01 0. -1.
         -4    1    3    3    0  502  0.40772514254E+02 -0.22886098485E+02 -0.11523036885E+03  0.12436165899E+03  0.12700000000E+01 0. -1.
          2    1    1    2  503    0 -0.45689909445E+02  0.94339058405E+01 -0.10861686177E+03  0.11821247423E+03  0.00000000000E+00 0. -1.
         -1    1    1    2    0  501 -0.10596703101E+02 -0.63459290033E+02 -0.15146193744E+03  0.16456029321E+03  0.00000000000E+00 0.  1.
<mgrwt>
<rscale>  0 0.54860064E+02</rscale>
<asrwt>0</asrwt>
<pdfrwt beam="2">  1        2 0.16353512E+00 0.46653686E+02</pdfrwt>
<pdfrwt beam="1">  1       -1 0.28006553E-02 0.64509942E+02</pdfrwt>
<totfact> 0.10704225E+04</totfact>
</mgrwt>
</event>
<event>
 7    1  0.3113151E-004  0.9716540E+02  0.7546771E-02  0.1305277E+00
         -2   -1    0    0    0  501 -0.00000000000E+00  0.00000000000E+00  0.14250507088E+03  0.14250507088E+03  0.00000000000E+00 0.  1.
          1   -1    0    0  503    0  0.00000000000E+00 -0.00000000000E+00 -0.43937469132E+03  0.43937469132E+03  0.00000000000E+00 0. -1.
         25    2    1    2    0    0  0.75982652802E+01 -0.10164157316E+03 -0.65891672546E+02  0.17417737341E+03  0.12492918740E+03 0.  0.
          4    1    3    3  502    0 -0.38448064255E+02  0.10452088075E+02 -0.12795856873E+02  0.41867011395E+02  0.12700000000E+01 0.  1.
         -4    1    3    3    0  502  0.46046329535E+02 -0.11209366124E+03 -0.53095815673E+02  0.13231036201E+03  0.12700000000E+01 0.  1.
          1    1    1    2  503    0 -0.79200017578E+02  0.62646957448E+02 -0.28998100438E+03  0.30706068938E+03  0.00000000000E+00 0. -1.
         -2    1    1    2    0  501  0.71601752298E+02  0.38994615715E+02  0.59003056489E+02  0.10064169942E+03  0.00000000000E+00 0.  1.
<mgrwt>
<rscale>  0 0.89005868E+02</rscale>
<asrwt>0</asrwt>
<pdfrwt beam="2">  1        1 0.67596105E-01 0.97165405E+02</pdfrwt>
<pdfrwt beam="1">  1       -2 0.21923857E-01 0.81531534E+02</pdfrwt>
<totfact> 0.83122019E+02</totfact>
</mgrwt>
</event>
<event>
 7    1  0.3113151E-004  0.2114743E+03  0.7546771E-02  0.1236851E+00
          1   -1    0    0  503    0 -0.00000000000E+00  0.00000000000E+00  0.44516969481E+03  0.44516969481E+03  0.00000000000E+00 0. -1.
          2   -1    0    0  502    0  0.00000000000E+00 -0.00000000000E+00 -0.15377526559E+04  0.15377526559E+04  0.00000000000E+00 0. -1.
         25    2    1    2    0    0  0.17826267236E+03 -0.12371890895E+03  0.88728052225E+02  0.26567279867E+03  0.12500167964E+03 0.  0.
          4    1    3    3  501    0  0.81293360348E+02 -0.12765764060E+03  0.37502979098E+02  0.15592680969E+03  0.12700000000E+01 0.  1.
         -4    1    3    3    0  501  0.96969312014E+02  0.39387316509E+01  0.51225073126E+02  0.10974598898E+03  0.12700000000E+01 0.  1.
          2    1    1    2  502    0 -0.20422105328E+03  0.55969229624E+02 -0.14364611679E+04  0.14519846694E+04  0.00000000000E+00 0. -1.
          1    1    1    2  503    0  0.25958380917E+02  0.67749679325E+02  0.25515015457E+03  0.26526488265E+03  0.00000000000E+00 0. -1.
<mgrwt>
<rscale>  0 0.12386677E+03</rscale>
<asrwt>0</asrwt>
<pdfrwt beam="2">  1        2 0.23657734E+00 0.21147432E+03</pdfrwt>
<pdfrwt beam="1">  1        1 0.68487644E-01 0.72552440E+02</pdfrwt>
<totfact> 0.98380277E+01</totfact>
</mgrwt>
</event>
<event>
 7    1  0.3113151E-004  0.5220766E+02  0.7546771E-02  0.1443434E+00
         -2   -1    0    0    0  501 -0.00000000000E+00  0.00000000000E+00  0.11486630260E+02  0.11486630260E+02  0.00000000000E+00 0.  1.
          1   -1    0    0  503    0  0.00000000000E+00 -0.00000000000E+00 -0.14881113804E+04  0.14881113804E+04  0.00000000000E+00 0. -1.
         25    2    1    2    0    0 -0.73977871998E+02 -0.30440583966E+02 -0.83105786886E+03  0.84420311262E+03  0.12498943663E+03 0.  0.
          4    1    3    3  502    0 -0.11523386549E+02 -0.71068479995E+02 -0.34176360795E+03  0.34926708105E+03  0.12700000000E+01 0. -1.
         -4    1    3    3    0  502 -0.62454485450E+02  0.40627896029E+02 -0.48929426091E+03  0.49493603157E+03  0.12700000000E+01 0. -1.
          1    1    1    2  503    0  0.47380706675E+02 -0.10677688067E+02 -0.48756418382E+03  0.48997732369E+03  0.00000000000E+00 0. -1.
         -2    1    1    2    0  501  0.26597165323E+02  0.41118272033E+02 -0.15800269745E+03  0.16541757434E+03  0.00000000000E+00 0.  1.
<mgrwt>
<rscale>  0 0.50355456E+02</rscale>
<asrwt>0</asrwt>
<pdfrwt beam="2">  1        1 0.22894019E+00 0.48568965E+02</pdfrwt>
<pdfrwt beam="1">  1       -2 0.17671740E-02 0.52207659E+02</pdfrwt>
<totfact> 0.56200396E+03</totfact>
</mgrwt>
</event>
<event>
 7    1  0.3113151E-004  0.5134713E+02  0.7546771E-02  0.1501572E+00
         -2   -1    0    0    0  501 -0.00000000000E+00  0.00000000000E+00  0.18095385933E+03  0.18095385933E+03  0.00000000000E+00 0.  1.
          1   -1    0    0  503    0  0.00000000000E+00 -0.00000000000E+00 -0.12580841579E+04  0.12580841579E+04  0.00000000000E+00 0. -1.
         25    2    1    2    0    0  0.38679254436E+02 -0.45210163223E+02  0.30128308658E+02  0.14167492357E+03  0.12499610156E+03 0.  0.
          4    1    3    3  502    0  0.73071582759E+02 -0.64438584737E+02  0.11623694718E+02  0.98124974337E+02  0.12700000000E+01 0. -1.
         -4    1    3    3    0  502 -0.34392328323E+02  0.19228421514E+02  0.18504613940E+02  0.43549949236E+02  0.12700000000E+01 0. -1.
          1    1    1    2  503    0 -0.65803499741E+01  0.50933336791E+02 -0.11989487967E+04  0.12000482169E+04  0.00000000000E+00 0. -1.
         -2    1    1    2    0  501 -0.32098904462E+02 -0.57231735686E+01  0.91690189492E+02  0.97314876727E+02  0.00000000000E+00 0.  1.
<mgrwt>
<rscale>  0 0.40916742E+02</rscale>
<asrwt>0</asrwt>
<pdfrwt beam="2">  1        1 0.19355141E+00 0.51347131E+02</pdfrwt>
<pdfrwt beam="1">  1       -2 0.27839055E-01 0.32605128E+02</pdfrwt>
<totfact> 0.11720037E+02</totfact>
</mgrwt>
</event>
<event>
 7    1  0.3113151E-004  0.4653286E+02  0.7546771E-02  0.1514143E+00
         -2   -1    0    0    0  501 -0.00000000000E+00  0.00000000000E+00  0.22851961323E+02  0.22851961323E+02  0.00000000000E+00 0.  1.
          1   -1    0    0  503    0  0.00000000000E+00 -0.00000000000E+00 -0.60099046807E+03  0.60099046807E+03  0.00000000000E+00 0. -1.
         25    2    1    2    0    0 -0.12645240288E+02  0.34721187131E+02 -0.43587792662E+03  0.45495257048E+03  0.12500724593E+03 0.  0.
          4    1    3    3  502    0  0.55808747855E+02  0.11721937027E+02 -0.22189601511E+03  0.22911017997E+03  0.12700000000E+01 0.  1.
         -4    1    3    3    0  502 -0.68453988143E+02  0.22999250105E+02 -0.21398191151E+03  0.22584239051E+03  0.12700000000E+01 0.  1.
          1    1    1    2  503    0 -0.12494260983E+02 -0.56147333783E+02 -0.98454655035E+02  0.11402608801E+03  0.00000000000E+00 0. -1.
         -2    1    1    2    0  501  0.25139501271E+02  0.21426146652E+02 -0.43805925090E+02  0.54863770901E+02  0.00000000000E+00 0.  1.
<mgrwt>
<rscale>  0 0.39205182E+02</rscale>
<asrwt>0</asrwt>
<pdfrwt beam="2">  1        1 0.92460080E-01 0.46532864E+02</pdfrwt>
<pdfrwt beam="1">  1       -2 0.35156861E-02 0.33031414E+02</pdfrwt>
<totfact> 0.85757837E+03</totfact>
</mgrwt>
</event>
<event>
 7    1  0.3113151E-004  0.3618392E+02  0.7546771E-02  0.1557368E+00
          1   -1    0    0  503    0 -0.00000000000E+00  0.00000000000E+00  0.41819767697E+03  0.41819767697E+03  0.00000000000E+00 0. -1.
          2   -1    0    0  502    0  0.00000000000E+00 -0.00000000000E+00 -0.38415291068E+04  0.38415291068E+04  0.00000000000E+00 0. -1.
         25    2    1    2    0    0  0.51309633599E+02 -0.24862010802E+02 -0.19985449616E+04  0.20032615861E+04  0.12499688197E+03 0.  0.
          4    1    3    3  501    0  0.38363386190E+02  0.43201056871E+02 -0.13010686507E+04  0.13023514608E+04  0.12700000000E+01 0. -1.
         -4    1    3    3    0  501  0.12946247409E+02 -0.68063067673E+02 -0.69747631097E+03  0.70091012532E+03  0.12700000000E+01 0. -1.
          2    1    1    2  502    0 -0.15278278951E+02  0.28126482655E+02 -0.18396994439E+04  0.18399778718E+04  0.00000000000E+00 0. -1.
          1    1    1    2  503    0 -0.36031354648E+02 -0.32644718526E+01  0.41491297566E+03  0.41648732594E+03  0.00000000000E+00 0. -1.
<mgrwt>
<rscale>  0 0.34032076E+02</rscale>
<asrwt>0</asrwt>
<pdfrwt beam="2">  1        2 0.59100447E+00 0.32008199E+02</pdfrwt>
<pdfrwt beam="1">  1        1 0.64338105E-01 0.36183922E+02</pdfrwt>
<totfact> 0.74619510E+00</totfact>
</mgrwt>
</event>
<event>
 7    1  0.3113151E-004  0.8995213E+02  0.7546771E-02  0.1339046E+00
         -1   -1    0    0    0  501 -0.00000000000E+00  0.00000000000E+00  0.21284262792E+04  0.21284262792E+04  0.00000000000E+00 0.  1.
          1   -1    0    0  503    0  0.00000000000E+00 -0.00000000000E+00 -0.27355953073E+03  0.27355953073E+03  0.00000000000E+00 0. -1.
         25    2    1    2    0    0  0.69227410560E+02  0.34773249115E+02  0.36735670288E+03  0.39569828631E+03  0.12499829362E+03 0.  0.
          4    1    3    3  502    0  0.65778695346E+02 -0.26082794382E+01  0.70463223145E+02  0.96438159455E+02  0.12700000000E+01 0. -1.
         -4    1    3    3    0  502  0.34487152145E+01  0.37381528553E+02  0.29689347974E+03  0.29926012685E+03  0.12700000000E+01 0. -1.
          1    1    1    2  503    0  0.19432159471E+02 -0.62232990217E+02 -0.25403667861E+03  0.26226930429E+03  0.00000000000E+00 0. -1.
         -1    1    1    2    0  501 -0.88659570031E+02  0.27459741102E+02  0.17415467242E+04  0.17440182193E+04  0.00000000000E+00 0.  1.
<mgrwt>
<rscale>  0 0.76580310E+02</rscale>
<asrwt>0</asrwt>
<pdfrwt beam="2">  1        1 0.42086083E-01 0.65196272E+02</pdfrwt>
<pdfrwt beam="1">  1       -1 0.32745019E+00 0.89952135E+02</pdfrwt>
<totfact> 0.29804985E+00</totfact>
</mgrwt>
</event>
<event>
 7    1  0.3113151E-004  0.7215852E+02  0.7546771E-02  0.1456010E+00
          2   -1    0    0  503    0  0.00000000000E+00  0.00000000000E+00  0.46240853657E+03  0.46240853657E+03  0.00000000000E+00 0. -1.
         -1   -1    0    0    0  501 -0.00000000000E+00 -0.00000000000E+00 -0.36227100843E+02  0.36227100843E+02  0.00000000000E+00 0.  1.
         25    2    1    2    0    0 -0.44955004530E+02  0.63540041076E+02  0.26230717440E+03  0.30081262769E+03  0.12499957595E+03 0.  0.
          4    1    3    3  502    0 -0.52954007215E+00 -0.32037836379E+02  0.11690785583E+03  0.12122608229E+03  0.12700000000E+01 0.  1.
         -4    1    3    3    0  502 -0.44425464458E+02  0.95577877455E+02  0.14539931857E+03  0.17958654541E+03  0.12700000000E+01 0.  1.
          2    1    1    2  503    0  0.13670618337E+02 -0.70408227009E+02  0.14185117628E+03  0.15895269878E+03  0.00000000000E+00 0. -1.
         -1    1    1    2    0  501  0.31284386193E+02  0.68681859329E+01  0.22023085047E+02  0.38870310939E+02  0.00000000000E+00 0.  1.
<mgrwt>
<rscale>  0 0.48074907E+02</rscale>
<asrwt>0</asrwt>
<pdfrwt beam="1">  1        2 0.71139770E-01 0.72158519E+02</pdfrwt>
<pdfrwt beam="2">  1       -1 0.55734005E-02 0.32029436E+02</pdfrwt>
<totfact> 0.95554237E+03</totfact>
</mgrwt>
</event>
<event>
 7    1  0.3113151E-004  0.2581769E+03  0.7546771E-02  0.1272299E+00
          1   -1    0    0  503    0 -0.00000000000E+00  0.00000000000E+00  0.12097542310E+04  0.12097542310E+04  0.00000000000E+00 0. -1.
          2   -1    0    0  502    0  0.00000000000E+00 -0.00000000000E+00 -0.22521542013E+03  0.22521542013E+03  0.00000000000E+00 0. -1.
         25    2    1    2    0    0 -0.26420519740E+03  0.72435267992E+02  0.34785734365E+03  0.46009671811E+03  0.12503201233E+03 0.  0.
          4    1    3    3  501    0 -0.15586084095E+03  0.23812205414E+01  0.11440245393E+03  0.19335926748E+03  0.12700000000E+01 0. -1.
         -4    1    3    3    0  501 -0.10834435644E+03  0.70054047450E+02  0.23345488972E+03  0.26673745063E+03  0.12700000000E+01 0. -1.
          2    1    1    2  502    0  0.13096039939E+02 -0.39710732637E+02 -0.14619604090E+03  0.15205831422E+03  0.00000000000E+00 0. -1.
          1    1    1    2  503    0  0.25110915746E+03 -0.32724535354E+02  0.78287750808E+03  0.82281461875E+03  0.00000000000E+00 0. -1.
<mgrwt>
<rscale>  0 0.10390152E+03</rscale>
<asrwt>0</asrwt>
<pdfrwt beam="2">  1        2 0.34648527E-01 0.41814454E+02</pdfrwt>
<pdfrwt beam="1">  1        1 0.18611603E+00 0.25817687E+03</pdfrwt>
<totfact> 0.22383097E+02</totfact>
</mgrwt>
</event>
<event>
 7    1  0.3113151E-004  0.7163317E+02  0.7546771E-02  0.1398868E+00
          2   -1    0    0  502    0  0.00000000000E+00  0.00000000000E+00  0.84653670251E+03  0.84653670251E+03  0.00000000000E+00 0. -1.
          1   -1    0    0  503    0 -0.00000000000E+00 -0.00000000000E+00 -0.11173200982E+04  0.11173200982E+04  0.00000000000E+00 0. -1.
         25    2    1    2    0    0 -0.43872329591E+02 -0.94635470620E+02 -0.78572203258E+03  0.80240966622E+03  0.12498602462E+03 0.  0.
          4    1    3    3  501    0 -0.51713394745E+02 -0.10551623272E+03 -0.77811484927E+03  0.78693855040E+03  0.12700000000E+01 0. -1.
         -4    1    3    3    0  501  0.78410651536E+01  0.10880762097E+02 -0.76071833185E+01  0.15471115816E+02  0.12700000000E+01 0. -1.
          2    1    1    2  502    0 -0.32375000017E+00  0.71588386445E+02  0.83473017437E+03  0.83779440550E+03  0.00000000000E+00 0. -1.
          1    1    1    2  503    0  0.44196079591E+02  0.23047084175E+02 -0.31979153749E+03  0.32365272900E+03  0.00000000000E+00 0. -1.
<mgrwt>
<rscale>  0 0.59753747E+02</rscale>
<asrwt>0</asrwt>
<pdfrwt beam="1">  1        2 0.13023642E+00 0.71633167E+02</pdfrwt>
<pdfrwt beam="2">  1        1 0.17189540E+00 0.49844373E+02</pdfrwt>
<totfact> 0.70773412E+01</totfact>
</mgrwt>
</event>
<event>
 7    1  0.3113151E-004  0.3894616E+02  0.7546771E-02  0.1597189E+00
         -2   -1    0    0    0  501 -0.00000000000E+00  0.00000000000E+00  0.24245772191E+02  0.24245772191E+02  0.00000000000E+00 0.  1.
          1   -1    0    0  503    0  0.00000000000E+00 -0.00000000000E+00 -0.60293163430E+03  0.60293163430E+03  0.00000000000E+00 0. -1.
         25    2    1    2    0    0 -0.37712606123E+02  0.28984289708E+02 -0.23139727867E+03  0.26726862148E+03  0.12500194295E+03 0.  0.
          4    1    3    3  502    0 -0.15320672983E+02  0.71336785352E+02 -0.19142355140E+03  0.20486153591E+03  0.12700000000E+01 0.  1.
         -4    1    3    3    0  502 -0.22391933140E+02 -0.42352495645E+02 -0.39973727267E+02  0.62407085565E+02  0.12700000000E+01 0.  1.
          1    1    1    2  503    0  0.38320168776E+02 -0.57575536392E+01 -0.32631560233E+03  0.32860836429E+03  0.00000000000E+00 0. -1.
         -2    1    1    2    0  501 -0.60756265229E+00 -0.23226736069E+02 -0.20972981112E+02  0.31300420724E+02  0.00000000000E+00 0.  1.
<mgrwt>
<rscale>  0 0.30081584E+02</rscale>
<asrwt>0</asrwt>
<pdfrwt beam="2">  1        1 0.92758710E-01 0.38946164E+02</pdfrwt>
<pdfrwt beam="1">  1       -2 0.37301189E-02 0.23234681E+02</pdfrwt>
<totfact> 0.74888948E+03</totfact>
</mgrwt>
</event>
<event>
 7    1  0.3113151E-004  0.8406797E+02  0.7546771E-02  0.1396590E+00
          2   -1    0    0  502    0  0.00000000000E+00  0.00000000000E+00  0.14246520294E+04  0.14246520294E+04  0.00000000000E+00 0. -1.
          1   -1    0    0  503    0 -0.00000000000E+00 -0.00000000000E+00 -0.15602885031E+04  0.15602885031E+04  0.00000000000E+00 0. -1.
         25    2    1    2    0    0 -0.55054141455E+02 -0.14473756373E+02  0.18572925362E+03  0.23099998532E+03  0.12500075782E+03 0.  0.
          4    1    3    3  501    0 -0.66777110587E+02 -0.60077725649E+02  0.11314513069E+03  0.14447127436E+03  0.12700000000E+01 0. -1.
         -4    1    3    3    0  501  0.11722969132E+02  0.45603969276E+02  0.72584122930E+02  0.86528710960E+02  0.12700000000E+01 0. -1.
          2    1    1    2  502    0  0.65197710591E+02  0.56514781317E+02  0.12144524318E+04  0.12175136020E+04  0.00000000000E+00 0. -1.
          1    1    1    2  503    0 -0.10143569136E+02 -0.42041024944E+02 -0.15358181592E+04  0.15364269452E+04  0.00000000000E+00 0. -1.
<mgrwt>
<rscale>  0 0.60296960E+02</rscale>
<asrwt>0</asrwt>
<pdfrwt beam="1">  1        2 0.21917724E+00 0.84067974E+02</pdfrwt>
<pdfrwt beam="2">  1        1 0.24004438E+00 0.43247425E+02</pdfrwt>
<totfact> 0.17659399E+01</totfact>
</mgrwt>
</event>
<event>
 7    1  0.3113151E-004  0.3776330E+02  0.7546771E-02  0.1590826E+00
          1   -1    0    0  503    0 -0.00000000000E+00  0.00000000000E+00  0.11602924027E+04  0.11602924027E+04  0.00000000000E+00 0. -1.
          2   -1    0    0  502    0  0.00000000000E+00 -0.00000000000E+00 -0.72508105403E+03  0.72508105403E+03  0.00000000000E+00 0. -1.
         25    2    1    2    0    0  0.37515699482E+02 -0.48230714336E+02 -0.34728543219E+03  0.37411965818E+03  0.12499887085E+03 0.  0.
          4    1    3    3  501    0  0.26992545840E+02 -0.84092786891E+02 -0.30564578753E+03  0.31815272225E+03  0.12700000000E+01 0.  1.
         -4    1    3    3    0  501  0.10523153643E+02  0.35862072554E+02 -0.41639644661E+02  0.55966935935E+02  0.12700000000E+01 0.  1.
          2    1    1    2  502    0 -0.22162518147E+02  0.28621230058E+02 -0.36334383181E+03  0.36514256412E+03  0.00000000000E+00 0. -1.
          1    1    1    2  503    0 -0.15353181335E+02  0.19609484279E+02  0.11458406127E+04  0.11461112344E+04  0.00000000000E+00 0. -1.
<mgrwt>
<rscale>  0 0.30667403E+02</rscale>
<asrwt>0</asrwt>
<pdfrwt beam="2">  1        2 0.11155093E+00 0.37763295E+02</pdfrwt>
<pdfrwt beam="1">  1        1 0.17850652E+00 0.24904860E+02</pdfrwt>
<totfact> 0.86270449E+01</totfact>
</mgrwt>
</event>
<event>
 7    1  0.3113151E-004  0.9032070E+02  0.7546771E-02  0.1384057E+00
          2   -1    0    0  502    0  0.00000000000E+00  0.00000000000E+00  0.61272286008E+02  0.61272286008E+02  0.00000000000E+00 0. -1.
          1   -1    0    0  503    0 -0.00000000000E+00 -0.00000000000E+00 -0.84206974095E+03  0.84206974095E+03  0.00000000000E+00 0. -1.
         25    2    1    2    0    0 -0.39513327989E+02 -0.36221282090E+02 -0.24706255031E+03  0.28203189110E+03  0.12501519693E+03 0.  0.
          4    1    3    3  501    0 -0.47886559736E+02 -0.13902182036E+01 -0.19623860424E+02  0.51785751978E+02  0.12700000000E+01 0. -1.
         -4    1    3    3    0  501  0.83732317471E+01 -0.34831063887E+02 -0.22743868989E+03  0.23024613912E+03  0.12700000000E+01 0. -1.
          2    1    1    2  502    0  0.72222315377E+02  0.66417334611E+02 -0.13348044320E+02  0.99022701753E+02  0.00000000000E+00 0. -1.
          1    1    1    2  503    0 -0.32708987388E+02 -0.30196052521E+02 -0.52038686032E+03  0.52228743411E+03  0.00000000000E+00 0. -1.
<mgrwt>
<rscale>  0 0.63409161E+02</rscale>
<asrwt>0</asrwt>
<pdfrwt beam="1">  1        2 0.94265057E-02 0.90320704E+02</pdfrwt>
<pdfrwt beam="2">  1        1 0.12954919E+00 0.44516058E+02</pdfrwt>
<totfact> 0.20502671E+03</totfact>
</mgrwt>
</event>
<event>
 7    1  0.3113151E-004  0.6780550E+02  0.7546771E-02  0.1381419E+00
         -2   -1    0    0    0  501 -0.00000000000E+00  0.00000000000E+00  0.19524805562E+03  0.19524805562E+03  0.00000000000E+00 0.  1.
          2   -1    0    0  503    0  0.00000000000E+00 -0.00000000000E+00 -0.13705971969E+04  0.13705971969E+04  0.00000000000E+00 0. -1.
         25    2    1    2    0    0 -0.29737039960E+02  0.60519830010E+02 -0.43801178279E+02  0.14862981786E+03  0.12500135266E+03 0.  0.
          4    1    3    3  502    0 -0.27259433877E+02  0.64797871775E+02  0.28705434377E+02  0.75943767254E+02  0.12700000000E+01 0.  1.
         -4    1    3    3    0  502 -0.24776060827E+01 -0.42780417649E+01 -0.72506612657E+02  0.72686050602E+02  0.12700000000E+01 0.  1.
          2    1    1    2  503    0  0.67065511805E+02 -0.12804112088E+02 -0.12669970099E+04  0.12688353523E+04  0.00000000000E+00 0. -1.
         -2    1    1    2    0  501 -0.37328471845E+02 -0.47715717922E+02  0.13544904688E+03  0.14838008238E+03  0.00000000000E+00 0.  1.
<mgrwt>
<rscale>  0 0.64092179E+02</rscale>
<asrwt>0</asrwt>
<pdfrwt beam="2">  1        2 0.21086111E+00 0.67805503E+02</pdfrwt>
<pdfrwt beam="1">  1       -2 0.30038162E-01 0.60582213E+02</pdfrwt>
<totfact> 0.17740120E+02</totfact>
</mgrwt>
</event>
<event>
 7    1  0.3113151E-004  0.1447505E+03  0.7546771E-02  0.1379603E+00
          1   -1    0    0  502    0  0.00000000000E+00  0.00000000000E+00  0.19766364852E+03  0.19766364852E+03  0.00000000000E+00 0. -1.
          1   -1    0    0  503    0 -0.00000000000E+00 -0.00000000000E+00 -0.68350277384E+03  0.68350277384E+03  0.00000000000E+00 0. -1.
         25    2    1    2    0    0 -0.14495028137E+03  0.75269307337E+02 -0.43632569835E+03  0.48237049373E+03  0.12500050196E+03 0.  0.
          4    1    3    3  501    0 -0.13933748022E+03  0.10556000326E+03 -0.36805711836E+03  0.40746227182E+03  0.12700000000E+01 0.  1.
         -4    1    3    3    0  501 -0.56128011503E+01 -0.30290695927E+02 -0.68268579986E+02  0.74908221910E+02  0.12700000000E+01 0.  1.
          1    1    1    2  502    0  0.11721367108E+03 -0.83028950156E+02  0.14385712657E+03  0.20329221362E+03  0.00000000000E+00 0. -1.
          1    1    1    2  503    0  0.27736610286E+02  0.77596428186E+01 -0.19337055354E+03  0.19550371501E+03  0.00000000000E+00 0. -1.
<mgrwt>
<rscale>  0 0.64568147E+02</rscale>
<asrwt>0</asrwt>
<pdfrwt beam="1">  1        1 0.30409793E-01 0.14475053E+03</pdfrwt>
<pdfrwt beam="2">  1        1 0.10515427E+00 0.28801590E+02</pdfrwt>
<totfact> 0.56427680E+02</totfact>
</mgrwt>
</event>
<event>
 7    1  0.3113151E-004  0.1578484E+03  0.7546771E-02  0.1227852E+00
          2   -1    0    0  503    0  0.00000000000E+00  0.00000000000E+00  0.24292215438E+03  0.24292215438E+03  0.00000000000E+00 0. -1.
          2   -1    0    0  502    0 -0.00000000000E+00 -0.00000000000E+00 -0.76916918979E+03  0.76916918979E+03  0.00000000000E+00 0. -1.
         25    2    1    2    0    0  0.11731387557E+03  0.12291274712E+03 -0.17352118370E+03  0.27313944021E+03  0.12500185517E+03 0.  0.
          4    1    3    3  501    0  0.96282159335E+02  0.10372488615E+03 -0.55989686542E+02  0.15220237880E+03  0.12700000000E+01 0. -1.
         -4    1    3    3    0  501  0.21031716237E+02  0.19187860969E+02 -0.11753149716E+03  0.12093706141E+03  0.12700000000E+01 0. -1.
          2    1    1    2  502    0 -0.15988166463E+03 -0.25152764135E+02 -0.51776155461E+03  0.54246828079E+03  0.00000000000E+00 0. -1.
          2    1    1    2  503    0  0.42567789055E+02 -0.97759982988E+02  0.16503570291E+03  0.19648362317E+03  0.00000000000E+00 0. -1.
<mgrwt>
<rscale>  0 0.12973315E+03</rscale>
<asrwt>0</asrwt>
<pdfrwt beam="1">  1        2 0.37372639E-01 0.10662566E+03</pdfrwt>
<pdfrwt beam="2">  1        2 0.11833372E+00 0.15784840E+03</pdfrwt>
<totfact> 0.80183355E+02</totfact>
</mgrwt>
</event>
<event>
 7    1  0.3113151E-004  0.6869939E+02  0.7546771E-02  0.1441270E+00
         -1   -1    0    0    0  501 -0.00000000000E+00  0.00000000000E+00  0.62977438631E+02  0.62977438631E+02  0.00000000000E+00 0.  1.
          2   -1    0    0  503    0  0.00000000000E+00 -0.00000000000E+00 -0.29937128659E+03  0.29937128659E+03  0.00000000000E+00 0. -1.
         25    2    1    2    0    0 -0.87730554679E+02 -0.50477842999E+01 -0.15912074255E+03  0.22059870343E+03  0.12498898710E+03 0.  0.
          4    1    3    3  502    0  0.29844479527E+02  0.12053537493E+02 -0.21236455080E+02  0.38582128619E+02  0.12700000000E+01 0. -1.
         -4    1    3    3    0  502 -0.11757503421E+03 -0.17101321793E+02 -0.13788428747E+03  0.18201657482E+03  0.12700000000E+01 0. -1.
          2    1    1    2  503    0  0.57394641126E+02  0.27108401224E+02 -0.82269034412E+02  0.10390959662E+03  0.00000000000E+00 0. -1.
         -1    1    1    2    0  501  0.30335913554E+02 -0.22060616924E+02  0.49959290059E+01  0.37840425167E+02  0.00000000000E+00 0.  1.
<mgrwt>
<rscale>  0 0.50762760E+02</rscale>
<asrwt>0</asrwt>
<pdfrwt beam="2">  1        2 0.46057121E-01 0.68699394E+02</pdfrwt>
<pdfrwt beam="1">  1       -1 0.96888368E-02 0.37509178E+02</pdfrwt>
<totfact> 0.68820885E+03</totfact>
</mgrwt>
</event>
<event>
 7    1  0.3113151E-004  0.4682676E+02  0.7546771E-02  0.1518889E+00
          1   -1    0    0  503    0  0.00000000000E+00  0.00000000000E+00  0.77309642892E+03  0.77309642892E+03  0.00000000000E+00 0. -1.
          1   -1    0    0  502    0 -0.00000000000E+00 -0.00000000000E+00 -0.11058710450E+04  0.11058710450E+04  0.00000000000E+00 0. -1.
         25    2    1    2    0    0 -0.25400784791E+02  0.68900102563E+02 -0.20391677812E+02  0.14640331814E+03  0.12500274812E+03 0.  0.
          4    1    3    3  501    0 -0.53314647588E+02 -0.81956266178E+01 -0.33279118232E+02  0.63393474060E+02  0.12700000000E+01 0. -1.
         -4    1    3    3    0  501  0.27913862797E+02  0.77095729181E+02  0.12887440420E+02  0.83009844084E+02  0.12700000000E+01 0. -1.
          1    1    1    2  502    0  0.28087149313E+02 -0.37219782964E+02 -0.10215856011E+04  0.10226491776E+04  0.00000000000E+00 0. -1.
          1    1    1    2  503    0 -0.26863645218E+01 -0.31680319599E+02  0.70920266283E+03  0.70991497812E+03  0.00000000000E+00 0. -1.
<mgrwt>
<rscale>  0 0.38585110E+02</rscale>
<asrwt>0</asrwt>
<pdfrwt beam="1">  1        1 0.11893791E+00 0.31794012E+02</pdfrwt>
<pdfrwt beam="2">  1        1 0.17013401E+00 0.46826765E+02</pdfrwt>
<totfact> 0.49254128E+01</totfact>
</mgrwt>
</event>
<event>
 7    1  0.3113151E-004  0.1125921E+03  0.7546771E-02  0.1329488E+00
          2   -1    0    0  502    0  0.00000000000E+00  0.00000000000E+00  0.59360336675E+03  0.59360336675E+03  0.00000000000E+00 0. -1.
          2   -1    0    0  503    0 -0.00000000000E+00 -0.00000000000E+00 -0.23027352078E+03  0.23027352078E+03  0.00000000000E+00 0. -1.
         25    2    1    2    0    0 -0.84718113549E+02 -0.63323706854E+02  0.71056842214E+02  0.17849784657E+03  0.12500142316E+03 0.  0.
          4    1    3    3  501    0 -0.64694877476E+02  0.23188189034E+02  0.55482020869E+02  0.88334516595E+02  0.12700000000E+01 0.  1.
         -4    1    3    3    0  501 -0.20023236073E+02 -0.86511895888E+02  0.15574821344E+02  0.90163329979E+02  0.12700000000E+01 0.  1.
          2    1    1    2  502    0  0.46646188399E+02  0.10523851449E+03  0.45695645892E+03  0.47123265716E+03  0.00000000000E+00 0. -1.
          2    1    1    2  503    0  0.38071925150E+02 -0.41914807640E+02 -0.16468345517E+03  0.17414638380E+03  0.00000000000E+00 0. -1.
<mgrwt>
<rscale>  0 0.79846460E+02</rscale>
<asrwt>0</asrwt>
<pdfrwt beam="1">  1        2 0.91323595E-01 0.11259205E+03</pdfrwt>
<pdfrwt beam="2">  1        2 0.35426696E-01 0.56624399E+02</pdfrwt>
<totfact> 0.11485082E+03</totfact>
</mgrwt>
</event>
<event>
 7    1  0.3113151E-004  0.2076752E+03  0.7546771E-02  0.1278866E+00
         -1   -1    0    0    0  501 -0.00000000000E+00  0.00000000000E+00  0.85842075152E+03  0.85842075152E+03  0.00000000000E+00 0.  1.
          2   -1    0    0  503    0  0.00000000000E+00 -0.00000000000E+00 -0.86390170088E+03  0.86390170088E+03  0.00000000000E+00 0. -1.
         25    2    1    2    0    0  0.18191450100E+03 -0.16787665410E+03  0.46754642336E+03  0.54359865002E+03  0.12499751054E+03 0.  0.
          4    1    3    3  502    0  0.15550344960E+02  0.29189095187E+01 -0.29421504535E+01  0.16143184644E+02  0.12700000000E+01 0. -1.
         -4    1    3    3    0  502  0.16636415604E+03 -0.17079556362E+03  0.47048857381E+03  0.52745546537E+03  0.12700000000E+01 0. -1.
          2    1    1    2  503    0 -0.13430233209E+03  0.15711862784E+03 -0.81116280386E+03  0.83708331365E+03  0.00000000000E+00 0. -1.
         -1    1    1    2    0  501 -0.47612168908E+02  0.10758026260E+02  0.33813543113E+03  0.34164048874E+03  0.00000000000E+00 0.  1.
<mgrwt>
<rscale>  0 0.10068334E+03</rscale>
<asrwt>0</asrwt>
<pdfrwt beam="2">  1        2 0.13290795E+00 0.20767525E+03</pdfrwt>
<pdfrwt beam="1">  1       -1 0.13206473E+00 0.48812434E+02</pdfrwt>
<totfact> 0.21696781E+01</totfact>
</mgrwt>
</event>
<event>
 7    1  0.3113151E-004  0.3321444E+03  0.7546771E-02  0.1125670E+00
          2   -1    0    0  503    0  0.00000000000E+00  0.00000000000E+00  0.12724362095E+04  0.12724362095E+04  0.00000000000E+00 0. -1.
          2   -1    0    0  502    0 -0.00000000000E+00 -0.00000000000E+00 -0.25385532914E+04  0.25385532914E+04  0.00000000000E+00 0. -1.
         25    2    1    2    0    0  0.37439625290E+03 -0.24845905943E+03 -0.10210975958E+03  0.47744704973E+03  0.12499929556E+03 0.  0.
          4    1    3    3  501    0  0.17607542885E+03 -0.15012775971E+03  0.51861626371E+01  0.23145066442E+03  0.12700000000E+01 0.  1.
         -4    1    3    3    0  501  0.19832082405E+03 -0.98331299725E+02 -0.10729592222E+03  0.24599638531E+03  0.12700000000E+01 0.  1.
          2    1    1    2  502    0 -0.30971785513E+03  0.10081553493E+03 -0.22308950753E+04  0.22545469077E+04  0.00000000000E+00 0. -1.
          2    1    1    2  503    0 -0.64678397772E+02  0.14764352450E+03  0.10668877530E+04  0.10789955435E+04  0.00000000000E+00 0. -1.
<mgrwt>
<rscale>  0 0.23138289E+03</rscale>
<asrwt>0</asrwt>
<pdfrwt beam="1">  1        2 0.19575942E+00 0.16118904E+03</pdfrwt>
<pdfrwt beam="2">  1        2 0.39054666E+00 0.33214442E+03</pdfrwt>
<totfact> 0.11002373E+01</totfact>
</mgrwt>
</event>
<event>
 7    1  0.3113151E-004  0.4659521E+02  0.7546771E-02  0.1472465E+00
          2   -1    0    0  503    0  0.00000000000E+00  0.00000000000E+00  0.14825243398E+04  0.14825243398E+04  0.00000000000E+00 0. -1.
         -2   -1    0    0    0  501 -0.00000000000E+00 -0.00000000000E+00 -0.72658426783E+02  0.72658426783E+02  0.00000000000E+00 0.  1.
         25    2    1    2    0    0  0.35270667918E+02 -0.52846703062E+02  0.26158815092E+03  0.29679752764E+03  0.12499447057E+03 0.  0.
          4    1    3    3  502    0  0.29970524626E+02 -0.61139904259E+02  0.48808656122E+02  0.83786741503E+02  0.12700000000E+01 0. -1.
         -4    1    3    3    0  502  0.53001432916E+01  0.82932011975E+01  0.21277949479E+03  0.21301078613E+03  0.12700000000E+01 0. -1.
          2    1    1    2  503    0  0.82184188298E+01  0.45871864678E+02  0.11939942623E+04  0.11949033721E+04  0.00000000000E+00 0. -1.
         -2    1    1    2    0  501 -0.43489086748E+02  0.69748383844E+01 -0.45716500128E+02  0.63481866864E+02  0.00000000000E+00 0.  1.
<mgrwt>
<rscale>  0 0.45302087E+02</rscale>
<asrwt>0</asrwt>
<pdfrwt beam="1">  1        2 0.22808065E+00 0.46595209E+02</pdfrwt>
<pdfrwt beam="2">  1       -2 0.11178221E-01 0.44044853E+02</pdfrwt>
<totfact> 0.79774064E+02</totfact>
</mgrwt>
</event>
<event>
 7    1  0.3113151E-004  0.1044159E+03  0.7546771E-02  0.1279784E+00
          2   -1    0    0  503    0  0.00000000000E+00  0.00000000000E+00  0.13287130534E+04  0.13287130534E+04  0.00000000000E+00 0. -1.
          2   -1    0    0  502    0 -0.00000000000E+00 -0.00000000000E+00 -0.76582276892E+03  0.76582276892E+03  0.00000000000E+00 0. -1.
         25    2    1    2    0    0 -0.17492641193E+02 -0.82360311317E+02  0.63468883911E+03  0.65233502911E+03  0.12498741669E+03 0.  0.
          4    1    3    3  501    0  0.41951648900E+02 -0.68896629533E+02  0.46681209968E+03  0.47373181835E+03  0.12700000000E+01 0.  1.
         -4    1    3    3    0  501 -0.59444290093E+02 -0.13463681784E+02  0.16787673943E+03  0.17860321076E+03  0.12700000000E+01 0.  1.
          2    1    1    2  502    0 -0.96349527941E+02  0.40242283901E+02 -0.74796877789E+03  0.75522179897E+03  0.00000000000E+00 0. -1.
          2    1    1    2  503    0  0.11384216913E+03  0.42118027416E+02  0.67617022328E+03  0.68697899427E+03  0.00000000000E+00 0. -1.
<mgrwt>
<rscale>  0 0.10024363E+03</rscale>
<asrwt>0</asrwt>
<pdfrwt beam="1">  1        2 0.20441739E+00 0.96238117E+02</pdfrwt>
<pdfrwt beam="2">  1        2 0.11781889E+00 0.10441587E+03</pdfrwt>
<totfact> 0.11010878E+02</totfact>
</mgrwt>
</event>
<event>
 7    1  0.3113151E-004  0.4871765E+02  0.7546771E-02  0.1552888E+00
         -2   -1    0    0    0  501 -0.00000000000E+00  0.00000000000E+00  0.10729893752E+03  0.10729893752E+03  0.00000000000E+00 0.  1.
          1   -1    0    0  503    0  0.00000000000E+00 -0.00000000000E+00 -0.11127900389E+03  0.11127900389E+03  0.00000000000E+00 0. -1.
         25    2    1    2    0    0 -0.30133234865E+02  0.19611774118E+02  0.15956499358E+02  0.13104463167E+03  0.12500180835E+03 0.  0.
          4    1    3    3  502    0  0.22841294271E+02 -0.39556943223E+02  0.23271674456E+02  0.51280212686E+02  0.12700000000E+01 0.  1.
         -4    1    3    3    0  502 -0.52974529136E+02  0.59168717340E+02 -0.73151750980E+01  0.79764418982E+02  0.12700000000E+01 0.  1.
          1    1    1    2  503    0 -0.11579996944E+02  0.21548155709E+02  0.29114449136E+01  0.24635256345E+02  0.00000000000E+00 0. -1.
         -2    1    1    2    0  501  0.41713231809E+02 -0.41159929827E+02 -0.22848010631E+02  0.62898053397E+02  0.00000000000E+00 0.  1.
<mgrwt>
<rscale>  0 0.34521892E+02</rscale>
<asrwt>0</asrwt>
<pdfrwt beam="2">  1        1 0.17119847E-01 0.24462611E+02</pdfrwt>
<pdfrwt beam="1">  1       -2 0.16507529E-01 0.48717653E+02</pdfrwt>
<totfact> 0.66073738E+03</totfact>
</mgrwt>
</event>
<event>
 7    1  0.3113151E-004  0.7962941E+02  0.7546771E-02  0.1504058E+00
          2   -1    0    0  502    0  0.00000000000E+00  0.00000000000E+00  0.29652368382E+04  0.29652368382E+04  0.00000000000E+00 0.  1.
          1   -1    0    0  503    0 -0.00000000000E+00 -0.00000000000E+00 -0.62716319273E+02  0.62716319273E+02  0.00000000000E+00 0. -1.
         25    2    1    2    0    0  0.77683606289E+02 -0.14611859311E+02  0.21978515127E+03  0.26491009671E+03  0.12499438989E+03 0.  0.
          4    1    3    3  501    0  0.16660144509E+02  0.12101775782E+02  0.19136738853E+03  0.19247624188E+03  0.12700000000E+01 0. -1.
         -4    1    3    3    0  501  0.61023461780E+02 -0.26713635093E+02  0.28417762734E+02  0.72433854836E+02  0.12700000000E+01 0. -1.
          2    1    1    2  502    0 -0.71882856501E+02  0.34451037604E+02  0.27196059597E+04  0.27207738964E+04  0.00000000000E+00 0.  1.
          1    1    1    2  503    0 -0.58007497882E+01 -0.19839178293E+02 -0.36870592096E+02  0.42269164352E+02  0.00000000000E+00 0. -1.
<mgrwt>
<rscale>  0 0.40570015E+02</rscale>
<asrwt>0</asrwt>
<pdfrwt beam="1">  1        2 0.45619018E+00 0.79629413E+02</pdfrwt>
<pdfrwt beam="2">  1        1 0.96486668E-02 0.20669826E+02</pdfrwt>
<totfact> 0.20033628E+02</totfact>
</mgrwt>
</event>
<event>
 7    1  0.3113151E-004  0.9413266E+02  0.7546771E-02  0.1345177E+00
          2   -1    0    0  502    0  0.00000000000E+00  0.00000000000E+00  0.36467991467E+03  0.36467991467E+03  0.00000000000E+00 0. -1.
          1   -1    0    0  503    0 -0.00000000000E+00 -0.00000000000E+00 -0.53190463572E+03  0.53190463572E+03  0.00000000000E+00 0. -1.
         25    2    1    2    0    0 -0.29666111138E+02  0.14003832968E+03 -0.32693021506E+03  0.37815193893E+03  0.12499884585E+03 0.  0.
          4    1    3    3  501    0  0.90280771419E+01  0.99050476188E+02 -0.88481279620E+02  0.13312795632E+03  0.12700000000E+01 0.  1.
         -4    1    3    3    0  501 -0.38694188280E+02  0.40987853489E+02 -0.23844893544E+03  0.24502398261E+03  0.12700000000E+01 0.  1.
          2    1    1    2  502    0 -0.62447947136E+01 -0.93114482176E+02  0.32750052586E+03  0.34053766119E+03  0.00000000000E+00 0. -1.
          1    1    1    2  503    0  0.35910905852E+02 -0.46923847502E+02 -0.16779503184E+03  0.17789495028E+03  0.00000000000E+00 0. -1.
<mgrwt>
<rscale>  0 0.74579820E+02</rscale>
<asrwt>0</asrwt>
<pdfrwt beam="1">  1        2 0.56104602E-01 0.94132659E+02</pdfrwt>
<pdfrwt beam="2">  1        1 0.81831482E-01 0.59088414E+02</pdfrwt>
<totfact> 0.52240979E+02</totfact>
</mgrwt>
</event>
<event>
 7    1  0.3113151E-004  0.2016673E+03  0.7546771E-02  0.1366427E+00
          1   -1    0    0  503    0 -0.00000000000E+00  0.00000000000E+00  0.75755531281E+03  0.75755531281E+03  0.00000000000E+00 0. -1.
          2   -1    0    0  502    0  0.00000000000E+00 -0.00000000000E+00 -0.81793310955E+03  0.81793310955E+03  0.00000000000E+00 0. -1.
         25    2    1    2    0    0  0.15793712498E+03  0.14357055054E+03 -0.32529282309E+03  0.40865670672E+03  0.12501297836E+03 0.  0.
          4    1    3    3  501    0  0.14441584289E+03  0.10221674029E+03 -0.16280425256E+03  0.24043925475E+03  0.12700000000E+01 0. -1.
         -4    1    3    3    0  501  0.13521282088E+02  0.41353810255E+02 -0.16248857054E+03  0.16821745197E+03  0.12700000000E+01 0. -1.
          2    1    1    2  502    0 -0.15411488342E+03 -0.12084574309E+03 -0.42949510192E+03  0.47203933468E+03  0.00000000000E+00 0. -1.
          1    1    1    2  503    0 -0.38222415587E+01 -0.22724807448E+02  0.69441012827E+03  0.69479238096E+03  0.00000000000E+00 0. -1.
<mgrwt>
<rscale>  0 0.68170539E+02</rscale>
<asrwt>0</asrwt>
<pdfrwt beam="2">  1        2 0.12583586E+00 0.20166726E+03</pdfrwt>
<pdfrwt beam="1">  1        1 0.11654697E+00 0.23044010E+02</pdfrwt>
<totfact> 0.13454639E+02</totfact>
</mgrwt>
</event>
<event>
 7    1  0.3113151E-004  0.2573651E+03  0.7546771E-02  0.1195948E+00
          2   -1    0    0  502    0  0.00000000000E+00  0.00000000000E+00  0.14121984795E+04  0.14121984795E+04  0.00000000000E+00 0. -1.
          1   -1    0    0  503    0 -0.00000000000E+00 -0.00000000000E+00 -0.20012453580E+03  0.20012453580E+03  0.00000000000E+00 0. -1.
         25    2    1    2    0    0 -0.84178180280E+01 -0.25742605199E+03  0.80114953283E+03  0.85076688916E+03  0.12499877529E+03 0.  0.
          4    1    3    3  501    0  0.29948234768E+02 -0.30260422852E+02  0.53263320153E+02  0.68199590400E+02  0.12700000000E+01 0.  1.
         -4    1    3    3    0  501 -0.38366052797E+02 -0.22716562914E+03  0.74788621268E+03  0.78256729876E+03  0.12700000000E+01 0.  1.
          2    1    1    2  502    0 -0.90097963909E+02  0.17811699049E+02  0.48378834570E+03  0.49242873917E+03  0.00000000000E+00 0. -1.
          1    1    1    2  503    0  0.98515781937E+02  0.23961435294E+03 -0.72863934821E+02  0.26912738698E+03  0.00000000000E+00 0. -1.
<mgrwt>
<rscale>  0 0.15374282E+03</rscale>
<asrwt>0</asrwt>
<pdfrwt beam="1">  1        2 0.21726130E+00 0.91841710E+02</pdfrwt>
<pdfrwt beam="2">  1        1 0.30788391E-01 0.25736514E+03</pdfrwt>
<totfact> 0.32911431E+02</totfact>
</mgrwt>
</event>
<event>
 7    1  0.3113151E-004  0.7696886E+02  0.7546771E-02  0.1352687E+00
          1   -1    0    0  503    0 -0.00000000000E+00  0.00000000000E+00  0.58481051241E+03  0.58481051241E+03  0.00000000000E+00 0. -1.
          2   -1    0    0  502    0  0.00000000000E+00 -0.00000000000E+00 -0.13488024359E+03  0.13488024359E+03  0.00000000000E+00 0. -1.
         25    2    1    2    0    0 -0.10917356293E+02  0.14889523945E+02  0.11685170442E+03  0.17210599433E+03  0.12500106347E+03 0.  0.
          4    1    3    3  501    0  0.12243388595E+02  0.50711452500E+02  0.50399236575E+01  0.52426765201E+02  0.12700000000E+01 0.  1.
         -4    1    3    3    0  501 -0.23160744888E+02 -0.35821928555E+02  0.11181178076E+03  0.11967922913E+03  0.12700000000E+01 0.  1.
          2    1    1    2  502    0 -0.46300251276E+02  0.49492395671E+02 -0.91775520508E+02  0.11408749564E+03  0.00000000000E+00 0. -1.
          1    1    1    2  503    0  0.57217607569E+02 -0.64381919616E+02  0.42485408491E+03  0.43349726603E+03  0.00000000000E+00 0. -1.
<mgrwt>
<rscale>  0 0.72224845E+02</rscale>
<asrwt>0</asrwt>
<pdfrwt beam="2">  1        2 0.20750807E-01 0.67773228E+02</pdfrwt>
<pdfrwt beam="1">  1        1 0.89970847E-01 0.76968861E+02</pdfrwt>
<totfact> 0.13084436E+03</totfact>
</mgrwt>
</event>
<event>
 7    1  0.3113151E-004  0.9165123E+02  0.7546771E-02  0.1426521E+00
          2   -1    0    0  502    0  0.00000000000E+00  0.00000000000E+00  0.38981675958E+03  0.38981675958E+03  0.00000000000E+00 0.  1.
          1   -1    0    0  503    0 -0.00000000000E+00 -0.00000000000E+00 -0.21705012597E+04  0.21705012597E+04  0.00000000000E+00 0. -1.
         25    2    1    2    0    0  0.73099418727E+02 -0.71552547823E+02  0.18478567898E+02  0.16257540588E+03  0.12500405197E+03 0.  0.
          4    1    3    3  501    0  0.69395768313E+02 -0.79640813414E+02  0.59047375728E+02  0.12102329239E+03  0.12700000000E+01 0.  1.
         -4    1    3    3    0  501  0.37036504147E+01  0.80882655914E+01 -0.40568807831E+02  0.41552113490E+02  0.12700000000E+01 0.  1.
          2    1    1    2  502    0 -0.30023576483E+02 -0.92708282852E+01  0.29746255772E+03  0.29911759668E+03  0.00000000000E+00 0.  1.
          1    1    1    2  503    0 -0.43075842245E+02  0.80823376108E+02 -0.20966256258E+04  0.20986250168E+04  0.00000000000E+00 0. -1.
<mgrwt>
<rscale>  0 0.53664662E+02</rscale>
<asrwt>0</asrwt>
<pdfrwt beam="1">  1        2 0.59971809E-01 0.31422339E+02</pdfrwt>
<pdfrwt beam="2">  1        1 0.33392327E+00 0.91651228E+02</pdfrwt>
<totfact> 0.33862088E+01</totfact>
</mgrwt>
</event>
<event>
 7    1  0.3113151E-004  0.7778104E+02  0.7546771E-02  0.1387401E+00
          1   -1    0    0  503    0 -0.00000000000E+00  0.00000000000E+00  0.14546510854E+03  0.14546510854E+03  0.00000000000E+00 0. -1.
          2   -1    0    0  502    0  0.00000000000E+00 -0.00000000000E+00 -0.15668093907E+04  0.15668093907E+04  0.00000000000E+00 0. -1.
         25    2    1    2    0    0 -0.17006784791E+02  0.37920966348E+02 -0.31171996637E+03  0.33841470712E+03  0.12501178403E+03 0.  0.
          4    1    3    3  501    0  0.30212459233E+02  0.35710186197E+02 -0.27388516116E+03  0.27785374660E+03  0.12700000000E+01 0. -1.
         -4    1    3    3    0  501 -0.47219244023E+02  0.22107801507E+01 -0.37834805202E+02  0.60560960525E+02  0.12700000000E+01 0. -1.
          2    1    1    2  502    0  0.30031655968E+02  0.40368466406E+02 -0.12292617455E+04  0.12302910032E+04  0.00000000000E+00 0. -1.
          1    1    1    2  503    0 -0.13024871177E+02 -0.78289432754E+02  0.11963742977E+03  0.14356878892E+03  0.00000000000E+00 0. -1.
<mgrwt>
<rscale>  0 0.62557866E+02</rscale>
<asrwt>0</asrwt>
<pdfrwt beam="2">  1        2 0.24104760E+00 0.50314148E+02</pdfrwt>
<pdfrwt beam="1">  1        1 0.22379248E-01 0.77781038E+02</pdfrwt>
<totfact> 0.42111983E+02</totfact>
</mgrwt>
</event>
<event>
 7    1  0.3113151E-004  0.8584126E+02  0.7546771E-02  0.1444101E+00
          2   -1    0    0  502    0  0.00000000000E+00  0.00000000000E+00  0.49705356453E+03  0.49705356453E+03  0.00000000000E+00 0. -1.
          1   -1    0    0  503    0 -0.00000000000E+00 -0.00000000000E+00 -0.25001440489E+03  0.25001440489E+03  0.00000000000E+00 0. -1.
         25    2    1    2    0    0 -0.43548744949E+02 -0.46765206298E+02 -0.29784547223E+02  0.14349661075E+03  0.12498272015E+03 0.  0.
          4    1    3    3  501    0  0.12686081027E+02 -0.35645816543E+02  0.38727634459E+02  0.54157210597E+02  0.12700000000E+01 0. -1.
         -4    1    3    3    0  501 -0.56234825975E+02 -0.11119389755E+02 -0.68512181682E+02  0.89339400154E+02  0.12700000000E+01 0. -1.
          2    1    1    2  502    0  0.42168220481E+02  0.76125798484E+02  0.43452524105E+03  0.44315401513E+03  0.00000000000E+00 0. -1.
          1    1    1    2  503    0  0.13805244679E+01 -0.29360592186E+02 -0.15770153419E+03  0.16041734353E+03  0.00000000000E+00 0. -1.
<mgrwt>
<rscale>  0 0.50230815E+02</rscale>
<asrwt>0</asrwt>
<pdfrwt beam="1">  1        2 0.76469779E-01 0.85841260E+02</pdfrwt>
<pdfrwt beam="2">  1        1 0.38463755E-01 0.29393030E+02</pdfrwt>
<totfact> 0.93665185E+02</totfact>
</mgrwt>
</event>
<event>
 7    1  0.3113151E-004  0.6252795E+02  0.7546771E-02  0.1518106E+00
          2   -1    0    0  503    0  0.00000000000E+00  0.00000000000E+00  0.61318780251E+03  0.61318780251E+03  0.00000000000E+00 0. -1.
         -1   -1    0    0    0  501 -0.00000000000E+00 -0.00000000000E+00 -0.22081452161E+02  0.22081452161E+02  0.00000000000E+00 0.  1.
         25    2    1    2    0    0 -0.51783284026E+02 -0.15319261202E+01  0.35022377596E+03  0.37544990779E+03  0.12498833830E+03 0.  0.
          4    1    3    3  502    0 -0.14764384903E+02  0.13843535431E+02 -0.25186338066E+01  0.20434944362E+02  0.12700000000E+01 0. -1.
         -4    1    3    3    0  502 -0.37018899123E+02 -0.15375461551E+02  0.35274240977E+03  0.35501496343E+03  0.12700000000E+01 0. -1.
          2    1    1    2  503    0  0.64123272904E+02  0.22041323975E+02  0.21043863808E+03  0.22109281871E+03  0.00000000000E+00 0. -1.
         -1    1    1    2    0  501 -0.12339988877E+02 -0.20509397855E+02  0.30443936313E+02  0.38726528170E+02  0.00000000000E+00 0.  1.
<mgrwt>
<rscale>  0 0.38686447E+02</rscale>
<asrwt>0</asrwt>
<pdfrwt beam="1">  1        2 0.94336572E-01 0.62527954E+02</pdfrwt>
<pdfrwt beam="2">  1       -1 0.33971470E-02 0.23935554E+02</pdfrwt>
<totfact> 0.13558856E+04</totfact>
</mgrwt>
</event>
<event>
 7    1  0.3113151E-004  0.7888110E+02  0.7546771E-02  0.1366855E+00
         -1   -1    0    0    0  501 -0.00000000000E+00  0.00000000000E+00  0.25172641240E+02  0.25172641240E+02  0.00000000000E+00 0.  1.
          2   -1    0    0  503    0  0.00000000000E+00 -0.00000000000E+00 -0.12587251560E+04  0.12587251560E+04  0.00000000000E+00 0. -1.
         25    2    1    2    0    0  0.11895632859E+03  0.67821596061E+01 -0.56079065985E+03  0.58677643331E+03  0.12499525076E+03 0.  0.
          4    1    3    3  502    0  0.54278807450E+02 -0.48917897279E+02 -0.14572394805E+03  0.16302218116E+03  0.12700000000E+01 0. -1.
         -4    1    3    3    0  502  0.64677521145E+02  0.55700056885E+02 -0.41506671179E+03  0.42375425215E+03  0.12700000000E+01 0. -1.
          2    1    1    2  503    0 -0.53867727115E+02  0.23335650519E+02 -0.56270405651E+03  0.56575802232E+03  0.00000000000E+00 0. -1.
         -1    1    1    2    0  501 -0.65088601480E+02 -0.30117810126E+02 -0.11005779840E+03  0.13136334161E+03  0.00000000000E+00 0.  1.
<mgrwt>
<rscale>  0 0.68049396E+02</rscale>
<asrwt>0</asrwt>
<pdfrwt beam="2">  1        2 0.19364998E+00 0.58705065E+02</pdfrwt>
<pdfrwt beam="1">  1       -1 0.38727150E-02 0.78881104E+02</pdfrwt>
<totfact> 0.53356422E+03</totfact>
</mgrwt>
</event>
<event>
 7    1  0.3113151E-004  0.4330100E+02  0.7546771E-02  0.1545143E+00
          3   -1    0    0  503    0 -0.00000000000E+00  0.00000000000E+00  0.17809771097E+03  0.17809771097E+03  0.00000000000E+00 0. -1.
          2   -1    0    0  502    0  0.00000000000E+00 -0.00000000000E+00 -0.30774753886E+03  0.30774753886E+03  0.00000000000E+00 0. -1.
         25    2    1    2    0    0 -0.64442045049E+02 -0.21958914642E+02 -0.10435322873E+03  0.17649124230E+03  0.12499836463E+03 0.  0.
          4    1    3    3  501    0 -0.22547248871E+01  0.12925553922E+02 -0.10434709222E+03  0.10517643407E+03  0.12700000000E+01 0.  1.
         -4    1    3    3    0  501 -0.62187320162E+02 -0.34884468563E+02 -0.61365108719E-02  0.71314808234E+02  0.12700000000E+01 0.  1.
          2    1    1    2  502    0  0.35515093252E+02  0.21687927298E+02 -0.16321398345E+03  0.16843542512E+03  0.00000000000E+00 0. -1.
          3    1    1    2  503    0  0.28926951797E+02  0.27098734343E+00  0.13791738430E+03  0.14091858240E+03  0.00000000000E+00 0. -1.
<mgrwt>
<rscale>  0 0.35392385E+02</rscale>
<asrwt>0</asrwt>
<pdfrwt beam="2">  1        2 0.47345775E-01 0.43301000E+02</pdfrwt>
<pdfrwt beam="1">  1        3 0.27399648E-01 0.28928221E+02</pdfrwt>
<totfact> 0.69043897E+02</totfact>
</mgrwt>
</event>
<event>
 7    1  0.3113151E-004  0.3660108E+02  0.7546771E-02  0.1580999E+00
         -2   -1    0    0    0  501 -0.00000000000E+00  0.00000000000E+00  0.10688138058E+03  0.10688138058E+03  0.00000000000E+00 0.  1.
          2   -1    0    0  503    0  0.00000000000E+00 -0.00000000000E+00 -0.63728333132E+03  0.63728333132E+03  0.00000000000E+00 0. -1.
         25    2    1    2    0    0  0.35967994979E+02  0.32728504816E+02 -0.24175723733E+03  0.27647109455E+03  0.12499941052E+03 0.  0.
          4    1    3    3  502    0  0.43764142346E+02 -0.11735215354E+02 -0.18944029388E+02  0.49127432094E+02  0.12700000000E+01 0. -1.
         -4    1    3    3    0  502 -0.77961473671E+01  0.44463720170E+02 -0.22281320794E+03  0.22734366246E+03  0.12700000000E+01 0. -1.
          2    1    1    2  503    0 -0.27152870939E+02  0.27358447315E+01 -0.37392183315E+03  0.37491639141E+03  0.00000000000E+00 0. -1.
         -2    1    1    2    0  501 -0.88151240393E+01 -0.35464349548E+02  0.85277119744E+02  0.92777225937E+02  0.00000000000E+00 0.  1.
<mgrwt>
<rscale>  0 0.31604688E+02</rscale>
<asrwt>0</asrwt>
<pdfrwt beam="2">  1        2 0.98043587E-01 0.27290351E+02</pdfrwt>
<pdfrwt beam="1">  1       -2 0.16443290E-01 0.36601081E+02</pdfrwt>
<totfact> 0.13289053E+03</totfact>
</mgrwt>
</event>
<event>
 7    1  0.3113151E-004  0.7028925E+02  0.7546771E-02  0.1476155E+00
          2   -1    0    0  503    0  0.00000000000E+00  0.00000000000E+00  0.10717013952E+04  0.10717013952E+04  0.00000000000E+00 0. -1.
         -2   -1    0    0    0  501 -0.00000000000E+00 -0.00000000000E+00 -0.45203152227E+02  0.45203152227E+02  0.00000000000E+00 0. -1.
         25    2    1    2    0    0 -0.54737877447E+02 -0.16053823102E+02  0.49704554682E+03  0.51568324404E+03  0.12498388741E+03 0.  0.
          4    1    3    3  502    0 -0.22816736702E+02  0.14722752425E+02  0.13948456054E+02  0.30553808911E+02  0.12700000000E+01 0. -1.
         -4    1    3    3    0  502 -0.31921140745E+02 -0.30776575526E+02  0.48309709076E+03  0.48512943513E+03  0.12700000000E+01 0. -1.
          2    1    1    2  503    0 -0.16415617491E+02  0.23224731622E+02  0.52894149793E+03  0.52970554924E+03  0.00000000000E+00 0. -1.
         -2    1    1    2    0  501  0.71153494938E+02 -0.71709085205E+01  0.51119824565E+00  0.71515754170E+02  0.00000000000E+00 0. -1.
<mgrwt>
<rscale>  0 0.44710846E+02</rscale>
<asrwt>0</asrwt>
<pdfrwt beam="1">  1        2 0.16487712E+00 0.28440476E+02</pdfrwt>
<pdfrwt beam="2">  1       -2 0.69543319E-02 0.70289252E+02</pdfrwt>
<totfact> 0.28631655E+03</totfact>
</mgrwt>
</event>
<event>
 7    1  0.3113151E-004  0.4135200E+02  0.7546771E-02  0.1504697E+00
         -2   -1    0    0    0  501 -0.00000000000E+00  0.00000000000E+00  0.15811814235E+03  0.15811814235E+03  0.00000000000E+00 0.  1.
          1   -1    0    0  503    0  0.00000000000E+00 -0.00000000000E+00 -0.11361590157E+03  0.11361590157E+03  0.00000000000E+00 0. -1.
         25    2    1    2    0    0  0.42092982785E+02 -0.20348545233E+02 -0.44729121650E+02  0.14075766479E+03  0.12500457343E+03 0.  0.
          4    1    3    3  502    0 -0.42718051245E+02 -0.86999086259E+01 -0.32237352845E+02  0.54234492075E+02  0.12700000000E+01 0.  1.
         -4    1    3    3    0  502  0.84811034030E+02 -0.11648636607E+02 -0.12491768805E+02  0.86523172710E+02  0.12700000000E+01 0.  1.
          1    1    1    2  503    0 -0.70774410249E+01  0.42346265860E+02  0.14051992627E+02  0.45174715279E+02  0.00000000000E+00 0. -1.
         -2    1    1    2    0  501 -0.35015541760E+02 -0.21997720627E+02  0.75179369794E+02  0.85801663854E+02  0.00000000000E+00 0.  1.
<mgrwt>
<rscale>  0 0.40481667E+02</rscale>
<asrwt>0</asrwt>
<pdfrwt beam="2">  1        1 0.17479370E-01 0.39629653E+02</pdfrwt>
<pdfrwt beam="1">  1       -2 0.24325868E-01 0.41352000E+02</pdfrwt>
<totfact> 0.34724403E+03</totfact>
</mgrwt>
</event>
<event>
 7    1  0.3113151E-004  0.1046841E+03  0.7546771E-02  0.1291643E+00
         -3   -1    0    0    0  502 -0.00000000000E+00  0.00000000000E+00  0.25790405067E+03  0.25790405067E+03  0.00000000000E+00 0.  1.
         -1   -1    0    0    0  501  0.00000000000E+00 -0.00000000000E+00 -0.67559554646E+03  0.67559554646E+03  0.00000000000E+00 0.  1.
         25    2    1    2    0    0 -0.51420250584E+02  0.14471489265E+02 -0.59718582372E+01  0.13606579779E+03  0.12499908826E+03 0.  0.
          4    1    3    3  503    0 -0.55409611900E+02 -0.36867299101E+02  0.30228528343E+02  0.73108136755E+02  0.12700000000E+01 0. -1.
         -4    1    3    3    0  503  0.39893613163E+01  0.51338788367E+02 -0.36200386580E+02  0.62957661037E+02  0.12700000000E+01 0. -1.
         -1    1    1    2    0  501 -0.20724907098E+02  0.83296893675E+02 -0.58197314233E+03  0.58826918385E+03  0.00000000000E+00 0.  1.
         -3    1    1    2    0  502  0.72145157683E+02 -0.97768382940E+02  0.17025350478E+03  0.20916461548E+03  0.00000000000E+00 0.  1.
<mgrwt>
<rscale>  0 0.94792975E+02</rscale>
<asrwt>0</asrwt>
<pdfrwt beam="2">  1       -1 0.10393778E+00 0.85836439E+02</pdfrwt>
<pdfrwt beam="1">  1       -3 0.39677546E-01 0.10468407E+03</pdfrwt>
<totfact> 0.27116502E+01</totfact>
</mgrwt>
</event>
<event>
 7    1  0.3113151E-004  0.7669500E+02  0.7546771E-02  0.1500161E+00
          2   -1    0    0  503    0  0.00000000000E+00  0.00000000000E+00  0.96586113536E+02  0.96586113536E+02  0.00000000000E+00 0. -1.
         -1   -1    0    0    0  501 -0.00000000000E+00 -0.00000000000E+00 -0.18278198493E+03  0.18278198493E+03  0.00000000000E+00 0.  1.
         25    2    1    2    0    0  0.74929137399E+02 -0.91863900885E+01 -0.14537849231E+02  0.14674919172E+03  0.12500084326E+03 0.  0.
          4    1    3    3  502    0  0.92988437789E+02 -0.38376222492E+02  0.14661701640E+02  0.10166691896E+03  0.12700000000E+01 0. -1.
         -4    1    3    3    0  502 -0.18059300390E+02  0.29189832404E+02 -0.29199550871E+02  0.45082272762E+02  0.12700000000E+01 0. -1.
          2    1    1    2  503    0 -0.77759871231E+02 -0.12672557537E+02 -0.27822891855E+02  0.83554201568E+02  0.00000000000E+00 0. -1.
         -1    1    1    2    0  501  0.28307338324E+01  0.21858947626E+02 -0.43835130306E+02  0.49064705179E+02  0.00000000000E+00 0.  1.
<mgrwt>
<rscale>  0 0.41115339E+02</rscale>
<asrwt>0</asrwt>
<pdfrwt beam="1">  1        2 0.14859402E-01 0.76695004E+02</pdfrwt>
<pdfrwt beam="2">  1       -1 0.28120306E-01 0.22041476E+02</pdfrwt>
<totfact> 0.45255471E+03</totfact>
</mgrwt>
</event>
<event>
 7    1  0.3113151E-004  0.8518569E+02  0.7546771E-02  0.1359902E+00
          1   -1    0    0  503    0 -0.00000000000E+00  0.00000000000E+00  0.92075055729E+02  0.92075055729E+02  0.00000000000E+00 0. -1.
          2   -1    0    0  502    0  0.00000000000E+00 -0.00000000000E+00 -0.14316542861E+04  0.14316542861E+04  0.00000000000E+00 0.  1.
         25    2    1    2    0    0  0.10120090321E+03 -0.62180162785E+02 -0.47714984450E+03  0.50734937563E+03  0.12499367739E+03 0.  0.
          4    1    3    3  501    0  0.54101264958E+02  0.28547493768E+02 -0.26335455355E+03  0.27036852636E+03  0.12700000000E+01 0.  1.
         -4    1    3    3    0  501  0.47099638248E+02 -0.90727656552E+02 -0.21379529096E+03  0.23698084927E+03  0.12700000000E+01 0.  1.
          2    1    1    2  502    0 -0.17355538845E+02  0.54937651755E+02 -0.91522244851E+03  0.91703407274E+03  0.00000000000E+00 0.  1.
          1    1    1    2  503    0 -0.83845364361E+02  0.72425110296E+01  0.52793062621E+02  0.99345893482E+02  0.00000000000E+00 0. -1.
<mgrwt>
<rscale>  0 0.70056254E+02</rscale>
<asrwt>0</asrwt>
<pdfrwt beam="2">  1        2 0.22025451E+00 0.57613890E+02</pdfrwt>
<pdfrwt beam="1">  1        1 0.14165393E-01 0.85185685E+02</pdfrwt>
<totfact> 0.86798817E+02</totfact>
</mgrwt>
</event>
<event>
 7    1  0.3113151E-004  0.3911675E+03  0.7546771E-02  0.1264023E+00
         -3   -1    0    0    0  501 -0.00000000000E+00  0.00000000000E+00  0.11507443681E+03  0.11507443681E+03  0.00000000000E+00 0.  1.
          2   -1    0    0  503    0  0.00000000000E+00 -0.00000000000E+00 -0.35667882880E+04  0.35667882880E+04  0.00000000000E+00 0. -1.
         25    2    1    2    0    0  0.13598851791E+03  0.37768528181E+03 -0.48367490790E+03  0.64086362169E+03  0.12500286387E+03 0.  0.
          4    1    3    3  502    0  0.90905570798E+02  0.92673732246E+02 -0.12168560502E+03  0.17793606385E+03  0.12700000000E+01 0.  1.
         -4    1    3    3    0  502  0.45082947108E+02  0.28501154956E+03 -0.36198930288E+03  0.46292755784E+03  0.12700000000E+01 0.  1.
          2    1    1    2  503    0 -0.15714818953E+03 -0.35655325551E+03 -0.29824553486E+04  0.30078008053E+04  0.00000000000E+00 0. -1.
         -3    1    1    2    0  501  0.21159671622E+02 -0.21132026299E+02  0.14416405336E+02  0.33198297869E+02  0.00000000000E+00 0.  1.
<mgrwt>
<rscale>  0 0.10815622E+03</rscale>
<asrwt>0</asrwt>
<pdfrwt beam="2">  1        2 0.54873653E+00 0.39116751E+03</pdfrwt>
<pdfrwt beam="1">  1       -3 0.17703764E-01 0.29904753E+02</pdfrwt>
<totfact> 0.12094107E+01</totfact>
</mgrwt>
</event>
<event>
 7    1  0.3113151E-004  0.8862803E+02  0.7546771E-02  0.1432595E+00
          2   -1    0    0  503    0  0.00000000000E+00  0.00000000000E+00  0.10791133881E+03  0.10791133881E+03  0.00000000000E+00 0. -1.
          2   -1    0    0  502    0 -0.00000000000E+00 -0.00000000000E+00 -0.81688763089E+03  0.81688763089E+03  0.00000000000E+00 0. -1.
         25    2    1    2    0    0  0.75603880913E+02  0.87665049688E+00 -0.33989158300E+03  0.36995467067E+03  0.12499381918E+03 0.  0.
          4    1    3    3  501    0  0.88872539302E+02 -0.42532040925E+02 -0.26022832533E+03  0.27825832773E+03  0.12700000000E+01 0.  1.
         -4    1    3    3    0  501 -0.13268658388E+02  0.43408691422E+02 -0.79663257665E+02  0.91696342938E+02  0.12700000000E+01 0.  1.
          2    1    1    2  502    0 -0.89720707739E+02  0.26757439233E+02 -0.45446029418E+03  0.46400422944E+03  0.00000000000E+00 0. -1.
          2    1    1    2  503    0  0.14116826825E+02 -0.27634089730E+02  0.85375585091E+02  0.90840069597E+02  0.00000000000E+00 0. -1.
<mgrwt>
<rscale>  0 0.52442572E+02</rscale>
<asrwt>0</asrwt>
<pdfrwt beam="1">  1        2 0.16601745E-01 0.31031077E+02</pdfrwt>
<pdfrwt beam="2">  1        2 0.12567502E+00 0.88628035E+02</pdfrwt>
<totfact> 0.17387838E+03</totfact>
</mgrwt>
</event>
<event>
 7    1  0.3113151E-004  0.7434245E+02  0.7546771E-02  0.1518790E+00
          2   -1    0    0  503    0  0.00000000000E+00  0.00000000000E+00  0.10749485266E+02  0.10749485266E+02  0.00000000000E+00 0. -1.
         -1   -1    0    0    0  501 -0.00000000000E+00 -0.00000000000E+00 -0.16503693968E+04  0.16503693968E+04  0.00000000000E+00 0.  1.
         25    2    1    2    0    0 -0.64224229358E+02  0.15123812365E+02 -0.61398889825E+03  0.63004764653E+03  0.12499675354E+03 0.  0.
          4    1    3    3  502    0 -0.89890445666E+02 -0.25309577818E+02 -0.41282511483E+03  0.42325767008E+03  0.12700000000E+01 0. -1.
         -4    1    3    3    0  502  0.25666216308E+02  0.40433390183E+02 -0.20116378342E+03  0.20678997645E+03  0.12700000000E+01 0. -1.
          2    1    1    2  503    0  0.84063761144E+02 -0.12298691015E+02 -0.77590950199E+03  0.78054694223E+03  0.00000000000E+00 0. -1.
         -1    1    1    2    0  501 -0.19839531786E+02 -0.28251213500E+01 -0.24972151131E+03  0.25052429332E+03  0.00000000000E+00 0.  1.
<mgrwt>
<rscale>  0 0.38597903E+02</rscale>
<asrwt>0</asrwt>
<pdfrwt beam="1">  1        2 0.16537685E-02 0.74342452E+02</pdfrwt>
<pdfrwt beam="2">  1       -1 0.25390275E+00 0.20039669E+02</pdfrwt>
<totfact> 0.69334402E+02</totfact>
</mgrwt>
</event>
<event>
 7    1  0.3113151E-004  0.9795755E+02  0.7546771E-02  0.1350541E+00
         -1   -1    0    0    0  501 -0.00000000000E+00  0.00000000000E+00  0.89491851350E+02  0.89491851350E+02  0.00000000000E+00 0.  1.
          2   -1    0    0  503    0  0.00000000000E+00 -0.00000000000E+00 -0.39419130325E+03  0.39419130325E+03  0.00000000000E+00 0. -1.
         25    2    1    2    0    0 -0.11248167684E+03 -0.88843469135E+02 -0.84605395485E+02  0.20815484728E+03  0.12500031148E+03 0.  0.
          4    1    3    3  502    0 -0.99390066237E+02 -0.69044604983E+02 -0.11676109942E+03  0.16816750572E+03  0.12700000000E+01 0.  1.
         -4    1    3    3    0  502 -0.13091610607E+02 -0.19798864152E+02  0.32155703931E+02  0.39987341563E+02  0.12700000000E+01 0.  1.
          2    1    1    2  503    0  0.77271536438E+02  0.47594336970E+02 -0.19638235447E+03  0.21633802348E+03  0.00000000000E+00 0. -1.
         -1    1    1    2    0  501  0.35210140406E+02  0.41249132164E+02 -0.23711701946E+02  0.59190283839E+02  0.00000000000E+00 0.  1.
<mgrwt>
<rscale>  0 0.72887283E+02</rscale>
<asrwt>0</asrwt>
<pdfrwt beam="2">  1        2 0.60644816E-01 0.97957552E+02</pdfrwt>
<pdfrwt beam="1">  1       -1 0.13767977E-01 0.54233245E+02</pdfrwt>
<totfact> 0.31488510E+03</totfact>
</mgrwt>
</event>
<event>
 7    1  0.3113151E-004  0.6308055E+02  0.7546771E-02  0.1432558E+00
         -1   -1    0    0    0  501 -0.00000000000E+00  0.00000000000E+00  0.73015793033E+01  0.73015793033E+01  0.00000000000E+00 0.  1.
          2   -1    0    0  503    0  0.00000000000E+00 -0.00000000000E+00 -0.25558015134E+04  0.25558015134E+04  0.00000000000E+00 0. -1.
         25    2    1    2    0    0 -0.57521334307E+02 -0.38323009622E+02 -0.19225248488E+04  0.19278240203E+04  0.12500520766E+03 0.  0.
          4    1    3    3  502    0 -0.27677657734E+02  0.28732155140E+02 -0.21200491015E+03  0.21572965559E+03  0.12700000000E+01 0.  1.
         -4    1    3    3    0  502 -0.29843676573E+02 -0.67055164762E+02 -0.17105199387E+04  0.17120943647E+04  0.12700000000E+01 0.  1.
          2    1    1    2  503    0  0.37278291986E+02 -0.22632599229E+02 -0.28321661326E+03  0.28655462940E+03  0.00000000000E+00 0. -1.
         -1    1    1    2    0  501  0.20243042321E+02  0.60955608851E+02 -0.34275847198E+03  0.34872444298E+03  0.00000000000E+00 0.  1.
<mgrwt>
<rscale>  0 0.52449936E+02</rscale>
<asrwt>0</asrwt>
<pdfrwt beam="2">  1        2 0.39320021E+00 0.43610843E+02</pdfrwt>
<pdfrwt beam="1">  1       -1 0.11233200E-02 0.63080546E+02</pdfrwt>
<totfact> 0.70313948E+03</totfact>
</mgrwt>
</event>
<event>
 7    1  0.3113151E-004  0.4384390E+02  0.7546771E-02  0.1543783E+00
         -1   -1    0    0    0  501 -0.00000000000E+00  0.00000000000E+00  0.10599947370E+04  0.10599947370E+04  0.00000000000E+00 0.  1.
          1   -1    0    0  503    0  0.00000000000E+00 -0.00000000000E+00 -0.32362109653E+02  0.32362109653E+02  0.00000000000E+00 0. -1.
         25    2    1    2    0    0 -0.10345658826E+02  0.17811281783E+02  0.50716367778E+03  0.52274784134E+03  0.12500414053E+03 0.  0.
          4    1    3    3  502    0 -0.39200954903E+02 -0.42687083412E+02  0.19334870264E+03  0.20185201427E+03  0.12700000000E+01 0. -1.
         -4    1    3    3    0  502  0.28855296077E+02  0.60498365196E+02  0.31381497515E+03  0.32089582707E+03  0.12700000000E+01 0. -1.
          1    1    1    2  503    0  0.38759477106E+02 -0.22647972279E+02 -0.33328295069E+01  0.45014836070E+02  0.00000000000E+00 0. -1.
         -1    1    1    2    0  501 -0.28413818279E+02  0.48366904958E+01  0.52380177910E+03  0.52459416927E+03  0.00000000000E+00 0.  1.
<mgrwt>
<rscale>  0 0.35548452E+02</rscale>
<asrwt>0</asrwt>
<pdfrwt beam="2">  1        1 0.49787869E-02 0.43843900E+02</pdfrwt>
<pdfrwt beam="1">  1       -1 0.16307609E+00 0.28822537E+02</pdfrwt>
<totfact> 0.50474732E+02</totfact>
</mgrwt>
</event>
<event>
 7    1  0.3113151E-004  0.6101036E+02  0.7546771E-02  0.1438639E+00
          2   -1    0    0  503    0  0.00000000000E+00  0.00000000000E+00  0.12509086523E+02  0.12509086523E+02  0.00000000000E+00 0. -1.
         -1   -1    0    0    0  501 -0.00000000000E+00 -0.00000000000E+00 -0.13208644877E+04  0.13208644877E+04  0.00000000000E+00 0.  1.
         25    2    1    2    0    0  0.36617761984E+01 -0.75737238963E+02 -0.68753603871E+03  0.70290702237E+03  0.12499175816E+03 0.  0.
          4    1    3    3  502    0  0.36082287232E+02 -0.99543694455E+02 -0.50720187474E+03  0.51813727255E+03  0.12700000000E+01 0.  1.
         -4    1    3    3    0  502 -0.32420511033E+02  0.23806455491E+02 -0.18033416396E+03  0.18476974983E+03  0.12700000000E+01 0.  1.
          2    1    1    2  503    0  0.28789180672E+02  0.47410694805E+02 -0.48032910166E+03  0.48352108207E+03  0.00000000000E+00 0. -1.
         -1    1    1    2    0  501 -0.32450956871E+02  0.28326544158E+02 -0.14049026079E+03  0.14694546976E+03  0.00000000000E+00 0.  1.
<mgrwt>
<rscale>  0 0.51264243E+02</rscale>
<asrwt>0</asrwt>
<pdfrwt beam="1">  1        2 0.19244748E-02 0.61010358E+02</pdfrwt>
<pdfrwt beam="2">  1       -1 0.20320993E+00 0.43075024E+02</pdfrwt>
<totfact> 0.10259134E+03</totfact>
</mgrwt>
</event>
<event>
 7    1  0.3113151E-004  0.5946211E+02  0.7546771E-02  0.1512598E+00
          1   -1    0    0  503    0  0.00000000000E+00  0.00000000000E+00  0.33068436578E+03  0.33068436578E+03  0.00000000000E+00 0. -1.
         -3   -1    0    0    0  501 -0.00000000000E+00 -0.00000000000E+00 -0.90675258009E+02  0.90675258009E+02  0.00000000000E+00 0.  1.
         25    2    1    2    0    0 -0.80489489437E+02 -0.10988563784E+02  0.12729311815E+03  0.19600129938E+03  0.12495465172E+03 0.  0.
          4    1    3    3  502    0 -0.55936092747E+02  0.46517536668E+02  0.10860690579E+03  0.13072796401E+03  0.12700000000E+01 0.  1.
         -4    1    3    3    0  502 -0.24553396690E+02 -0.57506100452E+02  0.18686212364E+02  0.65273335373E+02  0.12700000000E+01 0.  1.
          1    1    1    2  503    0  0.54601199425E+02  0.14460412247E+02  0.16091300724E+03  0.17053853054E+03  0.00000000000E+00 0. -1.
         -3    1    1    2    0  501  0.25888290012E+02 -0.34718484637E+01 -0.48197017620E+02  0.54819793861E+02  0.00000000000E+00 0.  1.
<mgrwt>
<rscale>  0 0.39410071E+02</rscale>
<asrwt>0</asrwt>
<pdfrwt beam="1">  1        1 0.50874517E-01 0.59462114E+02</pdfrwt>
<pdfrwt beam="2">  1       -3 0.13950040E-01 0.26120055E+02</pdfrwt>
<totfact> 0.13806709E+03</totfact>
</mgrwt>
</event>
<event>
 7    1  0.3113151E-004  0.3470440E+03  0.7546771E-02  0.1193829E+00
          2   -1    0    0  503    0  0.00000000000E+00  0.00000000000E+00  0.53716967946E+03  0.53716967946E+03  0.00000000000E+00 0.  1.
          2   -1    0    0  502    0 -0.00000000000E+00 -0.00000000000E+00 -0.64621562642E+03  0.64621562642E+03  0.00000000000E+00 0. -1.
         25    2    1    2    0    0 -0.28488394810E+03  0.27466649203E+03 -0.28058610677E+03  0.50095293527E+03  0.12499893727E+03 0.  0.
          4    1    3    3  501    0 -0.29641672245E+03  0.26646167007E+03 -0.27927214722E+03  0.48668186743E+03  0.12700000000E+01 0.  1.
         -4    1    3    3    0  501  0.11532774356E+02  0.82048219612E+01 -0.13139595422E+01  0.14271067845E+02  0.12700000000E+01 0.  1.
          2    1    1    2  502    0  0.16522592347E+02 -0.67721836075E+02 -0.18067672071E+03  0.19365774073E+03  0.00000000000E+00 0. -1.
          2    1    1    2  503    0  0.26836135575E+03 -0.20694465595E+03  0.35221688051E+03  0.48877462987E+03  0.00000000000E+00 0.  1.
<mgrwt>
<rscale>  0 0.15553725E+03</rscale>
<asrwt>0</asrwt>
<pdfrwt beam="1">  1        2 0.82641489E-01 0.34704399E+03</pdfrwt>
<pdfrwt beam="2">  1        2 0.99417788E-01 0.69708272E+02</pdfrwt>
<totfact> 0.42506124E+02</totfact>
</mgrwt>
</event>
<event>
 7    1  0.3113151E-004  0.1003140E+03  0.7546771E-02  0.1286967E+00
          1   -1    0    0  503    0  0.00000000000E+00  0.00000000000E+00  0.75701829385E+03  0.75701829385E+03  0.00000000000E+00 0. -1.
         -1   -1    0    0    0  501 -0.00000000000E+00 -0.00000000000E+00 -0.90736144069E+02  0.90736144069E+02  0.00000000000E+00 0.  1.
         25    2    1    2    0    0 -0.13971439253E+03 -0.57403213854E+02  0.10785040144E+03  0.22376700279E+03  0.12499888803E+03 0.  0.
          4    1    3    3  502    0  0.15476714438E+02  0.17389099835E+02  0.80212869950E+01  0.24654886492E+02  0.12700000000E+01 0. -1.
         -4    1    3    3    0  502 -0.15519110696E+03 -0.74792313689E+02  0.99829114447E+02  0.19911211630E+03  0.12700000000E+01 0. -1.
          1    1    1    2  503    0  0.95200061105E+02 -0.24922334550E+02  0.50845355977E+03  0.51788917428E+03  0.00000000000E+00 0. -1.
         -1    1    1    2    0  501  0.44514331420E+02  0.82325548404E+02  0.49978188571E+02  0.10609826085E+03  0.00000000000E+00 0.  1.
<mgrwt>
<rscale>  0 0.96893508E+02</rscale>
<asrwt>0</asrwt>
<pdfrwt beam="1">  1        1 0.11646435E+00 0.10031400E+03</pdfrwt>
<pdfrwt beam="2">  1       -1 0.13959407E-01 0.93589645E+02</pdfrwt>
<totfact> 0.90360130E+02</totfact>
</mgrwt>
</event>
<event>
 7    1  0.3113151E-004  0.1077979E+03  0.7546771E-02  0.1405959E+00
          2   -1    0    0  503    0  0.00000000000E+00  0.00000000000E+00  0.16562064002E+02  0.16562064002E+02  0.00000000000E+00 0. -1.
         -2   -1    0    0    0  501 -0.00000000000E+00 -0.00000000000E+00 -0.14288722325E+04  0.14288722325E+04  0.00000000000E+00 0.  1.
         25    2    1    2    0    0 -0.22854408336E+02  0.10612351792E+03 -0.80610230938E+03  0.82292830831E+03  0.12500216959E+03 0.  0.
          4    1    3    3  502    0 -0.30552011683E+02  0.67280778320E+02 -0.16727147007E+03  0.18287013466E+03  0.12700000000E+01 0.  1.
         -4    1    3    3    0  502  0.76976033477E+01  0.38842739600E+02 -0.63883083931E+03  0.64005817366E+03  0.12700000000E+01 0.  1.
          2    1    1    2  503    0 -0.83632092990E+01 -0.10865572054E+03 -0.43398393539E+03  0.44745733322E+03  0.00000000000E+00 0. -1.
         -2    1    1    2    0  501  0.31217617635E+02  0.25322026204E+01 -0.17222392368E+03  0.17504865492E+03  0.00000000000E+00 0.  1.
<mgrwt>
<rscale>  0 0.58105488E+02</rscale>
<asrwt>0</asrwt>
<pdfrwt beam="1">  1        2 0.25480092E-02 0.10779795E+03</pdfrwt>
<pdfrwt beam="2">  1       -2 0.21982655E+00 0.31320148E+02</pdfrwt>
<totfact> 0.45621973E+02</totfact>
</mgrwt>
</event>
<event>
 7    1  0.3113151E-004  0.1678079E+03  0.7546771E-02  0.1270506E+00
          1   -1    0    0  503    0 -0.00000000000E+00  0.00000000000E+00  0.16136023058E+04  0.16136023058E+04  0.00000000000E+00 0. -1.
          2   -1    0    0  502    0  0.00000000000E+00 -0.00000000000E+00 -0.15842445814E+04  0.15842445814E+04  0.00000000000E+00 0. -1.
         25    2    1    2    0    0  0.10311904444E+03 -0.12721141729E+02  0.15937610240E+03  0.22763507833E+03  0.12498648766E+03 0.  0.
          4    1    3    3  501    0  0.27454271251E+01 -0.13358282326E+02 -0.18720622872E+02  0.23196027624E+02  0.12700000000E+01 0.  1.
         -4    1    3    3    0  501  0.10037361732E+03  0.63714059715E+00  0.17809672527E+03  0.20443905071E+03  0.12700000000E+01 0.  1.
          2    1    1    2  502    0 -0.16830071111E+03  0.18697765630E+02 -0.15447315163E+04  0.15539852616E+04  0.00000000000E+00 0. -1.
          1    1    1    2  503    0  0.65181666670E+02 -0.59766239011E+01  0.14147131383E+04  0.14162265473E+04  0.00000000000E+00 0. -1.
<mgrwt>
<rscale>  0 0.10480402E+03</rscale>
<asrwt>0</asrwt>
<pdfrwt beam="2">  1        2 0.24372994E+00 0.16780791E+03</pdfrwt>
<pdfrwt beam="1">  1        1 0.24824651E+00 0.65455097E+02</pdfrwt>
<totfact> 0.12244387E+01</totfact>
</mgrwt>
</event>
<event>
 7    1  0.3113151E-004  0.1144612E+03  0.7546771E-02  0.1320912E+00
          1   -1    0    0  502    0  0.00000000000E+00  0.00000000000E+00  0.47918764246E+03  0.47918764246E+03  0.00000000000E+00 0. -1.
          1   -1    0    0  503    0 -0.00000000000E+00 -0.00000000000E+00 -0.11770273159E+04  0.11770273159E+04  0.00000000000E+00 0. -1.
         25    2    1    2    0    0  0.85133584883E+02  0.10967226873E+03 -0.24434931588E+03  0.30758070555E+03  0.12499427368E+03 0.  0.
          4    1    3    3  501    0 -0.17103455206E+02  0.31359541238E+02 -0.13173918476E+03  0.13650192199E+03  0.12700000000E+01 0. -1.
         -4    1    3    3    0  501  0.10223704009E+03  0.78312727493E+02 -0.11261013112E+03  0.17107878356E+03  0.12700000000E+01 0. -1.
          1    1    1    2  502    0 -0.60095275203E+02  0.53470096758E+00  0.44198666189E+03  0.44605373813E+03  0.00000000000E+00 0. -1.
          1    1    1    2  503    0 -0.25038309680E+02 -0.11020696970E+03 -0.89547701949E+03  0.90258051472E+03  0.00000000000E+00 0. -1.
<mgrwt>
<rscale>  0 0.82938824E+02</rscale>
<asrwt>0</asrwt>
<pdfrwt beam="1">  1        1 0.73721176E-01 0.60097654E+02</pdfrwt>
<pdfrwt beam="2">  1        1 0.18108112E+00 0.11446118E+03</pdfrwt>
<totfact> 0.75378595E+01</totfact>
</mgrwt>
</event>
<event>
 7    1  0.3113151E-004  0.5733364E+02  0.7546771E-02  0.1425790E+00
          1   -1    0    0  503    0 -0.00000000000E+00  0.00000000000E+00  0.14602833976E+03  0.14602833976E+03  0.00000000000E+00 0. -1.
          2   -1    0    0  502    0  0.00000000000E+00 -0.00000000000E+00 -0.18262250001E+04  0.18262250001E+04  0.00000000000E+00 0. -1.
         25    2    1    2    0    0  0.22289742312E+00  0.87732758373E+01 -0.16460735547E+03  0.20687646221E+03  0.12500107636E+03 0.  0.
          4    1    3    3  501    0 -0.28600395918E+02 -0.45565930286E+02 -0.37281696597E+02  0.65465826587E+02  0.12700000000E+01 0.  1.
         -4    1    3    3    0  501  0.28823293341E+02  0.54339206124E+02 -0.12732565887E+03  0.14141063563E+03  0.12700000000E+01 0.  1.
          2    1    1    2  502    0 -0.74375373713E+01  0.49960694493E+02 -0.16330612002E+04  0.16338421808E+04  0.00000000000E+00 0. -1.
          1    1    1    2  503    0  0.72146399481E+01 -0.58733970331E+02  0.11747189533E+03  0.13153469691E+03  0.00000000000E+00 0. -1.
<mgrwt>
<rscale>  0 0.53814449E+02</rscale>
<asrwt>0</asrwt>
<pdfrwt beam="2">  1        2 0.28095769E+00 0.50511266E+02</pdfrwt>
<pdfrwt beam="1">  1        1 0.22465898E-01 0.57333644E+02</pdfrwt>
<totfact> 0.30974613E+02</totfact>
</mgrwt>
</event>
<event>
 7    1  0.4310394E-004  0.9255354E+02  0.7546771E-02  0.1411038E+00
         -2   -1    0    0    0  501 -0.00000000000E+00  0.00000000000E+00  0.12281851324E+03  0.12281851324E+03  0.00000000000E+00 0.  1.
          1   -1    0    0  503    0  0.00000000000E+00 -0.00000000000E+00 -0.17504114478E+03  0.17504114478E+03  0.00000000000E+00 0. -1.
         25    2    1    2    0    0  0.95416436506E+02 -0.20076949800E+02  0.66662177514E+01  0.15867021990E+03  0.12499767980E+03 0.  0.
          4    1    3    3  502    0  0.41748894058E+02  0.26837595975E+02  0.53797992874E+02  0.73205625809E+02  0.12700000000E+01 0.  1.
         -4    1    3    3    0  502  0.53667542448E+02 -0.46914545775E+02 -0.47131775123E+02  0.85464594096E+02  0.12700000000E+01 0.  1.
          1    1    1    2  503    0 -0.57124874747E+01  0.34589624912E+02 -0.13011809442E+02  0.37394944172E+02  0.00000000000E+00 0. -1.
         -2    1    1    2    0  501 -0.89703949032E+02 -0.14512675112E+02 -0.45877039857E+02  0.10179449394E+03  0.00000000000E+00 0.  1.
<mgrwt>
<rscale>  0 0.56962769E+02</rscale>
<asrwt>0</asrwt>
<pdfrwt beam="2">  1        1 0.26929407E-01 0.35058161E+02</pdfrwt>
<pdfrwt beam="1">  1       -2 0.18895156E-01 0.92553543E+02</pdfrwt>
<totfact> 0.32355221E+03</totfact>
</mgrwt>
</event>
<event>
 7    1  0.3113151E-004  0.8719223E+02  0.7546771E-02  0.1425685E+00
          1   -1    0    0  502    0  0.00000000000E+00  0.00000000000E+00  0.15857210844E+04  0.15857210844E+04  0.00000000000E+00 0. -1.
          1   -1    0    0  503    0 -0.00000000000E+00 -0.00000000000E+00 -0.24623871305E+04  0.24623871305E+04  0.00000000000E+00 0. -1.
         25    2    1    2    0    0  0.17849177315E+02  0.11549029508E+03  0.38959241310E+03  0.42551467044E+03  0.12499554003E+03 0.  0.
          4    1    3    3  501    0  0.40023012244E+01 -0.25415202576E+02  0.98511387519E+02  0.10182365790E+03  0.12700000000E+01 0.  1.
         -4    1    3    3    0  501  0.13846876091E+02  0.14090549766E+03  0.29108102558E+03  0.32369101254E+03  0.12700000000E+01 0.  1.
          1    1    1    2  502    0 -0.58012201227E+01 -0.84509848676E+02  0.11765317077E+04  0.11795772242E+04  0.00000000000E+00 0. -1.
          1    1    1    2  503    0 -0.12047957192E+02 -0.30980446405E+02 -0.24427901669E+04  0.24430163202E+04  0.00000000000E+00 0. -1.
<mgrwt>
<rscale>  0 0.53836113E+02</rscale>
<asrwt>0</asrwt>
<pdfrwt beam="1">  1        1 0.24395709E+00 0.87192230E+02</pdfrwt>
<pdfrwt beam="2">  1        1 0.37882879E+00 0.33240658E+02</pdfrwt>
<totfact> 0.19510738E+00</totfact>
</mgrwt>
</event>
<event>
 7    1  0.3113151E-004  0.9502757E+02  0.7546771E-02  0.1481785E+00
         -1   -1    0    0    0  501 -0.00000000000E+00  0.00000000000E+00  0.32915761706E+02  0.32915761706E+02  0.00000000000E+00 0.  1.
          2   -1    0    0  503    0  0.00000000000E+00 -0.00000000000E+00 -0.95237311812E+03  0.95237311812E+03  0.00000000000E+00 0. -1.
         25    2    1    2    0    0 -0.11233047991E+02  0.11082015902E+03 -0.74598331384E+03  0.76454104477E+03  0.12499846236E+03 0.  0.
          4    1    3    3  502    0  0.47014905091E+02  0.15629729886E+02 -0.33613068929E+03  0.33976483476E+03  0.12700000000E+01 0. -1.
         -4    1    3    3    0  502 -0.58247953082E+02  0.95190429136E+02 -0.40985262455E+03  0.42477621001E+03  0.12700000000E+01 0. -1.
          2    1    1    2  503    0  0.95142499632E+01 -0.17836450952E+02 -0.10056226036E+03  0.10257401300E+03  0.00000000000E+00 0. -1.
         -1    1    1    2    0  501  0.17187980282E+01 -0.92983708070E+02 -0.72911782210E+02  0.11817382205E+03  0.00000000000E+00 0.  1.
<mgrwt>
<rscale>  0 0.43829380E+02</rscale>
<asrwt>0</asrwt>
<pdfrwt beam="2">  1        2 0.14651895E+00 0.20215339E+02</pdfrwt>
<pdfrwt beam="1">  1       -1 0.50639631E-02 0.95027571E+02</pdfrwt>
<totfact> 0.57272616E+03</totfact>
</mgrwt>
</event>
<event>
 7    1  0.3113151E-004  0.8739843E+02  0.7546771E-02  0.1350385E+00
          2   -1    0    0  502    0  0.00000000000E+00  0.00000000000E+00  0.32552778318E+04  0.32552778318E+04  0.00000000000E+00 0. -1.
          1   -1    0    0  503    0 -0.00000000000E+00 -0.00000000000E+00 -0.11718799526E+03  0.11718799526E+03  0.00000000000E+00 0. -1.
         25    2    1    2    0    0  0.50058516498E+02 -0.47591476277E+02  0.77743531731E+03  0.79044391944E+03  0.12500045394E+03 0.  0.
          4    1    3    3  501    0 -0.30330495791E+02  0.10490044532E+02  0.35813949234E+03  0.35957681917E+03  0.12700000000E+01 0. -1.
         -4    1    3    3    0  501  0.80389012289E+02 -0.58081520809E+02  0.41929582497E+03  0.43086710027E+03  0.12700000000E+01 0. -1.
          2    1    1    2  502    0  0.38171485625E+02  0.47409507061E+02  0.24533176702E+04  0.24540725977E+04  0.00000000000E+00 0. -1.
          1    1    1    2  503    0 -0.88230002123E+02  0.18196921618E+00 -0.92663150935E+02  0.12794931000E+03  0.00000000000E+00 0. -1.
<mgrwt>
<rscale>  0 0.72935803E+02</rscale>
<asrwt>0</asrwt>
<pdfrwt beam="1">  1        2 0.50081191E+00 0.60866441E+02</pdfrwt>
<pdfrwt beam="2">  1        1 0.18028925E-01 0.87398428E+02</pdfrwt>
<totfact> 0.71964773E+01</totfact>
</mgrwt>
</event>
<event>
 7    1  0.3113151E-004  0.7522749E+02  0.7546771E-02  0.1438980E+00
         -2   -1    0    0    0  501 -0.00000000000E+00  0.00000000000E+00  0.42458115496E+02  0.42458115496E+02  0.00000000000E+00 0.  1.
          1   -1    0    0  503    0  0.00000000000E+00 -0.00000000000E+00 -0.52848412831E+03  0.52848412831E+03  0.00000000000E+00 0. -1.
         25    2    1    2    0    0 -0.83966534300E+02  0.48927339608E+02 -0.36046352198E+03  0.39370571386E+03  0.12500389995E+03 0.  0.
          4    1    3    3  502    0 -0.11913445355E+02 -0.38669573733E+02 -0.14051988955E+03  0.14623514752E+03  0.12700000000E+01 0.  1.
         -4    1    3    3    0  502 -0.72053088945E+02  0.87596913342E+02 -0.21994363244E+03  0.24747056634E+03  0.12700000000E+01 0.  1.
          1    1    1    2  503    0  0.18758537123E+02 -0.29365233226E+02 -0.50473102950E+00  0.34849022810E+02  0.00000000000E+00 0. -1.
         -2    1    1    2    0  501  0.65207997177E+02 -0.19562106383E+02 -0.12505775980E+03  0.14238750714E+03  0.00000000000E+00 0.  1.
<mgrwt>
<rscale>  0 0.51198920E+02</rscale>
<asrwt>0</asrwt>
<pdfrwt beam="2">  1        1 0.81305252E-01 0.34845368E+02</pdfrwt>
<pdfrwt beam="1">  1       -2 0.65320177E-02 0.75227485E+02</pdfrwt>
<totfact> 0.45478281E+03</totfact>
</mgrwt>
</event>
<event>
 7    1  0.3113151E-004  0.1018944E+03  0.7546771E-02  0.1292499E+00
         -2   -1    0    0    0  501 -0.00000000000E+00  0.00000000000E+00  0.10206927422E+03  0.10206927422E+03  0.00000000000E+00 0.  1.
          1   -1    0    0  503    0  0.00000000000E+00 -0.00000000000E+00 -0.12970126305E+04  0.12970126305E+04  0.00000000000E+00 0. -1.
         25    2    1    2    0    0 -0.27930825292E+02 -0.13415752243E+03 -0.74975498337E+03  0.77235713038E+03  0.12499851976E+03 0.  0.
          4    1    3    3  502    0 -0.15013179660E+02 -0.47389986751E+02 -0.57172538542E+03  0.57388390432E+03  0.12700000000E+01 0. -1.
         -4    1    3    3    0  502 -0.12917645632E+02 -0.86767535683E+02 -0.17802959795E+03  0.19847322606E+03  0.12700000000E+01 0. -1.
          1    1    1    2  503    0  0.75465957378E+02  0.44253980933E+02 -0.50245395609E+03  0.51001323859E+03  0.00000000000E+00 0. -1.
         -2    1    1    2    0  501 -0.47535132086E+02  0.89903541501E+02  0.57265583184E+02  0.11671153574E+03  0.00000000000E+00 0.  1.
<mgrwt>
<rscale>  0 0.94414891E+02</rscale>
<asrwt>0</asrwt>
<pdfrwt beam="2">  1        1 0.19954038E+00 0.87484430E+02</pdfrwt>
<pdfrwt beam="1">  1       -2 0.15702967E-01 0.10189438E+03</pdfrwt>
<totfact> 0.28893762E+02</totfact>
</mgrwt>
</event>
<event>
 7    1  0.3113151E-004  0.1232392E+03  0.7546771E-02  0.1406156E+00
         -1   -1    0    0    0  501  0.00000000000E+00  0.00000000000E+00  0.14951788686E+04  0.14951788686E+04  0.00000000000E+00 0.  1.
         -1   -1    0    0    0  502 -0.00000000000E+00 -0.00000000000E+00 -0.22283916496E+02  0.22283916496E+02  0.00000000000E+00 0.  1.
         25    2    1    2    0    0  0.10101941369E+03  0.10325211135E+02  0.39133492099E+03  0.42315215517E+03  0.12491274599E+03 0.  0.
          4    1    3    3  503    0  0.78097099390E+02 -0.42093486751E+02  0.14284984960E+03  0.16816275149E+03  0.12700000000E+01 0.  1.
         -4    1    3    3    0  503  0.22922314300E+02  0.52418697886E+02  0.24848507139E+03  0.25498940367E+03  0.12700000000E+01 0.  1.
         -1    1    1    2    0  501 -0.12832911880E+03 -0.11873040742E+02  0.10003514805E+04  0.10086190641E+04  0.00000000000E+00 0.  1.
         -1    1    1    2    0  502  0.27309705109E+02  0.15478296068E+01  0.81208550595E+02  0.85691565859E+02  0.00000000000E+00 0.  1.
<mgrwt>
<rscale>  0 0.58060554E+02</rscale>
<asrwt>0</asrwt>
<pdfrwt beam="1">  1       -1 0.23002744E+00 0.12323922E+03</pdfrwt>
<pdfrwt beam="2">  1       -1 0.34282960E-02 0.27353533E+02</pdfrwt>
<totfact> 0.22839117E+02</totfact>
</mgrwt>
</event>
<event>
 7    1  0.3113151E-004  0.3693465E+02  0.7546771E-02  0.1575030E+00
          2   -1    0    0  503    0  0.00000000000E+00  0.00000000000E+00  0.15805831032E+03  0.15805831032E+03  0.00000000000E+00 0. -1.
         -1   -1    0    0    0  501 -0.00000000000E+00 -0.00000000000E+00 -0.40456535377E+03  0.40456535377E+03  0.00000000000E+00 0.  1.
         25    2    1    2    0    0 -0.63750635785E+02 -0.88354430299E+01 -0.15751568514E+03  0.21113464192E+03  0.12499774932E+03 0.  0.
          4    1    3    3  502    0  0.82206800233E+01 -0.51549887568E+02 -0.88018942591E+02  0.10234215966E+03  0.12700000000E+01 0.  1.
         -4    1    3    3    0  502 -0.71971315808E+02  0.42714444538E+02 -0.69496742551E+02  0.10879248226E+03  0.12700000000E+01 0.  1.
          2    1    1    2  503    0  0.35706606427E+02  0.78343683705E+01  0.12778133871E+03  0.13290752271E+03  0.00000000000E+00 0. -1.
         -1    1    1    2    0  501  0.28044029358E+02  0.10010746594E+01 -0.21677269702E+03  0.21858149946E+03  0.00000000000E+00 0.  1.
<mgrwt>
<rscale>  0 0.32194040E+02</rscale>
<asrwt>0</asrwt>
<pdfrwt beam="1">  1        2 0.24316663E-01 0.36934654E+02</pdfrwt>
<pdfrwt beam="2">  1       -1 0.62240823E-01 0.28061891E+02</pdfrwt>
<totfact> 0.66876881E+02</totfact>
</mgrwt>
</event>
<event>
 7    1  0.3113151E-004  0.7106070E+02  0.7546771E-02  0.1399225E+00
         -1   -1    0    0    0  501 -0.00000000000E+00  0.00000000000E+00  0.17136485730E+03  0.17136485730E+03  0.00000000000E+00 0.  1.
          2   -1    0    0  503    0  0.00000000000E+00 -0.00000000000E+00 -0.16565659299E+04  0.16565659299E+04  0.00000000000E+00 0. -1.
         25    2    1    2    0    0 -0.21445159858E+02  0.32174193246E+02 -0.71806784593E+02  0.14924965306E+03  0.12499668408E+03 0.  0.
          4    1    3    3  502    0  0.38346586500E+02 -0.14899593198E+02 -0.59202051455E+02  0.72103775007E+02  0.12700000000E+01 0. -1.
         -4    1    3    3    0  502 -0.59791746358E+02  0.47073786444E+02 -0.12604733138E+02  0.77145878051E+02  0.12700000000E+01 0. -1.
          2    1    1    2  503    0  0.69598934216E+02 -0.18331918094E+02 -0.15404358523E+04  0.15421163010E+04  0.00000000000E+00 0. -1.
         -1    1    1    2    0  501 -0.48153774358E+02 -0.13842275152E+02  0.12704156433E+03  0.13656483308E+03  0.00000000000E+00 0.  1.
<mgrwt>
<rscale>  0 0.59669204E+02</rscale>
<asrwt>0</asrwt>
<pdfrwt beam="2">  1        2 0.25485629E+00 0.71060702E+02</pdfrwt>
<pdfrwt beam="1">  1       -1 0.26363825E-01 0.50103838E+02</pdfrwt>
<totfact> 0.17826870E+02</totfact>
</mgrwt>
</event>
<event>
 7    1  0.3113151E-004  0.3912141E+02  0.7546771E-02  0.1524174E+00
          2   -1    0    0  502    0  0.00000000000E+00  0.00000000000E+00  0.75910310726E+03  0.75910310726E+03  0.00000000000E+00 0. -1.
          2   -1    0    0  503    0 -0.00000000000E+00 -0.00000000000E+00 -0.58560569809E+02  0.58560569809E+02  0.00000000000E+00 0. -1.
         25    2    1    2    0    0 -0.69559516211E+02 -0.12157121353E+02  0.13432579903E+03  0.19660710495E+03  0.12499844613E+03 0.  0.
          4    1    3    3  501    0 -0.74193782784E+02  0.44585005959E+02  0.78450721196E+02  0.11682751695E+03  0.12700000000E+01 0. -1.
         -4    1    3    3    0  501  0.46342665733E+01 -0.56742127311E+02  0.55875077831E+02  0.79779587998E+02  0.12700000000E+01 0. -1.
          2    1    1    2  502    0  0.33486468608E+02  0.19113349758E+02  0.58039765973E+03  0.58167697835E+03  0.00000000000E+00 0. -1.
          2    1    1    2  503    0  0.36073047603E+02 -0.69562284050E+01 -0.14180921305E+02  0.39379593777E+02  0.00000000000E+00 0. -1.
<mgrwt>
<rscale>  0 0.37910792E+02</rscale>
<asrwt>0</asrwt>
<pdfrwt beam="1">  1        2 0.11678509E+00 0.39121411E+02</pdfrwt>
<pdfrwt beam="2">  1        2 0.90093190E-02 0.36737636E+02</pdfrwt>
<totfact> 0.39819673E+03</totfact>
</mgrwt>
</event>
<event>
 7    1  0.3113151E-004  0.5488999E+02  0.7546771E-02  0.1484283E+00
          1   -1    0    0  502    0  0.00000000000E+00  0.00000000000E+00  0.15853793554E+03  0.15853793554E+03  0.00000000000E+00 0. -1.
          3   -1    0    0  503    0 -0.00000000000E+00 -0.00000000000E+00 -0.16334793655E+03  0.16334793655E+03  0.00000000000E+00 0. -1.
         25    2    1    2    0    0 -0.35449215400E+02  0.47563456057E+02 -0.95163501995E+02  0.16792808954E+03  0.12499928768E+03 0.  0.
          4    1    3    3  501    0 -0.81052365967E+02  0.15375512737E+02 -0.55341134401E+02  0.99348610849E+02  0.12700000000E+01 0. -1.
         -4    1    3    3    0  501  0.45603150567E+02  0.32187943320E+02 -0.39822367594E+02  0.68579478691E+02  0.12700000000E+01 0. -1.
          1    1    1    2  502    0  0.52305847018E+02 -0.17590294799E+02  0.10337867541E+03  0.11718562469E+03  0.00000000000E+00 0. -1.
          3    1    1    2  503    0 -0.16856631618E+02 -0.29973161258E+02 -0.13025174427E+02  0.36772157866E+02  0.00000000000E+00 0. -1.
<mgrwt>
<rscale>  0 0.43446041E+02</rscale>
<asrwt>0</asrwt>
<pdfrwt beam="1">  1        1 0.24390452E-01 0.54889991E+02</pdfrwt>
<pdfrwt beam="2">  1        3 0.25130452E-01 0.34388027E+02</pdfrwt>
<totfact> 0.12971305E+03</totfact>
</mgrwt>
</event>
<event>
 7    1  0.3113151E-004  0.1599335E+03  0.7546771E-02  0.1361557E+00
          2   -1    0    0  503    0  0.00000000000E+00  0.00000000000E+00  0.16625465720E+04  0.16625465720E+04  0.00000000000E+00 0. -1.
          2   -1    0    0  502    0 -0.00000000000E+00 -0.00000000000E+00 -0.54181053990E+03  0.54181053990E+03  0.00000000000E+00 0. -1.
         25    2    1    2    0    0  0.17725110009E+02 -0.13191955190E+03  0.80416625204E+03  0.82463646409E+03  0.12499995716E+03 0.  0.
          4    1    3    3  501    0  0.42084020131E+01 -0.10259792544E+03  0.77283708140E+03  0.77962992005E+03  0.12700000000E+01 0. -1.
         -4    1    3    3    0  501  0.13516707996E+02 -0.29321626460E+02  0.31329170636E+02  0.45006544036E+02  0.12700000000E+01 0. -1.
          2    1    1    2  502    0 -0.35604867761E+02  0.15633679884E+03 -0.51920442735E+03  0.54339869218E+03  0.00000000000E+00 0. -1.
          2    1    1    2  503    0  0.17879757752E+02 -0.24417246941E+02  0.83577420739E+03  0.83632195560E+03  0.00000000000E+00 0. -1.
<mgrwt>
<rscale>  0 0.69571320E+02</rscale>
<asrwt>0</asrwt>
<pdfrwt beam="1">  1        2 0.25577639E+00 0.30263636E+02</pdfrwt>
<pdfrwt beam="2">  1        2 0.83355468E-01 0.15993348E+03</pdfrwt>
<totfact> 0.12251739E+02</totfact>
</mgrwt>
</event>
<event>
 7    1  0.3113151E-004  0.1629744E+03  0.7546771E-02  0.1236152E+00
          1   -1    0    0  502    0  0.00000000000E+00  0.00000000000E+00  0.10179603481E+04  0.10179603481E+04  0.00000000000E+00 0. -1.
          1   -1    0    0  503    0 -0.00000000000E+00 -0.00000000000E+00 -0.80755202905E+03  0.80755202905E+03  0.00000000000E+00 0. -1.
         25    2    1    2    0    0 -0.28841469562E+02  0.73774633094E+02  0.57020421818E+03  0.58909450035E+03  0.12499981222E+03 0.  0.
          4    1    3    3  501    0  0.39495727073E+02  0.64503139682E+02  0.23527133077E+03  0.24713312095E+03  0.12700000000E+01 0. -1.
         -4    1    3    3    0  501 -0.68337196635E+02  0.92714934123E+01  0.33493288741E+03  0.34196137940E+03  0.12700000000E+01 0. -1.
          1    1    1    2  502    0 -0.12490773160E+03 -0.12782853126E+03  0.41121287023E+03  0.44837272382E+03  0.00000000000E+00 0. -1.
          1    1    1    2  503    0  0.15374920116E+03  0.54053898167E+02 -0.77100876934E+03  0.78804515300E+03  0.00000000000E+00 0. -1.
<mgrwt>
<rscale>  0 0.12430966E+03</rscale>
<asrwt>0</asrwt>
<pdfrwt beam="1">  1        1 0.15660928E+00 0.94817935E+02</pdfrwt>
<pdfrwt beam="2">  1        1 0.12423877E+00 0.16297436E+03</pdfrwt>
<totfact> 0.46660522E+01</totfact>
</mgrwt>
</event>
<event>
 7    1  0.3113151E-004  0.6443445E+02  0.7546771E-02  0.1467665E+00
          1   -1    0    0  503    0  0.00000000000E+00  0.00000000000E+00  0.10298300270E+04  0.10298300270E+04  0.00000000000E+00 0. -1.
         -2   -1    0    0    0  501 -0.00000000000E+00 -0.00000000000E+00 -0.25972815980E+02  0.25972815980E+02  0.00000000000E+00 0.  1.
         25    2    1    2    0    0  0.56329643601E+02 -0.29501147363E+02  0.89674483759E+03  0.90764477282E+03  0.12499753369E+03 0.  0.
          4    1    3    3  502    0 -0.30705780429E+02 -0.64675745259E+01  0.79870020102E+02  0.85822534821E+02  0.12700000000E+01 0.  1.
         -4    1    3    3    0  502  0.87035424029E+02 -0.23033572837E+02  0.81687481749E+03  0.82182223800E+03  0.12700000000E+01 0.  1.
          1    1    1    2  503    0 -0.21186216430E+02 -0.25254762619E+02  0.57721593334E+02  0.66471355775E+02  0.00000000000E+00 0. -1.
         -2    1    1    2    0  501 -0.35143427171E+02  0.54755909983E+02  0.49390780126E+02  0.81686714420E+02  0.00000000000E+00 0.  1.
<mgrwt>
<rscale>  0 0.46087418E+02</rscale>
<asrwt>0</asrwt>
<pdfrwt beam="1">  1        1 0.15843536E+00 0.32964508E+02</pdfrwt>
<pdfrwt beam="2">  1       -2 0.39958186E-02 0.64434455E+02</pdfrwt>
<totfact> 0.36735569E+03</totfact>
</mgrwt>
</event>
<event>
 7    1  0.3113151E-004  0.4202270E+02  0.7546771E-02  0.1598431E+00
         -1   -1    0    0    0  501 -0.00000000000E+00  0.00000000000E+00  0.69364367330E+01  0.69364367330E+01  0.00000000000E+00 0.  1.
          2   -1    0    0  503    0  0.00000000000E+00 -0.00000000000E+00 -0.20860319498E+04  0.20860319498E+04  0.00000000000E+00 0. -1.
         25    2    1    2    0    0  0.27042083897E+02 -0.13110367019E+02 -0.16729157175E+04  0.16778477564E+04  0.12499175848E+03 0.  0.
          4    1    3    3  502    0 -0.37836670198E+02 -0.14549509852E+01 -0.11719641498E+04  0.11725763565E+04  0.12700000000E+01 0. -1.
         -4    1    3    3    0  502  0.64878754095E+02 -0.11655416034E+02 -0.50095156774E+03  0.50527139992E+03  0.12700000000E+01 0. -1.
          2    1    1    2  503    0 -0.41754520133E+02  0.28613285815E+02 -0.36714336270E+03  0.37061625552E+03  0.00000000000E+00 0. -1.
         -1    1    1    2    0  501  0.14712436235E+02 -0.15502918796E+02 -0.39036432837E+02  0.44504374614E+02  0.00000000000E+00 0.  1.
<mgrwt>
<rscale>  0 0.29969025E+02</rscale>
<asrwt>0</asrwt>
<pdfrwt beam="2">  1        2 0.32092824E+00 0.42022700E+02</pdfrwt>
<pdfrwt beam="1">  1       -1 0.10671433E-02 0.21372793E+02</pdfrwt>
<totfact> 0.10451559E+04</totfact>
</mgrwt>
</event>
<event>
 7    1  0.3113151E-004  0.7068084E+02  0.7546771E-02  0.1407438E+00
         -1   -1    0    0    0  501 -0.00000000000E+00  0.00000000000E+00  0.28342212880E+03  0.28342212880E+03  0.00000000000E+00 0.  1.
          2   -1    0    0  503    0  0.00000000000E+00 -0.00000000000E+00 -0.18913072899E+04  0.18913072899E+04  0.00000000000E+00 0. -1.
         25    2    1    2    0    0 -0.56710298244E+02 -0.94929878115E+02 -0.63943938847E+02  0.17872406443E+03  0.12500289678E+03 0.  0.
          4    1    3    3  502    0 -0.75421432025E+01 -0.75205699933E+02 -0.91749799402E+02  0.11887985455E+03  0.12700000000E+01 0. -1.
         -4    1    3    3    0  502 -0.49168155041E+02 -0.19724178182E+02  0.27805860555E+02  0.59844209882E+02  0.12700000000E+01 0. -1.
          2    1    1    2  503    0  0.17994061569E+02  0.67903088920E+02 -0.17668018907E+04  0.17681978217E+04  0.00000000000E+00 0. -1.
         -1    1    1    2    0  501  0.38716236675E+02  0.27026789196E+02  0.22286066849E+03  0.22780753252E+03  0.00000000000E+00 0.  1.
<mgrwt>
<rscale>  0 0.57769364E+02</rscale>
<asrwt>0</asrwt>
<pdfrwt beam="2">  1        2 0.29097035E+00 0.70680843E+02</pdfrwt>
<pdfrwt beam="1">  1       -1 0.43603405E-01 0.47216462E+02</pdfrwt>
<totfact> 0.59062857E+01</totfact>
</mgrwt>
</event>
<event>
 7    1  0.3113151E-004  0.1709154E+03  0.7546771E-02  0.1361852E+00
          2   -1    0    0  502    0  0.00000000000E+00  0.00000000000E+00  0.52805876597E+03  0.52805876597E+03  0.00000000000E+00 0. -1.
          1   -1    0    0  503    0 -0.00000000000E+00 -0.00000000000E+00 -0.21820680060E+04  0.21820680060E+04  0.00000000000E+00 0. -1.
         25    2    1    2    0    0  0.96001336780E+02  0.13676199426E+03 -0.16777571201E+04  0.16906845904E+04  0.12500132136E+03 0.  0.
          4    1    3    3  501    0 -0.19739551203E+02  0.73258473695E+02 -0.54415253184E+03  0.54941791440E+03  0.12700000000E+01 0.  1.
         -4    1    3    3    0  501  0.11574088798E+03  0.63503520570E+02 -0.11336045883E+04  0.11412666760E+04  0.12700000000E+01 0.  1.
          2    1    1    2  502    0 -0.73792977812E+02 -0.15422062231E+03  0.50716197578E+03  0.53520339460E+03  0.00000000000E+00 0. -1.
          1    1    1    2  503    0 -0.22208358968E+02  0.17458628050E+02 -0.48341409570E+03  0.48423878699E+03  0.00000000000E+00 0. -1.
<mgrwt>
<rscale>  0 0.69485358E+02</rscale>
<asrwt>0</asrwt>
<pdfrwt beam="1">  1        2 0.81239808E-01 0.17091536E+03</pdfrwt>
<pdfrwt beam="2">  1        1 0.33570278E+00 0.28249158E+02</pdfrwt>
<totfact> 0.28273927E+01</totfact>
</mgrwt>
</event>
<event>
 7    1  0.3113151E-004  0.6301001E+02  0.7546771E-02  0.1514075E+00
          2   -1    0    0  503    0  0.00000000000E+00  0.00000000000E+00  0.72134384010E+03  0.72134384010E+03  0.00000000000E+00 0. -1.
         -1   -1    0    0    0  501 -0.00000000000E+00 -0.00000000000E+00 -0.42187589887E+02  0.42187589887E+02  0.00000000000E+00 0.  1.
         25    2    1    2    0    0 -0.56891665774E+02  0.17120796156E+02  0.87509049005E+02  0.16374710193E+03  0.12500198573E+03 0.  0.
          4    1    3    3  502    0 -0.52541558688E+02 -0.21972373932E+02  0.10594448409E+03  0.12028818402E+03  0.12700000000E+01 0.  1.
         -4    1    3    3    0  502 -0.43501070856E+01  0.39093170088E+02 -0.18435435081E+02  0.43458917909E+02  0.12700000000E+01 0.  1.
          2    1    1    2  503    0  0.63076264849E+02  0.64874957109E+01  0.52488735246E+03  0.52870354222E+03  0.00000000000E+00 0. -1.
         -1    1    1    2    0  501 -0.61845990747E+01 -0.23608291867E+02  0.66759848751E+02  0.71080785842E+02  0.00000000000E+00 0.  1.
<mgrwt>
<rscale>  0 0.39214221E+02</rscale>
<asrwt>0</asrwt>
<pdfrwt beam="1">  1        2 0.11097597E+00 0.63010013E+02</pdfrwt>
<pdfrwt beam="2">  1       -1 0.64903990E-02 0.24404932E+02</pdfrwt>
<totfact> 0.45783036E+03</totfact>
</mgrwt>
</event>
<event>
 7    1  0.3113151E-004  0.1450794E+03  0.7546771E-02  0.1219238E+00
          2   -1    0    0  503    0  0.00000000000E+00  0.00000000000E+00  0.71947084639E+03  0.71947084639E+03  0.00000000000E+00 0. -1.
          2   -1    0    0  502    0 -0.00000000000E+00 -0.00000000000E+00 -0.19304818079E+03  0.19304818079E+03  0.00000000000E+00 0. -1.
         25    2    1    2    0    0 -0.36099478704E+02  0.14702532644E+02  0.44033076450E+02  0.13814343256E+03  0.12500143723E+03 0.  0.
          4    1    3    3  501    0 -0.81443308334E+01 -0.52930777156E+02  0.35929337086E+02  0.64502150805E+02  0.12700000000E+01 0.  1.
         -4    1    3    3    0  501 -0.27955147871E+02  0.67633309800E+02  0.81037393638E+01  0.73641281756E+02  0.12700000000E+01 0.  1.
          2    1    1    2  502    0 -0.55751600714E+02 -0.13393945239E+03 -0.97810200618E+02  0.17497100683E+03  0.00000000000E+00 0. -1.
          2    1    1    2  503    0  0.91851079419E+02  0.11923691974E+03  0.58019978977E+03  0.59940458779E+03  0.00000000000E+00 0. -1.
<mgrwt>
<rscale>  0 0.13569787E+03</rscale>
<asrwt>0</asrwt>
<pdfrwt beam="1">  1        2 0.11068782E+00 0.12692304E+03</pdfrwt>
<pdfrwt beam="2">  1        2 0.29699721E-01 0.14507935E+03</pdfrwt>
<totfact> 0.11261312E+03</totfact>
</mgrwt>
</event>
<event>
 7    1  0.3113151E-004  0.9465642E+02  0.7546771E-02  0.1400435E+00
         -2   -1    0    0    0  501 -0.00000000000E+00  0.00000000000E+00  0.88195615407E+02  0.88195615407E+02  0.00000000000E+00 0.  1.
          2   -1    0    0  503    0  0.00000000000E+00 -0.00000000000E+00 -0.11641952999E+04  0.11641952999E+04  0.00000000000E+00 0. -1.
         25    2    1    2    0    0  0.77626096445E+02 -0.37329200100E+02 -0.22722137171E+03  0.27326649868E+03  0.12500299001E+03 0.  0.
          4    1    3    3  502    0  0.11056998211E+03 -0.24450831834E+02 -0.19448209528E+03  0.22505213264E+03  0.12700000000E+01 0. -1.
         -4    1    3    3    0  502 -0.32943885663E+02 -0.12878368266E+02 -0.32739276423E+02  0.48214366039E+02  0.12700000000E+01 0. -1.
          2    1    1    2  503    0 -0.96145465000E+02  0.50026337113E+01 -0.90585942220E+03  0.91096117897E+03  0.00000000000E+00 0. -1.
         -2    1    1    2    0  501  0.18519368554E+02  0.32326566389E+02  0.57081109458E+02  0.68163237622E+02  0.00000000000E+00 0.  1.
<mgrwt>
<rscale>  0 0.59384125E+02</rscale>
<asrwt>0</asrwt>
<pdfrwt beam="2">  1        2 0.17910696E+00 0.94656421E+02</pdfrwt>
<pdfrwt beam="1">  1       -2 0.13568557E-01 0.37255522E+02</pdfrwt>
<totfact> 0.81005428E+02</totfact>
</mgrwt>
</event>
<event>
 7    1  0.3113151E-004  0.5049176E+02  0.7546771E-02  0.1523315E+00
         -1   -1    0    0    0  501 -0.00000000000E+00  0.00000000000E+00  0.11342223889E+03  0.11342223889E+03  0.00000000000E+00 0.  1.
          2   -1    0    0  503    0  0.00000000000E+00 -0.00000000000E+00 -0.10381180121E+03  0.10381180121E+03  0.00000000000E+00 0. -1.
         25    2    1    2    0    0 -0.29055735876E+02 -0.20874463424E+02  0.47042049317E+01  0.13010949097E+03  0.12500548422E+03 0.  0.
          4    1    3    3  502    0 -0.43116130794E+02  0.91785784045E+00 -0.52104115345E+02  0.67648318039E+02  0.12700000000E+01 0. -1.
         -4    1    3    3    0  502  0.14060394918E+02 -0.21792321264E+02  0.56808320277E+02  0.62461172931E+02  0.12700000000E+01 0. -1.
          2    1    1    2  503    0  0.56731309310E+02  0.13552359099E+02  0.43818617248E+01  0.58491953338E+02  0.00000000000E+00 0. -1.
         -1    1    1    2    0  501 -0.27675573434E+02  0.73221043248E+01  0.52437102815E+00  0.28632595789E+02  0.00000000000E+00 0.  1.
<mgrwt>
<rscale>  0 0.38019306E+02</rscale>
<asrwt>0</asrwt>
<pdfrwt beam="2">  1        2 0.15971046E-01 0.50491758E+02</pdfrwt>
<pdfrwt beam="1">  1       -1 0.17449575E-01 0.28627794E+02</pdfrwt>
<totfact> 0.86289968E+03</totfact>
</mgrwt>
</event>
<event>
 7    1  0.3113151E-004  0.4960872E+02  0.7546771E-02  0.1537546E+00
          2   -1    0    0  503    0  0.00000000000E+00  0.00000000000E+00  0.14687039701E+03  0.14687039701E+03  0.00000000000E+00 0. -1.
         -1   -1    0    0    0  501 -0.00000000000E+00 -0.00000000000E+00 -0.99413259834E+02  0.99413259834E+02  0.00000000000E+00 0.  1.
         25    2    1    2    0    0 -0.15641690439E+02 -0.36402541940E+02 -0.22686739234E+02  0.13307673760E+03  0.12499968966E+03 0.  0.
          4    1    3    3  502    0 -0.34373994024E+02 -0.72025164735E+02 -0.39959032750E+02  0.89261038637E+02  0.12700000000E+01 0. -1.
         -4    1    3    3    0  502  0.18732303585E+02  0.35622622795E+02  0.17272293517E+02  0.43815698964E+02  0.12700000000E+01 0. -1.
          2    1    1    2  503    0 -0.24884891637E+02 -0.91904326932E+01  0.30656925348E+02  0.40540954067E+02  0.00000000000E+00 0. -1.
         -1    1    1    2    0  501  0.40526582076E+02  0.45592974633E+02  0.39486951062E+02  0.72665965175E+02  0.00000000000E+00 0.  1.
<mgrwt>
<rscale>  0 0.36276825E+02</rscale>
<asrwt>0</asrwt>
<pdfrwt beam="1">  1        2 0.22595446E-01 0.26527757E+02</pdfrwt>
<pdfrwt beam="2">  1       -1 0.15294348E-01 0.49608718E+02</pdfrwt>
<totfact> 0.72290439E+03</totfact>
</mgrwt>
</event>
<event>
 7    1  0.3113151E-004  0.1080478E+03  0.7546771E-02  0.1355313E+00
         -3   -1    0    0    0  501 -0.00000000000E+00  0.00000000000E+00  0.14784895399E+04  0.14784895399E+04  0.00000000000E+00 0.  1.
          2   -1    0    0  503    0  0.00000000000E+00 -0.00000000000E+00 -0.18284762286E+03  0.18284762286E+03  0.00000000000E+00 0. -1.
         25    2    1    2    0    0  0.13532202145E+02 -0.14288649974E+03  0.42110313835E+02  0.19492461006E+03  0.12499061074E+03 0.  0.
          4    1    3    3  502    0 -0.45799611609E+02 -0.95397743670E+02 -0.42134701544E+01  0.10591364478E+03  0.12700000000E+01 0.  1.
         -4    1    3    3    0  502  0.59331813754E+02 -0.47488756071E+02  0.46323783990E+02  0.89010965278E+02  0.12700000000E+01 0.  1.
          2    1    1    2  503    0 -0.26757779187E+02  0.97561051273E+02 -0.81891442534E+02  0.13015508378E+03  0.00000000000E+00 0. -1.
         -3    1    1    2    0  501  0.13225577041E+02  0.45325448468E+02  0.13354230458E+04  0.13362574690E+04  0.00000000000E+00 0.  1.
<mgrwt>
<rscale>  0 0.71425079E+02</rscale>
<asrwt>0</asrwt>
<pdfrwt beam="2">  1        2 0.28130404E-01 0.10804782E+03</pdfrwt>
<pdfrwt beam="1">  1       -3 0.22745992E+00 0.47215592E+02</pdfrwt>
<totfact> 0.13388636E+01</totfact>
</mgrwt>
</event>
<event>
 7    1  0.3113151E-004  0.5326792E+02  0.7546771E-02  0.1460891E+00
         -2   -1    0    0    0  501 -0.00000000000E+00  0.00000000000E+00  0.52021132114E+03  0.52021132114E+03  0.00000000000E+00 0.  1.
          2   -1    0    0  503    0  0.00000000000E+00 -0.00000000000E+00 -0.15007283907E+04  0.15007283907E+04  0.00000000000E+00 0. -1.
         25    2    1    2    0    0  0.50649533603E+02 -0.80516652883E+00 -0.26289656862E+01  0.13489538021E+03  0.12499531429E+03 0.  0.
          4    1    3    3  502    0  0.24316020699E+02  0.57857041885E+02 -0.23880496230E+02  0.67160979434E+02  0.12700000000E+01 0. -1.
         -4    1    3    3    0  502  0.26333512904E+02 -0.58662208414E+02  0.21251530544E+02  0.67734400775E+02  0.12700000000E+01 0. -1.
          2    1    1    2  503    0 -0.36797817523E+02 -0.38711137269E+02 -0.14305014266E+04  0.14314981533E+04  0.00000000000E+00 0. -1.
         -2    1    1    2    0  501 -0.13851716080E+02  0.39516303798E+02  0.45261332271E+03  0.45454617829E+03  0.00000000000E+00 0.  1.
<mgrwt>
<rscale>  0 0.47228445E+02</rscale>
<asrwt>0</asrwt>
<pdfrwt beam="2">  1        2 0.23088129E+00 0.53267922E+02</pdfrwt>
<pdfrwt beam="1">  1       -2 0.80032511E-01 0.41873719E+02</pdfrwt>
<totfact> 0.23239590E+01</totfact>
</mgrwt>
</event>
<event>
 7    1  0.3113151E-004  0.5869650E+02  0.7546771E-02  0.1553038E+00
          1   -1    0    0  502    0  0.00000000000E+00  0.00000000000E+00  0.29269633414E+03  0.29269633414E+03  0.00000000000E+00 0.  1.
          1   -1    0    0  503    0 -0.00000000000E+00 -0.00000000000E+00 -0.78362793996E+02  0.78362793996E+02  0.00000000000E+00 0. -1.
         25    2    1    2    0    0 -0.14145950064E+02  0.74698114048E+02  0.88711242937E+02  0.17109533713E+03  0.12499605442E+03 0.  0.
          4    1    3    3  501    0  0.19891421409E+02 -0.62575865318E+01  0.80175139336E+02  0.82852229314E+02  0.12700000000E+01 0. -1.
         -4    1    3    3    0  501 -0.34037371473E+02  0.80955700579E+02  0.85361036019E+01  0.88243107820E+02  0.12700000000E+01 0. -1.
          1    1    1    2  502    0  0.55006233416E+01 -0.56348395754E+02  0.15457232256E+03  0.16461470610E+03  0.00000000000E+00 0.  1.
          1    1    1    2  503    0  0.86453267226E+01 -0.18349718294E+02 -0.28950025355E+02  0.35349084905E+02  0.00000000000E+00 0. -1.
<mgrwt>
<rscale>  0 0.34505344E+02</rscale>
<asrwt>0</asrwt>
<pdfrwt beam="1">  1        1 0.45030205E-01 0.58696496E+02</pdfrwt>
<pdfrwt beam="2">  1        1 0.12055815E-01 0.20284325E+02</pdfrwt>
<totfact> 0.45433779E+03</totfact>
</mgrwt>
</event>
<event>
 7    1  0.3113151E-004  0.1147391E+03  0.7546771E-02  0.1343605E+00
          2   -1    0    0  503    0  0.00000000000E+00  0.00000000000E+00  0.42933090766E+04  0.42933090766E+04  0.00000000000E+00 0. -1.
         -1   -1    0    0    0  501 -0.00000000000E+00 -0.00000000000E+00 -0.18102885559E+03  0.18102885559E+03  0.00000000000E+00 0.  1.
         25    2    1    2    0    0 -0.12357766731E+02 -0.13830718465E+03  0.31713091066E+03  0.36807518903E+03  0.12500295419E+03 0.  0.
          4    1    3    3  502    0  0.55504739158E+02 -0.49423400861E+02  0.14208591776E+03  0.16035420028E+03  0.12700000000E+01 0. -1.
         -4    1    3    3    0  502 -0.67862505889E+02 -0.88883783794E+02  0.17504499291E+03  0.20772098875E+03  0.12700000000E+01 0. -1.
          2    1    1    2  503    0 -0.28258026505E+02  0.11065266199E+03  0.39459788830E+04  0.39476311723E+04  0.00000000000E+00 0. -1.
         -1    1    1    2    0  501  0.40615793236E+02  0.27654522663E+02 -0.15082957264E+03  0.15863157084E+03  0.00000000000E+00 0.  1.
<mgrwt>
<rscale>  0 0.75085953E+02</rscale>
<asrwt>0</asrwt>
<pdfrwt beam="1">  1        2 0.66050901E+00 0.11473909E+03</pdfrwt>
<pdfrwt beam="2">  1       -1 0.27850596E-01 0.49136700E+02</pdfrwt>
<totfact> 0.40360691E+00</totfact>
</mgrwt>
</event>
<event>
 7    1  0.3113151E-004  0.3879401E+02  0.7546771E-02  0.1562480E+00
          2   -1    0    0  502    0  0.00000000000E+00  0.00000000000E+00  0.41799623817E+03  0.41799623817E+03  0.00000000000E+00 0. -1.
          3   -1    0    0  503    0 -0.00000000000E+00 -0.00000000000E+00 -0.64354690387E+02  0.64354690387E+02  0.00000000000E+00 0. -1.
         25    2    1    2    0    0  0.29237469351E+02 -0.44431308477E+02  0.74303146361E+02  0.15483979271E+03  0.12500173223E+03 0.  0.
          4    1    3    3  501    0  0.73285892162E+02 -0.53611111868E+02  0.51031336176E+02  0.10416709403E+03  0.12700000000E+01 0.  1.
         -4    1    3    3    0  501 -0.44048422811E+02  0.91798033916E+01  0.23271810185E+02  0.50672698682E+02  0.12700000000E+01 0.  1.
          2    1    1    2  502    0 -0.28121333389E+02  0.66752235844E+01  0.28743172609E+03  0.28888123021E+03  0.00000000000E+00 0. -1.
          3    1    1    2  503    0 -0.11161359618E+01  0.37756084892E+02 -0.80933246680E+01  0.38629905644E+02  0.00000000000E+00 0. -1.
<mgrwt>
<rscale>  0 0.33485116E+02</rscale>
<asrwt>0</asrwt>
<pdfrwt beam="1">  1        2 0.64307112E-01 0.28902733E+02</pdfrwt>
<pdfrwt beam="2">  1        3 0.99007219E-02 0.38794012E+02</pdfrwt>
<totfact> 0.28847862E+03</totfact>
</mgrwt>
</event>
<event>
 7    1  0.3113151E-004  0.4296663E+02  0.7546771E-02  0.1547661E+00
          2   -1    0    0  503    0  0.00000000000E+00  0.00000000000E+00  0.39582633349E+03  0.39582633349E+03  0.00000000000E+00 0. -1.
         -1   -1    0    0    0  501 -0.00000000000E+00 -0.00000000000E+00 -0.95629543165E+02  0.95629543165E+02  0.00000000000E+00 0.  1.
         25    2    1    2    0    0 -0.44927064991E+02  0.42016261181E+02  0.21028732218E+03  0.25224800262E+03  0.12499795831E+03 0.  0.
          4    1    3    3  502    0 -0.34033867760E+02 -0.18288995502E+02  0.17957658691E+03  0.18369037802E+03  0.12700000000E+01 0.  1.
         -4    1    3    3    0  502 -0.10893197231E+02  0.60305256683E+02  0.30710735274E+02  0.68557624599E+02  0.12700000000E+01 0.  1.
          2    1    1    2  503    0  0.38717647840E+02 -0.14012977349E+02  0.15908184983E+03  0.16432423660E+03  0.00000000000E+00 0. -1.
         -1    1    1    2    0  501  0.62094171510E+01 -0.28003283832E+02 -0.69172381691E+02  0.74883637435E+02  0.00000000000E+00 0.  1.
<mgrwt>
<rscale>  0 0.35106002E+02</rscale>
<asrwt>0</asrwt>
<pdfrwt beam="1">  1        2 0.60896358E-01 0.42966626E+02</pdfrwt>
<pdfrwt beam="2">  1       -1 0.14712238E-01 0.28683458E+02</pdfrwt>
<totfact> 0.27198270E+03</totfact>
</mgrwt>
</event>
<event>
 7    1  0.3113151E-004  0.4752300E+02  0.7546771E-02  0.1527758E+00
          3   -1    0    0  503    0  0.00000000000E+00  0.00000000000E+00  0.23716651398E+03  0.23716651398E+03  0.00000000000E+00 0. -1.
         -1   -1    0    0    0  501 -0.00000000000E+00 -0.00000000000E+00 -0.90340656306E+02  0.90340656306E+02  0.00000000000E+00 0.  1.
         25    2    1    2    0    0  0.29518493593E+02 -0.13517655315E+02  0.15786838451E+03  0.20396554181E+03  0.12500178777E+03 0.  0.
          4    1    3    3  502    0  0.71849623628E+02  0.20607606011E+02  0.90616561964E+02  0.11747346953E+03  0.12700000000E+01 0. -1.
         -4    1    3    3    0  502 -0.42331130034E+02 -0.34125261326E+02  0.67251822550E+02  0.86492072277E+02  0.12700000000E+01 0. -1.
          3    1    1    2  503    0 -0.44779080419E+02  0.38801423489E+02  0.35018719698E+02  0.68826065101E+02  0.00000000000E+00 0. -1.
         -1    1    1    2    0  501  0.15260586826E+02 -0.25283768175E+02 -0.46061246538E+02  0.54715563380E+02  0.00000000000E+00 0.  1.
<mgrwt>
<rscale>  0 0.37462805E+02</rscale>
<asrwt>0</asrwt>
<pdfrwt beam="1">  1        3 0.36487156E-01 0.47523003E+02</pdfrwt>
<pdfrwt beam="2">  1       -1 0.13898563E-01 0.29532261E+02</pdfrwt>
<totfact> 0.97652132E+02</totfact>
</mgrwt>
</event>
<event>
 7    1  0.3113151E-004  0.7815096E+02  0.7546771E-02  0.1340049E+00
          1   -1    0    0  503    0 -0.00000000000E+00  0.00000000000E+00  0.63225737430E+03  0.63225737430E+03  0.00000000000E+00 0. -1.
          2   -1    0    0  502    0  0.00000000000E+00 -0.00000000000E+00 -0.65602589929E+03  0.65602589929E+03  0.00000000000E+00 0. -1.
         25    2    1    2    0    0  0.25876193493E+02  0.11695058357E+03 -0.17407387591E+03  0.24550589405E+03  0.12499765339E+03 0.  0.
          4    1    3    3  501    0  0.30489288406E+02  0.14203016848E+03 -0.13196594347E+03  0.19626204065E+03  0.12700000000E+01 0. -1.
         -4    1    3    3    0  501 -0.46130949129E+01 -0.25079584901E+02 -0.42107932438E+02  0.49243853400E+02  0.12700000000E+01 0. -1.
          2    1    1    2  502    0  0.33470780713E+02 -0.66436243205E+02 -0.44055893605E+03  0.44679552785E+03  0.00000000000E+00 0. -1.
          1    1    1    2  503    0 -0.59346974207E+02 -0.50514340370E+02  0.59086428696E+03  0.59598185169E+03  0.00000000000E+00 0. -1.
<mgrwt>
<rscale>  0 0.76247967E+02</rscale>
<asrwt>0</asrwt>
<pdfrwt beam="2">  1        2 0.10092706E+00 0.74391314E+02</pdfrwt>
<pdfrwt beam="1">  1        1 0.97270365E-01 0.78150959E+02</pdfrwt>
<totfact> 0.21970840E+02</totfact>
</mgrwt>
</event>
<event>
 7    1  0.3113151E-004  0.1079981E+03  0.7546771E-02  0.1385084E+00
          1   -1    0    0  503    0 -0.00000000000E+00  0.00000000000E+00  0.34587964136E+03  0.34587964136E+03  0.00000000000E+00 0. -1.
          2   -1    0    0  502    0  0.00000000000E+00 -0.00000000000E+00 -0.56185822181E+03  0.56185822181E+03  0.00000000000E+00 0. -1.
         25    2    1    2    0    0  0.56938755437E+02 -0.48659159496E+02  0.19841949984E+02  0.14706534084E+03  0.12499910329E+03 0.  0.
          4    1    3    3  501    0  0.42371883469E+02 -0.91096279003E+02  0.89307486433E+01  0.10087259156E+03  0.12700000000E+01 0.  1.
         -4    1    3    3    0  501  0.14566871969E+02  0.42437119507E+02  0.10911201340E+02  0.46192749276E+02  0.12700000000E+01 0.  1.
          2    1    1    2  502    0 -0.91286680068E+02  0.62201783777E+02 -0.49077776828E+03  0.50305579979E+03  0.00000000000E+00 0. -1.
          1    1    1    2  503    0  0.34347924630E+02 -0.13542624281E+02  0.25495723785E+03  0.25761672254E+03  0.00000000000E+00 0. -1.
<mgrwt>
<rscale>  0 0.63146092E+02</rscale>
<asrwt>0</asrwt>
<pdfrwt beam="2">  1        2 0.86439726E-01 0.10799805E+03</pdfrwt>
<pdfrwt beam="1">  1        1 0.53212253E-01 0.36921303E+02</pdfrwt>
<totfact> 0.55881209E+02</totfact>
</mgrwt>
</event>
<event>
 7    1  0.3113151E-004  0.5936900E+02  0.7546771E-02  0.1482025E+00
          2   -1    0    0  502    0  0.00000000000E+00  0.00000000000E+00  0.74540614969E+03  0.74540614969E+03  0.00000000000E+00 0. -1.
          1   -1    0    0  503    0 -0.00000000000E+00 -0.00000000000E+00 -0.22262710583E+03  0.22262710583E+03  0.00000000000E+00 0.  1.
         25    2    1    2    0    0 -0.85209886795E+02 -0.32148207916E+02  0.20808703600E+03  0.25928327516E+03  0.12503347610E+03 0.  0.
          4    1    3    3  501    0 -0.11796736669E+03 -0.28907435539E+02  0.16986433755E+03  0.20882395816E+03  0.12700000000E+01 0.  1.
         -4    1    3    3    0  501  0.32757479893E+02 -0.32407723775E+01  0.38222698450E+02  0.50459316992E+02  0.12700000000E+01 0.  1.
          2    1    1    2  502    0  0.30338160104E+02  0.11092543964E+02  0.50681241854E+03  0.50784079796E+03  0.00000000000E+00 0. -1.
          1    1    1    2  503    0  0.54871726692E+02  0.21055663952E+02 -0.19212041067E+03  0.20090918240E+03  0.00000000000E+00 0.  1.
<mgrwt>
<rscale>  0 0.43792286E+02</rscale>
<asrwt>0</asrwt>
<pdfrwt beam="1">  1        2 0.11467787E+00 0.32302453E+02</pdfrwt>
<pdfrwt beam="2">  1        1 0.34250324E-01 0.59368998E+02</pdfrwt>
<totfact> 0.71328935E+02</totfact>
</mgrwt>
</event>
<event>
 7    1  0.3113151E-004  0.7965712E+02  0.7546771E-02  0.1445457E+00
          1   -1    0    0  503    0  0.00000000000E+00  0.00000000000E+00  0.99699955070E+02  0.99699955070E+02  0.00000000000E+00 0.  1.
         -2   -1    0    0    0  501 -0.00000000000E+00 -0.00000000000E+00 -0.23460914197E+04  0.23460914197E+04  0.00000000000E+00 0.  1.
         25    2    1    2    0    0 -0.43293844440E+02  0.39111184852E+02 -0.47756564749E+02  0.14597862535E+03  0.12500011134E+03 0.  0.
          4    1    3    3  502    0 -0.50409693771E+02  0.70670396084E+02 -0.65781192679E+02  0.10892300179E+03  0.12700000000E+01 0. -1.
         -4    1    3    3    0  502  0.71158493306E+01 -0.31559211232E+02  0.18024627930E+02  0.37055623558E+02  0.12700000000E+01 0. -1.
          1    1    1    2  503    0  0.72593696815E+02 -0.50283231527E+02  0.11855495622E+02  0.89099949307E+02  0.00000000000E+00 0.  1.
         -2    1    1    2    0  501 -0.29299852375E+02  0.11172046675E+02 -0.22104903955E+04  0.22107128002E+04  0.00000000000E+00 0.  1.
<mgrwt>
<rscale>  0 0.49978518E+02</rscale>
<asrwt>0</asrwt>
<pdfrwt beam="1">  1        1 0.15338457E-01 0.79657122E+02</pdfrwt>
<pdfrwt beam="2">  1       -2 0.36093709E+00 0.31357551E+02</pdfrwt>
<totfact> 0.65276125E+00</totfact>
</mgrwt>
</event>
<event>
 7    1  0.3113151E-004  0.3973333E+02  0.7546771E-02  0.1573146E+00
          3   -1    0    0  503    0  0.00000000000E+00  0.00000000000E+00  0.95108618568E+03  0.95108618568E+03  0.00000000000E+00 0. -1.
         -3   -1    0    0    0  501 -0.00000000000E+00 -0.00000000000E+00 -0.14039171352E+02  0.14039171352E+02  0.00000000000E+00 0.  1.
         25    2    1    2    0    0  0.36367901845E+02 -0.88028487772E+01  0.43970565939E+03  0.45865623949E+03  0.12499745873E+03 0.  0.
          4    1    3    3  502    0  0.15460052575E+02 -0.45731730217E+02  0.62076623544E+02  0.78648105285E+02  0.12700000000E+01 0.  1.
         -4    1    3    3    0  502  0.20907849269E+02  0.36928881440E+02  0.37762903585E+03  0.38000813420E+03  0.12700000000E+01 0.  1.
          3    1    1    2  503    0 -0.36711893131E+02 -0.17587823350E+02  0.45330561184E+03  0.45512973135E+03  0.00000000000E+00 0. -1.
         -3    1    1    2    0  501  0.34399128605E+00  0.26390672127E+02  0.44035743095E+02  0.51339386199E+02  0.00000000000E+00 0.  1.
<mgrwt>
<rscale>  0 0.32383303E+02</rscale>
<asrwt>0</asrwt>
<pdfrwt beam="1">  1        3 0.14632090E+00 0.39733328E+02</pdfrwt>
<pdfrwt beam="2">  1       -3 0.21598733E-02 0.26392914E+02</pdfrwt>
<totfact> 0.51140108E+02</totfact>
</mgrwt>
</event>
<event>
 7    1  0.3113151E-004  0.8288655E+02  0.7546771E-02  0.1389280E+00
         -1   -1    0    0    0  501 -0.00000000000E+00  0.00000000000E+00  0.90032575519E+03  0.90032575519E+03  0.00000000000E+00 0.  1.
          2   -1    0    0  503    0  0.00000000000E+00 -0.00000000000E+00 -0.23518265384E+02  0.23518265384E+02  0.00000000000E+00 0. -1.
         25    2    1    2    0    0 -0.88987819548E+02  0.29780634267E+02  0.57168470397E+03  0.59266096261E+03  0.12497158735E+03 0.  0.
          4    1    3    3  502    0  0.12082882936E+02  0.27495411596E+02  0.33282009414E+02  0.44847505723E+02  0.12700000000E+01 0. -1.
         -4    1    3    3    0  502 -0.10107070248E+03  0.22852226712E+01  0.53840269456E+03  0.54781345689E+03  0.12700000000E+01 0. -1.
          2    1    1    2  503    0  0.54791425035E+02 -0.61298600584E+02  0.19043188778E+03  0.20742208796E+03  0.00000000000E+00 0. -1.
         -1    1    1    2    0  501  0.34196394513E+02  0.31517966317E+02  0.11469089805E+03  0.12376097000E+03  0.00000000000E+00 0.  1.
<mgrwt>
<rscale>  0 0.62086176E+02</rscale>
<asrwt>0</asrwt>
<pdfrwt beam="2">  1        2 0.36181954E-02 0.82886555E+02</pdfrwt>
<pdfrwt beam="1">  1       -1 0.13851163E+00 0.46505651E+02</pdfrwt>
<totfact> 0.12790097E+03</totfact>
</mgrwt>
</event>
<event>
 7    1  0.3113151E-004  0.7512726E+02  0.7546771E-02  0.1366878E+00
          2   -1    0    0  503    0  0.00000000000E+00  0.00000000000E+00  0.10364156974E+04  0.10364156974E+04  0.00000000000E+00 0. -1.
         -3   -1    0    0    0  501 -0.00000000000E+00 -0.00000000000E+00 -0.75942475031E+03  0.75942475031E+03  0.00000000000E+00 0.  1.
         25    2    1    2    0    0  0.37382915355E+02  0.67584714693E+02  0.15416726299E+03  0.21297691566E+03  0.12500578228E+03 0.  0.
          4    1    3    3  502    0  0.27442346494E+02  0.30229835024E+02  0.16723639524E+03  0.17215269414E+03  0.12700000000E+01 0. -1.
         -4    1    3    3    0  502  0.99405688609E+01  0.37354879670E+02 -0.13069132251E+02  0.40824221514E+02  0.12700000000E+01 0. -1.
          2    1    1    2  503    0 -0.74193404856E+02 -0.18160238713E+02  0.84982705842E+03  0.85325288445E+03  0.00000000000E+00 0. -1.
         -3    1    1    2    0  501  0.36810489502E+02 -0.49424475980E+02 -0.72700337428E+03  0.72961064765E+03  0.00000000000E+00 0.  1.
<mgrwt>
<rscale>  0 0.68042699E+02</rscale>
<asrwt>0</asrwt>
<pdfrwt beam="1">  1        2 0.15944857E+00 0.75127258E+02</pdfrwt>
<pdfrwt beam="2">  1       -3 0.11683458E+00 0.61626220E+02</pdfrwt>
<totfact> 0.10318575E+01</totfact>
</mgrwt>
</event>
<event>
 7    1  0.3113151E-004  0.1340591E+03  0.7546771E-02  0.1222860E+00
         -1   -1    0    0    0  501 -0.00000000000E+00  0.00000000000E+00  0.47771766481E+03  0.47771766481E+03  0.00000000000E+00 0.  1.
          2   -1    0    0  503    0  0.00000000000E+00 -0.00000000000E+00 -0.14026108074E+04  0.14026108074E+04  0.00000000000E+00 0. -1.
         25    2    1    2    0    0  0.71065408984E+02  0.13373048029E+03 -0.87586421010E+03  0.89760681255E+03  0.12500296671E+03 0.  0.
          4    1    3    3  502    0 -0.27747335183E+02  0.64049327973E+02 -0.43030933510E+03  0.43593573815E+03  0.12700000000E+01 0. -1.
         -4    1    3    3    0  502  0.98812744167E+02  0.69681152313E+02 -0.44555487501E+03  0.46167107440E+03  0.12700000000E+01 0. -1.
          2    1    1    2  503    0 -0.14360642247E+03 -0.20993378960E+02 -0.49562558123E+03  0.51643803433E+03  0.00000000000E+00 0. -1.
         -1    1    1    2    0  501  0.72541013482E+02 -0.11273710133E+03  0.44659664870E+03  0.46628362537E+03  0.00000000000E+00 0.  1.
<mgrwt>
<rscale>  0 0.13314675E+03</rscale>
<asrwt>0</asrwt>
<pdfrwt beam="2">  1        2 0.21578628E+00 0.13224058E+03</pdfrwt>
<pdfrwt beam="1">  1       -1 0.73495026E-01 0.13405914E+03</pdfrwt>
<totfact> 0.37164953E+01</totfact>
</mgrwt>
</event>
<event>
 7    1  0.3113151E-004  0.4369687E+02  0.7546771E-02  0.1552520E+00
         -1   -1    0    0    0  501 -0.00000000000E+00  0.00000000000E+00  0.47598168502E+02  0.47598168502E+02  0.00000000000E+00 0.  1.
          2   -1    0    0  503    0  0.00000000000E+00 -0.00000000000E+00 -0.24072657040E+03  0.24072657040E+03  0.00000000000E+00 0. -1.
         25    2    1    2    0    0  0.25522610238E+02 -0.12469404266E+02 -0.74718373109E+02  0.14842048638E+03  0.12505565090E+03 0.  0.
          4    1    3    3  502    0  0.47816740838E+02 -0.29748080450E+02  0.11678306384E+02  0.57527252106E+02  0.12700000000E+01 0.  1.
         -4    1    3    3    0  502 -0.22294130600E+02  0.17278676183E+02 -0.86396679494E+02  0.90893234277E+02  0.12700000000E+01 0.  1.
          2    1    1    2  503    0 -0.46901915383E+02 -0.45679462638E+01 -0.77435735721E+02  0.90647388083E+02  0.00000000000E+00 0. -1.
         -1    1    1    2    0  501  0.21379305145E+02  0.17037350530E+02 -0.40974293064E+02  0.49256864432E+02  0.00000000000E+00 0.  1.
<mgrwt>
<rscale>  0 0.34562536E+02</rscale>
<asrwt>0</asrwt>
<pdfrwt beam="2">  1        2 0.37034857E-01 0.43696871E+02</pdfrwt>
<pdfrwt beam="1">  1       -1 0.73227952E-02 0.27337630E+02</pdfrwt>
<totfact> 0.12416796E+04</totfact>
</mgrwt>
</event>
<event>
 7    1  0.3113151E-004  0.5410965E+02  0.7546771E-02  0.1510288E+00
          2   -1    0    0  502    0  0.00000000000E+00  0.00000000000E+00  0.17048976888E+04  0.17048976888E+04  0.00000000000E+00 0. -1.
          2   -1    0    0  503    0 -0.00000000000E+00 -0.00000000000E+00 -0.91219750667E+02  0.91219750667E+02  0.00000000000E+00 0. -1.
         25    2    1    2    0    0  0.21126212383E+02  0.16507585686E+02  0.43088406304E+03  0.44944961424E+03  0.12500025089E+03 0.  0.
          4    1    3    3  501    0  0.60383699203E+02  0.56236208152E+01  0.10689039281E+03  0.12290234015E+03  0.12700000000E+01 0.  1.
         -4    1    3    3    0  501 -0.39257486820E+02  0.10883964871E+02  0.32399367023E+03  0.32654727408E+03  0.12700000000E+01 0.  1.
          2    1    1    2  502    0  0.28354817162E+02  0.67878871805E+01  0.12554166283E+04  0.12557551440E+04  0.00000000000E+00 0. -1.
          2    1    1    2  503    0 -0.49481029544E+02 -0.23295472867E+02 -0.72622753158E+02  0.90912681278E+02  0.00000000000E+00 0. -1.
<mgrwt>
<rscale>  0 0.39719263E+02</rscale>
<asrwt>0</asrwt>
<pdfrwt beam="1">  1        2 0.26229193E+00 0.29155978E+02</pdfrwt>
<pdfrwt beam="2">  1        2 0.14033809E-01 0.54109651E+02</pdfrwt>
<totfact> 0.79263489E+02</totfact>
</mgrwt>
</event>
<event>
 7    1  0.3113151E-004  0.3553287E+02  0.7546771E-02  0.1635720E+00
         -1   -1    0    0    0  501 -0.00000000000E+00  0.00000000000E+00  0.98039458976E+02  0.98039458976E+02  0.00000000000E+00 0.  1.
          2   -1    0    0  503    0  0.00000000000E+00 -0.00000000000E+00 -0.17035762519E+03  0.17035762519E+03  0.00000000000E+00 0. -1.
         25    2    1    2    0    0  0.99827683469E+01  0.51055941628E+02 -0.10081092403E+03  0.16880092513E+03  0.12499818032E+03 0.  0.
          4    1    3    3  502    0  0.45514080569E+02  0.67026616595E+02 -0.10142714133E+03  0.12981978571E+03  0.12700000000E+01 0. -1.
         -4    1    3    3    0  502 -0.35531312222E+02 -0.15970674967E+02  0.61621730366E+00  0.38981139425E+02  0.12700000000E+01 0. -1.
          2    1    1    2  503    0 -0.12284737741E+02 -0.16154084378E+02 -0.27135465931E+02  0.33885140324E+02  0.00000000000E+00 0. -1.
         -1    1    1    2    0  501  0.23019693941E+01 -0.34901857250E+02  0.55628223747E+02  0.65711018710E+02  0.00000000000E+00 0.  1.
<mgrwt>
<rscale>  0 0.26853752E+02</rscale>
<asrwt>0</asrwt>
<pdfrwt beam="2">  1        2 0.26208865E-01 0.20294561E+02</pdfrwt>
<pdfrwt beam="1">  1       -1 0.15082994E-01 0.35532869E+02</pdfrwt>
<totfact> 0.61136415E+03</totfact>
</mgrwt>
</event>
<event>
 7    1  0.3113151E-004  0.7577763E+02  0.7546771E-02  0.1418788E+00
          2   -1    0    0  502    0  0.00000000000E+00  0.00000000000E+00  0.11022565441E+04  0.11022565441E+04  0.00000000000E+00 0. -1.
          3   -1    0    0  503    0 -0.00000000000E+00 -0.00000000000E+00 -0.30336398141E+02  0.30336398141E+02  0.00000000000E+00 0.  1.
         25    2    1    2    0    0 -0.23782782452E+02  0.10345628225E+03  0.35863505476E+03  0.39435127138E+03  0.12499999861E+03 0.  0.
          4    1    3    3  501    0 -0.29315792926E+02  0.38969515913E+02  0.25615815183E+02  0.55098291923E+02  0.12700000000E+01 0.  1.
         -4    1    3    3    0  501  0.55330104731E+01  0.64486766342E+02  0.33301923958E+03  0.33925297945E+03  0.12700000000E+01 0.  1.
          2    1    1    2  502    0  0.19116316601E+02 -0.35505000577E+02  0.62708375081E+03  0.62837892163E+03  0.00000000000E+00 0. -1.
          3    1    1    2  503    0  0.46664658519E+01 -0.67951281677E+02  0.86201340421E+02  0.10986274926E+03  0.00000000000E+00 0.  1.
<mgrwt>
<rscale>  0 0.55278116E+02</rscale>
<asrwt>0</asrwt>
<pdfrwt beam="1">  1        2 0.16957790E+00 0.40324169E+02</pdfrwt>
<pdfrwt beam="2">  1        3 0.46671390E-02 0.75777634E+02</pdfrwt>
<totfact> 0.34926458E+03</totfact>
</mgrwt>
</event>
<event>
 7    1  0.3113151E-004  0.1280367E+03  0.7546771E-02  0.1368865E+00
         -2   -1    0    0    0  501 -0.00000000000E+00  0.00000000000E+00  0.30999466106E+02  0.30999466106E+02  0.00000000000E+00 0.  1.
          2   -1    0    0  503    0  0.00000000000E+00 -0.00000000000E+00 -0.12125660542E+04  0.12125660542E+04  0.00000000000E+00 0. -1.
         25    2    1    2    0    0  0.66430660816E+02 -0.11654880219E+03 -0.89755439497E+03  0.91609229976E+03  0.12499821497E+03 0.  0.
          4    1    3    3  502    0  0.56499459856E+02 -0.12579513666E+03 -0.88977723869E+03  0.90040088448E+03  0.12700000000E+01 0.  1.
         -4    1    3    3    0  502  0.99312009597E+01  0.92463344716E+01 -0.77771562843E+01  0.15691415281E+02  0.12700000000E+01 0.  1.
          2    1    1    2  503    0  0.23724917251E+02  0.26499911079E+02 -0.64535027612E+02  0.73687765434E+02  0.00000000000E+00 0. -1.
         -2    1    1    2    0  501 -0.90155578067E+02  0.90048891112E+02 -0.21947716549E+03  0.25378545509E+03  0.00000000000E+00 0.  1.
<mgrwt>
<rscale>  0 0.67483850E+02</rscale>
<asrwt>0</asrwt>
<pdfrwt beam="2">  1        2 0.18654863E+00 0.35568483E+02</pdfrwt>
<pdfrwt beam="1">  1       -2 0.47691484E-02 0.12803667E+03</pdfrwt>
<totfact> 0.44250257E+03</totfact>
</mgrwt>
</event>
<event>
 7    1  0.3113151E-004  0.9005437E+02  0.7546771E-02  0.1481757E+00
          1   -1    0    0  503    0  0.00000000000E+00  0.00000000000E+00  0.32671044804E+04  0.32671044804E+04  0.00000000000E+00 0. -1.
         -1   -1    0    0    0  501 -0.00000000000E+00 -0.00000000000E+00 -0.80281428770E+02  0.80281428770E+02  0.00000000000E+00 0.  1.
         25    2    1    2    0    0  0.39627795596E+02  0.58764366348E+02  0.32889895004E+03  0.35891865780E+03  0.12499788254E+03 0.  0.
          4    1    3    3  502    0 -0.26401692349E+02  0.71682414302E+02  0.17431609003E+03  0.19032375055E+03  0.12700000000E+01 0.  1.
         -4    1    3    3    0  502  0.66029487945E+02 -0.12918047954E+02  0.15458286001E+03  0.16859490725E+03  0.12700000000E+01 0.  1.
          1    1    1    2  503    0 -0.57389180174E+02 -0.70586093423E+02  0.29207247828E+04  0.29221411963E+04  0.00000000000E+00 0. -1.
         -1    1    1    2    0  501  0.17761384578E+02  0.11821727075E+02 -0.62800681212E+02  0.66326055015E+02  0.00000000000E+00 0.  1.
<mgrwt>
<rscale>  0 0.43833660E+02</rscale>
<asrwt>0</asrwt>
<pdfrwt beam="1">  1        1 0.50263136E+00 0.90054369E+02</pdfrwt>
<pdfrwt beam="2">  1       -1 0.12350992E-01 0.21335886E+02</pdfrwt>
<totfact> 0.21137963E+01</totfact>
</mgrwt>
</event>
<event>
 7    1  0.3113151E-004  0.3917205E+02  0.7546771E-02  0.1568324E+00
          1   -1    0    0  503    0  0.00000000000E+00  0.00000000000E+00  0.18062477231E+04  0.18062477231E+04  0.00000000000E+00 0. -1.
         -1   -1    0    0    0  501 -0.00000000000E+00 -0.00000000000E+00 -0.13582243390E+03  0.13582243390E+03  0.00000000000E+00 0.  1.
         25    2    1    2    0    0 -0.54927466876E+02  0.35403904497E+02 -0.64136678818E+01  0.14118953142E+03  0.12499154201E+03 0.  0.
          4    1    3    3  502    0 -0.15384637440E+01 -0.34080404370E+01  0.52535195847E+02  0.52683406430E+02  0.12700000000E+01 0.  1.
         -4    1    3    3    0  502 -0.53389003132E+02  0.38811944934E+02 -0.58948863729E+02  0.88506124986E+02  0.12700000000E+01 0.  1.
          1    1    1    2  503    0  0.35942724530E+02 -0.15384154089E+02  0.17355603400E+04  0.17360006467E+04  0.00000000000E+00 0. -1.
         -1    1    1    2    0  501  0.18984742346E+02 -0.20019750408E+02 -0.58721382903E+02  0.64879978872E+02  0.00000000000E+00 0.  1.
<mgrwt>
<rscale>  0 0.32874895E+02</rscale>
<asrwt>0</asrwt>
<pdfrwt beam="1">  1        1 0.27788425E+00 0.39172048E+02</pdfrwt>
<pdfrwt beam="2">  1       -1 0.20895760E-01 0.27590050E+02</pdfrwt>
<totfact> 0.97436886E+01</totfact>
</mgrwt>
</event>
<event>
 7    1  0.3113151E-004  0.1020986E+03  0.7546771E-02  0.1411605E+00
          1   -1    0    0  503    0  0.00000000000E+00  0.00000000000E+00  0.63066437759E+02  0.63066437759E+02  0.00000000000E+00 0. -1.
          1   -1    0    0  502    0 -0.00000000000E+00 -0.00000000000E+00 -0.13446334210E+04  0.13446334210E+04  0.00000000000E+00 0. -1.
         25    2    1    2    0    0  0.42811335321E+02  0.77780852279E+02 -0.61131925173E+03  0.63025247178E+03  0.12499711687E+03 0.  0.
          4    1    3    3  501    0  0.58960583883E+02  0.22812979216E+02 -0.50954931494E+03  0.51345778768E+03  0.12700000000E+01 0. -1.
         -4    1    3    3    0  501 -0.16149248561E+02  0.54967873062E+02 -0.10176993680E+03  0.11679468410E+03  0.12700000000E+01 0. -1.
          1    1    1    2  502    0 -0.74413672891E+02 -0.79340446617E+02 -0.71467435394E+03  0.72290506525E+03  0.00000000000E+00 0. -1.
          1    1    1    2  503    0  0.31602337570E+02  0.15595943389E+01  0.44426622459E+02  0.54542321710E+02  0.00000000000E+00 0. -1.
<mgrwt>
<rscale>  0 0.56837323E+02</rscale>
<asrwt>0</asrwt>
<pdfrwt beam="1">  1        1 0.97025283E-02 0.31640798E+02</pdfrwt>
<pdfrwt beam="2">  1        1 0.20686669E+00 0.10209861E+03</pdfrwt>
<totfact> 0.68177468E+02</totfact>
</mgrwt>
</event>
<event>
 7    1  0.3113151E-004  0.5404535E+02  0.7546771E-02  0.1430062E+00
          1   -1    0    0  503    0  0.00000000000E+00  0.00000000000E+00  0.50300957561E+03  0.50300957561E+03  0.00000000000E+00 0. -1.
         -2   -1    0    0    0  501 -0.00000000000E+00 -0.00000000000E+00 -0.58916420578E+02  0.58916420578E+02  0.00000000000E+00 0.  1.
         25    2    1    2    0    0 -0.10082458777E+03 -0.35223282204E+00  0.87698413722E+02  0.18298051929E+03  0.12500054841E+03 0.  0.
          4    1    3    3  502    0 -0.96081239900E+02 -0.20336829904E+02  0.11342220413E+03  0.15003799719E+03  0.12700000000E+01 0.  1.
         -4    1    3    3    0  502 -0.47433478712E+01  0.19984597082E+02 -0.25723790404E+02  0.32942522100E+02  0.12700000000E+01 0.  1.
          1    1    1    2  503    0  0.50390087443E+02  0.12479015105E+02  0.29040772758E+03  0.29501107601E+03  0.00000000000E+00 0. -1.
         -2    1    1    2    0  501  0.50434500329E+02 -0.12126782283E+02  0.65987013734E+02  0.83934400894E+02  0.00000000000E+00 0.  1.
<mgrwt>
<rscale>  0 0.52947494E+02</rscale>
<asrwt>0</asrwt>
<pdfrwt beam="1">  1        1 0.77386086E-01 0.54045354E+02</pdfrwt>
<pdfrwt beam="2">  1       -2 0.90640650E-02 0.51871935E+02</pdfrwt>
<totfact> 0.28272671E+03</totfact>
</mgrwt>
</event>
<event>
 7    1  0.3113151E-004  0.6158949E+02  0.7546771E-02  0.1445637E+00
         -1   -1    0    0    0  501 -0.00000000000E+00  0.00000000000E+00  0.20303806141E+03  0.20303806141E+03  0.00000000000E+00 0.  1.
          2   -1    0    0  503    0  0.00000000000E+00 -0.00000000000E+00 -0.81074332719E+02  0.81074332719E+02  0.00000000000E+00 0. -1.
         25    2    1    2    0    0  0.50949071288E+02  0.55667660780E+02  0.72913307149E+02  0.16319301044E+03  0.12498364683E+03 0.  0.
          4    1    3    3  502    0  0.25281999107E+01  0.19125076845E+02 -0.34660157703E+02  0.39687526896E+02  0.12700000000E+01 0.  1.
         -4    1    3    3    0  502  0.48420871377E+02  0.36542583935E+02  0.10757346485E+03  0.12350548355E+03  0.12700000000E+01 0.  1.
          2    1    1    2  503    0 -0.10607568683E+02 -0.59277155329E+02  0.40187155671E+01  0.60352727627E+02  0.00000000000E+00 0. -1.
         -1    1    1    2    0  501 -0.40341502605E+02  0.36094945486E+01  0.45031705974E+02  0.60566656060E+02  0.00000000000E+00 0.  1.
<mgrwt>
<rscale>  0 0.49945352E+02</rscale>
<asrwt>0</asrwt>
<pdfrwt beam="2">  1        2 0.12472974E-01 0.61589493E+02</pdfrwt>
<pdfrwt beam="1">  1       -1 0.31236625E-01 0.40502658E+02</pdfrwt>
<totfact> 0.47284731E+03</totfact>
</mgrwt>
</event>
<event>
 7    1  0.3113151E-004  0.2601048E+02  0.7546771E-02  0.1655612E+00
         -2   -1    0    0    0  501 -0.00000000000E+00  0.00000000000E+00  0.19681852580E+03  0.19681852580E+03  0.00000000000E+00 0.  1.
          1   -1    0    0  503    0  0.00000000000E+00 -0.00000000000E+00 -0.63509904306E+02  0.63509904306E+02  0.00000000000E+00 0. -1.
         25    2    1    2    0    0  0.30882490740E+02  0.85642020304E+01  0.73746099025E+02  0.14863111459E+03  0.12500258922E+03 0.  0.
          4    1    3    3  502    0 -0.10903245900E+02  0.36859988938E+02  0.88117106839E+02  0.96144562890E+02  0.12700000000E+01 0.  1.
         -4    1    3    3    0  502  0.41785736640E+02 -0.28295786908E+02 -0.14371007814E+02  0.52486551696E+02  0.12700000000E+01 0.  1.
          1    1    1    2  503    0 -0.11307754611E+02 -0.23732171455E+02 -0.16948673418E+02  0.31278407999E+02  0.00000000000E+00 0. -1.
         -2    1    1    2    0  501 -0.19574736130E+02  0.15167969425E+02  0.76511195886E+02  0.80418907521E+02  0.00000000000E+00 0.  1.
<mgrwt>
<rscale>  0 0.25379400E+02</rscale>
<asrwt>0</asrwt>
<pdfrwt beam="2">  1        1 0.97707546E-02 0.26010476E+02</pdfrwt>
<pdfrwt beam="1">  1       -2 0.30279773E-01 0.24763634E+02</pdfrwt>
<totfact> 0.46652791E+03</totfact>
</mgrwt>
</event>
<event>
 7    1  0.3113151E-004  0.2048653E+03  0.7546771E-02  0.1314962E+00
          2   -1    0    0  502    0  0.00000000000E+00  0.00000000000E+00  0.51324871430E+03  0.51324871430E+03  0.00000000000E+00 0. -1.
          1   -1    0    0  503    0 -0.00000000000E+00 -0.00000000000E+00 -0.29849155804E+03  0.29849155804E+03  0.00000000000E+00 0. -1.
         25    2    1    2    0    0  0.16283048480E+03  0.14163974768E+03  0.92887662158E+02  0.26613783035E+03  0.12500256819E+03 0.  0.
          4    1    3    3  501    0 -0.65459225637E+01  0.27442682860E+02 -0.18207406156E+02  0.33601673823E+02  0.12700000000E+01 0.  1.
         -4    1    3    3    0  501  0.16937640737E+03  0.11419706483E+03  0.11109506831E+03  0.23253615653E+03  0.12700000000E+01 0.  1.
          2    1    1    2  502    0  0.88305702147E+01 -0.34298372877E+02  0.28401634211E+03  0.28621607212E+03  0.00000000000E+00 0. -1.
          1    1    1    2  503    0 -0.17166105502E+03 -0.10734137481E+03 -0.16214684801E+03  0.25938636987E+03  0.00000000000E+00 0. -1.
<mgrwt>
<rscale>  0 0.85180376E+02</rscale>
<asrwt>0</asrwt>
<pdfrwt beam="1">  1        2 0.78961341E-01 0.35416908E+02</pdfrwt>
<pdfrwt beam="2">  1        1 0.45921778E-01 0.20486533E+03</pdfrwt>
<totfact> 0.74779440E+02</totfact>
</mgrwt>
</event>
<event>
 7    1  0.3113151E-004  0.1217011E+03  0.7546771E-02  0.1330844E+00
          2   -1    0    0  502    0  0.00000000000E+00  0.00000000000E+00  0.23703005884E+03  0.23703005884E+03  0.00000000000E+00 0. -1.
          1   -1    0    0  503    0 -0.00000000000E+00 -0.00000000000E+00 -0.22643354254E+04  0.22643354254E+04  0.00000000000E+00 0. -1.
         25    2    1    2    0    0 -0.10537325295E+03 -0.37149872320E+02 -0.37201061124E+03  0.40803486566E+03  0.12496768091E+03 0.  0.
          4    1    3    3  501    0  0.26963945760E+01  0.33245571460E+02 -0.41562379441E+02  0.53306499137E+02  0.12700000000E+01 0.  1.
         -4    1    3    3    0  501 -0.10806964752E+03 -0.70395443780E+02 -0.33044823180E+03  0.35472836653E+03  0.12700000000E+01 0.  1.
          2    1    1    2  502    0  0.12200754498E+03 -0.11869843483E+02  0.20147651149E+03  0.23583790811E+03  0.00000000000E+00 0. -1.
          1    1    1    2  503    0 -0.16634292036E+02  0.49019715803E+02 -0.18567712668E+04  0.18574927105E+04  0.00000000000E+00 0. -1.
<mgrwt>
<rscale>  0 0.79371753E+02</rscale>
<asrwt>0</asrwt>
<pdfrwt beam="1">  1        2 0.36466163E-01 0.12170106E+03</pdfrwt>
<pdfrwt beam="2">  1        1 0.34835930E+00 0.51765164E+02</pdfrwt>
<totfact> 0.54218281E+01</totfact>
</mgrwt>
</event>
<event>
 7    1  0.3113151E-004  0.9909228E+02  0.7546771E-02  0.1299732E+00
          1   -1    0    0  503    0 -0.00000000000E+00  0.00000000000E+00  0.13937250488E+04  0.13937250488E+04  0.00000000000E+00 0. -1.
          2   -1    0    0  502    0  0.00000000000E+00 -0.00000000000E+00 -0.14933280727E+04  0.14933280727E+04  0.00000000000E+00 0.  1.
         25    2    1    2    0    0 -0.95409401235E+02  0.59331212051E+02  0.24154365009E+03  0.29428175473E+03  0.12504107206E+03 0.  0.
          4    1    3    3  501    0 -0.95890015947E+01  0.16193087766E+02  0.17824679031E+03  0.17924200456E+03  0.12700000000E+01 0. -1.
         -4    1    3    3    0  501 -0.85820399640E+02  0.43138124285E+02  0.63296859780E+02  0.11503975017E+03  0.12700000000E+01 0. -1.
          2    1    1    2  502    0  0.20260335891E+02 -0.97135523555E+02 -0.14637055134E+04  0.14670649682E+04  0.00000000000E+00 0.  1.
          1    1    1    2  503    0  0.75149065344E+02  0.37804311504E+02  0.11225588394E+04  0.11257063986E+04  0.00000000000E+00 0. -1.
<mgrwt>
<rscale>  0 0.91300944E+02</rscale>
<asrwt>0</asrwt>
<pdfrwt beam="2">  1        2 0.22974278E+00 0.99092276E+02</pdfrwt>
<pdfrwt beam="1">  1        1 0.21441924E+00 0.84122221E+02</pdfrwt>
<totfact> 0.19139754E+01</totfact>
</mgrwt>
</event>
<event>
 7    1  0.3113151E-004  0.1077753E+03  0.7546771E-02  0.1348901E+00
         -1   -1    0    0    0  501 -0.00000000000E+00  0.00000000000E+00  0.13397860291E+03  0.13397860291E+03  0.00000000000E+00 0.  1.
          1   -1    0    0  503    0  0.00000000000E+00 -0.00000000000E+00 -0.12237514604E+04  0.12237514604E+04  0.00000000000E+00 0. -1.
         25    2    1    2    0    0  0.52069403891E+02  0.73697983554E+02 -0.13060586552E+03  0.20205421968E+03  0.12500159992E+03 0.  0.
          4    1    3    3  502    0 -0.68692587367E+01  0.48869323838E+02 -0.12893768107E+03  0.13806497031E+03  0.12700000000E+01 0. -1.
         -4    1    3    3    0  502  0.58938662628E+02  0.24828659716E+02 -0.16681844542E+01  0.63989249371E+02  0.12700000000E+01 0. -1.
          1    1    1    2  503    0 -0.33152932485E+02  0.37412239698E+02 -0.10242876305E+04  0.10255066761E+04  0.00000000000E+00 0. -1.
         -1    1    1    2    0  501 -0.18916471406E+02 -0.11111022325E+03  0.65120638592E+02  0.13016916752E+03  0.00000000000E+00 0.  1.
<mgrwt>
<rscale>  0 0.73399354E+02</rscale>
<asrwt>0</asrwt>
<pdfrwt beam="2">  1        1 0.18826945E+00 0.49987925E+02</pdfrwt>
<pdfrwt beam="1">  1       -1 0.20612093E-01 0.10777533E+03</pdfrwt>
<totfact> 0.23688084E+02</totfact>
</mgrwt>
</event>
<event>
 7    1  0.3113151E-004  0.2499547E+03  0.7546771E-02  0.1320109E+00
          1   -1    0    0  502    0  0.00000000000E+00  0.00000000000E+00  0.13832080517E+04  0.13832080517E+04  0.00000000000E+00 0. -1.
          1   -1    0    0  503    0 -0.00000000000E+00 -0.00000000000E+00 -0.13693057697E+04  0.13693057697E+04  0.00000000000E+00 0. -1.
         25    2    1    2    0    0  0.14295214755E+03  0.21594855650E+03  0.10066687126E+03  0.30467638929E+03  0.12499915072E+03 0.  0.
          4    1    3    3  501    0  0.10970868545E+03  0.12387284042E+03  0.12060875006E+03  0.20476464477E+03  0.12700000000E+01 0. -1.
         -4    1    3    3    0  501  0.33243462093E+02  0.92075716080E+02 -0.19941878799E+02  0.99911744524E+02  0.12700000000E+01 0. -1.
          1    1    1    2  502    0 -0.27248222428E+02  0.50844933786E+01  0.11680917578E+04  0.11684205888E+04  0.00000000000E+00 0. -1.
          1    1    1    2  503    0 -0.11570392512E+03 -0.22103304988E+03 -0.12548563471E+04  0.12794168434E+04  0.00000000000E+00 0. -1.
<mgrwt>
<rscale>  0 0.83236888E+02</rscale>
<asrwt>0</asrwt>
<pdfrwt beam="1">  1        1 0.21280124E+00 0.27718544E+02</pdfrwt>
<pdfrwt beam="2">  1        1 0.21066242E+00 0.24995467E+03</pdfrwt>
<totfact> 0.11279025E+01</totfact>
</mgrwt>
</event>
<event>
 7    1  0.3113151E-004  0.1335697E+03  0.7546771E-02  0.1302223E+00
         -1   -1    0    0    0  501 -0.00000000000E+00  0.00000000000E+00  0.15587964408E+03  0.15587964408E+03  0.00000000000E+00 0.  1.
          2   -1    0    0  503    0  0.00000000000E+00 -0.00000000000E+00 -0.48002226346E+03  0.48002226346E+03  0.00000000000E+00 0. -1.
         25    2    1    2    0    0 -0.47516923492E+02  0.97887740001E+02 -0.10625806822E+02  0.16606699013E+03  0.12500187910E+03 0.  0.
          4    1    3    3  502    0  0.12783436057E+02  0.97098084009E+01 -0.49753829717E+02  0.52294866747E+02  0.12700000000E+01 0. -1.
         -4    1    3    3    0  502 -0.60300359549E+02  0.88177931600E+02  0.39128022895E+02  0.11377212338E+03  0.12700000000E+01 0. -1.
          2    1    1    2  503    0 -0.56569058036E+02  0.22806970052E+02 -0.30412524936E+03  0.31018121076E+03  0.00000000000E+00 0. -1.
         -1    1    1    2    0  501  0.10408598153E+03 -0.12069471005E+03 -0.93915631941E+01  0.15965370664E+03  0.00000000000E+00 0.  1.
<mgrwt>
<rscale>  0 0.90260151E+02</rscale>
<asrwt>0</asrwt>
<pdfrwt beam="2">  1        2 0.73849578E-01 0.60993575E+02</pdfrwt>
<pdfrwt beam="1">  1       -1 0.23981484E-01 0.13356972E+03</pdfrwt>
<totfact> 0.11144525E+03</totfact>
</mgrwt>
</event>
<event>
 7    1  0.3113151E-004  0.1894985E+03  0.7546771E-02  0.1177651E+00
          2   -1    0    0  503    0  0.00000000000E+00  0.00000000000E+00  0.10247989795E+04  0.10247989795E+04  0.00000000000E+00 0. -1.
          2   -1    0    0  502    0 -0.00000000000E+00 -0.00000000000E+00 -0.27131759971E+04  0.27131759971E+04  0.00000000000E+00 0.  1.
         25    2    1    2    0    0 -0.16621154970E+03  0.18200615218E+03  0.89292591729E+02  0.29043791479E+03  0.12501398611E+03 0.  0.
          4    1    3    3  501    0 -0.16428563595E+02  0.84695416793E+02  0.69363332223E+02  0.11070725398E+03  0.12700000000E+01 0.  1.
         -4    1    3    3    0  501 -0.14978298611E+03  0.97310735387E+02  0.19929259506E+02  0.17973066081E+03  0.12700000000E+01 0.  1.
          2    1    1    2  502    0  0.15273021459E+03  0.59659164121E+01 -0.25996958367E+04  0.26041851997E+04  0.00000000000E+00 0.  1.
          2    1    1    2  503    0  0.13481335113E+02 -0.18797206859E+03  0.82202622735E+03  0.84335186217E+03  0.00000000000E+00 0. -1.
<mgrwt>
<rscale>  0 0.17018875E+03</rscale>
<asrwt>0</asrwt>
<pdfrwt beam="1">  1        2 0.15766138E+00 0.18949845E+03</pdfrwt>
<pdfrwt beam="2">  1        2 0.41741169E+00 0.15284669E+03</pdfrwt>
<totfact> 0.13349373E+01</totfact>
</mgrwt>
</event>
<event>
 7    1  0.3113151E-004  0.4929157E+02  0.7546771E-02  0.1472874E+00
         -1   -1    0    0    0  501  0.00000000000E+00  0.00000000000E+00  0.12130359455E+04  0.12130359455E+04  0.00000000000E+00 0.  1.
         -3   -1    0    0    0  502 -0.00000000000E+00 -0.00000000000E+00 -0.11864550272E+04  0.11864550272E+04  0.00000000000E+00 0.  1.
         25    2    1    2    0    0  0.80363266419E+02 -0.34478390371E+02  0.19363244724E+03  0.24650603291E+03  0.12499874258E+03 0.  0.
          4    1    3    3  503    0  0.69513627231E+01 -0.65514578434E+02  0.51836045112E+02  0.83839548567E+02  0.12700000000E+01 0.  1.
         -4    1    3    3    0  503  0.73411903696E+02  0.31036188063E+02  0.14179640213E+03  0.16266648435E+03  0.12700000000E+01 0.  1.
         -1    1    1    2    0  501 -0.31771305367E+02  0.26720646926E+02  0.99201054091E+03  0.99287880534E+03  0.00000000000E+00 0.  1.
         -3    1    1    2    0  502 -0.48591961051E+02  0.77577434448E+01 -0.11590620699E+04  0.11601061345E+04  0.00000000000E+00 0.  1.
<mgrwt>
<rscale>  0 0.45235918E+02</rscale>
<asrwt>0</asrwt>
<pdfrwt beam="1">  1       -1 0.18662091E+00 0.41513959E+02</pdfrwt>
<pdfrwt beam="2">  1       -3 0.18253154E+00 0.49291572E+02</pdfrwt>
<totfact> 0.23359279E-01</totfact>
</mgrwt>
</event>
<event>
 7    1  0.3113151E-004  0.2841477E+03  0.7546771E-02  0.1265309E+00
         -1   -1    0    0    0  501 -0.00000000000E+00  0.00000000000E+00  0.40440778687E+03  0.40440778687E+03  0.00000000000E+00 0.  1.
          2   -1    0    0  503    0  0.00000000000E+00 -0.00000000000E+00 -0.14385262238E+04  0.14385262238E+04  0.00000000000E+00 0. -1.
         25    2    1    2    0    0  0.16587139274E+03 -0.21068999889E+03 -0.13947406309E+03  0.32708072866E+03  0.12500077690E+03 0.  0.
          4    1    3    3  502    0  0.64240567137E+02 -0.16174477772E+03 -0.12290126444E+03  0.21305998519E+03  0.12700000000E+01 0. -1.
         -4    1    3    3    0  502  0.10163082560E+03 -0.48945221172E+02 -0.16572798645E+02  0.11402074348E+03  0.12700000000E+01 0. -1.
          2    1    1    2  503    0 -0.14725784219E+03  0.24683326627E+03 -0.11866849182E+04  0.12209965719E+04  0.00000000000E+00 0. -1.
         -1    1    1    2    0  501 -0.18613550551E+02 -0.36143267375E+02  0.29204054430E+03  0.29485671021E+03  0.00000000000E+00 0.  1.
<mgrwt>
<rscale>  0 0.10747987E+03</rscale>
<asrwt>0</asrwt>
<pdfrwt beam="2">  1        2 0.22131173E+00 0.28414768E+03</pdfrwt>
<pdfrwt beam="1">  1       -1 0.62216583E-01 0.40654644E+02</pdfrwt>
<totfact> 0.47468154E+01</totfact>
</mgrwt>
</event>
<event>
 7    1  0.3113151E-004  0.1751389E+03  0.7546771E-02  0.1323217E+00
          1   -1    0    0  503    0 -0.00000000000E+00  0.00000000000E+00  0.16256531600E+03  0.16256531600E+03  0.00000000000E+00 0. -1.
          2   -1    0    0  502    0  0.00000000000E+00 -0.00000000000E+00 -0.50294329744E+03  0.50294329744E+03  0.00000000000E+00 0. -1.
         25    2    1    2    0    0  0.14723766235E+03 -0.12475925602E+03 -0.12421772663E+02  0.23027734216E+03  0.12501820945E+03 0.  0.
          4    1    3    3  501    0  0.58586768205E+02 -0.20179931685E+02 -0.58908430183E+02  0.85507047067E+02  0.12700000000E+01 0. -1.
         -4    1    3    3    0  501  0.88650894149E+02 -0.10457932434E+03  0.46486657520E+02  0.14477029509E+03  0.12700000000E+01 0. -1.
          2    1    1    2  502    0 -0.10963968146E+03  0.13294529879E+03 -0.35054562145E+03  0.39061175730E+03  0.00000000000E+00 0. -1.
          1    1    1    2  503    0 -0.37597980890E+02 -0.81860427638E+01  0.22589412677E+02  0.44619513984E+02  0.00000000000E+00 0. -1.
<mgrwt>
<rscale>  0 0.82092255E+02</rscale>
<asrwt>0</asrwt>
<pdfrwt beam="2">  1        2 0.77375891E-01 0.17513891E+03</pdfrwt>
<pdfrwt beam="1">  1        1 0.25010049E-01 0.38478818E+02</pdfrwt>
<totfact> 0.15340994E+03</totfact>
</mgrwt>
</event>
<event>
 7    1  0.3113151E-004  0.9133395E+02  0.7546771E-02  0.1423374E+00
          2   -1    0    0  503    0  0.00000000000E+00  0.00000000000E+00  0.34753891539E+04  0.34753891539E+04  0.00000000000E+00 0. -1.
         -1   -1    0    0    0  501 -0.00000000000E+00 -0.00000000000E+00 -0.77617637187E+01  0.77617637187E+01  0.00000000000E+00 0.  1.
         25    2    1    2    0    0  0.72673910807E+01 -0.75140573767E+02  0.18364883070E+04  0.18422849133E+04  0.12500191750E+03 0.  0.
          4    1    3    3  502    0  0.17185226701E+02 -0.40219372749E+02  0.17131539697E+04  0.17137126558E+04  0.12700000000E+01 0. -1.
         -4    1    3    3    0  502 -0.99178356207E+01 -0.34921201018E+02  0.12333433731E+03  0.12857225752E+03  0.12700000000E+01 0. -1.
          2    1    1    2  503    0  0.29052898975E+02 -0.14110883360E+02  0.11348233382E+04  0.11352828709E+04  0.00000000000E+00 0. -1.
         -1    1    1    2    0  501 -0.36320290055E+02  0.89251457126E+02  0.49631574497E+03  0.50558313340E+03  0.00000000000E+00 0.  1.
<mgrwt>
<rscale>  0 0.54313370E+02</rscale>
<asrwt>0</asrwt>
<pdfrwt beam="1">  1        2 0.53467401E+00 0.32298421E+02</pdfrwt>
<pdfrwt beam="2">  1       -1 0.11941203E-02 0.91333946E+02</pdfrwt>
<totfact> 0.22524939E+03</totfact>
</mgrwt>
</event>
<event>
 7    1  0.3113151E-004  0.8693118E+02  0.7546771E-02  0.1355909E+00
          1   -1    0    0  503    0  0.00000000000E+00  0.00000000000E+00  0.10538583521E+04  0.10538583521E+04  0.00000000000E+00 0. -1.
         -3   -1    0    0    0  501 -0.00000000000E+00 -0.00000000000E+00 -0.41792856669E+02  0.41792856669E+02  0.00000000000E+00 0.  1.
         25    2    1    2    0    0 -0.11419040249E+03 -0.69079247126E+02  0.75851565338E+03  0.78024646964E+03  0.12500866598E+03 0.  0.
          4    1    3    3  502    0 -0.89747484799E+02 -0.79560953719E+02  0.73500224379E+03  0.74472442398E+03  0.12700000000E+01 0. -1.
         -4    1    3    3    0  502 -0.24442917686E+02  0.10481706593E+02  0.23513409582E+02  0.35522045666E+02  0.12700000000E+01 0. -1.
          1    1    1    2  503    0  0.57909509177E+02  0.74748040859E+01  0.21626907515E+03  0.22401271575E+03  0.00000000000E+00 0. -1.
         -3    1    1    2    0  501  0.56280893309E+02  0.61604443040E+02  0.37280766878E+02  0.91392023355E+02  0.00000000000E+00 0.  1.
<mgrwt>
<rscale>  0 0.71245390E+02</rscale>
<asrwt>0</asrwt>
<pdfrwt beam="1">  1        1 0.16213203E+00 0.58389930E+02</pdfrwt>
<pdfrwt beam="2">  1       -3 0.64296710E-02 0.86931181E+02</pdfrwt>
<totfact> 0.12060971E+03</totfact>
</mgrwt>
</event>
<event>
 7    1  0.3113151E-004  0.9455581E+02  0.7546771E-02  0.1304021E+00
          1   -1    0    0  503    0 -0.00000000000E+00  0.00000000000E+00  0.46980886005E+03  0.46980886005E+03  0.00000000000E+00 0. -1.
          2   -1    0    0  502    0  0.00000000000E+00 -0.00000000000E+00 -0.26710025667E+03  0.26710025667E+03  0.00000000000E+00 0. -1.
         25    2    1    2    0    0 -0.23199269991E+02 -0.73978128522E+02  0.31960948740E+03  0.35183557184E+03  0.12500830189E+03 0.  0.
          4    1    3    3  501    0  0.13591645292E+02 -0.95375346245E+02  0.16115459262E+03  0.18775943415E+03  0.12700000000E+01 0.  1.
         -4    1    3    3    0  501 -0.36790915283E+02  0.21397217722E+02  0.15845489479E+03  0.16407613768E+03  0.12700000000E+01 0.  1.
          2    1    1    2  502    0 -0.90871808802E+02  0.26136473314E+02 -0.20996701346E+03  0.23027580770E+03  0.00000000000E+00 0. -1.
          1    1    1    2  503    0  0.11407107879E+03  0.47841655208E+02  0.93066129431E+02  0.15479773718E+03  0.00000000000E+00 0. -1.
<mgrwt>
<rscale>  0 0.89518691E+02</rscale>
<asrwt>0</asrwt>
<pdfrwt beam="2">  1        2 0.41092347E-01 0.94555808E+02</pdfrwt>
<pdfrwt beam="1">  1        1 0.72278286E-01 0.84749907E+02</pdfrwt>
<totfact> 0.84070778E+02</totfact>
</mgrwt>
</event>
<event>
 7    1  0.3113151E-004  0.3252264E+02  0.7546771E-02  0.1590580E+00
         -2   -1    0    0    0  501 -0.00000000000E+00  0.00000000000E+00  0.25011592298E+02  0.25011592298E+02  0.00000000000E+00 0.  1.
          2   -1    0    0  503    0  0.00000000000E+00 -0.00000000000E+00 -0.66412058590E+03  0.66412058590E+03  0.00000000000E+00 0. -1.
         25    2    1    2    0    0  0.27916704245E+01  0.54909521902E+02 -0.47338211176E+03  0.49268570317E+03  0.12500291738E+03 0.  0.
          4    1    3    3  502    0  0.59848866024E+02  0.49843540803E+02 -0.30641655378E+03  0.31616290525E+03  0.12700000000E+01 0.  1.
         -4    1    3    3    0  502 -0.57057195599E+02  0.50659810991E+01 -0.16696555799E+03  0.17652279793E+03  0.12700000000E+01 0.  1.
          2    1    1    2  503    0  0.11645395330E+02 -0.26516872187E+02 -0.16177848318E+03  0.16435034944E+03  0.00000000000E+00 0. -1.
         -2    1    1    2    0  501 -0.14437065754E+02 -0.28392649715E+02 -0.39483986609E+01  0.32096125583E+02  0.00000000000E+00 0.  1.
<mgrwt>
<rscale>  0 0.30690384E+02</rscale>
<asrwt>0</asrwt>
<pdfrwt beam="2">  1        2 0.10217238E+00 0.28961349E+02</pdfrwt>
<pdfrwt beam="1">  1       -2 0.38479379E-02 0.32522645E+02</pdfrwt>
<totfact> 0.10938648E+04</totfact>
</mgrwt>
</event>
<event>
 7    1  0.3113151E-004  0.8207950E+02  0.7546771E-02  0.1501945E+00
         -1   -1    0    0    0  501 -0.00000000000E+00  0.00000000000E+00  0.17361293406E+03  0.17361293406E+03  0.00000000000E+00 0.  1.
          2   -1    0    0  503    0  0.00000000000E+00 -0.00000000000E+00 -0.98943153272E+02  0.98943153272E+02  0.00000000000E+00 0. -1.
         25    2    1    2    0    0  0.70930453079E+02  0.25583849997E+02  0.12920917160E+02  0.14655306925E+03  0.12500075781E+03 0.  0.
          4    1    3    3  502    0  0.63880510447E-01  0.63927753370E+02 -0.45283924615E+01  0.64100553585E+02  0.12700000000E+01 0.  1.
         -4    1    3    3    0  502  0.70866572569E+02 -0.38343903373E+02  0.17449309622E+02  0.82452515667E+02  0.12700000000E+01 0.  1.
          2    1    1    2  503    0 -0.87655845401E+02 -0.14000339630E+02  0.44332702199E+02  0.99221697360E+02  0.00000000000E+00 0. -1.
         -1    1    1    2    0  501  0.16725392321E+02 -0.11583510366E+02  0.17416161433E+02  0.26781320725E+02  0.00000000000E+00 0.  1.
<mgrwt>
<rscale>  0 0.40864437E+02</rscale>
<asrwt>0</asrwt>
<pdfrwt beam="2">  1        2 0.15222024E-01 0.82079499E+02</pdfrwt>
<pdfrwt beam="1">  1       -1 0.26709682E-01 0.20344937E+02</pdfrwt>
<totfact> 0.47694856E+03</totfact>
</mgrwt>
</event>
<event>
 7    1  0.3113151E-004  0.1156713E+03  0.7546771E-02  0.1270895E+00
         -1   -1    0    0    0  501 -0.00000000000E+00  0.00000000000E+00  0.12948370053E+03  0.12948370053E+03  0.00000000000E+00 0.  1.
          2   -1    0    0  503    0  0.00000000000E+00 -0.00000000000E+00 -0.23578371939E+04  0.23578371939E+04  0.00000000000E+00 0. -1.
         25    2    1    2    0    0 -0.17701057913E+03  0.44254410372E+02 -0.79272717407E+03  0.82300198217E+03  0.12499876872E+03 0.  0.
          4    1    3    3  502    0 -0.14619738901E+02  0.54350834107E+02 -0.15719700975E+03  0.16697383839E+03  0.12700000000E+01 0. -1.
         -4    1    3    3    0  502 -0.16239084023E+03 -0.10096423734E+02 -0.63553016432E+03  0.65602814377E+03  0.12700000000E+01 0. -1.
          2    1    1    2  503    0  0.89967445715E+02  0.29246254560E+02 -0.15197559033E+04  0.15226974388E+04  0.00000000000E+00 0. -1.
         -1    1    1    2    0  501  0.87043133417E+02 -0.73500664933E+02  0.84129584010E+02  0.14162147339E+03  0.00000000000E+00 0.  1.
<mgrwt>
<rscale>  0 0.10460738E+03</rscale>
<asrwt>0</asrwt>
<pdfrwt beam="2">  1        2 0.36274420E+00 0.94601716E+02</pdfrwt>
<pdfrwt beam="1">  1       -1 0.19920568E-01 0.11567130E+03</pdfrwt>
<totfact> 0.12354976E+02</totfact>
</mgrwt>
</event>
<event>
 7    1  0.3113151E-004  0.1339962E+03  0.7546771E-02  0.1259500E+00
          2   -1    0    0  503    0  0.00000000000E+00  0.00000000000E+00  0.24985123987E+04  0.24985123987E+04  0.00000000000E+00 0. -1.
          2   -1    0    0  502    0 -0.00000000000E+00 -0.00000000000E+00 -0.17845163357E+04  0.17845163357E+04  0.00000000000E+00 0. -1.
         25    2    1    2    0    0  0.68083247631E+02 -0.16056931753E+03  0.22820561086E+01  0.21459076138E+03  0.12500461092E+03 0.  0.
          4    1    3    3  501    0  0.85580414770E+02 -0.11570294079E+03 -0.41194335877E+02  0.14969891151E+03  0.12700000000E+01 0.  1.
         -4    1    3    3    0  501 -0.17497167139E+02 -0.44866376739E+02  0.43476391986E+02  0.64891849871E+02  0.12700000000E+01 0.  1.
          2    1    1    2  502    0  0.18678803943E+02  0.13228664394E+03 -0.16748299323E+04  0.16801499802E+04  0.00000000000E+00 0. -1.
          2    1    1    2  503    0 -0.86762051574E+02  0.28282673586E+02  0.23865439391E+04  0.23882879928E+04  0.00000000000E+00 0. -1.
<mgrwt>
<rscale>  0 0.11057979E+03</rscale>
<asrwt>0</asrwt>
<pdfrwt beam="1">  1        2 0.38438652E+00 0.91255483E+02</pdfrwt>
<pdfrwt beam="2">  1        2 0.27454097E+00 0.13399622E+03</pdfrwt>
<totfact> 0.74642255E+00</totfact>
</mgrwt>
</event>
<event>
 7    1  0.3113151E-004  0.5895554E+02  0.7546771E-02  0.1469815E+00
         -2   -1    0    0    0  501 -0.00000000000E+00  0.00000000000E+00  0.35234322321E+03  0.35234322321E+03  0.00000000000E+00 0.  1.
          1   -1    0    0  503    0  0.00000000000E+00 -0.00000000000E+00 -0.20870055687E+03  0.20870055687E+03  0.00000000000E+00 0. -1.
         25    2    1    2    0    0 -0.78951852865E+02  0.39667431472E+02 -0.82867637011E+02  0.17406868156E+03  0.12500384172E+03 0.  0.
          4    1    3    3  502    0 -0.13317070640E+02  0.69844191896E+02 -0.10637003589E+02  0.71904897312E+02  0.12700000000E+01 0. -1.
         -4    1    3    3    0  502 -0.65634782224E+02 -0.30176760425E+02 -0.72230633422E+02  0.10216378425E+03  0.12700000000E+01 0. -1.
          1    1    1    2  503    0  0.49146699519E+02 -0.20426085573E+02 -0.70231740669E+02  0.88119920806E+02  0.00000000000E+00 0. -1.
         -2    1    1    2    0  501  0.29805153346E+02 -0.19241345899E+02  0.29674204402E+03  0.29885517771E+03  0.00000000000E+00 0.  1.
<mgrwt>
<rscale>  0 0.45733267E+02</rscale>
<asrwt>0</asrwt>
<pdfrwt beam="2">  1        1 0.32107778E-01 0.58955541E+02</pdfrwt>
<pdfrwt beam="1">  1       -2 0.54206650E-01 0.35476423E+02</pdfrwt>
<totfact> 0.39266902E+02</totfact>
</mgrwt>
</event>
<event>
 7    1  0.3113151E-004  0.1864934E+03  0.7546771E-02  0.1238217E+00
          2   -1    0    0  503    0  0.00000000000E+00  0.00000000000E+00  0.82003119789E+03  0.82003119789E+03  0.00000000000E+00 0. -1.
         -1   -1    0    0    0  501 -0.00000000000E+00 -0.00000000000E+00 -0.98673654192E+02  0.98673654192E+02  0.00000000000E+00 0.  1.
         25    2    1    2    0    0 -0.65204646558E+02 -0.15976243664E+03  0.20710569912E+03  0.29712825325E+03  0.12496698036E+03 0.  0.
          4    1    3    3  502    0 -0.12231426504E+02 -0.17681736198E+02  0.12068358473E+03  0.12259034265E+03  0.12700000000E+01 0.  1.
         -4    1    3    3    0  502 -0.52973220053E+02 -0.14208070044E+03  0.86422114391E+02  0.17453791060E+03  0.12700000000E+01 0.  1.
          2    1    1    2  503    0 -0.79789882790E+02  0.14701798032E+02  0.34865422743E+03  0.35796974532E+03  0.00000000000E+00 0. -1.
         -1    1    1    2    0  501  0.14499452935E+03  0.14506063860E+03  0.16559761716E+03  0.26360685352E+03  0.00000000000E+00 0.  1.
<mgrwt>
<rscale>  0 0.12300720E+03</rscale>
<asrwt>0</asrwt>
<pdfrwt beam="1">  1        2 0.12615864E+00 0.81133028E+02</pdfrwt>
<pdfrwt beam="2">  1       -1 0.15180563E-01 0.18649337E+03</pdfrwt>
<totfact> 0.12754450E+03</totfact>
</mgrwt>
</event>
<event>
 7    1  0.3113151E-004  0.7979129E+02  0.7546771E-02  0.1423950E+00
          2   -1    0    0  503    0  0.00000000000E+00  0.00000000000E+00  0.15566957079E+04  0.15566957079E+04  0.00000000000E+00 0.  1.
         -1   -1    0    0    0  501 -0.00000000000E+00 -0.00000000000E+00 -0.18740237786E+03  0.18740237786E+03  0.00000000000E+00 0.  1.
         25    2    1    2    0    0  0.11040289053E+02  0.84618537567E+02  0.76384945426E+03  0.77870030314E+03  0.12500395377E+03 0.  0.
          4    1    3    3  502    0 -0.16634694180E+02  0.33553579807E+02  0.49962582749E+02  0.62453409381E+02  0.12700000000E+01 0. -1.
         -4    1    3    3    0  502  0.27674983233E+02  0.51064957760E+02  0.71388687151E+03  0.71624689376E+03  0.12700000000E+01 0. -1.
          2    1    1    2  503    0 -0.43471815364E+02 -0.67210664581E+02  0.78147291607E+03  0.78556157666E+03  0.00000000000E+00 0.  1.
         -1    1    1    2    0  501  0.32431526311E+02 -0.17407872986E+02 -0.17602904030E+03  0.17983620595E+03  0.00000000000E+00 0.  1.
<mgrwt>
<rscale>  0 0.54193798E+02</rscale>
<asrwt>0</asrwt>
<pdfrwt beam="1">  1        2 0.23949164E+00 0.79791291E+02</pdfrwt>
<pdfrwt beam="2">  1       -1 0.28831136E-01 0.36808123E+02</pdfrwt>
<totfact> 0.16971230E+02</totfact>
</mgrwt>
</event>
<event>
 7    1  0.3113151E-004  0.1097519E+03  0.7546771E-02  0.1414299E+00
         -2   -1    0    0    0  501 -0.00000000000E+00  0.00000000000E+00  0.13042831595E+03  0.13042831595E+03  0.00000000000E+00 0.  1.
          1   -1    0    0  503    0  0.00000000000E+00 -0.00000000000E+00 -0.25033176205E+03  0.25033176205E+03  0.00000000000E+00 0. -1.
         25    2    1    2    0    0  0.17953325722E+02  0.12421051854E+03 -0.14477880981E+03  0.22876904724E+03  0.12499519343E+03 0.  0.
          4    1    3    3  502    0  0.64479278506E+02  0.90230553409E+02 -0.12667129263E+03  0.16836377105E+03  0.12700000000E+01 0.  1.
         -4    1    3    3    0  502 -0.46525952783E+02  0.33979965136E+02 -0.18107517184E+02  0.60405276190E+02  0.12700000000E+01 0.  1.
          1    1    1    2  503    0  0.17302955187E+02 -0.23053584169E+02 -0.20789169400E+02  0.35539408628E+02  0.00000000000E+00 0. -1.
         -2    1    1    2    0  501 -0.35256280909E+02 -0.10115693438E+03  0.45664533108E+02  0.11645162214E+03  0.00000000000E+00 0.  1.
<mgrwt>
<rscale>  0 0.56245526E+02</rscale>
<asrwt>0</asrwt>
<pdfrwt beam="2">  1        1 0.38512579E-01 0.28824642E+02</pdfrwt>
<pdfrwt beam="1">  1       -2 0.20065895E-01 0.10975190E+03</pdfrwt>
<totfact> 0.19222773E+03</totfact>
</mgrwt>
</event>
<event>
 7    1  0.3113151E-004  0.7587200E+02  0.7546771E-02  0.1495497E+00
         -1   -1    0    0    0  501 -0.00000000000E+00  0.00000000000E+00  0.35778455393E+03  0.35778455393E+03  0.00000000000E+00 0.  1.
          1   -1    0    0  503    0  0.00000000000E+00 -0.00000000000E+00 -0.52611482900E+03  0.52611482900E+03  0.00000000000E+00 0. -1.
         25    2    1    2    0    0 -0.33990940963E+02  0.68791691794E+02 -0.13997921987E+02  0.14733876895E+03  0.12500036035E+03 0.  0.
          4    1    3    3  502    0 -0.69895840439E+02  0.82573919425E+02 -0.10435865143E+02  0.10869407004E+03  0.12700000000E+01 0.  1.
         -4    1    3    3    0  502  0.35904899476E+02 -0.13782227631E+02 -0.35620568437E+01  0.38644698910E+02  0.12700000000E+01 0.  1.
          1    1    1    2  503    0  0.52420186138E+02 -0.55016986189E+02 -0.44174240956E+03  0.44823108001E+03  0.00000000000E+00 0. -1.
         -1    1    1    2    0  501 -0.18429245175E+02 -0.13774705605E+02  0.28741005648E+03  0.28832953397E+03  0.00000000000E+00 0.  1.
<mgrwt>
<rscale>  0 0.41781358E+02</rscale>
<asrwt>0</asrwt>
<pdfrwt beam="2">  1        1 0.80940742E-01 0.75871997E+02</pdfrwt>
<pdfrwt beam="1">  1       -1 0.55043778E-01 0.23008251E+02</pdfrwt>
<totfact> 0.15431299E+02</totfact>
</mgrwt>
</event>
<event>
 7    1  0.3113151E-004  0.1017538E+03  0.7546771E-02  0.1358390E+00
          1   -1    0    0  503    0  0.00000000000E+00  0.00000000000E+00  0.12547097802E+04  0.12547097802E+04  0.00000000000E+00 0. -1.
         -1   -1    0    0    0  501 -0.00000000000E+00 -0.00000000000E+00 -0.24412171295E+02  0.24412171295E+02  0.00000000000E+00 0.  1.
         25    2    1    2    0    0 -0.88035313639E+02  0.98336165392E+02  0.79580656885E+03  0.81630466699E+03  0.12499998583E+03 0.  0.
          4    1    3    3  502    0  0.17690295387E+02  0.58123417579E+02  0.17436561279E+03  0.18465172094E+03  0.12700000000E+01 0.  1.
         -4    1    3    3    0  502 -0.10572560903E+03  0.40212747813E+02  0.62144095606E+03  0.63165294605E+03  0.12700000000E+01 0.  1.
          1    1    1    2  503    0  0.66053786782E+01 -0.48401926024E+02  0.25352419833E+03  0.25818771584E+03  0.00000000000E+00 0. -1.
         -1    1    1    2    0  501  0.81429934961E+02 -0.49934239369E+02  0.18096684176E+03  0.20462956870E+03  0.00000000000E+00 0.  1.
<mgrwt>
<rscale>  0 0.70503404E+02</rscale>
<asrwt>0</asrwt>
<pdfrwt beam="1">  1        1 0.19303222E+00 0.48850563E+02</pdfrwt>
<pdfrwt beam="2">  1       -1 0.37557197E-02 0.10175379E+03</pdfrwt>
<totfact> 0.29641258E+03</totfact>
</mgrwt>
</event>
<event>
 7    1  0.3113151E-004  0.8979691E+02  0.7546771E-02  0.1349892E+00
          1   -1    0    0  503    0 -0.00000000000E+00  0.00000000000E+00  0.35455270483E+03  0.35455270483E+03  0.00000000000E+00 0. -1.
          2   -1    0    0  502    0  0.00000000000E+00 -0.00000000000E+00 -0.56039500353E+03  0.56039500353E+03  0.00000000000E+00 0. -1.
         25    2    1    2    0    0  0.49231748194E+02 -0.27115169739E+02 -0.16855199040E+03  0.21723997506E+03  0.12499774333E+03 0.  0.
          4    1    3    3  501    0  0.91735608249E+02 -0.20493450095E+02 -0.11428429759E+03  0.14797944754E+03  0.12700000000E+01 0. -1.
         -4    1    3    3    0  501 -0.42503860055E+02 -0.66217196433E+01 -0.54267692805E+02  0.69260527525E+02  0.12700000000E+01 0. -1.
          2    1    1    2  502    0  0.40603431959E+02  0.43479596331E+02 -0.35868907617E+03  0.36358900883E+03  0.00000000000E+00 0. -1.
          1    1    1    2  503    0 -0.89835180153E+02 -0.16364426593E+02  0.32139876786E+03  0.33411872446E+03  0.00000000000E+00 0. -1.
<mgrwt>
<rscale>  0 0.73089388E+02</rscale>
<asrwt>0</asrwt>
<pdfrwt beam="2">  1        2 0.86214615E-01 0.59490453E+02</pdfrwt>
<pdfrwt beam="1">  1        1 0.54546570E-01 0.89796906E+02</pdfrwt>
<totfact> 0.54815892E+02</totfact>
</mgrwt>
</event>
<event>
 7    1  0.3113151E-004  0.1087298E+03  0.7546771E-02  0.1324155E+00
          1   -1    0    0  503    0  0.00000000000E+00  0.00000000000E+00  0.24936694510E+04  0.24936694510E+04  0.00000000000E+00 0. -1.
         -2   -1    0    0    0  501 -0.00000000000E+00 -0.00000000000E+00 -0.11809854351E+03  0.11809854351E+03  0.00000000000E+00 0.  1.
         25    2    1    2    0    0 -0.12671491062E+03  0.32109193675E+02  0.20946786272E+03  0.27674848092E+03  0.12500106914E+03 0.  0.
          4    1    3    3  502    0 -0.12897146751E+03 -0.48057795304E+01  0.20086270497E+03  0.23875546925E+03  0.12700000000E+01 0. -1.
         -4    1    3    3    0  502  0.22565568878E+01  0.36914973205E+02  0.86051577475E+01  0.37993011668E+02  0.12700000000E+01 0. -1.
          1    1    1    2  503    0  0.22256372834E+02 -0.57295112201E+02  0.22157853511E+04  0.22166377237E+04  0.00000000000E+00 0. -1.
         -2    1    1    2    0  501  0.10445853779E+03  0.25185918526E+02 -0.49682306352E+02  0.11838178987E+03  0.00000000000E+00 0.  1.
<mgrwt>
<rscale>  0 0.81750790E+02</rscale>
<asrwt>0</asrwt>
<pdfrwt beam="1">  1        1 0.38364141E+00 0.61466056E+02</pdfrwt>
<pdfrwt beam="2">  1       -2 0.18169009E-01 0.10872980E+03</pdfrwt>
<totfact> 0.42056715E+01</totfact>
</mgrwt>
</event>
<event>
 7    1  0.3113151E-004  0.4609135E+02  0.7546771E-02  0.1542189E+00
          1   -1    0    0  503    0  0.00000000000E+00  0.00000000000E+00  0.19861670438E+04  0.19861670438E+04  0.00000000000E+00 0. -1.
         -2   -1    0    0    0  501 -0.00000000000E+00 -0.00000000000E+00 -0.57895907982E+01  0.57895907982E+01  0.00000000000E+00 0.  1.
         25    2    1    2    0    0  0.24039820877E+02  0.11697156092E+02  0.10843713481E+04  0.10918792355E+04  0.12499723168E+03 0.  0.
          4    1    3    3  502    0  0.66901796472E+02 -0.24945846070E+02  0.61157297827E+03  0.61572824059E+03  0.12700000000E+01 0.  1.
         -4    1    3    3    0  502 -0.42861975595E+02  0.36643002162E+02  0.47279836980E+03  0.47615099490E+03  0.12700000000E+01 0.  1.
          1    1    1    2  503    0  0.23331716049E+02  0.14934242505E+02  0.43460218829E+03  0.43548417037E+03  0.00000000000E+00 0. -1.
         -2    1    1    2    0  501 -0.47371536926E+02 -0.26631398598E+02  0.46140391662E+03  0.46459322873E+03  0.00000000000E+00 0.  1.
<mgrwt>
<rscale>  0 0.35732650E+02</rscale>
<asrwt>0</asrwt>
<pdfrwt beam="1">  1        1 0.30556362E+00 0.27701996E+02</pdfrwt>
<pdfrwt beam="2">  1       -2 0.89070786E-03 0.46091345E+02</pdfrwt>
<totfact> 0.76565511E+03</totfact>
</mgrwt>
</event>
<event>
 7    1  0.3113151E-004  0.1421587E+03  0.7546771E-02  0.1285280E+00
          1   -1    0    0  503    0 -0.00000000000E+00  0.00000000000E+00  0.89156836745E+03  0.89156836745E+03  0.00000000000E+00 0. -1.
          2   -1    0    0  502    0  0.00000000000E+00 -0.00000000000E+00 -0.17106877158E+04  0.17106877158E+04  0.00000000000E+00 0. -1.
         25    2    1    2    0    0 -0.11905726572E+02 -0.18265062874E+03  0.49013839901E+03  0.53792506420E+03  0.12499890404E+03 0.  0.
          4    1    3    3  501    0  0.40088705402E+02 -0.81995647661E+02  0.11960570712E+03  0.15045773032E+03  0.12700000000E+01 0.  1.
         -4    1    3    3    0  501 -0.51994431974E+02 -0.10065498108E+03  0.37053269189E+03  0.38746733389E+03  0.12700000000E+01 0.  1.
          2    1    1    2  502    0  0.32359916440E+02  0.58781062383E+02 -0.16756669004E+04  0.16770098207E+04  0.00000000000E+00 0. -1.
          1    1    1    2  503    0 -0.20454189868E+02  0.12386956636E+03  0.36640915300E+03  0.38732119844E+03  0.00000000000E+00 0. -1.
<mgrwt>
<rscale>  0 0.97666847E+02</rscale>
<asrwt>0</asrwt>
<pdfrwt beam="2">  1        2 0.26318272E+00 0.67099758E+02</pdfrwt>
<pdfrwt beam="1">  1        1 0.13716437E+00 0.14215868E+03</pdfrwt>
<totfact> 0.33132249E+01</totfact>
</mgrwt>
</event>
<event>
 7    1  0.3113151E-004  0.1753739E+03  0.7546771E-02  0.1400607E+00
          2   -1    0    0  503    0  0.00000000000E+00  0.00000000000E+00  0.23114672361E+03  0.23114672361E+03  0.00000000000E+00 0. -1.
         -1   -1    0    0    0  501 -0.00000000000E+00 -0.00000000000E+00 -0.44669790554E+03  0.44669790554E+03  0.00000000000E+00 0.  1.
         25    2    1    2    0    0  0.12316671746E+03 -0.14880042682E+03  0.13709217525E+03  0.26782415097E+03  0.12499561599E+03 0.  0.
          4    1    3    3  502    0  0.10521623719E+03 -0.78060745083E+02  0.14378622765E+03  0.19452513630E+03  0.12700000000E+01 0.  1.
         -4    1    3    3    0  502  0.17950480264E+02 -0.70739681732E+02 -0.66940523979E+01  0.73299014665E+02  0.12700000000E+01 0.  1.
          2    1    1    2  503    0 -0.15783305758E+02  0.12414941861E+02 -0.38886199866E+01  0.20453969968E+02  0.00000000000E+00 0. -1.
         -1    1    1    2    0  501 -0.10738341170E+03  0.13638548496E+03 -0.34875473719E+03  0.38956650822E+03  0.00000000000E+00 0.  1.
<mgrwt>
<rscale>  0 0.59343667E+02</rscale>
<asrwt>0</asrwt>
<pdfrwt beam="1">  1        2 0.35561035E-01 0.20080924E+02</pdfrwt>
<pdfrwt beam="2">  1       -1 0.68722753E-01 0.17537394E+03</pdfrwt>
<totfact> 0.35516765E+02</totfact>
</mgrwt>
</event>
<event>
 7    1  0.3113151E-004  0.1107288E+03  0.7546771E-02  0.1390699E+00
         -1   -1    0    0    0  501 -0.00000000000E+00  0.00000000000E+00  0.43917335638E+03  0.43917335638E+03  0.00000000000E+00 0.  1.
          2   -1    0    0  503    0  0.00000000000E+00 -0.00000000000E+00 -0.10154689253E+04  0.10154689253E+04  0.00000000000E+00 0. -1.
         25    2    1    2    0    0  0.44009636252E+02  0.63594594566E+02 -0.40911947498E+03  0.43472399686E+03  0.12500035237E+03 0.  0.
          4    1    3    3  502    0  0.47154510427E+02  0.61360765698E+02 -0.41792276087E+03  0.42502910298E+03  0.12700000000E+01 0.  1.
         -4    1    3    3    0  502 -0.31448741747E+01  0.22338288678E+01  0.88032858880E+01  0.96948938834E+01  0.12700000000E+01 0.  1.
          2    1    1    2  503    0  0.13757489094E+02  0.31548136333E+02 -0.58576913656E+03  0.58677937486E+03  0.00000000000E+00 0. -1.
         -1    1    1    2    0  501 -0.57767125346E+02 -0.95142730899E+02  0.41859304262E+03  0.43313890998E+03  0.00000000000E+00 0.  1.
<mgrwt>
<rscale>  0 0.61733214E+02</rscale>
<asrwt>0</asrwt>
<pdfrwt beam="2">  1        2 0.15622599E+00 0.34417342E+02</pdfrwt>
<pdfrwt beam="1">  1       -1 0.67565133E-01 0.11072876E+03</pdfrwt>
<totfact> 0.77577076E+01</totfact>
</mgrwt>
</event>
<event>
 7    1  0.3113151E-004  0.4378606E+02  0.7546771E-02  0.1493560E+00
         -1   -1    0    0    0  501  0.00000000000E+00  0.00000000000E+00  0.16340467829E+03  0.16340467829E+03  0.00000000000E+00 0.  1.
         -1   -1    0    0    0  502 -0.00000000000E+00 -0.00000000000E+00 -0.95449332243E+03  0.95449332243E+03  0.00000000000E+00 0.  1.
         25    2    1    2    0    0  0.10747690243E+02  0.79655157799E+02 -0.87606555095E+03  0.88857939174E+03  0.12498811486E+03 0.  0.
          4    1    3    3  503    0  0.51762432678E+02  0.93505426265E+01 -0.17319952691E+03  0.18101511292E+03  0.12700000000E+01 0.  1.
         -4    1    3    3    0  503 -0.41014742435E+02  0.70304615172E+02 -0.70286602403E+03  0.70756427881E+03  0.12700000000E+01 0.  1.
         -1    1    1    2    0  502 -0.17353285864E+02 -0.36490739886E+02 -0.63104766478E+02  0.74932784414E+02  0.00000000000E+00 0.  1.
         -1    1    1    2    0  501  0.66055956205E+01 -0.43164417913E+02  0.14808167328E+03  0.15438582457E+03  0.00000000000E+00 0.  1.
<mgrwt>
<rscale>  0 0.42062517E+02</rscale>
<asrwt>0</asrwt>
<pdfrwt beam="1">  1       -1 0.25139181E-01 0.43786064E+02</pdfrwt>
<pdfrwt beam="2">  1       -1 0.14684513E+00 0.40406814E+02</pdfrwt>
<totfact> 0.50502631E+01</totfact>
</mgrwt>
</event>
<event>
 7    1  0.3113151E-004  0.2288908E+03  0.7546771E-02  0.1273429E+00
          1   -1    0    0  503    0  0.00000000000E+00  0.00000000000E+00  0.11113872224E+04  0.11113872224E+04  0.00000000000E+00 0. -1.
         -2   -1    0    0    0  501 -0.00000000000E+00 -0.00000000000E+00 -0.25620244104E+03  0.25620244104E+03  0.00000000000E+00 0. -1.
         25    2    1    2    0    0  0.10073464504E+03  0.19402326719E+03  0.54916044456E+01  0.25189208706E+03  0.12500787528E+03 0.  0.
          4    1    3    3  502    0  0.37203481660E+02  0.67679701825E+02  0.62550385998E+02  0.99392176630E+02  0.12700000000E+01 0. -1.
         -4    1    3    3    0  502  0.63531163381E+02  0.12634356536E+03 -0.57058781552E+02  0.15249991043E+03  0.12700000000E+01 0. -1.
          1    1    1    2  503    0  0.46351666471E+02 -0.53077939015E+01  0.87396033883E+03  0.87520473234E+03  0.00000000000E+00 0. -1.
         -2    1    1    2    0  501 -0.14708631151E+03 -0.18871547329E+03 -0.24267161900E+02  0.24049284405E+03  0.00000000000E+00 0. -1.
<mgrwt>
<rscale>  0 0.10333830E+03</rscale>
<asrwt>0</asrwt>
<pdfrwt beam="1">  1        1 0.17098265E+00 0.46654578E+02</pdfrwt>
<pdfrwt beam="2">  1       -2 0.39415761E-01 0.22889081E+03</pdfrwt>
<totfact> 0.81798593E+01</totfact>
</mgrwt>
</event>
<event>
 7    1  0.3113151E-004  0.7778167E+02  0.7546771E-02  0.1378299E+00
          2   -1    0    0  503    0  0.00000000000E+00  0.00000000000E+00  0.16233162682E+04  0.16233162682E+04  0.00000000000E+00 0. -1.
         -1   -1    0    0    0  501 -0.00000000000E+00 -0.00000000000E+00 -0.15013775822E+02  0.15013775822E+02  0.00000000000E+00 0.  1.
         25    2    1    2    0    0 -0.98164111410E+02  0.36551576551E+02  0.61021024258E+03  0.63162659355E+03  0.12499361190E+03 0.  0.
          4    1    3    3  502    0 -0.11332529704E+03  0.26663148023E+02  0.31447469754E+03  0.33533489932E+03  0.12700000000E+01 0. -1.
         -4    1    3    3    0  502  0.15161185629E+02  0.98884285284E+01  0.29573554504E+03  0.29629169423E+03  0.12700000000E+01 0. -1.
          2    1    1    2  503    0  0.48057816264E+02 -0.57145807703E+02  0.67286521915E+03  0.67699542109E+03  0.00000000000E+00 0. -1.
         -1    1    1    2    0  501  0.50106295146E+02  0.20594231152E+02  0.32522703062E+03  0.32970802935E+03  0.00000000000E+00 0.  1.
<mgrwt>
<rscale>  0 0.64913031E+02</rscale>
<asrwt>0</asrwt>
<pdfrwt beam="1">  1        2 0.24974083E+00 0.77781666E+02</pdfrwt>
<pdfrwt beam="2">  1       -1 0.23098129E-02 0.54173454E+02</pdfrwt>
<totfact> 0.67783555E+03</totfact>
</mgrwt>
</event>
<event>
 7    1  0.3113151E-004  0.1204480E+03  0.7546771E-02  0.1333228E+00
          2   -1    0    0  503    0  0.00000000000E+00  0.00000000000E+00  0.85939114119E+03  0.85939114119E+03  0.00000000000E+00 0. -1.
         -1   -1    0    0    0  501 -0.00000000000E+00 -0.00000000000E+00 -0.21621682336E+03  0.21621682336E+03  0.00000000000E+00 0.  1.
         25    2    1    2    0    0 -0.17262251360E+02 -0.83932101989E+02 -0.53955806674E+01  0.15164566764E+03  0.12499885263E+03 0.  0.
          4    1    3    3  502    0  0.20559613587E+02 -0.62236439003E+02  0.49053924541E+02  0.81877789805E+02  0.12700000000E+01 0.  1.
         -4    1    3    3    0  502 -0.37821864947E+02 -0.21695662986E+02 -0.54449505208E+02  0.69767877837E+02  0.12700000000E+01 0.  1.
          2    1    1    2  503    0 -0.46168868416E+01 -0.51012884009E+02  0.75124644560E+03  0.75299060552E+03  0.00000000000E+00 0. -1.
         -1    1    1    2    0  501  0.21879138202E+02  0.13494498600E+03 -0.10267654710E+03  0.17097169140E+03  0.00000000000E+00 0.  1.
<mgrwt>
<rscale>  0 0.78546264E+02</rscale>
<asrwt>0</asrwt>
<pdfrwt beam="1">  1        2 0.13221402E+00 0.51221382E+02</pdfrwt>
<pdfrwt beam="2">  1       -1 0.33264127E-01 0.12044805E+03</pdfrwt>
<totfact> 0.33730392E+02</totfact>
</mgrwt>
</event>
<event>
 7    1  0.3113151E-004  0.1891406E+03  0.7546771E-02  0.1164353E+00
          2   -1    0    0  502    0  0.00000000000E+00  0.00000000000E+00  0.68904982081E+03  0.68904982081E+03  0.00000000000E+00 0. -1.
          2   -1    0    0  503    0 -0.00000000000E+00 -0.00000000000E+00 -0.92649784781E+03  0.92649784781E+03  0.00000000000E+00 0. -1.
         25    2    1    2    0    0 -0.95001249017E+02  0.58524102491E+02  0.51422355274E+02  0.17526831572E+03  0.12499766392E+03 0.  0.
          4    1    3    3  501    0 -0.92818797148E+02  0.69393501770E+02 -0.66930127524E+01  0.11609132832E+03  0.12700000000E+01 0. -1.
         -4    1    3    3    0  501 -0.21824518696E+01 -0.10869399279E+02  0.58115368026E+02  0.59176987399E+02  0.12700000000E+01 0. -1.
          2    1    1    2  502    0  0.19084639521E+03  0.10453379295E+03  0.54415584117E+03  0.58605054382E+03  0.00000000000E+00 0. -1.
          2    1    1    2  503    0 -0.95845146188E+02 -0.16305789544E+03 -0.83302622345E+03  0.85422880908E+03  0.00000000000E+00 0. -1.
<mgrwt>
<rscale>  0 0.18361172E+03</rscale>
<asrwt>0</asrwt>
<pdfrwt beam="1">  1        2 0.10600766E+00 0.17824445E+03</pdfrwt>
<pdfrwt beam="2">  1        2 0.14253813E+00 0.18914061E+03</pdfrwt>
<totfact> 0.20046176E+02</totfact>
</mgrwt>
</event>
<event>
 7    1  0.3113151E-004  0.6747814E+02  0.7546771E-02  0.1462732E+00
         -3   -1    0    0    0  501 -0.00000000000E+00  0.00000000000E+00  0.92535390520E+02  0.92535390520E+02  0.00000000000E+00 0.  1.
          1   -1    0    0  503    0  0.00000000000E+00 -0.00000000000E+00 -0.72256237633E+03  0.72256237633E+03  0.00000000000E+00 0. -1.
         25    2    1    2    0    0  0.67746156889E+02  0.22307136114E+02 -0.45770687387E+02  0.15102093579E+03  0.12500086850E+03 0.  0.
          4    1    3    3  502    0 -0.36037831058E+02 -0.99581911301E+00 -0.24321032977E+01  0.36155842536E+02  0.12700000000E+01 0. -1.
         -4    1    3    3    0  502  0.10378398795E+03  0.23302955227E+02 -0.43338584089E+02  0.11486509325E+03  0.12700000000E+01 0. -1.
          1    1    1    2  503    0 -0.66817989258E+02  0.10297154286E+02 -0.61532659182E+03  0.61902947399E+03  0.00000000000E+00 0. -1.
         -3    1    1    2    0  501 -0.92816763149E+00 -0.32604290400E+02  0.31070293393E+02  0.45047357072E+02  0.00000000000E+00 0.  1.
<mgrwt>
<rscale>  0 0.46914476E+02</rscale>
<asrwt>0</asrwt>
<pdfrwt beam="2">  1        1 0.11116344E+00 0.67478138E+02</pdfrwt>
<pdfrwt beam="1">  1       -3 0.14236214E-01 0.32617499E+02</pdfrwt>
<totfact> 0.51041989E+02</totfact>
</mgrwt>
</event>
<event>
 7    1  0.3113151E-004  0.9432304E+02  0.7546771E-02  0.1417341E+00
          3   -1    0    0  502    0  0.00000000000E+00  0.00000000000E+00  0.31368490557E+02  0.31368490557E+02  0.00000000000E+00 0. -1.
          3   -1    0    0  503    0 -0.00000000000E+00 -0.00000000000E+00 -0.24656160122E+04  0.24656160122E+04  0.00000000000E+00 0. -1.
         25    2    1    2    0    0  0.24245662190E+01  0.64840975546E+02 -0.11110365592E+04  0.11199282400E+04  0.12500718526E+03 0.  0.
          4    1    3    3  501    0  0.58389750107E+01 -0.18686702802E+02 -0.70991641069E+03  0.71018744677E+03  0.12700000000E+01 0. -1.
         -4    1    3    3    0  501 -0.34144087917E+01  0.83527678348E+02 -0.40112014850E+03  0.40974079327E+03  0.12700000000E+01 0. -1.
          3    1    1    2  502    0 -0.13331667529E+02 -0.95731321060E+02 -0.60730477657E+02  0.11415082176E+03  0.00000000000E+00 0. -1.
          3    1    1    2  503    0  0.10907101310E+02  0.30890345514E+02 -0.12624804848E+04  0.12629054410E+04  0.00000000000E+00 0. -1.
<mgrwt>
<rscale>  0 0.55587464E+02</rscale>
<asrwt>0</asrwt>
<pdfrwt beam="1">  1        3 0.48259230E-02 0.94323037E+02</pdfrwt>
<pdfrwt beam="2">  1        3 0.37932543E+00 0.32759400E+02</pdfrwt>
<totfact> 0.11638546E+01</totfact>
</mgrwt>
</event>
<event>
 7    1  0.3113151E-004  0.6404271E+02  0.7546771E-02  0.1386380E+00
          2   -1    0    0  502    0  0.00000000000E+00  0.00000000000E+00  0.17868556411E+03  0.17868556411E+03  0.00000000000E+00 0. -1.
          1   -1    0    0  503    0 -0.00000000000E+00 -0.00000000000E+00 -0.16844082751E+03  0.16844082751E+03  0.00000000000E+00 0. -1.
         25    2    1    2    0    0  0.60728375409E+02  0.17072100341E+02  0.19813898984E+02  0.14141094689E+03  0.12500029247E+03 0.  0.
          4    1    3    3  501    0 -0.32945818987E+01 -0.82245516660E+01 -0.45582069174E+02  0.46452507469E+02  0.12700000000E+01 0. -1.
         -4    1    3    3    0  501  0.64022957308E+02  0.25296652007E+02  0.65395968158E+02  0.94958439417E+02  0.12700000000E+01 0. -1.
          2    1    1    2  502    0 -0.17679745668E+02 -0.64488173401E+02  0.74450525781E+02  0.10007086841E+03  0.00000000000E+00 0. -1.
          1    1    1    2  503    0 -0.43048629741E+02  0.47416073061E+02 -0.84019688167E+02  0.10564457632E+03  0.00000000000E+00 0. -1.
<mgrwt>
<rscale>  0 0.62815975E+02</rscale>
<asrwt>0</asrwt>
<pdfrwt beam="1">  1        2 0.27490087E-01 0.61612740E+02</pdfrwt>
<pdfrwt beam="2">  1        1 0.25913973E-01 0.64042708E+02</pdfrwt>
<totfact> 0.44530028E+03</totfact>
</mgrwt>
</event>
<event>
 7    1  0.3113151E-004  0.1123286E+03  0.7546771E-02  0.1285939E+00
          2   -1    0    0  502    0  0.00000000000E+00  0.00000000000E+00  0.88102621057E+03  0.88102621057E+03  0.00000000000E+00 0. -1.
          1   -1    0    0  503    0 -0.00000000000E+00 -0.00000000000E+00 -0.54228565826E+03  0.54228565826E+03  0.00000000000E+00 0. -1.
         25    2    1    2    0    0 -0.16181067110E+03  0.98214673792E+02 -0.87802340676E+02  0.24323338354E+03  0.12499764961E+03 0.  0.
          4    1    3    3  501    0 -0.91088317613E+01  0.70292546820E+02 -0.18748884553E+02  0.73329029221E+02  0.12700000000E+01 0.  1.
         -4    1    3    3    0  501 -0.15270183934E+03  0.27922126971E+02 -0.69053456123E+02  0.16990435431E+03  0.12700000000E+01 0.  1.
          2    1    1    2  502    0  0.70108204873E+02 -0.46978936718E+02  0.79370815764E+03  0.79818219749E+03  0.00000000000E+00 0. -1.
          1    1    1    2  503    0  0.91702466228E+02 -0.51235737073E+02 -0.36716526466E+03  0.38189628780E+03  0.00000000000E+00 0. -1.
<mgrwt>
<rscale>  0 0.97363997E+02</rscale>
<asrwt>0</asrwt>
<pdfrwt beam="1">  1        2 0.13554249E+00 0.84393014E+02</pdfrwt>
<pdfrwt beam="2">  1        1 0.83428563E-01 0.11232859E+03</pdfrwt>
<totfact> 0.18661045E+02</totfact>
</mgrwt>
</event>
<event>
 7    1  0.3113151E-004  0.1283232E+03  0.7546771E-02  0.1345984E+00
          2   -1    0    0  502    0  0.00000000000E+00  0.00000000000E+00  0.16530613026E+04  0.16530613026E+04  0.00000000000E+00 0. -1.
          2   -1    0    0  503    0 -0.00000000000E+00 -0.00000000000E+00 -0.50298190636E+03  0.50298190636E+03  0.00000000000E+00 0. -1.
         25    2    1    2    0    0  0.10625243282E+03 -0.72173212659E+02 -0.29843006208E+03  0.34811354361E+03  0.12499594068E+03 0.  0.
          4    1    3    3  501    0 -0.15659385439E+02  0.12438330841E+02 -0.90283737597E+02  0.92480779630E+02  0.12700000000E+01 0. -1.
         -4    1    3    3    0  501  0.12191181826E+03 -0.84611543500E+02 -0.20814632449E+03  0.25563276398E+03  0.12700000000E+01 0. -1.
          2    1    1    2  502    0 -0.76391036106E+02  0.10317661387E+03  0.16230704489E+04  0.16281396396E+04  0.00000000000E+00 0. -1.
          2    1    1    2  503    0 -0.29861396714E+02 -0.31003401210E+02 -0.17456099060E+03  0.17979002569E+03  0.00000000000E+00 0. -1.
<mgrwt>
<rscale>  0 0.74321825E+02</rscale>
<asrwt>0</asrwt>
<pdfrwt beam="1">  1        2 0.25431712E+00 0.12832318E+03</pdfrwt>
<pdfrwt beam="2">  1        2 0.77381833E-01 0.43045486E+02</pdfrwt>
<totfact> 0.11941811E+02</totfact>
</mgrwt>
</event>
<event>
 7    1  0.3113151E-004  0.6291589E+02  0.7546771E-02  0.1464638E+00
         -1   -1    0    0    0  501 -0.00000000000E+00  0.00000000000E+00  0.11981957162E+03  0.11981957162E+03  0.00000000000E+00 0.  1.
          2   -1    0    0  503    0  0.00000000000E+00 -0.00000000000E+00 -0.19866235936E+04  0.19866235936E+04  0.00000000000E+00 0. -1.
         25    2    1    2    0    0 -0.29434853597E+02 -0.85118446726E+02 -0.15907622735E+04  0.15982055546E+04  0.12499929321E+03 0.  0.
          4    1    3    3  502    0  0.43544180454E+02 -0.39947326135E+02 -0.39875578375E+03  0.40311248119E+03  0.12700000000E+01 0.  1.
         -4    1    3    3    0  502 -0.72979034050E+02 -0.45171120591E+02 -0.11920064898E+04  0.11950930734E+04  0.12700000000E+01 0.  1.
          2    1    1    2  503    0 -0.67867678638E+01  0.33830146365E+02 -0.38281705609E+03  0.38436888201E+03  0.00000000000E+00 0. -1.
         -1    1    1    2    0  501  0.36221621460E+02  0.51288300361E+02  0.10677530762E+03  0.12386872863E+03  0.00000000000E+00 0.  1.
<mgrwt>
<rscale>  0 0.46592509E+02</rscale>
<asrwt>0</asrwt>
<pdfrwt beam="2">  1        2 0.30563436E+00 0.34504188E+02</pdfrwt>
<pdfrwt beam="1">  1       -1 0.18433783E-01 0.62915894E+02</pdfrwt>
<totfact> 0.23664361E+02</totfact>
</mgrwt>
</event>
<event>
 7    1  0.3113151E-004  0.1025379E+03  0.7546771E-02  0.1293777E+00
          2   -1    0    0  503    0  0.00000000000E+00  0.00000000000E+00  0.31708111695E+04  0.31708111695E+04  0.00000000000E+00 0. -1.
         -3   -1    0    0    0  501 -0.00000000000E+00 -0.00000000000E+00 -0.69713203420E+02  0.69713203420E+02  0.00000000000E+00 0.  1.
         25    2    1    2    0    0 -0.13894110669E+03  0.92135102047E+01  0.51835669601E+03  0.55109852290E+03  0.12500559084E+03 0.  0.
          4    1    3    3  502    0 -0.45612214588E+02  0.62197042914E+02  0.17228696401E+03  0.18876799818E+03  0.12700000000E+01 0. -1.
         -4    1    3    3    0  502 -0.93328892104E+02 -0.52983532710E+02  0.34606973200E+03  0.36233052472E+03  0.12700000000E+01 0. -1.
          2    1    1    2  503    0  0.84424216558E+02  0.57178197307E+02  0.25998361070E+04  0.26018348483E+04  0.00000000000E+00 0. -1.
         -3    1    1    2    0  501  0.54516890134E+02 -0.66391707512E+02 -0.17094836912E+02  0.87591001737E+02  0.00000000000E+00 0.  1.
<mgrwt>
<rscale>  0 0.93854579E+02</rscale>
<asrwt>0</asrwt>
<pdfrwt beam="1">  1        2 0.48781699E+00 0.10253785E+03</pdfrwt>
<pdfrwt beam="2">  1       -3 0.10725111E-01 0.85906636E+02</pdfrwt>
<totfact> 0.71414389E+01</totfact>
</mgrwt>
</event>
<event>
 7    1  0.3113151E-004  0.6164301E+02  0.7546771E-02  0.1518924E+00
          1   -1    0    0  502    0  0.00000000000E+00  0.00000000000E+00  0.76506384293E+03  0.76506384293E+03  0.00000000000E+00 0. -1.
          1   -1    0    0  503    0 -0.00000000000E+00 -0.00000000000E+00 -0.12712358078E+04  0.12712358078E+04  0.00000000000E+00 0. -1.
         25    2    1    2    0    0 -0.20874942015E+02 -0.60042691190E+02 -0.67816528377E+02  0.15577727499E+03  0.12500635949E+03 0.  0.
          4    1    3    3  501    0  0.11672173526E+02  0.11648596010E+02 -0.74910609794E+02  0.76714677758E+02  0.12700000000E+01 0. -1.
         -4    1    3    3    0  501 -0.32547115541E+02 -0.71691287200E+02  0.70940814164E+01  0.79062597235E+02  0.12700000000E+01 0. -1.
          1    1    1    2  502    0 -0.32218983656E+01  0.61590865649E+02  0.71963859240E+03  0.72227662223E+03  0.00000000000E+00 0. -1.
          1    1    1    2  503    0  0.24096840380E+02 -0.15481744588E+01 -0.11579940289E+04  0.11582457535E+04  0.00000000000E+00 0. -1.
<mgrwt>
<rscale>  0 0.38580620E+02</rscale>
<asrwt>0</asrwt>
<pdfrwt beam="1">  1        1 0.11770213E+00 0.61643006E+02</pdfrwt>
<pdfrwt beam="2">  1        1 0.19557474E+00 0.24146523E+02</pdfrwt>
<totfact> 0.40073627E+01</totfact>
</mgrwt>
</event>
<event>
 7    1  0.3113151E-004  0.9555813E+02  0.7546771E-02  0.1466109E+00
          2   -1    0    0  503    0  0.00000000000E+00  0.00000000000E+00  0.89347000608E+03  0.89347000608E+03  0.00000000000E+00 0. -1.
          2   -1    0    0  502    0 -0.00000000000E+00 -0.00000000000E+00 -0.19298252829E+04  0.19298252829E+04  0.00000000000E+00 0.  1.
         25    2    1    2    0    0 -0.62422060141E+02 -0.48361356171E+02 -0.62713070700E+03  0.64432370142E+03  0.12499909674E+03 0.  0.
          4    1    3    3  501    0 -0.51937410658E+02 -0.85712337375E+02 -0.53568881914E+03  0.54498460827E+03  0.12700000000E+01 0.  1.
         -4    1    3    3    0  501 -0.10484649483E+02  0.37350981204E+02 -0.91441887864E+02  0.99339093150E+02  0.12700000000E+01 0.  1.
          2    1    1    2  502    0 -0.19086652991E+01 -0.22396898583E+02 -0.12914162370E+04  0.12916118462E+04  0.00000000000E+00 0.  1.
          2    1    1    2  503    0  0.64330725440E+02  0.70758254754E+02  0.88219166720E+03  0.88735974133E+03  0.00000000000E+00 0. -1.
<mgrwt>
<rscale>  0 0.46346124E+02</rscale>
<asrwt>0</asrwt>
<pdfrwt beam="1">  1        2 0.13745692E+00 0.95558129E+02</pdfrwt>
<pdfrwt beam="2">  1        2 0.29689620E+00 0.22478080E+02</pdfrwt>
<totfact> 0.53321629E+01</totfact>
</mgrwt>
</event>
<event>
 7    1  0.3113151E-004  0.4625041E+02  0.7546771E-02  0.1525613E+00
         -1   -1    0    0    0  501 -0.00000000000E+00  0.00000000000E+00  0.17637567349E+03  0.17637567349E+03  0.00000000000E+00 0.  1.
          1   -1    0    0  503    0  0.00000000000E+00 -0.00000000000E+00 -0.16482534978E+03  0.16482534978E+03  0.00000000000E+00 0. -1.
         25    2    1    2    0    0 -0.50001889820E+02 -0.12294363263E+02 -0.11418301118E+03  0.17696240867E+03  0.12500637458E+03 0.  0.
          4    1    3    3  502    0 -0.19659322375E+02 -0.56617031504E+02 -0.10714480985E+03  0.12277459180E+03  0.12700000000E+01 0. -1.
         -4    1    3    3    0  502 -0.30342567445E+02  0.44322668241E+02 -0.70382013300E+01  0.54187816870E+02  0.12700000000E+01 0. -1.
          1    1    1    2  503    0  0.29450580231E+02  0.35207500435E+02  0.13476345205E+02  0.47838443148E+02  0.00000000000E+00 0. -1.
         -1    1    1    2    0  501  0.20551309590E+02 -0.22913137171E+02  0.11225698969E+03  0.11640017146E+03  0.00000000000E+00 0.  1.
<mgrwt>
<rscale>  0 0.37730061E+02</rscale>
<asrwt>0</asrwt>
<pdfrwt beam="2">  1        1 0.25357746E-01 0.46250413E+02</pdfrwt>
<pdfrwt beam="1">  1       -1 0.27134719E-01 0.30779347E+02</pdfrwt>
<totfact> 0.20643508E+03</totfact>
</mgrwt>
</event>
<event>
 7    1  0.3113151E-004  0.8930556E+02  0.7546771E-02  0.1355219E+00
         -2   -1    0    0    0  501 -0.00000000000E+00  0.00000000000E+00  0.69531260648E+03  0.69531260648E+03  0.00000000000E+00 0.  1.
          2   -1    0    0  503    0  0.00000000000E+00 -0.00000000000E+00 -0.56063564686E+02  0.56063564686E+02  0.00000000000E+00 0.  1.
         25    2    1    2    0    0 -0.75370223262E+02 -0.13723632287E+01  0.21982118180E+03  0.26387258368E+03  0.12499933805E+03 0.  0.
          4    1    3    3  502    0 -0.69261337780E+02  0.50376543672E+02  0.91325194434E+02  0.12520716075E+03  0.12700000000E+01 0.  1.
         -4    1    3    3    0  502 -0.61088854820E+01 -0.51748906901E+02  0.12849598737E+03  0.13866542293E+03  0.12700000000E+01 0.  1.
          2    1    1    2  503    0 -0.48850022770E+00 -0.57168076992E+02 -0.10193398255E+00  0.57170254941E+02  0.00000000000E+00 0.  1.
         -2    1    1    2    0  501  0.75858723489E+02  0.58540440221E+02  0.41952979398E+03  0.43033333255E+03  0.00000000000E+00 0.  1.
<mgrwt>
<rscale>  0 0.71453577E+02</rscale>
<asrwt>0</asrwt>
<pdfrwt beam="2">  1        2 0.86251643E-02 0.57170164E+02</pdfrwt>
<pdfrwt beam="1">  1       -2 0.10697116E+00 0.89305561E+02</pdfrwt>
<totfact> 0.52967538E+02</totfact>
</mgrwt>
</event>
<event>
 7    1  0.3113151E-004  0.1008468E+03  0.7546771E-02  0.1385208E+00
         -1   -1    0    0    0  501 -0.00000000000E+00  0.00000000000E+00  0.18301619293E+04  0.18301619293E+04  0.00000000000E+00 0.  1.
          2   -1    0    0  503    0  0.00000000000E+00 -0.00000000000E+00 -0.87914517304E+03  0.87914517304E+03  0.00000000000E+00 0. -1.
         25    2    1    2    0    0 -0.47306625795E+02 -0.12467461878E+03  0.61986375840E+03  0.64624882026E+03  0.12499912521E+03 0.  0.
          4    1    3    3  502    0 -0.39436380023E+02 -0.14725838037E+03  0.58038268335E+03  0.60007160464E+03  0.12700000000E+01 0. -1.
         -4    1    3    3    0  502 -0.78702457722E+01  0.22583761590E+02  0.39481075044E+02  0.46177215623E+02  0.12700000000E+01 0. -1.
          2    1    1    2  503    0  0.24058016225E+02  0.31328167382E+02 -0.86356787408E+03  0.86447077184E+03  0.00000000000E+00 0. -1.
         -1    1    1    2    0  501  0.23248609570E+02  0.93346451396E+02  0.11947208720E+04  0.11985875102E+04  0.00000000000E+00 0.  1.
<mgrwt>
<rscale>  0 0.63114503E+02</rscale>
<asrwt>0</asrwt>
<pdfrwt beam="2">  1        2 0.13525310E+00 0.39499901E+02</pdfrwt>
<pdfrwt beam="1">  1       -1 0.28156337E+00 0.10084685E+03</pdfrwt>
<totfact> 0.22220396E+00</totfact>
</mgrwt>
</event>
<event>
 7    1  0.3113151E-004  0.2154448E+03  0.7546771E-02  0.1229491E+00
          2   -1    0    0  502    0  0.00000000000E+00  0.00000000000E+00  0.13853576021E+04  0.13853576021E+04  0.00000000000E+00 0. -1.
          1   -1    0    0  503    0 -0.00000000000E+00 -0.00000000000E+00 -0.13958340759E+04  0.13958340759E+04  0.00000000000E+00 0. -1.
         25    2    1    2    0    0  0.62133704059E+02  0.20163974051E+03 -0.22765013241E+03  0.33461723660E+03  0.12499972045E+03 0.  0.
          4    1    3    3  501    0 -0.34917560369E+02  0.38603573811E+02 -0.73913494096E+02  0.90411777123E+02  0.12700000000E+01 0. -1.
         -4    1    3    3    0  501  0.97051264428E+02  0.16303616670E+03 -0.15373663831E+03  0.24420545948E+03  0.12700000000E+01 0. -1.
          2    1    1    2  502    0  0.13398078841E+02 -0.21557939782E+03  0.13217744960E+04  0.13393064637E+04  0.00000000000E+00 0. -1.
          1    1    1    2  503    0 -0.75531782900E+02  0.13939657318E+02 -0.11046008375E+04  0.11072679777E+04  0.00000000000E+00 0. -1.
<mgrwt>
<rscale>  0 0.12863800E+03</rscale>
<asrwt>0</asrwt>
<pdfrwt beam="1">  1        2 0.21313194E+00 0.21544475E+03</pdfrwt>
<pdfrwt beam="2">  1        1 0.21474370E+00 0.76807319E+02</pdfrwt>
<totfact> 0.20693820E+01</totfact>
</mgrwt>
</event>
<event>
 7    1  0.3113151E-004  0.1008059E+03  0.7546771E-02  0.1287618E+00
         -1   -1    0    0    0  501 -0.00000000000E+00  0.00000000000E+00  0.82564438408E+03  0.82564438408E+03  0.00000000000E+00 0.  1.
          2   -1    0    0  503    0  0.00000000000E+00 -0.00000000000E+00 -0.12382624999E+03  0.12382624999E+03  0.00000000000E+00 0. -1.
         25    2    1    2    0    0  0.27271862987E+02  0.57361283571E+02  0.48643248971E+02  0.14840682297E+03  0.12499739225E+03 0.  0.
          4    1    3    3  502    0  0.57020989964E+02  0.14771137345E+02 -0.20082524998E+02  0.62245485823E+02  0.12700000000E+01 0. -1.
         -4    1    3    3    0  502 -0.29749126977E+02  0.42590146225E+02  0.68725773969E+02  0.86161337148E+02  0.12700000000E+01 0. -1.
          2    1    1    2  503    0 -0.87472773199E+02  0.30278860450E+02 -0.39235762743E+02  0.10053725936E+03  0.00000000000E+00 0. -1.
         -1    1    1    2    0  501  0.60200910212E+02 -0.87640144020E+02  0.69241064786E+03  0.70052655175E+03  0.00000000000E+00 0.  1.
<mgrwt>
<rscale>  0 0.96597677E+02</rscale>
<asrwt>0</asrwt>
<pdfrwt beam="2">  1        2 0.19050193E-01 0.92565088E+02</pdfrwt>
<pdfrwt beam="1">  1       -1 0.12702221E+00 0.10080595E+03</pdfrwt>
<totfact> 0.19720207E+02</totfact>
</mgrwt>
</event>
<event>
 7    1  0.3113151E-004  0.6252994E+02  0.7546771E-02  0.1408764E+00
          2   -1    0    0  503    0  0.00000000000E+00  0.00000000000E+00  0.35544801843E+04  0.35544801843E+04  0.00000000000E+00 0. -1.
         -2   -1    0    0    0  501 -0.00000000000E+00 -0.00000000000E+00 -0.61600126888E+01  0.61600126888E+01  0.00000000000E+00 0.  1.
         25    2    1    2    0    0  0.39195865224E+02 -0.82233755744E+02  0.13815658577E+04  0.13901972618E+04  0.12500200369E+03 0.  0.
          4    1    3    3  502    0 -0.76844010792E+01  0.31024904797E+02  0.26592005984E+03  0.26783705095E+03  0.12700000000E+01 0. -1.
         -4    1    3    3    0  502  0.46880266303E+02 -0.11325866054E+03  0.11156457979E+04  0.11223602108E+04  0.12700000000E+01 0. -1.
          2    1    1    2  503    0  0.86566162229E+01  0.59869501866E+02  0.16235498249E+04  0.16246763764E+04  0.00000000000E+00 0. -1.
         -2    1    1    2    0  501 -0.47852481447E+02  0.22364253878E+02  0.54320448898E+03  0.54576655877E+03  0.00000000000E+00 0.  1.
<mgrwt>
<rscale>  0 0.57470611E+02</rscale>
<asrwt>0</asrwt>
<pdfrwt beam="1">  1        2 0.54684147E+00 0.62529935E+02</pdfrwt>
<pdfrwt beam="2">  1       -2 0.94769710E-03 0.52820638E+02</pdfrwt>
<totfact> 0.21908409E+03</totfact>
</mgrwt>
</event>
<event>
 7    1  0.3113151E-004  0.2797147E+03  0.7546771E-02  0.1190314E+00
          2   -1    0    0  502    0  0.00000000000E+00  0.00000000000E+00  0.16721983363E+04  0.16721983363E+04  0.00000000000E+00 0. -1.
          2   -1    0    0  503    0 -0.00000000000E+00 -0.00000000000E+00 -0.14997119297E+04  0.14997119297E+04  0.00000000000E+00 0. -1.
         25    2    1    2    0    0 -0.54403819698E+02 -0.26893008658E+03 -0.28031348732E+02  0.30281311824E+03  0.12500744377E+03 0.  0.
          4    1    3    3  501    0 -0.49797831890E+02 -0.23843039367E+03  0.21417847673E+02  0.24451833017E+03  0.12700000000E+01 0.  1.
         -4    1    3    3    0  501 -0.46059878079E+01 -0.30499692905E+02 -0.49449196405E+02  0.58294788070E+02  0.12700000000E+01 0.  1.
          2    1    1    2  502    0 -0.86372371645E+02  0.24937034801E+02  0.15185957123E+04  0.15212544099E+04  0.00000000000E+00 0. -1.
          2    1    1    2  503    0  0.14077619134E+03  0.24399305178E+03 -0.13180779570E+04  0.13478427379E+04  0.00000000000E+00 0. -1.
<mgrwt>
<rscale>  0 0.15857618E+03</rscale>
<asrwt>0</asrwt>
<pdfrwt beam="1">  1        2 0.25726128E+00 0.89900180E+02</pdfrwt>
<pdfrwt beam="2">  1        2 0.23072491E+00 0.27971472E+03</pdfrwt>
<totfact> 0.26030477E+01</totfact>
</mgrwt>
</event>
<event>
 7    1  0.3113151E-004  0.5075856E+02  0.7546771E-02  0.1515804E+00
          1   -1    0    0  503    0  0.00000000000E+00  0.00000000000E+00  0.27835602689E+04  0.27835602689E+04  0.00000000000E+00 0. -1.
         -2   -1    0    0    0  501 -0.00000000000E+00 -0.00000000000E+00 -0.45984280434E+01  0.45984280434E+01  0.00000000000E+00 0.  1.
         25    2    1    2    0    0 -0.23544206193E+02 -0.43526086095E+02  0.16227393364E+04  0.16282984959E+04  0.12499675136E+03 0.  0.
          4    1    3    3  502    0  0.47244177052E+01  0.21815929554E+02  0.61528725975E+02  0.65464890782E+02  0.12700000000E+01 0. -1.
         -4    1    3    3    0  502 -0.28268623898E+02 -0.65342015649E+02  0.15612106104E+04  0.15628336051E+04  0.12700000000E+01 0. -1.
          1    1    1    2  503    0  0.28463131100E+02 -0.93029278266E+01  0.68610030672E+03  0.68675346754E+03  0.00000000000E+00 0. -1.
         -2    1    1    2    0  501 -0.49189249074E+01  0.52829013922E+02  0.47012219773E+03  0.47310673355E+03  0.00000000000E+00 0.  1.
<mgrwt>
<rscale>  0 0.38986636E+02</rscale>
<asrwt>0</asrwt>
<pdfrwt beam="1">  1        1 0.42823869E+00 0.29944854E+02</pdfrwt>
<pdfrwt beam="2">  1       -2 0.70745269E-03 0.50758562E+02</pdfrwt>
<totfact> 0.34425333E+03</totfact>
</mgrwt>
</event>
<event>
 7    1  0.3113151E-004  0.1023780E+03  0.7546771E-02  0.1416912E+00
          1   -1    0    0  503    0  0.00000000000E+00  0.00000000000E+00  0.67628881924E+03  0.67628881924E+03  0.00000000000E+00 0. -1.
         -2   -1    0    0    0  501 -0.00000000000E+00 -0.00000000000E+00 -0.38675229693E+02  0.38675229693E+02  0.00000000000E+00 0.  1.
         25    2    1    2    0    0 -0.12148452140E+03  0.10389456479E+02  0.30136421036E+03  0.34829865132E+03  0.12500053390E+03 0.  0.
          4    1    3    3  502    0  0.62182350465E+01  0.37209422837E+02  0.34059783034E+02  0.50841806766E+02  0.12700000000E+01 0. -1.
         -4    1    3    3    0  502 -0.12770275645E+03 -0.26819966358E+02  0.26730442733E+03  0.29745684455E+03  0.12700000000E+01 0. -1.
          1    1    1    2  503    0  0.93913082337E+02 -0.22912053621E+02  0.31544749576E+03  0.32992688860E+03  0.00000000000E+00 0. -1.
         -2    1    1    2    0  501  0.27571439064E+02  0.12522597143E+02  0.20801883419E+02  0.36738509020E+02  0.00000000000E+00 0.  1.
<mgrwt>
<rscale>  0 0.55679551E+02</rscale>
<asrwt>0</asrwt>
<pdfrwt beam="1">  1        1 0.10404442E+00 0.10237805E+03</pdfrwt>
<pdfrwt beam="2">  1       -2 0.59500358E-02 0.30282003E+02</pdfrwt>
<totfact> 0.33079422E+03</totfact>
</mgrwt>
</event>
<event>
 7    1  0.3113151E-004  0.9279152E+02  0.7546771E-02  0.1373715E+00
          2   -1    0    0  502    0  0.00000000000E+00  0.00000000000E+00  0.24182874631E+04  0.24182874631E+04  0.00000000000E+00 0. -1.
          1   -1    0    0  503    0 -0.00000000000E+00 -0.00000000000E+00 -0.10181271868E+02  0.10181271868E+02  0.00000000000E+00 0. -1.
         25    2    1    2    0    0  0.14171478991E+02 -0.76010339237E+02  0.87758736173E+03  0.88981071110E+03  0.12500048653E+03 0.  0.
          4    1    3    3  501    0  0.15913571569E+02 -0.68574107473E+02  0.87910579758E+03  0.88192078228E+03  0.12700000000E+01 0. -1.
         -4    1    3    3    0  501 -0.17420925779E+01 -0.74362317635E+01 -0.15184358496E+01  0.78899288222E+01  0.12700000000E+01 0. -1.
          2    1    1    2  502    0 -0.61222977595E+02  0.79064210533E+02  0.12681285355E+04  0.12720650081E+04  0.00000000000E+00 0. -1.
          1    1    1    2  503    0  0.47051498604E+02 -0.30538712967E+01  0.26239029396E+03  0.26659301570E+03  0.00000000000E+00 0. -1.
<mgrwt>
<rscale>  0 0.66145043E+02</rscale>
<asrwt>0</asrwt>
<pdfrwt beam="1">  1        2 0.37204377E+00 0.92791524E+02</pdfrwt>
<pdfrwt beam="2">  1        1 0.15663514E-02 0.47150500E+02</pdfrwt>
<totfact> 0.46386809E+03</totfact>
</mgrwt>
</event>
<event>
 7    1  0.3113151E-004  0.1002472E+03  0.7546771E-02  0.1384990E+00
          1   -1    0    0  503    0  0.00000000000E+00  0.00000000000E+00  0.12015654059E+04  0.12015654059E+04  0.00000000000E+00 0.  1.
         -2   -1    0    0    0  501 -0.00000000000E+00 -0.00000000000E+00 -0.25853617631E+03  0.25853617631E+03  0.00000000000E+00 0.  1.
         25    2    1    2    0    0 -0.74651398945E+02 -0.11081155297E+02  0.18709280821E+02  0.14720719070E+03  0.12499718572E+03 0.  0.
          4    1    3    3  502    0 -0.45963020518E+02  0.45094709806E+02  0.45303476340E+02  0.78741031083E+02  0.12700000000E+01 0. -1.
         -4    1    3    3    0  502 -0.28688378427E+02 -0.56175865103E+02 -0.26594195519E+02  0.68466159613E+02  0.12700000000E+01 0. -1.
          1    1    1    2  503    0 -0.29125797816E+02  0.27133325822E+02  0.11040327053E+04  0.11047500821E+04  0.00000000000E+00 0.  1.
         -2    1    1    2    0  501  0.10377719676E+03 -0.16052170525E+02 -0.17971275647E+03  0.20814430951E+03  0.00000000000E+00 0.  1.
<mgrwt>
<rscale>  0 0.63170035E+02</rscale>
<asrwt>0</asrwt>
<pdfrwt beam="1">  1        1 0.18485621E+00 0.39806149E+02</pdfrwt>
<pdfrwt beam="2">  1       -2 0.39774797E-01 0.10024716E+03</pdfrwt>
<totfact> 0.70644648E+01</totfact>
</mgrwt>
</event>
<event>
 7    1  0.3113151E-004  0.2173058E+03  0.7546771E-02  0.1372227E+00
          2   -1    0    0  503    0  0.00000000000E+00  0.00000000000E+00  0.46731322813E+03  0.46731322813E+03  0.00000000000E+00 0. -1.
          2   -1    0    0  502    0 -0.00000000000E+00 -0.00000000000E+00 -0.15029679779E+04  0.15029679779E+04  0.00000000000E+00 0. -1.
         25    2    1    2    0    0 -0.15948671299E+03 -0.11733757010E+03  0.77925763525E+02  0.24678056365E+03  0.12499641994E+03 0.  0.
          4    1    3    3  501    0 -0.10919668403E+03 -0.87979795926E+01  0.62575125807E+02  0.12616885320E+03  0.12700000000E+01 0.  1.
         -4    1    3    3    0  501 -0.50290028965E+02 -0.10853959051E+03  0.15350637717E+02  0.12061171046E+03  0.12700000000E+01 0.  1.
          2    1    1    2  502    0  0.17693931307E+03  0.12786554124E+03 -0.14097893244E+04  0.14265914118E+04  0.00000000000E+00 0. -1.
          2    1    1    2  503    0 -0.17452600078E+02 -0.10527971141E+02  0.29620881108E+03  0.29690923055E+03  0.00000000000E+00 0. -1.
<mgrwt>
<rscale>  0 0.66551902E+02</rscale>
<asrwt>0</asrwt>
<pdfrwt beam="1">  1        2 0.71894342E-01 0.20382135E+02</pdfrwt>
<pdfrwt beam="2">  1        2 0.23122585E+00 0.21730577E+03</pdfrwt>
<totfact> 0.14850117E+02</totfact>
</mgrwt>
</event>
<event>
 7    1  0.3237497E-004  0.1221224E+03  0.7546771E-02  0.1375745E+00
         -2   -1    0    0    0  501 -0.00000000000E+00  0.00000000000E+00  0.57913951308E+02  0.57913951308E+02  0.00000000000E+00 0.  1.
          1   -1    0    0  503    0  0.00000000000E+00 -0.00000000000E+00 -0.50750589817E+03  0.50750589817E+03  0.00000000000E+00 0. -1.
         25    2    1    2    0    0  0.19061454224E+02  0.13450814865E+03 -0.24750766333E+03  0.30877456494E+03  0.12500362979E+03 0.  0.
          4    1    3    3  502    0  0.12574345364E+01  0.11065705218E+02  0.14657328130E+02  0.18452131082E+02  0.12700000000E+01 0. -1.
         -4    1    3    3    0  502  0.17804019687E+02  0.12344244343E+03 -0.26216499146E+03  0.29032243386E+03  0.12700000000E+01 0. -1.
          1    1    1    2  503    0 -0.42131783744E+02 -0.10787837876E+03 -0.18301925946E+03  0.21658458195E+03  0.00000000000E+00 0. -1.
         -2    1    1    2    0  501  0.23070329520E+02 -0.26629769888E+02 -0.19065024072E+02  0.40060702582E+02  0.00000000000E+00 0.  1.
<mgrwt>
<rscale>  0 0.65595544E+02</rscale>
<asrwt>0</asrwt>
<pdfrwt beam="2">  1        1 0.78077831E-01 0.12212244E+03</pdfrwt>
<pdfrwt beam="1">  1       -2 0.89098386E-02 0.35233290E+02</pdfrwt>
<totfact> 0.27163105E+03</totfact>
</mgrwt>
</event>
<event>
 7    1  0.3113151E-004  0.1309831E+03  0.7546771E-02  0.1337563E+00
          2   -1    0    0  502    0  0.00000000000E+00  0.00000000000E+00  0.99220324063E+03  0.99220324063E+03  0.00000000000E+00 0. -1.
          1   -1    0    0  503    0 -0.00000000000E+00 -0.00000000000E+00 -0.19502401429E+03  0.19502401429E+03  0.00000000000E+00 0. -1.
         25    2    1    2    0    0 -0.89363966125E+02 -0.13951182166E+02 -0.83711380602E+02  0.17553639302E+03  0.12499950442E+03 0.  0.
          4    1    3    3  501    0 -0.10551384990E+03 -0.98047243237E+01 -0.17705018351E+02  0.10744480311E+03  0.12700000000E+01 0.  1.
         -4    1    3    3    0  501  0.16149883777E+02 -0.41464578423E+01 -0.66006362251E+02  0.68091589909E+02  0.12700000000E+01 0.  1.
          2    1    1    2  502    0  0.12614879366E+03  0.40481020067E+02  0.93314288368E+03  0.94250086074E+03  0.00000000000E+00 0. -1.
          1    1    1    2  503    0 -0.36784827534E+02 -0.26529837901E+02 -0.52252276748E+02  0.69190001164E+02  0.00000000000E+00 0. -1.
<mgrwt>
<rscale>  0 0.77075052E+02</rscale>
<asrwt>0</asrwt>
<pdfrwt beam="1">  1        2 0.15264665E+00 0.13098307E+03</pdfrwt>
<pdfrwt beam="2">  1        1 0.30003695E-01 0.45353675E+02</pdfrwt>
<totfact> 0.54976184E+02</totfact>
</mgrwt>
</event>
<event>
 7    1  0.3113151E-004  0.6067308E+03  0.7546771E-02  0.9891539E-01
         -2   -1    0    0    0  501 -0.00000000000E+00  0.00000000000E+00  0.65050345819E+02  0.65050345819E+02  0.00000000000E+00 0.  1.
          1   -1    0    0  503    0  0.00000000000E+00 -0.00000000000E+00 -0.14147592710E+04  0.14147592710E+04  0.00000000000E+00 0. -1.
         25    2    1    2    0    0  0.20277108119E+03  0.59229597648E+02 -0.22667593849E+03  0.33411178220E+03  0.12499778122E+03 0.  0.
          4    1    3    3  502    0  0.17681909307E+03  0.15080289011E+01 -0.19530907436E+03  0.26346634179E+03  0.12700000000E+01 0.  1.
         -4    1    3    3    0  502  0.25951988115E+02  0.57721568747E+02 -0.31366864133E+02  0.70645440413E+02  0.12700000000E+01 0.  1.
          1    1    1    2  503    0 -0.75774033421E+02  0.28399861016E+01 -0.56382819357E+03  0.56890421120E+03  0.00000000000E+00 0. -1.
         -2    1    1    2    0  501 -0.12699704777E+03 -0.62069583749E+02 -0.55920479315E+03  0.57679362345E+03  0.00000000000E+00 0.  1.
<mgrwt>
<rscale>  0 0.60673085E+03</rscale>
<asrwt>0</asrwt>
<pdfrwt beam="2">  1        1 0.21765528E+00 0.60673085E+03</pdfrwt>
<pdfrwt beam="1">  1       -2 0.10007745E-01 0.60673085E+03</pdfrwt>
<totfact> 0.46339028E+02</totfact>
</mgrwt>
</event>
<event>
 7    1  0.3113151E-004  0.8991170E+02  0.7546771E-02  0.1385423E+00
          2   -1    0    0  503    0  0.00000000000E+00  0.00000000000E+00  0.18993713804E+04  0.18993713804E+04  0.00000000000E+00 0. -1.
         -1   -1    0    0    0  501 -0.00000000000E+00 -0.00000000000E+00 -0.26076756041E+02  0.26076756041E+02  0.00000000000E+00 0.  1.
         25    2    1    2    0    0  0.84824974548E+01 -0.50936214576E+02  0.86682747845E+03  0.87731475379E+03  0.12499939643E+03 0.  0.
          4    1    3    3  502    0 -0.56466270145E+02 -0.16646262989E+02  0.29778212650E+03  0.30354792949E+03  0.12700000000E+01 0.  1.
         -4    1    3    3    0  502  0.64948767600E+02 -0.34289951587E+02  0.56904535195E+03  0.57376682430E+03  0.12700000000E+01 0.  1.
          2    1    1    2  503    0 -0.57383313326E+01 -0.43853053215E+02  0.91601899986E+03  0.91708605203E+03  0.00000000000E+00 0. -1.
         -1    1    1    2    0  501 -0.27441661221E+01  0.94789267792E+02  0.90448146016E+02  0.13104733059E+03  0.00000000000E+00 0.  1.
<mgrwt>
<rscale>  0 0.63059621E+02</rscale>
<asrwt>0</asrwt>
<pdfrwt beam="1">  1        2 0.29221087E+00 0.44226900E+02</pdfrwt>
<pdfrwt beam="2">  1       -1 0.40118101E-02 0.89911700E+02</pdfrwt>
<totfact> 0.25420167E+03</totfact>
</mgrwt>
</event>
<event>
 7    1  0.3113151E-004  0.8923407E+02  0.7546771E-02  0.1451136E+00
          1   -1    0    0  503    0 -0.00000000000E+00  0.00000000000E+00  0.67450430335E+02  0.67450430335E+02  0.00000000000E+00 0. -1.
          2   -1    0    0  502    0  0.00000000000E+00 -0.00000000000E+00 -0.25535901503E+04  0.25535901503E+04  0.00000000000E+00 0. -1.
         25    2    1    2    0    0  0.43404529435E+02  0.87775851456E+02 -0.16974812921E+03  0.23243851033E+03  0.12499872175E+03 0.  0.
          4    1    3    3  501    0  0.35386877331E+02 -0.56770322830E+01  0.28725497180E+01  0.35976717814E+02  0.12700000000E+01 0. -1.
         -4    1    3    3    0  501  0.80176521040E+01  0.93452883739E+02 -0.17262067893E+03  0.19646179252E+03  0.12700000000E+01 0. -1.
          2    1    1    2  502    0 -0.59511962042E+02 -0.66303228136E+02 -0.23465427814E+04  0.23482335524E+04  0.00000000000E+00 0. -1.
          1    1    1    2  503    0  0.16107432608E+02 -0.21472623321E+02  0.30151190667E+02  0.40368517883E+02  0.00000000000E+00 0. -1.
<mgrwt>
<rscale>  0 0.48941502E+02</rscale>
<asrwt>0</asrwt>
<pdfrwt beam="2">  1        2 0.39285997E+00 0.89234066E+02</pdfrwt>
<pdfrwt beam="1">  1        1 0.10376991E-01 0.26842558E+02</pdfrwt>
<totfact> 0.30885347E+02</totfact>
</mgrwt>
</event>
<event>
 7    1  0.3113151E-004  0.6809568E+02  0.7546771E-02  0.1432210E+00
         -1   -1    0    0    0  501 -0.00000000000E+00  0.00000000000E+00  0.12131505484E+04  0.12131505484E+04  0.00000000000E+00 0.  1.
          2   -1    0    0  503    0  0.00000000000E+00 -0.00000000000E+00 -0.22033708750E+04  0.22033708750E+04  0.00000000000E+00 0. -1.
         25    2    1    2    0    0  0.21395937696E+02 -0.96261343027E+02  0.24372715850E+01  0.15923361454E+03  0.12500148557E+03 0.  0.
          4    1    3    3  502    0 -0.47623548008E+02 -0.10421568360E+02  0.52159193511E+01  0.49045184541E+02  0.12700000000E+01 0. -1.
         -4    1    3    3    0  502  0.69019485705E+02 -0.85839774668E+02 -0.27786477661E+01  0.11018843000E+03  0.12700000000E+01 0. -1.
          2    1    1    2  503    0  0.13519064460E+02  0.38182808748E+02 -0.21237655230E+04  0.21241517575E+04  0.00000000000E+00 0. -1.
         -1    1    1    2    0  501 -0.34915002157E+02  0.58078534279E+02  0.11311079248E+04  0.11331360514E+04  0.00000000000E+00 0.  1.
<mgrwt>
<rscale>  0 0.52519012E+02</rscale>
<asrwt>0</asrwt>
<pdfrwt beam="2">  1        2 0.33898013E+00 0.40505456E+02</pdfrwt>
<pdfrwt beam="1">  1       -1 0.18663855E+00 0.68095682E+02</pdfrwt>
<totfact> 0.19414656E+00</totfact>
</mgrwt>
</event>
<event>
 7    1  0.3113151E-004  0.6142579E+02  0.7546771E-02  0.1455194E+00
          1   -1    0    0  503    0 -0.00000000000E+00  0.00000000000E+00  0.20492844060E+03  0.20492844060E+03  0.00000000000E+00 0. -1.
          2   -1    0    0  502    0  0.00000000000E+00 -0.00000000000E+00 -0.93558947032E+03  0.93558947032E+03  0.00000000000E+00 0. -1.
         25    2    1    2    0    0  0.40706563054E+02 -0.10207979573E+02 -0.28381844919E+03  0.31294470103E+03  0.12498098526E+03 0.  0.
          4    1    3    3  501    0  0.71361269940E+02  0.16953544758E+02 -0.96615617096E+02  0.12130970239E+03  0.12700000000E+01 0. -1.
         -4    1    3    3    0  501 -0.30654706886E+02 -0.27161524331E+02 -0.18720283209E+03  0.19163499863E+03  0.12700000000E+01 0. -1.
          2    1    1    2  502    0  0.16381816861E+02  0.34122317668E+02 -0.63159520216E+03  0.63272837448E+03  0.00000000000E+00 0. -1.
          1    1    1    2  503    0 -0.57088379915E+02 -0.23914338095E+02  0.18475262163E+03  0.19484483541E+03  0.00000000000E+00 0. -1.
<mgrwt>
<rscale>  0 0.48218526E+02</rscale>
<asrwt>0</asrwt>
<pdfrwt beam="2">  1        2 0.14393685E+00 0.37850977E+02</pdfrwt>
<pdfrwt beam="1">  1        1 0.31527451E-01 0.61425793E+02</pdfrwt>
<totfact> 0.59885428E+02</totfact>
</mgrwt>
</event>
<event>
 7    1  0.3113151E-004  0.1922648E+03  0.7546771E-02  0.1291672E+00
         -1   -1    0    0    0  501 -0.00000000000E+00  0.00000000000E+00  0.11068595703E+03  0.11068595703E+03  0.00000000000E+00 0. -1.
          2   -1    0    0  503    0  0.00000000000E+00 -0.00000000000E+00 -0.36146021027E+04  0.36146021027E+04  0.00000000000E+00 0.  1.
         25    2    1    2    0    0  0.13091998632E+03  0.93501120892E+02 -0.10194257513E+04  0.10395842476E+04  0.12499617192E+03 0.  0.
          4    1    3    3  502    0  0.48279660606E+02  0.97589585485E+02 -0.74618476640E+03  0.75408750906E+03  0.12700000000E+01 0. -1.
         -4    1    3    3    0  502  0.82640325718E+02 -0.40884645936E+01 -0.27324098491E+03  0.28549673853E+03  0.12700000000E+01 0. -1.
          2    1    1    2  503    0 -0.17619464062E+03 -0.10504581282E+03 -0.25753648143E+04  0.25835214535E+04  0.00000000000E+00 0.  1.
         -1    1    1    2    0  501  0.45274654296E+02  0.11544691932E+02  0.90874419874E+02  0.10218235866E+03  0.00000000000E+00 0. -1.
<mgrwt>
<rscale>  0 0.94780062E+02</rscale>
<asrwt>0</asrwt>
<pdfrwt beam="2">  1        2 0.55609269E+00 0.19226477E+03</pdfrwt>
<pdfrwt beam="1">  1       -1 0.17028607E-01 0.46723380E+02</pdfrwt>
<totfact> 0.25160618E+01</totfact>
</mgrwt>
</event>
<event>
 7    1  0.3113151E-004  0.5520316E+02  0.7546771E-02  0.1480652E+00
          2   -1    0    0  503    0  0.00000000000E+00  0.00000000000E+00  0.26557396846E+04  0.26557396846E+04  0.00000000000E+00 0. -1.
          2   -1    0    0  502    0 -0.00000000000E+00 -0.00000000000E+00 -0.14349390605E+04  0.14349390605E+04  0.00000000000E+00 0. -1.
         25    2    1    2    0    0 -0.46443908289E+02 -0.23042322433E+01  0.79787786700E+03  0.80894799842E+03  0.12500170956E+03 0.  0.
          4    1    3    3  501    0  0.99453547035E+01 -0.54443540450E+02  0.28189355140E+03  0.28727790795E+03  0.12700000000E+01 0. -1.
         -4    1    3    3    0  501 -0.56389262992E+02  0.52139308207E+02  0.51598431560E+03  0.52167009047E+03  0.12700000000E+01 0. -1.
          2    1    1    2  502    0  0.44477866440E+02 -0.32718674946E+02 -0.14287045864E+04  0.14297711661E+04  0.00000000000E+00 0. -1.
          2    1    1    2  503    0  0.19660418489E+01  0.35022907189E+02  0.18516273435E+04  0.18519595807E+04  0.00000000000E+00 0. -1.
<mgrwt>
<rscale>  0 0.44004760E+02</rscale>
<asrwt>0</asrwt>
<pdfrwt beam="1">  1        2 0.40857533E+00 0.35078047E+02</pdfrwt>
<pdfrwt beam="2">  1        2 0.22075986E+00 0.55203158E+02</pdfrwt>
<totfact> 0.11597635E+01</totfact>
</mgrwt>
</event>
<event>
 7    1  0.3113151E-004  0.6242101E+02  0.7546771E-02  0.1439768E+00
          2   -1    0    0  503    0  0.00000000000E+00  0.00000000000E+00  0.21613356941E+03  0.21613356941E+03  0.00000000000E+00 0. -1.
         -1   -1    0    0    0  501 -0.00000000000E+00 -0.00000000000E+00 -0.59523181986E+03  0.59523181986E+03  0.00000000000E+00 0.  1.
         25    2    1    2    0    0  0.21059511755E+02 -0.74382926334E+01 -0.11430123391E+03  0.17084409692E+03  0.12499640854E+03 0.  0.
          4    1    3    3  502    0  0.31256895089E+02  0.51098450573E+02 -0.28188809275E+02  0.66213797731E+02  0.12700000000E+01 0. -1.
         -4    1    3    3    0  502 -0.10197383334E+02 -0.58536743207E+02 -0.86112424634E+02  0.10463029919E+03  0.12700000000E+01 0. -1.
          2    1    1    2  503    0 -0.58324802290E+02  0.26257358583E+02  0.18141494585E+03  0.19236063532E+03  0.00000000000E+00 0. -1.
         -1    1    1    2    0  501  0.37265290534E+02 -0.18819065949E+02 -0.44621196240E+03  0.44816065703E+03  0.00000000000E+00 0.  1.
<mgrwt>
<rscale>  0 0.51048264E+02</rscale>
<asrwt>0</asrwt>
<pdfrwt beam="1">  1        2 0.33251318E-01 0.62421014E+02</pdfrwt>
<pdfrwt beam="2">  1       -1 0.91574127E-01 0.41747564E+02</pdfrwt>
<totfact> 0.22941499E+02</totfact>
</mgrwt>
</event>
<event>
 7    1  0.3113151E-004  0.8911065E+02  0.7546771E-02  0.1459375E+00
          1   -1    0    0  503    0  0.00000000000E+00  0.00000000000E+00  0.18184443963E+04  0.18184443963E+04  0.00000000000E+00 0. -1.
         -2   -1    0    0    0  501 -0.00000000000E+00 -0.00000000000E+00 -0.11115430399E+02  0.11115430399E+02  0.00000000000E+00 0.  1.
         25    2    1    2    0    0 -0.92253255846E+02 -0.31037058679E+02  0.88595499273E+03  0.90000835872E+03  0.12499933762E+03 0.  0.
          4    1    3    3  502    0 -0.10380427869E+03 -0.61863401266E+02  0.77146966381E+03  0.78087736795E+03  0.12700000000E+01 0. -1.
         -4    1    3    3    0  502  0.11551022847E+02  0.30826342587E+02  0.11448532892E+03  0.11913099078E+03  0.12700000000E+01 0. -1.
          1    1    1    2  503    0  0.20240237060E+02 -0.15193078768E+02  0.43283254352E+03  0.43357180209E+03  0.00000000000E+00 0. -1.
         -2    1    1    2    0  501  0.72013018786E+02  0.46230137447E+02  0.48854142962E+03  0.49597966585E+03  0.00000000000E+00 0.  1.
<mgrwt>
<rscale>  0 0.47489112E+02</rscale>
<asrwt>0</asrwt>
<pdfrwt beam="1">  1        1 0.27976044E+00 0.25308039E+02</pdfrwt>
<pdfrwt beam="2">  1       -2 0.17100677E-02 0.89110647E+02</pdfrwt>
<totfact> 0.43526058E+03</totfact>
</mgrwt>
</event>
<event>
 7    1  0.3113151E-004  0.4852694E+02  0.7546771E-02  0.1488878E+00
          2   -1    0    0  502    0  0.00000000000E+00  0.00000000000E+00  0.85016589062E+03  0.85016589062E+03  0.00000000000E+00 0. -1.
          3   -1    0    0  503    0 -0.00000000000E+00 -0.00000000000E+00 -0.38329996096E+02  0.38329996096E+02  0.00000000000E+00 0. -1.
         25    2    1    2    0    0 -0.84470449779E+01  0.64812145693E+02  0.20527960846E+03  0.24907286004E+03  0.12500242062E+03 0.  0.
          4    1    3    3  501    0 -0.50960576725E+02  0.71679907493E+02  0.89274726106E+02  0.12532589174E+03  0.12700000000E+01 0. -1.
         -4    1    3    3    0  501  0.42513531747E+02 -0.68677618000E+01  0.11600488235E+03  0.12374696830E+03  0.12700000000E+01 0. -1.
          2    1    1    2  502    0  0.30100017120E+02 -0.22643252715E+02  0.58689770439E+03  0.58810512950E+03  0.00000000000E+00 0. -1.
          3    1    1    2  503    0 -0.21652972143E+02 -0.42168892978E+02  0.19658581675E+02  0.51317897181E+02  0.00000000000E+00 0. -1.
<mgrwt>
<rscale>  0 0.42752964E+02</rscale>
<asrwt>0</asrwt>
<pdfrwt beam="1">  1        2 0.13079474E+00 0.37666005E+02</pdfrwt>
<pdfrwt beam="2">  1        3 0.58969231E-02 0.48526939E+02</pdfrwt>
<totfact> 0.31444669E+03</totfact>
</mgrwt>
</event>
<event>
 7    1  0.3113151E-004  0.8694311E+02  0.7546771E-02  0.1374614E+00
         -1   -1    0    0    0  501 -0.00000000000E+00  0.00000000000E+00  0.25772849661E+03  0.25772849661E+03  0.00000000000E+00 0. -1.
          1   -1    0    0  503    0  0.00000000000E+00 -0.00000000000E+00 -0.13851920794E+04  0.13851920794E+04  0.00000000000E+00 0. -1.
         25    2    1    2    0    0 -0.33879752974E+02 -0.12857828751E+03 -0.95455694418E+03  0.97184612639E+03  0.12500288006E+03 0.  0.
          4    1    3    3  502    0  0.32320634023E+02  0.55815654092E+01 -0.16191623078E+03  0.16520973321E+03  0.12700000000E+01 0. -1.
         -4    1    3    3    0  502 -0.66200386996E+02 -0.13415985292E+03 -0.79264071340E+03  0.80663639319E+03  0.12700000000E+01 0. -1.
          1    1    1    2  503    0 -0.22938048330E+01  0.49898732679E+02 -0.41291299614E+03  0.41592341536E+03  0.00000000000E+00 0. -1.
         -1    1    1    2    0  501  0.36173557807E+02  0.78679554836E+02  0.24000635752E+03  0.25515103426E+03  0.00000000000E+00 0. -1.
<mgrwt>
<rscale>  0 0.65900928E+02</rscale>
<asrwt>0</asrwt>
<pdfrwt beam="2">  1        1 0.21310647E+00 0.49951427E+02</pdfrwt>
<pdfrwt beam="1">  1       -1 0.39650538E-01 0.86943109E+02</pdfrwt>
<totfact> 0.62840583E+01</totfact>
</mgrwt>
</event>
<event>
 7    1  0.3113151E-004  0.7578392E+02  0.7546771E-02  0.1456160E+00
         -1   -1    0    0    0  501 -0.00000000000E+00  0.00000000000E+00  0.19779417005E+03  0.19779417005E+03  0.00000000000E+00 0.  1.
          2   -1    0    0  503    0  0.00000000000E+00 -0.00000000000E+00 -0.16490524231E+03  0.16490524231E+03  0.00000000000E+00 0. -1.
         25    2    1    2    0    0  0.36927425168E+02 -0.94085670668E+02 -0.74781002028E+01  0.16092309157E+03  0.12499828504E+03 0.  0.
          4    1    3    3  502    0  0.30758843915E+02 -0.12495753068E+03 -0.11278019929E+02  0.12918706432E+03  0.12700000000E+01 0. -1.
         -4    1    3    3    0  502  0.61685812525E+01  0.30871860017E+02  0.37999197263E+01  0.31736027248E+02  0.12700000000E+01 0. -1.
          2    1    1    2  503    0 -0.18987773137E+02  0.23822597565E+02 -0.66201728145E+02  0.72874690345E+02  0.00000000000E+00 0. -1.
         -1    1    1    2    0  501 -0.17939652031E+02  0.70263073103E+02  0.10656875609E+03  0.12890163044E+03  0.00000000000E+00 0.  1.
<mgrwt>
<rscale>  0 0.48048691E+02</rscale>
<asrwt>0</asrwt>
<pdfrwt beam="2">  1        2 0.25370037E-01 0.30463941E+02</pdfrwt>
<pdfrwt beam="1">  1       -1 0.30429872E-01 0.75783916E+02</pdfrwt>
<totfact> 0.22036793E+03</totfact>
</mgrwt>
</event>
<event>
 7    1  0.3113151E-004  0.5307111E+02  0.7546771E-02  0.1501710E+00
          2   -1    0    0  503    0  0.00000000000E+00  0.00000000000E+00  0.40910734439E+03  0.40910734439E+03  0.00000000000E+00 0. -1.
         -2   -1    0    0    0  501 -0.00000000000E+00 -0.00000000000E+00 -0.16068450321E+03  0.16068450321E+03  0.00000000000E+00 0.  1.
         25    2    1    2    0    0  0.52557266825E+02  0.64802017918E+02  0.12645013343E+03  0.19643792735E+03  0.12504661225E+03 0.  0.
          4    1    3    3  502    0  0.87740179716E+02  0.27974518079E+02  0.50656960772E+02  0.10511257476E+03  0.12700000000E+01 0. -1.
         -4    1    3    3    0  502 -0.35182912891E+02  0.36827499839E+02  0.75793172662E+02  0.91325352592E+02  0.12700000000E+01 0. -1.
          2    1    1    2  503    0 -0.18034629701E+02 -0.25846001231E+02  0.24120488176E+03  0.24325513074E+03  0.00000000000E+00 0. -1.
         -2    1    1    2    0  501 -0.34522637124E+02 -0.38956016688E+02 -0.11923217401E+03  0.13009878950E+03  0.00000000000E+00 0.  1.
<mgrwt>
<rscale>  0 0.40897355E+02</rscale>
<asrwt>0</asrwt>
<pdfrwt beam="1">  1        2 0.62939591E-01 0.31516086E+02</pdfrwt>
<pdfrwt beam="2">  1       -2 0.24720693E-01 0.53071111E+02</pdfrwt>
<totfact> 0.10916257E+03</totfact>
</mgrwt>
</event>
<event>
 7    1  0.3113151E-004  0.7640001E+02  0.7546771E-02  0.1356174E+00
          1   -1    0    0  503    0 -0.00000000000E+00  0.00000000000E+00  0.72671341419E+03  0.72671341419E+03  0.00000000000E+00 0. -1.
          2   -1    0    0  502    0  0.00000000000E+00 -0.00000000000E+00 -0.35964012533E+04  0.35964012533E+04  0.00000000000E+00 0. -1.
         25    2    1    2    0    0  0.12291247885E+03 -0.48318927272E+02  0.14953408489E+03  0.23543097063E+03  0.12500041279E+03 0.  0.
          4    1    3    3  501    0  0.13595216046E+03 -0.19481201857E+02  0.15048855831E+03  0.20374230352E+03  0.12700000000E+01 0. -1.
         -4    1    3    3    0  501 -0.13039681614E+02 -0.28837725415E+02 -0.95447342345E+00  0.31688667110E+02  0.12700000000E+01 0. -1.
          2    1    1    2  502    0 -0.76289980641E+02  0.11948820843E+01 -0.35509850388E+04  0.35518046589E+04  0.00000000000E+00 0. -1.
          1    1    1    2  503    0 -0.46622498206E+02  0.47124045187E+02  0.53176311486E+03  0.53587903794E+03  0.00000000000E+00 0. -1.
<mgrwt>
<rscale>  0 0.71165572E+02</rscale>
<asrwt>0</asrwt>
<pdfrwt beam="2">  1        2 0.55329250E+00 0.76400009E+02</pdfrwt>
<pdfrwt beam="1">  1        1 0.11180206E+00 0.66289765E+02</pdfrwt>
<totfact> 0.43142832E+00</totfact>
</mgrwt>
</event>
<event>
 7    1  0.3113151E-004  0.4489443E+02  0.7546771E-02  0.1479042E+00
         -1   -1    0    0    0  501 -0.00000000000E+00  0.00000000000E+00  0.33298960124E+02  0.33298960124E+02  0.00000000000E+00 0.  1.
          2   -1    0    0  503    0  0.00000000000E+00 -0.00000000000E+00 -0.48629066831E+03  0.48629066831E+03  0.00000000000E+00 0. -1.
         25    2    1    2    0    0  0.50946067859E+01  0.68311631637E+02 -0.30856679352E+03  0.33990006525E+03  0.12500461695E+03 0.  0.
          4    1    3    3  502    0 -0.49436982330E+02  0.33699253064E+01 -0.63389614059E+02  0.80468799476E+02  0.12700000000E+01 0. -1.
         -4    1    3    3    0  502  0.54531589116E+02  0.64941706330E+02 -0.24517717946E+03  0.25943126577E+03  0.12700000000E+01 0. -1.
          2    1    1    2  503    0  0.24503813546E+02 -0.36094475975E+02 -0.12391651172E+03  0.13137180044E+03  0.00000000000E+00 0. -1.
         -1    1    1    2    0  501 -0.29598420332E+02 -0.32217155662E+02 -0.20508402945E+02  0.48317762743E+02  0.00000000000E+00 0.  1.
<mgrwt>
<rscale>  0 0.44255789E+02</rscale>
<asrwt>0</asrwt>
<pdfrwt beam="2">  1        2 0.74813940E-01 0.43626231E+02</pdfrwt>
<pdfrwt beam="1">  1       -1 0.51229176E-02 0.44894431E+02</pdfrwt>
<totfact> 0.10693539E+04</totfact>
</mgrwt>
</event>
<event>
 7    1  0.3113151E-004  0.8525375E+02  0.7546771E-02  0.1470416E+00
          1   -1    0    0  503    0  0.00000000000E+00  0.00000000000E+00  0.18210669129E+04  0.18210669129E+04  0.00000000000E+00 0. -1.
         -2   -1    0    0    0  501 -0.00000000000E+00 -0.00000000000E+00 -0.10937147279E+03  0.10937147279E+03  0.00000000000E+00 0. -1.
         25    2    1    2    0    0  0.17406441122E+02 -0.10129176548E+03 -0.66594675484E+01  0.16197641967E+03  0.12501602328E+03 0.  0.
          4    1    3    3  502    0 -0.43642147985E+02 -0.49622341750E+01 -0.17739125597E+02  0.47387238004E+02  0.12700000000E+01 0.  1.
         -4    1    3    3    0  502  0.61048589106E+02 -0.96329531302E+02  0.11079658048E+02  0.11458918167E+03  0.12700000000E+01 0.  1.
          1    1    1    2  503    0 -0.29187815293E+02  0.79892849332E+02  0.17361547036E+04  0.17382370238E+04  0.00000000000E+00 0. -1.
         -2    1    1    2    0  501  0.11781374172E+02  0.21398916145E+02 -0.17799796041E+02  0.30224942161E+02  0.00000000000E+00 0. -1.
<mgrwt>
<rscale>  0 0.45635033E+02</rscale>
<asrwt>0</asrwt>
<pdfrwt beam="1">  1        1 0.28016412E+00 0.85253750E+02</pdfrwt>
<pdfrwt beam="2">  1       -2 0.16826382E-01 0.24427738E+02</pdfrwt>
<totfact> 0.11049009E+02</totfact>
</mgrwt>
</event>
<event>
 7    1  0.3113151E-004  0.8753138E+02  0.7546771E-02  0.1384790E+00
          1   -1    0    0  503    0 -0.00000000000E+00  0.00000000000E+00  0.32550499832E+03  0.32550499832E+03  0.00000000000E+00 0. -1.
          2   -1    0    0  502    0  0.00000000000E+00 -0.00000000000E+00 -0.75106410619E+03  0.75106410619E+03  0.00000000000E+00 0. -1.
         25    2    1    2    0    0 -0.80611417420E+02 -0.94744768977E+02 -0.38726865846E+03  0.42552897475E+03  0.12499249041E+03 0.  0.
          4    1    3    3  501    0 -0.38402513291E+02  0.53784060293E+01 -0.22350059122E+02  0.44775197613E+02  0.12700000000E+01 0. -1.
         -4    1    3    3    0  501 -0.42208904129E+02 -0.10012317501E+03 -0.36491859933E+03  0.38075377713E+03  0.12700000000E+01 0. -1.
          2    1    1    2  502    0  0.49433777094E+02  0.61382212790E+02 -0.33841020461E+03  0.34746646018E+03  0.00000000000E+00 0. -1.
          1    1    1    2  503    0  0.31177640326E+02  0.33362556187E+02  0.30011975520E+03  0.30357366959E+03  0.00000000000E+00 0. -1.
<mgrwt>
<rscale>  0 0.63221369E+02</rscale>
<asrwt>0</asrwt>
<pdfrwt beam="2">  1        2 0.11554832E+00 0.87531383E+02</pdfrwt>
<pdfrwt beam="1">  1        1 0.50077693E-01 0.45662954E+02</pdfrwt>
<totfact> 0.43298147E+02</totfact>
</mgrwt>
</event>
<event>
 7    1  0.3113151E-004  0.9930129E+02  0.7546771E-02  0.1319561E+00
         -1   -1    0    0    0  501 -0.00000000000E+00  0.00000000000E+00  0.13222847904E+03  0.13222847904E+03  0.00000000000E+00 0.  1.
          1   -1    0    0  503    0  0.00000000000E+00 -0.00000000000E+00 -0.22645836924E+04  0.22645836924E+04  0.00000000000E+00 0. -1.
         25    2    1    2    0    0  0.50288477528E+02 -0.13644076688E+02 -0.63940737274E+03  0.65359075880E+03  0.12499599943E+03 0.  0.
          4    1    3    3  502    0 -0.33370806098E+02  0.26489574292E+02 -0.20128526407E+03  0.20574906726E+03  0.12700000000E+01 0.  1.
         -4    1    3    3    0  502  0.83659283626E+02 -0.40133650981E+02 -0.43812210866E+03  0.44784169154E+03  0.12700000000E+01 0.  1.
          1    1    1    2  503    0 -0.87363592160E+02  0.73153228852E+02 -0.16060840574E+04  0.16101210487E+04  0.00000000000E+00 0. -1.
         -1    1    1    2    0  501  0.37075114631E+02 -0.59509152163E+02  0.11313621680E+03  0.13310036390E+03  0.00000000000E+00 0.  1.
<mgrwt>
<rscale>  0 0.83440767E+02</rscale>
<asrwt>0</asrwt>
<pdfrwt beam="2">  1        1 0.34839746E+00 0.99301294E+02</pdfrwt>
<pdfrwt beam="1">  1       -1 0.20342845E-01 0.70113503E+02</pdfrwt>
<totfact> 0.48874485E+01</totfact>
</mgrwt>
</event>
<event>
 7    1  0.3113151E-004  0.5529441E+02  0.7546771E-02  0.1429580E+00
          2   -1    0    0  503    0  0.00000000000E+00  0.00000000000E+00  0.13355400500E+04  0.13355400500E+04  0.00000000000E+00 0. -1.
          2   -1    0    0  502    0 -0.00000000000E+00 -0.00000000000E+00 -0.18129117480E+04  0.18129117480E+04  0.00000000000E+00 0. -1.
         25    2    1    2    0    0 -0.63092195947E+01  0.10513659862E+03  0.10921504261E+03  0.19658947320E+03  0.12500393921E+03 0.  0.
          4    1    3    3  501    0  0.87395652041E+01  0.13195090831E+03  0.82763658475E+02  0.15600916084E+03  0.12700000000E+01 0.  1.
         -4    1    3    3    0  501 -0.15048784799E+02 -0.26814309685E+02  0.26451384138E+02  0.40580312353E+02  0.12700000000E+01 0.  1.
          2    1    1    2  502    0 -0.28501048140E+01 -0.55081854237E+02 -0.17682469604E+04  0.17691069631E+04  0.00000000000E+00 0. -1.
          2    1    1    2  503    0  0.91593244087E+01 -0.50054744384E+02  0.11816602198E+04  0.11827553617E+04  0.00000000000E+00 0. -1.
<mgrwt>
<rscale>  0 0.53044354E+02</rscale>
<asrwt>0</asrwt>
<pdfrwt beam="1">  1        2 0.20546770E+00 0.50885859E+02</pdfrwt>
<pdfrwt beam="2">  1        2 0.27890950E+00 0.55294409E+02</pdfrwt>
<totfact> 0.32205369E+01</totfact>
</mgrwt>
</event>
<event>
 7    1  0.3113151E-004  0.2589613E+03  0.7546771E-02  0.1238709E+00
          2   -1    0    0  503    0  0.00000000000E+00  0.00000000000E+00  0.82270027573E+03  0.82270027573E+03  0.00000000000E+00 0. -1.
          2   -1    0    0  502    0 -0.00000000000E+00 -0.00000000000E+00 -0.14613949495E+04  0.14613949495E+04  0.00000000000E+00 0. -1.
         25    2    1    2    0    0  0.20005019405E+03  0.18206716403E+03 -0.33635741053E+03  0.44936668728E+03  0.12500231863E+03 0.  0.
          4    1    3    3  501    0  0.21450822996E+03  0.15615667981E+03 -0.28052933437E+03  0.38613081943E+03  0.12700000000E+01 0. -1.
         -4    1    3    3    0  501 -0.14458035915E+02  0.25910484217E+02 -0.55828076164E+02  0.63235867852E+02  0.12700000000E+01 0. -1.
          2    1    1    2  502    0 -0.22270095940E+03 -0.12852429360E+03 -0.10519225694E+04  0.10828921014E+04  0.00000000000E+00 0. -1.
          2    1    1    2  503    0  0.22650765356E+02 -0.53542870429E+02  0.74958530612E+03  0.75183643654E+03  0.00000000000E+00 0. -1.
<mgrwt>
<rscale>  0 0.12269963E+03</rscale>
<asrwt>0</asrwt>
<pdfrwt beam="1">  1        2 0.12656927E+00 0.58136874E+02</pdfrwt>
<pdfrwt beam="2">  1        2 0.22482999E+00 0.25896129E+03</pdfrwt>
<totfact> 0.81688180E+01</totfact>
</mgrwt>
</event>
<event>
 7    1  0.3113151E-004  0.5007028E+02  0.7546771E-02  0.1518471E+00
         -1   -1    0    0    0  501 -0.00000000000E+00  0.00000000000E+00  0.28037833309E+02  0.28037833309E+02  0.00000000000E+00 0.  1.
          2   -1    0    0  503    0  0.00000000000E+00 -0.00000000000E+00 -0.33134615040E+04  0.33134615040E+04  0.00000000000E+00 0. -1.
         25    2    1    2    0    0  0.30234036688E+02 -0.35684234657E+02 -0.79042487617E+03  0.80161118961E+03  0.12498621071E+03 0.  0.
          4    1    3    3  502    0  0.20841237925E+02 -0.43021457867E+02 -0.97629853088E+02  0.10871248387E+03  0.12700000000E+01 0. -1.
         -4    1    3    3    0  502  0.93927987630E+01  0.73372232101E+01 -0.69279502308E+03  0.69289870574E+03  0.12700000000E+01 0. -1.
          2    1    1    2  503    0 -0.49024266571E+02  0.12531952791E+02 -0.25071710026E+04  0.25076815716E+04  0.00000000000E+00 0. -1.
         -1    1    1    2    0  501  0.18790229883E+02  0.23152281866E+02  0.12172208032E+02  0.32206576084E+02  0.00000000000E+00 0.  1.
<mgrwt>
<rscale>  0 0.38639170E+02</rscale>
<asrwt>0</asrwt>
<pdfrwt beam="2">  1        2 0.50976340E+00 0.50070284E+02</pdfrwt>
<pdfrwt beam="1">  1       -1 0.43135121E-02 0.29817795E+02</pdfrwt>
<totfact> 0.35742756E+02</totfact>
</mgrwt>
</event>
<event>
 7    1  0.3113151E-004  0.8605263E+02  0.7546771E-02  0.1369489E+00
          2   -1    0    0  503    0  0.00000000000E+00  0.00000000000E+00  0.80688746019E+03  0.80688746019E+03  0.00000000000E+00 0. -1.
          2   -1    0    0  502    0 -0.00000000000E+00 -0.00000000000E+00 -0.13346480391E+04  0.13346480391E+04  0.00000000000E+00 0. -1.
         25    2    1    2    0    0 -0.39340919311E+02  0.84432657683E+02 -0.91119212725E+02  0.18057363776E+03  0.12501018403E+03 0.  0.
          4    1    3    3  501    0 -0.24503095994E+02 -0.30605223457E+02 -0.15922682268E+02  0.42334691764E+02  0.12700000000E+01 0. -1.
         -4    1    3    3    0  501 -0.14837823317E+02  0.11503788114E+03 -0.75196530457E+02  0.13823894600E+03  0.12700000000E+01 0. -1.
          2    1    1    2  502    0 -0.13300495866E+02 -0.85305891603E+02 -0.11963348846E+04  0.11994461866E+04  0.00000000000E+00 0. -1.
          2    1    1    2  503    0  0.52641415177E+02  0.87323392016E+00  0.75969351848E+03  0.76151567492E+03  0.00000000000E+00 0. -1.
<mgrwt>
<rscale>  0 0.67309401E+02</rscale>
<asrwt>0</asrwt>
<pdfrwt beam="1">  1        2 0.12413653E+00 0.52648657E+02</pdfrwt>
<pdfrwt beam="2">  1        2 0.20533047E+00 0.86052630E+02</pdfrwt>
<totfact> 0.10612803E+02</totfact>
</mgrwt>
</event>
<event>
 7    1  0.3113151E-004  0.8753630E+02  0.7546771E-02  0.1383011E+00
          2   -1    0    0  503    0  0.00000000000E+00  0.00000000000E+00  0.87995206464E+03  0.87995206464E+03  0.00000000000E+00 0. -1.
         -1   -1    0    0    0  501 -0.00000000000E+00 -0.00000000000E+00 -0.31110471078E+03  0.31110471078E+03  0.00000000000E+00 0.  1.
         25    2    1    2    0    0 -0.73329939579E+02  0.86445745436E+02  0.10140563166E+03  0.19688250226E+03  0.12501788121E+03 0.  0.
          4    1    3    3  502    0  0.79679677943E+01 -0.24894848017E+02  0.35414292428E+02  0.44034384028E+02  0.12700000000E+01 0.  1.
         -4    1    3    3    0  502 -0.81297907373E+02  0.11134059345E+03  0.65991339237E+02  0.15284811823E+03  0.12700000000E+01 0.  1.
          2    1    1    2  503    0 -0.34297473277E+01 -0.46196415743E+02  0.72291573136E+03  0.72439838945E+03  0.00000000000E+00 0. -1.
         -1    1    1    2    0  501  0.76759686906E+02 -0.40249329692E+02 -0.25547400916E+03  0.26977588371E+03  0.00000000000E+00 0.  1.
<mgrwt>
<rscale>  0 0.63678824E+02</rscale>
<asrwt>0</asrwt>
<pdfrwt beam="1">  1        2 0.13537724E+00 0.46323558E+02</pdfrwt>
<pdfrwt beam="2">  1       -1 0.47862264E-01 0.87536295E+02</pdfrwt>
<totfact> 0.17445470E+02</totfact>
</mgrwt>
</event>
<event>
 7    1  0.3113151E-004  0.5470545E+02  0.7546771E-02  0.1479525E+00
         -1   -1    0    0    0  501 -0.00000000000E+00  0.00000000000E+00  0.44410669939E+03  0.44410669939E+03  0.00000000000E+00 0.  1.
          1   -1    0    0  503    0  0.00000000000E+00 -0.00000000000E+00 -0.16466241124E+04  0.16466241124E+04  0.00000000000E+00 0. -1.
         25    2    1    2    0    0 -0.12190903021E+02 -0.31674170299E+02 -0.47846886850E+03  0.49568279067E+03  0.12496839465E+03 0.  0.
          4    1    3    3  502    0  0.17246078953E+02 -0.16387515700E+02 -0.96726254870E+01  0.25712846865E+02  0.12700000000E+01 0. -1.
         -4    1    3    3    0  502 -0.29436981974E+02 -0.15286654599E+02 -0.46879624301E+03  0.46996994380E+03  0.12700000000E+01 0. -1.
          1    1    1    2  503    0 -0.14876776855E+02  0.54920977343E+02 -0.11581178187E+04  0.11595147754E+04  0.00000000000E+00 0. -1.
         -1    1    1    2    0  501  0.27067679876E+02 -0.23246807043E+02  0.43406927422E+03  0.43553324575E+03  0.00000000000E+00 0.  1.
<mgrwt>
<rscale>  0 0.44180300E+02</rscale>
<asrwt>0</asrwt>
<pdfrwt beam="2">  1        1 0.25332679E+00 0.54705453E+02</pdfrwt>
<pdfrwt beam="1">  1       -1 0.68324107E-01 0.35680153E+02</pdfrwt>
<totfact> 0.16126352E+01</totfact>
</mgrwt>
</event>
<event>
 7    1  0.3113151E-004  0.1045065E+03  0.7546771E-02  0.1424117E+00
          2   -1    0    0  502    0  0.00000000000E+00  0.00000000000E+00  0.14299068301E+04  0.14299068301E+04  0.00000000000E+00 0. -1.
          1   -1    0    0  503    0 -0.00000000000E+00 -0.00000000000E+00 -0.47287036449E+03  0.47287036449E+03  0.00000000000E+00 0. -1.
         25    2    1    2    0    0  0.98457930469E+02 -0.42795923097E+02  0.22985920271E+03  0.28281733285E+03  0.12499974233E+03 0.  0.
          4    1    3    3  501    0  0.73345317844E+02 -0.32295410275E+02  0.24054570212E+03  0.25354758307E+03  0.12700000000E+01 0. -1.
         -4    1    3    3    0  501  0.25112612626E+02 -0.10500512822E+02 -0.10686499408E+02  0.29269749777E+02  0.12700000000E+01 0. -1.
          2    1    1    2  502    0 -0.81668211991E+02  0.65287711848E+02  0.11707953430E+04  0.11754547704E+04  0.00000000000E+00 0. -1.
          1    1    1    2  503    0 -0.16789718478E+02 -0.22491788752E+02 -0.44361808009E+03  0.44450509130E+03  0.00000000000E+00 0. -1.
<mgrwt>
<rscale>  0 0.54159194E+02</rscale>
<asrwt>0</asrwt>
<pdfrwt beam="1">  1        2 0.21998566E+00 0.10450648E+03</pdfrwt>
<pdfrwt beam="2">  1        1 0.72749288E-01 0.28067333E+02</pdfrwt>
<totfact> 0.11160848E+02</totfact>
</mgrwt>
</event>
<event>
 7    1  0.3113151E-004  0.8118628E+02  0.7546771E-02  0.1352458E+00
          2   -1    0    0  502    0  0.00000000000E+00  0.00000000000E+00  0.12104567903E+04  0.12104567903E+04  0.00000000000E+00 0. -1.
          2   -1    0    0  503    0 -0.00000000000E+00 -0.00000000000E+00 -0.99705198379E+02  0.99705198379E+02  0.00000000000E+00 0. -1.
         25    2    1    2    0    0 -0.41564765129E+02  0.30629930344E+02  0.63532267169E+03  0.64955954885E+03  0.12500755181E+03 0.  0.
          4    1    3    3  501    0 -0.22143243323E+02  0.81411959079E+01  0.61011600366E+03  0.61057329872E+03  0.12700000000E+01 0.  1.
         -4    1    3    3    0  501 -0.19421521806E+02  0.22488734436E+02  0.25206668033E+02  0.38986250129E+02  0.12700000000E+01 0.  1.
          2    1    1    2  502    0  0.10395647685E+03 -0.14763472638E+02  0.55123653767E+03  0.56114760061E+03  0.00000000000E+00 0. -1.
          2    1    1    2  503    0 -0.62391711725E+02 -0.15866457707E+02 -0.75807617469E+02  0.99454839191E+02  0.00000000000E+00 0. -1.
<mgrwt>
<rscale>  0 0.72295054E+02</rscale>
<asrwt>0</asrwt>
<pdfrwt beam="1">  1        2 0.18622411E+00 0.81186285E+02</pdfrwt>
<pdfrwt beam="2">  1        2 0.15339262E-01 0.64377560E+02</pdfrwt>
<totfact> 0.11706404E+03</totfact>
</mgrwt>
</event>
<event>
 7    1  0.3113151E-004  0.9175826E+02  0.7546771E-02  0.1405958E+00
         -1   -1    0    0    0  501 -0.00000000000E+00  0.00000000000E+00  0.10879567088E+03  0.10879567088E+03  0.00000000000E+00 0.  1.
          2   -1    0    0  503    0  0.00000000000E+00 -0.00000000000E+00 -0.18325498999E+04  0.18325498999E+04  0.00000000000E+00 0. -1.
         25    2    1    2    0    0  0.80468847435E+02 -0.88273389346E+02 -0.14439894820E+03  0.22527187903E+03  0.12501574527E+03 0.  0.
          4    1    3    3  502    0  0.23302835167E+02  0.29855474069E+02 -0.53764980518E+02  0.65777332637E+02  0.12700000000E+01 0.  1.
         -4    1    3    3    0  502  0.57166012267E+02 -0.11812886341E+03 -0.90633967686E+02  0.15949454639E+03  0.12700000000E+01 0.  1.
          2    1    1    2  503    0 -0.10505584831E+02  0.35263421688E+02 -0.16192410237E+04  0.16196590286E+04  0.00000000000E+00 0. -1.
         -1    1    1    2    0  501 -0.69963262604E+02  0.53009967657E+02  0.39885742859E+02  0.96414663141E+02  0.00000000000E+00 0.  1.
<mgrwt>
<rscale>  0 0.58105511E+02</rscale>
<asrwt>0</asrwt>
<pdfrwt beam="2">  1        2 0.28193072E+00 0.36795057E+02</pdfrwt>
<pdfrwt beam="1">  1       -1 0.16737798E-01 0.91758261E+02</pdfrwt>
<totfact> 0.32906955E+02</totfact>
</mgrwt>
</event>
<event>
 7    1  0.3113151E-004  0.1196542E+03  0.7546771E-02  0.1360389E+00
         -3   -1    0    0    0  501 -0.00000000000E+00  0.00000000000E+00  0.80816917086E+03  0.80816917086E+03  0.00000000000E+00 0.  1.
          2   -1    0    0  503    0  0.00000000000E+00 -0.00000000000E+00 -0.22423978935E+03  0.22423978935E+03  0.00000000000E+00 0.  1.
         25    2    1    2    0    0 -0.79160995057E+02  0.63291256143E+02 -0.16421557135E+01  0.16094164056E+03  0.12500907467E+03 0.  0.
          4    1    3    3  502    0 -0.86674925188E+02  0.94712671953E+02 -0.45953250542E+01  0.12847475549E+03  0.12700000000E+01 0.  1.
         -4    1    3    3    0  502  0.75139301310E+01 -0.31421415810E+02  0.29531693407E+01  0.32466885078E+02  0.12700000000E+01 0.  1.
          2    1    1    2  503    0 -0.34589102439E+02 -0.21731991983E+02 -0.13486870104E+03  0.14091931026E+03  0.00000000000E+00 0.  1.
         -3    1    1    2    0  501  0.11375009750E+03 -0.41559264160E+02  0.72044023826E+03  0.73054800939E+03  0.00000000000E+00 0.  1.
<mgrwt>
<rscale>  0 0.69912935E+02</rscale>
<asrwt>0</asrwt>
<pdfrwt beam="2">  1        2 0.34498430E-01 0.40849547E+02</pdfrwt>
<pdfrwt beam="1">  1       -3 0.12433372E+00 0.11965417E+03</pdfrwt>
<totfact> 0.48486957E+01</totfact>
</mgrwt>
</event>
<event>
 7    1  0.3113151E-004  0.4081494E+02  0.7546771E-02  0.1505303E+00
          2   -1    0    0  502    0  0.00000000000E+00  0.00000000000E+00  0.21301734561E+03  0.21301734561E+03  0.00000000000E+00 0. -1.
          2   -1    0    0  503    0 -0.00000000000E+00 -0.00000000000E+00 -0.29288004381E+03  0.29288004381E+03  0.00000000000E+00 0. -1.
         25    2    1    2    0    0  0.69658808519E+01  0.47101085571E+02  0.40988021853E+02  0.13990510779E+03  0.12500554184E+03 0.  0.
          4    1    3    3  501    0 -0.55590837333E+02  0.57990952188E+00  0.20736598452E+02  0.59348941910E+02  0.12700000000E+01 0.  1.
         -4    1    3    3    0  501  0.62556718185E+02  0.46521176049E+02  0.20251423401E+02  0.80556165877E+02  0.12700000000E+01 0.  1.
          2    1    1    2  502    0 -0.36432336650E+02 -0.20072578851E+02  0.11732659431E+03  0.12448193968E+03  0.00000000000E+00 0. -1.
          2    1    1    2  503    0  0.29466455798E+02 -0.27028506720E+02 -0.23817731436E+03  0.24151034195E+03  0.00000000000E+00 0. -1.
<mgrwt>
<rscale>  0 0.40397915E+02</rscale>
<asrwt>0</asrwt>
<pdfrwt beam="1">  1        2 0.32771899E-01 0.40814941E+02</pdfrwt>
<pdfrwt beam="2">  1        2 0.45058468E-01 0.39985150E+02</pdfrwt>
<totfact> 0.26085973E+03</totfact>
</mgrwt>
</event>
<event>
 7    1  0.3113151E-004  0.1152699E+03  0.7546771E-02  0.1379602E+00
          1   -1    0    0  503    0 -0.00000000000E+00  0.00000000000E+00  0.15568171817E+04  0.15568171817E+04  0.00000000000E+00 0. -1.
          2   -1    0    0  502    0  0.00000000000E+00 -0.00000000000E+00 -0.42372549212E+03  0.42372549212E+03  0.00000000000E+00 0. -1.
         25    2    1    2    0    0 -0.29794425054E+02  0.77674585521E+02  0.19558494034E+03  0.24658248589E+03  0.12501361709E+03 0.  0.
          4    1    3    3  501    0 -0.13359760508E+02  0.38604288310E+02 -0.53524019410E+01  0.41219356900E+02  0.12700000000E+01 0. -1.
         -4    1    3    3    0  501 -0.16434664546E+02  0.39070297212E+02  0.20093734229E+03  0.20536312899E+03  0.12700000000E+01 0. -1.
          2    1    1    2  502    0  0.56752136993E+02 -0.10178703732E+03 -0.38944885618E+03  0.40651176810E+03  0.00000000000E+00 0. -1.
          1    1    1    2  503    0 -0.26957711940E+02  0.24112451804E+02  0.13269556054E+04  0.13274484198E+04  0.00000000000E+00 0. -1.
<mgrwt>
<rscale>  0 0.64568467E+02</rscale>
<asrwt>0</asrwt>
<pdfrwt beam="2">  1        2 0.65188538E-01 0.11526985E+03</pdfrwt>
<pdfrwt beam="1">  1        1 0.23951033E+00 0.36168060E+02</pdfrwt>
<totfact> 0.83004357E+01</totfact>
</mgrwt>
</event>
<event>
 7    1  0.3113151E-004  0.5101457E+02  0.7546771E-02  0.1483210E+00
         -1   -1    0    0    0  501 -0.00000000000E+00  0.00000000000E+00  0.98108614526E+02  0.98108614526E+02  0.00000000000E+00 0.  1.
          2   -1    0    0  503    0  0.00000000000E+00 -0.00000000000E+00 -0.59477355124E+03  0.59477355124E+03  0.00000000000E+00 0. -1.
         25    2    1    2    0    0 -0.40385587704E+02  0.51429136548E+01 -0.15056206827E+03  0.19987772846E+03  0.12499889870E+03 0.  0.
          4    1    3    3  502    0  0.56930883108E+01  0.57054339837E+02 -0.42280509082E+02  0.71252110824E+02  0.12700000000E+01 0. -1.
         -4    1    3    3    0  502 -0.46078676015E+02 -0.51911426182E+02 -0.10828155919E+03  0.12862561764E+03  0.12700000000E+01 0. -1.
          2    1    1    2  503    0  0.32122605990E+02 -0.41495935547E+02 -0.41305378074E+03  0.41637387078E+03  0.00000000000E+00 0. -1.
         -1    1    1    2    0  501  0.82629817140E+01  0.36353021892E+02  0.66950912303E+02  0.76630566524E+02  0.00000000000E+00 0.  1.
<mgrwt>
<rscale>  0 0.43610059E+02</rscale>
<asrwt>0</asrwt>
<pdfrwt beam="2">  1        2 0.91503625E-01 0.51014567E+02</pdfrwt>
<pdfrwt beam="1">  1       -1 0.15093633E-01 0.37280277E+02</pdfrwt>
<totfact> 0.17377238E+03</totfact>
</mgrwt>
</event>
<event>
 7    1  0.3113151E-004  0.8303174E+02  0.7546771E-02  0.1366745E+00
         -3   -1    0    0    0  501 -0.00000000000E+00  0.00000000000E+00  0.10119168069E+03  0.10119168069E+03  0.00000000000E+00 0.  1.
          2   -1    0    0  503    0  0.00000000000E+00 -0.00000000000E+00 -0.11155855839E+04  0.11155855839E+04  0.00000000000E+00 0. -1.
         25    2    1    2    0    0 -0.13285917514E+02  0.76352083630E+02 -0.36123743433E+03  0.39002943170E+03  0.12499726937E+03 0.  0.
          4    1    3    3  502    0  0.10560299853E+02  0.75814607694E+02 -0.91791555232E+02  0.11952688896E+03  0.12700000000E+01 0.  1.
         -4    1    3    3    0  502 -0.23846217367E+02  0.53747593524E+00 -0.26944587910E+03  0.27050254274E+03  0.12700000000E+01 0.  1.
          2    1    1    2  503    0 -0.51251549007E+02 -0.22119846523E+02 -0.71814214744E+03  0.72030837341E+03  0.00000000000E+00 0. -1.
         -3    1    1    2    0  501  0.64537466521E+02 -0.54232237107E+02  0.64985678529E+02  0.10643945951E+03  0.00000000000E+00 0.  1.
<mgrwt>
<rscale>  0 0.68080344E+02</rscale>
<asrwt>0</asrwt>
<pdfrwt beam="2">  1        2 0.17162856E+00 0.55821223E+02</pdfrwt>
<pdfrwt beam="1">  1       -3 0.15567950E-01 0.83031739E+02</pdfrwt>
<totfact> 0.48605235E+02</totfact>
</mgrwt>
</event>
<event>
 7    1  0.3113151E-004  0.1308347E+03  0.7546771E-02  0.1291886E+00
          1   -1    0    0  502    0  0.00000000000E+00  0.00000000000E+00  0.64930076556E+03  0.64930076556E+03  0.00000000000E+00 0. -1.
          1   -1    0    0  503    0 -0.00000000000E+00 -0.00000000000E+00 -0.78343163475E+03  0.78343163475E+03  0.00000000000E+00 0. -1.
         25    2    1    2    0    0  0.73368506556E+02 -0.40008886885E+02  0.51373101053E+02  0.15889845161E+03  0.12500349446E+03 0.  0.
          4    1    3    3  501    0  0.26229890564E+02  0.30119505039E+02 -0.23187286077E+02  0.46200161022E+02  0.12700000000E+01 0.  1.
         -4    1    3    3    0  501  0.47138615993E+02 -0.70128391924E+02  0.74560387130E+02  0.11269829058E+03  0.12700000000E+01 0.  1.
          1    1    1    2  502    0 -0.13836956840E+03  0.18319964022E+02  0.53355898522E+03  0.55151332645E+03  0.00000000000E+00 0. -1.
          1    1    1    2  503    0  0.65001061840E+02  0.21688922863E+02 -0.71906295547E+03  0.72232062226E+03  0.00000000000E+00 0. -1.
<mgrwt>
<rscale>  0 0.94685414E+02</rscale>
<asrwt>0</asrwt>
<pdfrwt beam="1">  1        1 0.99892426E-01 0.13083473E+03</pdfrwt>
<pdfrwt beam="2">  1        1 0.12052794E+00 0.68524064E+02</pdfrwt>
<totfact> 0.99024566E+01</totfact>
</mgrwt>
</event>
<event>
 7    1  0.3113151E-004  0.7585432E+02  0.7546771E-02  0.1423259E+00
          2   -1    0    0  502    0  0.00000000000E+00  0.00000000000E+00  0.31627133973E+04  0.31627133973E+04  0.00000000000E+00 0. -1.
          3   -1    0    0  503    0 -0.00000000000E+00 -0.00000000000E+00 -0.11612698150E+04  0.11612698150E+04  0.00000000000E+00 0. -1.
         25    2    1    2    0    0 -0.84359815474E+02 -0.20902977485E+02  0.12284065673E+04  0.12378046876E+04  0.12499694817E+03 0.  0.
          4    1    3    3  501    0  0.95289220251E+01  0.11327987097E+02  0.18025835483E+02  0.23359522501E+02  0.12700000000E+01 0.  1.
         -4    1    3    3    0  501 -0.93888737499E+02 -0.32230964582E+02  0.12103807318E+04  0.12144451651E+04  0.12700000000E+01 0.  1.
          2    1    1    2  502    0  0.57321352801E+02  0.48902779904E+02  0.19285444046E+04  0.19300157357E+04  0.00000000000E+00 0. -1.
          3    1    1    2  503    0  0.27038462673E+02 -0.27999802419E+02 -0.11555073896E+04  0.11561627890E+04  0.00000000000E+00 0. -1.
<mgrwt>
<rscale>  0 0.54337311E+02</rscale>
<asrwt>0</asrwt>
<pdfrwt beam="1">  1        2 0.48657129E+00 0.75854318E+02</pdfrwt>
<pdfrwt beam="2">  1        3 0.17865690E+00 0.38923867E+02</pdfrwt>
<totfact> 0.28711804E-01</totfact>
</mgrwt>
</event>
<event>
 7    1  0.3113151E-004  0.9991462E+02  0.7546771E-02  0.1354409E+00
         -2   -1    0    0    0  501 -0.00000000000E+00  0.00000000000E+00  0.14187508835E+04  0.14187508835E+04  0.00000000000E+00 0.  1.
          2   -1    0    0  503    0  0.00000000000E+00 -0.00000000000E+00 -0.62507353055E+03  0.62507353055E+03  0.00000000000E+00 0. -1.
         25    2    1    2    0    0  0.33737776782E+02 -0.61339828362E+02 -0.22972736906E+03  0.27074204202E+03  0.12500310835E+03 0.  0.
          4    1    3    3  502    0 -0.96002337769E+00  0.20189314639E+00 -0.18935355959E+03  0.18936035973E+03  0.12700000000E+01 0.  1.
         -4    1    3    3    0  502  0.34697800160E+02 -0.61541721508E+02 -0.40373809471E+02  0.81381682296E+02  0.12700000000E+01 0.  1.
          2    1    1    2  503    0 -0.21995085345E+02  0.11143313258E+03 -0.36574718150E+03  0.38297797272E+03  0.00000000000E+00 0. -1.
         -2    1    1    2    0  501 -0.11742691437E+02 -0.50093304220E+02  0.13891519035E+04  0.13901043993E+04  0.00000000000E+00 0.  1.
<mgrwt>
<rscale>  0 0.71698891E+02</rscale>
<asrwt>0</asrwt>
<pdfrwt beam="2">  1        2 0.96165159E-01 0.99914621E+02</pdfrwt>
<pdfrwt beam="1">  1       -2 0.21826937E+00 0.51451238E+02</pdfrwt>
<totfact> 0.62898045E+00</totfact>
</mgrwt>
</event>
<event>
 7    1  0.3113151E-004  0.3280191E+02  0.7546771E-02  0.1647754E+00
         -1   -1    0    0    0  501 -0.00000000000E+00  0.00000000000E+00  0.18131445090E+02  0.18131445090E+02  0.00000000000E+00 0.  1.
          1   -1    0    0  503    0  0.00000000000E+00 -0.00000000000E+00 -0.10824324239E+04  0.10824324239E+04  0.00000000000E+00 0. -1.
         25    2    1    2    0    0  0.19127391644E+02 -0.71492827590E+01 -0.92132886415E+03  0.92999427838E+03  0.12500205018E+03 0.  0.
          4    1    3    3  502    0 -0.53408304384E+02 -0.45155634603E+01 -0.35313833682E+03  0.35718501525E+03  0.12700000000E+01 0. -1.
         -4    1    3    3    0  502  0.72535696028E+02 -0.26337192987E+01 -0.56819052733E+03  0.57280926313E+03  0.12700000000E+01 0. -1.
          1    1    1    2  503    0 -0.38139109048E+02  0.14885518195E+02 -0.14430553431E+03  0.15000085840E+03  0.00000000000E+00 0. -1.
         -1    1    1    2    0  501  0.19011717404E+02 -0.77362354359E+01  0.13334196262E+01  0.20568732224E+02  0.00000000000E+00 0.  1.
<mgrwt>
<rscale>  0 0.25947534E+02</rscale>
<asrwt>0</asrwt>
<pdfrwt beam="2">  1        1 0.16652805E+00 0.32801911E+02</pdfrwt>
<pdfrwt beam="1">  1       -1 0.27894533E-02 0.20525466E+02</pdfrwt>
<totfact> 0.48398792E+03</totfact>
</mgrwt>
</event>
<event>
 7    1  0.3113151E-004  0.1352160E+03  0.7546771E-02  0.1264889E+00
         -2   -1    0    0    0  501 -0.00000000000E+00  0.00000000000E+00  0.23895369899E+03  0.23895369899E+03  0.00000000000E+00 0.  1.
          2   -1    0    0  503    0  0.00000000000E+00 -0.00000000000E+00 -0.23607516975E+04  0.23607516975E+04  0.00000000000E+00 0. -1.
         25    2    1    2    0    0  0.55797329158E+02 -0.15975718078E+03 -0.53144800478E+03  0.57156805764E+03  0.12496945221E+03 0.  0.
          4    1    3    3  502    0  0.36802391937E+02 -0.90460743464E+02 -0.12407202881E+03  0.15790200567E+03  0.12700000000E+01 0.  1.
         -4    1    3    3    0  502  0.18994937222E+02 -0.69296437316E+02 -0.40737597597E+03  0.41366605198E+03  0.12700000000E+01 0.  1.
          2    1    1    2  503    0 -0.10122836452E+03  0.86991488153E+02 -0.17982698105E+04  0.18032162966E+04  0.00000000000E+00 0. -1.
         -2    1    1    2    0  501  0.45431035363E+02  0.72765692626E+02  0.20791981684E+03  0.22492104222E+03  0.00000000000E+00 0.  1.
<mgrwt>
<rscale>  0 0.10770010E+03</rscale>
<asrwt>0</asrwt>
<pdfrwt beam="2">  1        2 0.36319258E+00 0.13521598E+03</pdfrwt>
<pdfrwt beam="1">  1       -2 0.36762107E-01 0.85783594E+02</pdfrwt>
<totfact> 0.36358814E+01</totfact>
</mgrwt>
</event>
<event>
 7    1  0.3113151E-004  0.6988861E+02  0.7546771E-02  0.1454075E+00
          2   -1    0    0  503    0  0.00000000000E+00  0.00000000000E+00  0.13351784098E+03  0.13351784098E+03  0.00000000000E+00 0.  1.
          2   -1    0    0  502    0 -0.00000000000E+00 -0.00000000000E+00 -0.38778945227E+03  0.38778945227E+03  0.00000000000E+00 0. -1.
         25    2    1    2    0    0  0.61870387429E+02 -0.31254090867E+02 -0.11798989276E+03  0.18533832421E+03  0.12499566629E+03 0.  0.
          4    1    3    3  501    0 -0.21830615769E+01 -0.17696061511E+02 -0.11851079198E+03  0.11985131233E+03  0.12700000000E+01 0. -1.
         -4    1    3    3    0  501  0.64053449006E+02 -0.13558029356E+02  0.52089921894E+00  0.65487011885E+02  0.12700000000E+01 0. -1.
          2    1    1    2  502    0 -0.20934086772E+02 -0.26206346424E+02 -0.22224468123E+03  0.22476144446E+03  0.00000000000E+00 0. -1.
          2    1    1    2  503    0 -0.40936300658E+02  0.57460437291E+02  0.85962962707E+02  0.11120752458E+03  0.00000000000E+00 0.  1.
<mgrwt>
<rscale>  0 0.48416363E+02</rscale>
<asrwt>0</asrwt>
<pdfrwt beam="1">  1        2 0.20541207E-01 0.69888610E+02</pdfrwt>
<pdfrwt beam="2">  1        2 0.59659915E-01 0.33541148E+02</pdfrwt>
<totfact> 0.32885243E+03</totfact>
</mgrwt>
</event>
<event>
 7    1  0.3113151E-004  0.7145537E+02  0.7546771E-02  0.1393228E+00
          1   -1    0    0  503    0 -0.00000000000E+00  0.00000000000E+00  0.87578079878E+03  0.87578079878E+03  0.00000000000E+00 0. -1.
          2   -1    0    0  502    0  0.00000000000E+00 -0.00000000000E+00 -0.46402726205E+03  0.46402726205E+03  0.00000000000E+00 0. -1.
         25    2    1    2    0    0  0.90423920984E+02  0.15928399316E+02  0.61563666923E+02  0.16686979681E+03  0.12500097844E+03 0.  0.
          4    1    3    3  501    0  0.57775199316E+01  0.20175689744E+02 -0.33471035186E+02  0.39526716150E+02  0.12700000000E+01 0.  1.
         -4    1    3    3    0  501  0.84646401052E+02 -0.42472904277E+01  0.95034702109E+02  0.12734308066E+03  0.12700000000E+01 0.  1.
          2    1    1    2  502    0 -0.64869076600E+02  0.29661981221E+02 -0.40737509428E+03  0.41357260265E+03  0.00000000000E+00 0. -1.
          1    1    1    2  503    0 -0.25554844384E+02 -0.45590380537E+02  0.75756496408E+03  0.75936566137E+03  0.00000000000E+00 0. -1.
<mgrwt>
<rscale>  0 0.61110953E+02</rscale>
<asrwt>0</asrwt>
<pdfrwt beam="2">  1        2 0.71388810E-01 0.71455374E+02</pdfrwt>
<pdfrwt beam="1">  1        1 0.13473551E+00 0.52264069E+02</pdfrwt>
<totfact> 0.20570483E+02</totfact>
</mgrwt>
</event>
<event>
 7    1  0.3113151E-004  0.1014298E+03  0.7546771E-02  0.1290951E+00
         -3   -1    0    0    0  501 -0.00000000000E+00  0.00000000000E+00  0.10030792433E+03  0.10030792433E+03  0.00000000000E+00 0.  1.
          2   -1    0    0  503    0  0.00000000000E+00 -0.00000000000E+00 -0.23259033787E+04  0.23259033787E+04  0.00000000000E+00 0. -1.
         25    2    1    2    0    0  0.14848541259E+03  0.10204711657E+03 -0.23129127648E+03  0.31872241041E+03  0.12500715406E+03 0.  0.
          4    1    3    3  502    0 -0.17858334326E+02 -0.77743524413E+01 -0.15224744002E+02  0.24754118662E+02  0.12700000000E+01 0.  1.
         -4    1    3    3    0  502  0.16634374691E+03  0.10982146901E+03 -0.21606653248E+03  0.29396829175E+03  0.12700000000E+01 0.  1.
          2    1    1    2  503    0 -0.94405273000E+02 -0.31154704164E+02 -0.20137712071E+04  0.20162235605E+04  0.00000000000E+00 0. -1.
         -3    1    1    2    0  501 -0.54080139589E+02 -0.70892412407E+02  0.19467029200E+02  0.91265332195E+02  0.00000000000E+00 0.  1.
<mgrwt>
<rscale>  0 0.95099870E+02</rscale>
<asrwt>0</asrwt>
<pdfrwt beam="2">  1        2 0.35783128E+00 0.10142978E+03</pdfrwt>
<pdfrwt beam="1">  1       -3 0.15431989E-01 0.89164991E+02</pdfrwt>
<totfact> 0.11396983E+02</totfact>
</mgrwt>
</event>
<event>
 7    1  0.3276999E-004  0.1056107E+03  0.7546771E-02  0.1356402E+00
         -1   -1    0    0    0  501 -0.00000000000E+00  0.00000000000E+00  0.24256954164E+03  0.24256954164E+03  0.00000000000E+00 0.  1.
          2   -1    0    0  503    0  0.00000000000E+00 -0.00000000000E+00 -0.15828921356E+03  0.15828921356E+03  0.00000000000E+00 0. -1.
         25    2    1    2    0    0  0.22610519399E+02 -0.12811685564E+03  0.15000862977E+03  0.23462794749E+03  0.12499008141E+03 0.  0.
          4    1    3    3  502    0  0.43370755403E+02 -0.41328939137E+02  0.13003089528E+03  0.14317384629E+03  0.12700000000E+01 0. -1.
         -4    1    3    3    0  502 -0.20760236005E+02 -0.86787916506E+02  0.19977734487E+02  0.91454101197E+02  0.12700000000E+01 0. -1.
          2    1    1    2  503    0 -0.12839028408E+02  0.46108297395E+02 -0.68536222812E+02  0.83594435081E+02  0.00000000000E+00 0. -1.
         -1    1    1    2    0  501 -0.97714909901E+01  0.82008558247E+02  0.28079211241E+01  0.82636372640E+02  0.00000000000E+00 0.  1.
<mgrwt>
<rscale>  0 0.71097041E+02</rscale>
<asrwt>0</asrwt>
<pdfrwt beam="2">  1        2 0.24352187E-01 0.47862467E+02</pdfrwt>
<pdfrwt beam="1">  1       -1 0.37318391E-01 0.10561071E+03</pdfrwt>
<totfact> 0.16685528E+03</totfact>
</mgrwt>
</event>
<event>
 7    1  0.3113151E-004  0.2770790E+02  0.7546771E-02  0.1651774E+00
          1   -1    0    0  502    0  0.00000000000E+00  0.00000000000E+00  0.25994997137E+04  0.25994997137E+04  0.00000000000E+00 0. -1.
          1   -1    0    0  503    0 -0.00000000000E+00 -0.00000000000E+00 -0.44594360304E+02  0.44594360304E+02  0.00000000000E+00 0. -1.
         25    2    1    2    0    0  0.24689477773E+02  0.18123229383E+02  0.15172443689E+04  0.15226931396E+04  0.12500360248E+03 0.  0.
          4    1    3    3  501    0 -0.53849249775E+01 -0.25234552978E+02  0.12510253604E+04  0.12512920703E+04  0.12700000000E+01 0.  1.
         -4    1    3    3    0  501  0.30074402751E+02  0.43357782361E+02  0.26621900856E+03  0.27140106929E+03  0.12700000000E+01 0.  1.
          1    1    1    2  502    0 -0.21790963030E+02  0.94542077319E+01  0.10747942035E+04  0.10750566534E+04  0.00000000000E+00 0. -1.
          1    1    1    2  503    0 -0.28985147434E+01 -0.27577437115E+02 -0.37133219034E+02  0.46344281000E+02  0.00000000000E+00 0. -1.
<mgrwt>
<rscale>  0 0.25654616E+02</rscale>
<asrwt>0</asrwt>
<pdfrwt beam="1">  1        1 0.39992291E+00 0.23753486E+02</pdfrwt>
<pdfrwt beam="2">  1        1 0.68606729E-02 0.27707904E+02</pdfrwt>
<totfact> 0.21252233E+02</totfact>
</mgrwt>
</event>
<event>
 7    1  0.3113151E-004  0.5187973E+02  0.7546771E-02  0.1546282E+00
         -2   -1    0    0    0  501 -0.00000000000E+00  0.00000000000E+00  0.16274256309E+02  0.16274256309E+02  0.00000000000E+00 0.  1.
          1   -1    0    0  503    0  0.00000000000E+00 -0.00000000000E+00 -0.77832895004E+03  0.77832895004E+03  0.00000000000E+00 0. -1.
         25    2    1    2    0    0  0.17563880543E+02  0.37586428111E+02 -0.49489475372E+03  0.51212145359E+03  0.12500534588E+03 0.  0.
          4    1    3    3  502    0  0.63620966005E+02  0.43485164567E+02 -0.38783555898E+03  0.39541955005E+03  0.12700000000E+01 0.  1.
         -4    1    3    3    0  502 -0.46057085462E+02 -0.58987364556E+01 -0.10705919473E+03  0.11670190354E+03  0.12700000000E+01 0.  1.
          1    1    1    2  503    0 -0.41500409497E+02 -0.38808817254E+02 -0.23823558393E+03  0.24491754068E+03  0.00000000000E+00 0. -1.
         -2    1    1    2    0  501  0.23936528955E+02  0.12223891429E+01 -0.28924356090E+02  0.37564212075E+02  0.00000000000E+00 0.  1.
<mgrwt>
<rscale>  0 0.35262430E+02</rscale>
<asrwt>0</asrwt>
<pdfrwt beam="2">  1        1 0.11974291E+00 0.51879732E+02</pdfrwt>
<pdfrwt beam="1">  1       -2 0.25037319E-02 0.23967721E+02</pdfrwt>
<totfact> 0.91691014E+03</totfact>
</mgrwt>
</event>
<event>
 7    1  0.3113151E-004  0.3697184E+02  0.7546771E-02  0.1563127E+00
          2   -1    0    0  503    0  0.00000000000E+00  0.00000000000E+00  0.93660385448E+03  0.93660385448E+03  0.00000000000E+00 0. -1.
         -1   -1    0    0    0  501 -0.00000000000E+00 -0.00000000000E+00 -0.13787903480E+02  0.13787903480E+02  0.00000000000E+00 0.  1.
         25    2    1    2    0    0 -0.22900793614E+02  0.61470608188E+01  0.72583758389E+03  0.73690341093E+03  0.12499682455E+03 0.  0.
          4    1    3    3  502    0  0.17549490195E+02  0.55314143663E+02  0.45459485903E+03  0.45828565094E+03  0.12700000000E+01 0.  1.
         -4    1    3    3    0  502 -0.40450283809E+02 -0.49167082844E+02  0.27124272486E+03  0.27861775999E+03  0.12700000000E+01 0.  1.
          2    1    1    2  503    0  0.52188711499E+01 -0.38616537579E+02  0.14188870365E+03  0.14714237260E+03  0.00000000000E+00 0. -1.
         -1    1    1    2    0  501  0.17681922464E+02  0.32469476760E+02  0.55089663459E+02  0.66345974430E+02  0.00000000000E+00 0.  1.
<mgrwt>
<rscale>  0 0.33416745E+02</rscale>
<asrwt>0</asrwt>
<pdfrwt beam="1">  1        2 0.14409285E+00 0.30203493E+02</pdfrwt>
<pdfrwt beam="2">  1       -1 0.21212166E-02 0.36971845E+02</pdfrwt>
<totfact> 0.17552913E+04</totfact>
</mgrwt>
</event>
<event>
 7    1  0.3113151E-004  0.6171053E+02  0.7546771E-02  0.1469065E+00
          2   -1    0    0  503    0  0.00000000000E+00  0.00000000000E+00  0.97751707320E+03  0.97751707320E+03  0.00000000000E+00 0.  1.
         -1   -1    0    0    0  501 -0.00000000000E+00 -0.00000000000E+00 -0.31234701256E+03  0.31234701256E+03  0.00000000000E+00 0.  1.
         25    2    1    2    0    0  0.22685987244E+02  0.24979657468E+02 -0.20710158196E+03  0.24424169369E+03  0.12499720949E+03 0.  0.
          4    1    3    3  502    0  0.55382718164E+02  0.86078289695E+01 -0.19902782116E+03  0.20677288673E+03  0.12700000000E+01 0. -1.
         -4    1    3    3    0  502 -0.32696730920E+02  0.16371828499E+02 -0.80737607950E+01  0.37468806955E+02  0.12700000000E+01 0. -1.
          2    1    1    2  503    0 -0.56758803069E+02 -0.24568126925E+02  0.95455806739E+03  0.95655959490E+03  0.00000000000E+00 0.  1.
         -1    1    1    2    0  501  0.34072815826E+02 -0.41153054306E+00 -0.82286424785E+02  0.89062797169E+02  0.00000000000E+00 0.  1.
<mgrwt>
<rscale>  0 0.45856351E+02</rscale>
<asrwt>0</asrwt>
<pdfrwt beam="1">  1        2 0.15038724E+00 0.61710532E+02</pdfrwt>
<pdfrwt beam="2">  1       -1 0.48053387E-01 0.34075301E+02</pdfrwt>
<totfact> 0.14946949E+02</totfact>
</mgrwt>
</event>
<event>
 7    1  0.3348402E-004  0.1354927E+03  0.7546771E-02  0.1397537E+00
          2   -1    0    0  503    0  0.00000000000E+00  0.00000000000E+00  0.48818116003E+03  0.48818116003E+03  0.00000000000E+00 0. -1.
         -1   -1    0    0    0  501 -0.00000000000E+00 -0.00000000000E+00 -0.69618853844E+02  0.69618853844E+02  0.00000000000E+00 0.  1.
         25    2    1    2    0    0 -0.14977638941E+03  0.11032281298E+02  0.18907950578E+03  0.27190315382E+03  0.12500234994E+03 0.  0.
          4    1    3    3  502    0 -0.20110612784E+02 -0.47699202161E+02  0.37319951743E+02  0.63828225195E+02  0.12700000000E+01 0. -1.
         -4    1    3    3    0  502 -0.12966577663E+03  0.58731483459E+02  0.15175955404E+03  0.20807492862E+03  0.12700000000E+01 0. -1.
          2    1    1    2  503    0  0.12717297780E+03 -0.25116048671E+02  0.22385140559E+03  0.25867592460E+03  0.00000000000E+00 0. -1.
         -1    1    1    2    0  501  0.22603411611E+02  0.14083767373E+02  0.56313948177E+01  0.27220935463E+02  0.00000000000E+00 0.  1.
<mgrwt>
<rscale>  0 0.60070380E+02</rscale>
<asrwt>0</asrwt>
<pdfrwt beam="1">  1        2 0.75104791E-01 0.13549272E+03</pdfrwt>
<pdfrwt beam="2">  1       -1 0.10710593E-01 0.26632062E+02</pdfrwt>
<totfact> 0.34294017E+03</totfact>
</mgrwt>
</event>
<event>
 7    1  0.3113151E-004  0.1231170E+03  0.7546771E-02  0.1346532E+00
          1   -1    0    0  503    0  0.00000000000E+00  0.00000000000E+00  0.62740694819E+03  0.62740694819E+03  0.00000000000E+00 0. -1.
         -3   -1    0    0    0  501 -0.00000000000E+00 -0.00000000000E+00 -0.49091595454E+02  0.49091595454E+02  0.00000000000E+00 0.  1.
         25    2    1    2    0    0  0.17422478303E+02 -0.10381377610E+03  0.34249068756E+03  0.37948143477E+03  0.12500178164E+03 0.  0.
          4    1    3    3  502    0 -0.17469783062E+02  0.85291195918E+01  0.16745531653E+03  0.16858480102E+03  0.12700000000E+01 0. -1.
         -4    1    3    3    0  502  0.34892261365E+02 -0.11234289569E+03  0.17503537103E+03  0.21089663375E+03  0.12700000000E+01 0. -1.
          1    1    1    2  503    0  0.41697048859E+02 -0.15982595498E+02  0.81263569056E+02  0.92724618619E+02  0.00000000000E+00 0. -1.
         -3    1    1    2    0  501 -0.59119527162E+02  0.11979637160E+03  0.15456109612E+03  0.20429249025E+03  0.00000000000E+00 0.  1.
<mgrwt>
<rscale>  0 0.74147239E+02</rscale>
<asrwt>0</asrwt>
<pdfrwt beam="1">  1        1 0.96524140E-01 0.44655204E+02</pdfrwt>
<pdfrwt beam="2">  1       -3 0.75525536E-02 0.12311696E+03</pdfrwt>
<totfact> 0.21184396E+03</totfact>
</mgrwt>
</event>
<event>
 7    1  0.3113151E-004  0.1101427E+03  0.7546771E-02  0.1296943E+00
         -1   -1    0    0    0  501 -0.00000000000E+00  0.00000000000E+00  0.15733783918E+03  0.15733783918E+03  0.00000000000E+00 0.  1.
          1   -1    0    0  503    0  0.00000000000E+00 -0.00000000000E+00 -0.30224452946E+03  0.30224452946E+03  0.00000000000E+00 0. -1.
         25    2    1    2    0    0 -0.43027485099E+01  0.64534572486E+02 -0.37795497254E+02  0.14572558365E+03  0.12499688567E+03 0.  0.
          4    1    3    3  502    0  0.40946513513E+02  0.65711876785E+01  0.25494917974E+02  0.48697035011E+02  0.12700000000E+01 0.  1.
         -4    1    3    3    0  502 -0.45249262023E+02  0.57963384808E+02 -0.63290415227E+02  0.97028548642E+02  0.12700000000E+01 0.  1.
          1    1    1    2  503    0  0.63557136015E+02 -0.11473115961E+03 -0.16944492428E+03  0.21427629568E+03  0.00000000000E+00 0. -1.
         -1    1    1    2    0  501 -0.59254387505E+02  0.50196587120E+02  0.62333731261E+02  0.99580489304E+02  0.00000000000E+00 0.  1.
<mgrwt>
<rscale>  0 0.92484971E+02</rscale>
<asrwt>0</asrwt>
<pdfrwt beam="2">  1        1 0.46499158E-01 0.11014267E+03</pdfrwt>
<pdfrwt beam="1">  1       -1 0.24205822E-01 0.77658096E+02</pdfrwt>
<totfact> 0.12420781E+03</totfact>
</mgrwt>
</event>
<event>
 7    1  0.3113151E-004  0.1534766E+03  0.7546771E-02  0.1261437E+00
          1   -1    0    0  502    0  0.00000000000E+00  0.00000000000E+00  0.26860998410E+04  0.26860998410E+04  0.00000000000E+00 0. -1.
          1   -1    0    0  503    0 -0.00000000000E+00 -0.00000000000E+00 -0.27954676370E+03  0.27954676370E+03  0.00000000000E+00 0. -1.
         25    2    1    2    0    0 -0.78061828351E+02 -0.14352355926E+03  0.47583924857E+03  0.51840378871E+03  0.12500734603E+03 0.  0.
          4    1    3    3  501    0  0.71945240824E+01 -0.65806859120E+02  0.69443828486E+02  0.95949789468E+02  0.12700000000E+01 0.  1.
         -4    1    3    3    0  501 -0.85256352433E+02 -0.77716700143E+02  0.40639542009E+03  0.42245399925E+03  0.12700000000E+01 0.  1.
          1    1    1    2  502    0  0.77482208462E+02 -0.10358620881E+02  0.21652879435E+04  0.21666985651E+04  0.00000000000E+00 0. -1.
          1    1    1    2  503    0  0.57961988914E+00  0.15388218014E+03 -0.23457411484E+03  0.28054425083E+03  0.00000000000E+00 0. -1.
<mgrwt>
<rscale>  0 0.10953314E+03</rscale>
<asrwt>0</asrwt>
<pdfrwt beam="1">  1        1 0.41324611E+00 0.78171566E+02</pdfrwt>
<pdfrwt beam="2">  1        1 0.43007196E-01 0.15347663E+03</pdfrwt>
<totfact> 0.16527107E+01</totfact>
</mgrwt>
</event>
<event>
 7    1  0.3113151E-004  0.3760783E+02  0.7546771E-02  0.1542467E+00
          1   -1    0    0  503    0  0.00000000000E+00  0.00000000000E+00  0.81332074760E+03  0.81332074760E+03  0.00000000000E+00 0. -1.
          1   -1    0    0  502    0 -0.00000000000E+00 -0.00000000000E+00 -0.17853810973E+03  0.17853810973E+03  0.00000000000E+00 0. -1.
         25    2    1    2    0    0 -0.67132076590E+02  0.15990576098E+02  0.98211304234E+02  0.17329815949E+03  0.12499751026E+03 0.  0.
          4    1    3    3  501    0 -0.25852441993E+02 -0.48475617934E+02  0.89102332549E+01  0.55670813249E+02  0.12700000000E+01 0. -1.
         -4    1    3    3    0  501 -0.41279634597E+02  0.64466194033E+02  0.89301070979E+02  0.11762734624E+03  0.12700000000E+01 0. -1.
          1    1    1    2  502    0  0.33882545718E+02  0.70062336401E+00 -0.13843855714E+03  0.14252631995E+03  0.00000000000E+00 0. -1.
          1    1    1    2  503    0  0.33249530872E+02 -0.16691199462E+02  0.67500989077E+03  0.67603437788E+03  0.00000000000E+00 0. -1.
<mgrwt>
<rscale>  0 0.35700441E+02</rscale>
<asrwt>0</asrwt>
<pdfrwt beam="1">  1        1 0.12512627E+00 0.37607832E+02</pdfrwt>
<pdfrwt beam="2">  1        1 0.27467402E-01 0.33889789E+02</pdfrwt>
<totfact> 0.48025364E+02</totfact>
</mgrwt>
</event>
<event>
 7    1  0.3113151E-004  0.6290258E+02  0.7546771E-02  0.1402730E+00
          3   -1    0    0  503    0 -0.00000000000E+00  0.00000000000E+00  0.52672797544E+02  0.52672797544E+02  0.00000000000E+00 0. -1.
          2   -1    0    0  502    0  0.00000000000E+00 -0.00000000000E+00 -0.15375375622E+04  0.15375375622E+04  0.00000000000E+00 0. -1.
         25    2    1    2    0    0 -0.81845050534E+02 -0.13489574460E+02 -0.97164847250E+03  0.98316141660E+03  0.12500014424E+03 0.  0.
          4    1    3    3  501    0 -0.44762796055E+02 -0.56093902347E+02 -0.27454893171E+03  0.28377625446E+03  0.12700000000E+01 0.  1.
         -4    1    3    3    0  501 -0.37082254480E+02  0.42604327886E+02 -0.69709954079E+03  0.69938516214E+03  0.12700000000E+01 0.  1.
          2    1    1    2  502    0  0.28622049190E+02  0.47030065360E+02 -0.53698405732E+03  0.53979896866E+03  0.00000000000E+00 0. -1.
          3    1    1    2  503    0  0.53223001344E+02 -0.33540490899E+02  0.23767765198E+02  0.67249974456E+02  0.00000000000E+00 0. -1.
<mgrwt>
<rscale>  0 0.58848103E+02</rscale>
<asrwt>0</asrwt>
<pdfrwt beam="2">  1        2 0.23654423E+00 0.55054961E+02</pdfrwt>
<pdfrwt beam="1">  1        3 0.81035075E-02 0.62902583E+02</pdfrwt>
<totfact> 0.83293254E+02</totfact>
</mgrwt>
</event>
<event>
 7    1  0.3113151E-004  0.6819838E+02  0.7546771E-02  0.1406727E+00
         -2   -1    0    0    0  501 -0.00000000000E+00  0.00000000000E+00  0.11618885893E+02  0.11618885893E+02  0.00000000000E+00 0.  1.
          3   -1    0    0  503    0  0.00000000000E+00 -0.00000000000E+00 -0.15677000295E+04  0.15677000295E+04  0.00000000000E+00 0.  1.
         25    2    1    2    0    0  0.28555146780E+02  0.21994071439E+02 -0.76027145386E+03  0.77132121874E+03  0.12499841338E+03 0.  0.
          4    1    3    3  502    0  0.61107056359E+02 -0.66328966839E+01 -0.64887208784E+03  0.65177808104E+03  0.12700000000E+01 0.  1.
         -4    1    3    3    0  502 -0.32551909580E+02  0.28626968123E+02 -0.11139936602E+03  0.11954313770E+03  0.12700000000E+01 0.  1.
          3    1    1    2  503    0  0.45481664037E+02  0.18786631838E+02 -0.41575833788E+03  0.41866038124E+03  0.00000000000E+00 0.  1.
         -2    1    1    2    0  501 -0.74036810816E+02 -0.40780703277E+02 -0.38005135183E+03  0.38933731537E+03  0.00000000000E+00 0.  1.
<mgrwt>
<rscale>  0 0.57930730E+02</rscale>
<asrwt>0</asrwt>
<pdfrwt beam="2">  1        3 0.24118472E+00 0.49208935E+02</pdfrwt>
<pdfrwt beam="1">  1       -2 0.17875201E-02 0.68198376E+02</pdfrwt>
<totfact> 0.30398221E+02</totfact>
</mgrwt>
</event>
<event>
 7    1  0.3113151E-004  0.6666657E+02  0.7546771E-02  0.1485864E+00
          2   -1    0    0  502    0  0.00000000000E+00  0.00000000000E+00  0.94696732819E+03  0.94696732819E+03  0.00000000000E+00 0. -1.
          1   -1    0    0  503    0 -0.00000000000E+00 -0.00000000000E+00 -0.20447520062E+03  0.20447520062E+03  0.00000000000E+00 0. -1.
         25    2    1    2    0    0  0.23917438309E+00  0.47305866388E+02  0.17057842057E+03  0.21671790242E+03  0.12502699495E+03 0.  0.
          4    1    3    3  501    0  0.44787912331E+02  0.60896864469E+02  0.59323223706E+02  0.96100171508E+02  0.12700000000E+01 0.  1.
         -4    1    3    3    0  501 -0.44548737948E+02 -0.13590998081E+02  0.11125519686E+03  0.12061773091E+03  0.12700000000E+01 0.  1.
          2    1    1    2  502    0  0.23026353293E+02  0.15932775230E+02  0.74679044817E+03  0.74731522114E+03  0.00000000000E+00 0. -1.
          1    1    1    2  503    0 -0.23265527676E+02 -0.63238641618E+02 -0.17487674117E+03  0.18740940525E+03  0.00000000000E+00 0. -1.
<mgrwt>
<rscale>  0 0.43205821E+02</rscale>
<asrwt>0</asrwt>
<pdfrwt beam="1">  1        2 0.14568728E+00 0.28001183E+02</pdfrwt>
<pdfrwt beam="2">  1        1 0.31457724E-01 0.66666574E+02</pdfrwt>
<totfact> 0.60145277E+02</totfact>
</mgrwt>
</event>
<event>
 7    1  0.3113151E-004  0.2790432E+03  0.7546771E-02  0.1296656E+00
         -3   -1    0    0    0  501 -0.00000000000E+00  0.00000000000E+00  0.20175791977E+03  0.20175791977E+03  0.00000000000E+00 0.  1.
          1   -1    0    0  503    0  0.00000000000E+00 -0.00000000000E+00 -0.11508656956E+04  0.11508656956E+04  0.00000000000E+00 0. -1.
         25    2    1    2    0    0  0.48379215639E+02 -0.29017843825E+03 -0.33606464627E+03  0.46380018647E+03  0.12500836759E+03 0.  0.
          4    1    3    3  502    0 -0.10915866036E+02 -0.19404810874E+03 -0.27085832812E+03  0.33337617109E+03  0.12700000000E+01 0.  1.
         -4    1    3    3    0  502  0.59295081675E+02 -0.96130329505E+02 -0.65206318149E+02  0.13042401538E+03  0.12700000000E+01 0.  1.
          1    1    1    2  503    0  0.18697043038E+02  0.24393348364E+02 -0.61393467300E+03  0.61470350379E+03  0.00000000000E+00 0. -1.
         -3    1    1    2    0  501 -0.67076258677E+02  0.26578508988E+03  0.89154345130E+00  0.27411992509E+03  0.00000000000E+00 0.  1.
<mgrwt>
<rscale>  0 0.92608192E+02</rscale>
<asrwt>0</asrwt>
<pdfrwt beam="2">  1        1 0.17705626E+00 0.30734587E+02</pdfrwt>
<pdfrwt beam="1">  1       -3 0.31039680E-01 0.27904319E+03</pdfrwt>
<totfact> 0.81467274E+01</totfact>
</mgrwt>
</event>
<event>
 7    1  0.3113151E-004  0.4457818E+02  0.7546771E-02  0.1606995E+00
         -1   -1    0    0    0  501 -0.00000000000E+00  0.00000000000E+00  0.60458244028E+03  0.60458244028E+03  0.00000000000E+00 0.  1.
          1   -1    0    0  503    0  0.00000000000E+00 -0.00000000000E+00 -0.30915167059E+02  0.30915167059E+02  0.00000000000E+00 0. -1.
         25    2    1    2    0    0 -0.60901076556E+01 -0.58568573329E+01  0.50894343244E+03  0.52413775193E+03  0.12500229351E+03 0.  0.
          4    1    3    3  502    0 -0.58238121300E+02  0.34045777398E+01  0.38426292464E+03  0.38866808214E+03  0.12700000000E+01 0.  1.
         -4    1    3    3    0  502  0.52148013645E+02 -0.92614350727E+01  0.12468050780E+03  0.13546966979E+03  0.12700000000E+01 0.  1.
          1    1    1    2  503    0  0.29146895421E+02 -0.33729403460E+02  0.35883324230E+02  0.57226105304E+02  0.00000000000E+00 0. -1.
         -1    1    1    2    0  501 -0.23056787766E+02  0.39586260792E+02  0.28840516544E+02  0.54133750102E+02  0.00000000000E+00 0.  1.
<mgrwt>
<rscale>  0 0.29209429E+02</rscale>
<asrwt>0</asrwt>
<pdfrwt beam="2">  1        1 0.47561800E-02 0.44578180E+02</pdfrwt>
<pdfrwt beam="1">  1       -1 0.93012674E-01 0.19139201E+02</pdfrwt>
<totfact> 0.19710219E+03</totfact>
</mgrwt>
</event>
<event>
 7    1  0.3113151E-004  0.1007951E+03  0.7546771E-02  0.1319380E+00
         -1   -1    0    0    0  501 -0.00000000000E+00  0.00000000000E+00  0.97563702801E+03  0.97563702801E+03  0.00000000000E+00 0.  1.
          1   -1    0    0  503    0  0.00000000000E+00 -0.00000000000E+00 -0.99776831646E+03  0.99776831646E+03  0.00000000000E+00 0. -1.
         25    2    1    2    0    0 -0.52828530700E+02 -0.34845654555E+01  0.32745027458E+03  0.35447435107E+03  0.12500154954E+03 0.  0.
          4    1    3    3  502    0 -0.30983760062E+02  0.60576216562E+02  0.16556266919E+03  0.17900302156E+03  0.12700000000E+01 0.  1.
         -4    1    3    3    0  502 -0.21844770639E+02 -0.64060782018E+02  0.16188760540E+03  0.17547132951E+03  0.12700000000E+01 0.  1.
          1    1    1    2  503    0 -0.66865496930E+02 -0.17768978856E+02 -0.97720072723E+03  0.97964687137E+03  0.00000000000E+00 0. -1.
         -1    1    1    2    0  501  0.11969402763E+03  0.21253544312E+02  0.62761916420E+03  0.63928412202E+03  0.00000000000E+00 0.  1.
<mgrwt>
<rscale>  0 0.83508253E+02</rscale>
<asrwt>0</asrwt>
<pdfrwt beam="2">  1        1 0.15350282E+00 0.69186207E+02</pdfrwt>
<pdfrwt beam="1">  1       -1 0.15009801E+00 0.10079507E+03</pdfrwt>
<totfact> 0.71708542E+00</totfact>
</mgrwt>
</event>
<event>
 7    1  0.3113151E-004  0.5524890E+02  0.7546771E-02  0.1486625E+00
         -1   -1    0    0    0  501 -0.00000000000E+00  0.00000000000E+00  0.64034510870E+02  0.64034510870E+02  0.00000000000E+00 0.  1.
          1   -1    0    0  503    0  0.00000000000E+00 -0.00000000000E+00 -0.22230013087E+03  0.22230013087E+03  0.00000000000E+00 0. -1.
         25    2    1    2    0    0 -0.35776114740E+02  0.31830350914E+02 -0.96840255002E+02  0.16522265387E+03  0.12500955459E+03 0.  0.
          4    1    3    3  502    0 -0.43613230557E+02  0.17536261724E+01  0.17262806147E+02  0.46955366684E+02  0.12700000000E+01 0.  1.
         -4    1    3    3    0  502  0.78371158175E+01  0.30076724742E+02 -0.11410306115E+03  0.11826728719E+03  0.12700000000E+01 0.  1.
          1    1    1    2  503    0  0.21761108239E+02  0.25611750503E+02 -0.50992321081E+02  0.61071469647E+02  0.00000000000E+00 0. -1.
         -1    1    1    2    0  501  0.14015006500E+02 -0.57442101418E+02 -0.10433043914E+02  0.60040518217E+02  0.00000000000E+00 0.  1.
<mgrwt>
<rscale>  0 0.43090757E+02</rscale>
<asrwt>0</asrwt>
<pdfrwt beam="2">  1        1 0.34200021E-01 0.33608148E+02</pdfrwt>
<pdfrwt beam="1">  1       -1 0.98514631E-02 0.55248904E+02</pdfrwt>
<totfact> 0.69729201E+03</totfact>
</mgrwt>
</event>
<event>
 7    1  0.3113151E-004  0.6659795E+02  0.7546771E-02  0.1406916E+00
         -1   -1    0    0    0  501 -0.00000000000E+00  0.00000000000E+00  0.45680291550E+02  0.45680291550E+02  0.00000000000E+00 0.  1.
          2   -1    0    0  503    0  0.00000000000E+00 -0.00000000000E+00 -0.16205143215E+04  0.16205143215E+04  0.00000000000E+00 0. -1.
         25    2    1    2    0    0 -0.34294435395E+02 -0.36405317795E+02 -0.35505231605E+03  0.37972201733E+03  0.12500083139E+03 0.  0.
          4    1    3    3  502    0 -0.64689091730E+02  0.70120152050E+01 -0.28229080381E+03  0.28969562951E+03  0.12700000000E+01 0.  1.
         -4    1    3    3    0  502  0.30394656335E+02 -0.43417333000E+02 -0.72761512247E+02  0.90026387815E+02  0.12700000000E+01 0.  1.
          2    1    1    2  503    0  0.69071719656E+02  0.41619293700E-01 -0.12326120109E+04  0.12345457762E+04  0.00000000000E+00 0. -1.
         -1    1    1    2    0  501 -0.34777284261E+02  0.36363698502E+02  0.12830296942E+02  0.51926819553E+02  0.00000000000E+00 0.  1.
<mgrwt>
<rscale>  0 0.57887774E+02</rscale>
<asrwt>0</asrwt>
<pdfrwt beam="2">  1        2 0.24930986E+00 0.66597953E+02</pdfrwt>
<pdfrwt beam="1">  1       -1 0.70277382E-02 0.50316777E+02</pdfrwt>
<totfact> 0.13924007E+03</totfact>
</mgrwt>
</event>
<event>
 7    1  0.3113151E-004  0.4910797E+02  0.7546771E-02  0.1579455E+00
          2   -1    0    0  503    0  0.00000000000E+00  0.00000000000E+00  0.15985143900E+03  0.15985143900E+03  0.00000000000E+00 0. -1.
         -1   -1    0    0    0  501 -0.00000000000E+00 -0.00000000000E+00 -0.84629138877E+02  0.84629138877E+02  0.00000000000E+00 0.  1.
         25    2    1    2    0    0  0.37344081180E+02  0.61645512045E+01  0.63360671370E+01  0.13076341633E+03  0.12500537274E+03 0.  0.
          4    1    3    3  502    0 -0.96700265911E+01  0.39889670555E+02  0.45187111497E+02  0.61058850109E+02  0.12700000000E+01 0.  1.
         -4    1    3    3    0  502  0.47014107771E+02 -0.33725119351E+02 -0.38851044360E+02  0.69704566225E+02  0.12700000000E+01 0.  1.
          2    1    1    2  503    0  0.14302650278E+02  0.14734752375E+02  0.51356064381E+02  0.55309348950E+02  0.00000000000E+00 0. -1.
         -1    1    1    2    0  501 -0.51646731458E+02 -0.20899303580E+02  0.17530168605E+02  0.58407812592E+02  0.00000000000E+00 0.  1.
<mgrwt>
<rscale>  0 0.31755681E+02</rscale>
<asrwt>0</asrwt>
<pdfrwt beam="1">  1        2 0.24592529E-01 0.20534818E+02</pdfrwt>
<pdfrwt beam="2">  1       -1 0.13019868E-01 0.49107972E+02</pdfrwt>
<totfact> 0.83308556E+03</totfact>
</mgrwt>
</event>
<event>
 7    1  0.3113151E-004  0.2813352E+03  0.7546771E-02  0.1293120E+00
         -2   -1    0    0    0  501 -0.00000000000E+00  0.00000000000E+00  0.83145706865E+03  0.83145706865E+03  0.00000000000E+00 0.  1.
          1   -1    0    0  503    0  0.00000000000E+00 -0.00000000000E+00 -0.17052705926E+03  0.17052705926E+03  0.00000000000E+00 0. -1.
         25    2    1    2    0    0 -0.23612701952E+03  0.18500401247E+03  0.52796340693E+03  0.61996239350E+03  0.12500222523E+03 0.  0.
          4    1    3    3  502    0 -0.13977928678E+03  0.48700053283E+02  0.17283248288E+03  0.22755795799E+03  0.12700000000E+01 0.  1.
         -4    1    3    3    0  502 -0.96347732742E+02  0.13630395919E+03  0.35513092405E+03  0.39240443551E+03  0.12700000000E+01 0.  1.
          1    1    1    2  503    0  0.22939480594E+03 -0.15422929705E+03  0.34412186906E+02  0.27855493475E+03  0.00000000000E+00 0. -1.
         -2    1    1    2    0  501  0.67322135772E+01 -0.30774715418E+02  0.98554415553E+02  0.10346679967E+03  0.00000000000E+00 0.  1.
<mgrwt>
<rscale>  0 0.94142209E+02</rscale>
<asrwt>0</asrwt>
<pdfrwt beam="2">  1        1 0.26234933E-01 0.28133523E+03</pdfrwt>
<pdfrwt beam="1">  1       -2 0.12791647E+00 0.31502473E+02</pdfrwt>
<totfact> 0.81863167E+01</totfact>
</mgrwt>
</event>
<event>
 7    1  0.3113151E-004  0.1523932E+03  0.7546771E-02  0.1217113E+00
          2   -1    0    0  503    0  0.00000000000E+00  0.00000000000E+00  0.11328497999E+04  0.11328497999E+04  0.00000000000E+00 0. -1.
         -3   -1    0    0    0  501 -0.00000000000E+00 -0.00000000000E+00 -0.10563041565E+03  0.10563041565E+03  0.00000000000E+00 0.  1.
         25    2    1    2    0    0  0.23520132341E+03 -0.29469688512E+02  0.62732737744E+03  0.68216713253E+03  0.12499693253E+03 0.  0.
          4    1    3    3  502    0  0.96416487434E+02  0.27204665350E+02  0.13898929933E+03  0.17133555117E+03  0.12700000000E+01 0. -1.
         -4    1    3    3    0  502  0.13878483597E+03 -0.56674353861E+02  0.48833807811E+03  0.51083158136E+03  0.12700000000E+01 0. -1.
          2    1    1    2  503    0 -0.11397937692E+03  0.53423764436E+02  0.41327881553E+03  0.43202404602E+03  0.00000000000E+00 0. -1.
         -3    1    1    2    0  501 -0.12122194649E+03 -0.23954075924E+02 -0.13386808755E+02  0.12428903697E+03  0.00000000000E+00 0.  1.
<mgrwt>
<rscale>  0 0.13722471E+03</rscale>
<asrwt>0</asrwt>
<pdfrwt beam="1">  1        2 0.17428458E+00 0.15239321E+03</pdfrwt>
<pdfrwt beam="2">  1       -3 0.16250834E-01 0.12356601E+03</pdfrwt>
<totfact> 0.43314737E+02</totfact>
</mgrwt>
</event>
<event>
 7    1  0.3113151E-004  0.1112577E+03  0.7546771E-02  0.1268732E+00
          2   -1    0    0  502    0  0.00000000000E+00  0.00000000000E+00  0.74807545031E+03  0.74807545031E+03  0.00000000000E+00 0.  1.
          1   -1    0    0  503    0 -0.00000000000E+00 -0.00000000000E+00 -0.10263249606E+03  0.10263249606E+03  0.00000000000E+00 0. -1.
         25    2    1    2    0    0 -0.37594773742E+02  0.12128557366E+03  0.29773610067E+03  0.34698037909E+03  0.12500016178E+03 0.  0.
          4    1    3    3  501    0  0.27374425199E+02  0.82658152784E+02  0.22826343616E+03  0.24431033250E+03  0.12700000000E+01 0.  1.
         -4    1    3    3    0  501 -0.64969198941E+02  0.38627420872E+02  0.69472664504E+02  0.10267004659E+03  0.12700000000E+01 0.  1.
          2    1    1    2  502    0  0.10659253629E+03 -0.48304038060E+02  0.38048859543E+03  0.39807891195E+03  0.00000000000E+00 0.  1.
          1    1    1    2  503    0 -0.68997762551E+02 -0.72981535597E+02 -0.32781741847E+02  0.10564865533E+03  0.00000000000E+00 0. -1.
<mgrwt>
<rscale>  0 0.10570742E+03</rscale>
<asrwt>0</asrwt>
<pdfrwt beam="1">  1        2 0.11508853E+00 0.11125768E+03</pdfrwt>
<pdfrwt beam="2">  1        1 0.15789615E-01 0.10043404E+03</pdfrwt>
<totfact> 0.18069612E+03</totfact>
</mgrwt>
</event>
<event>
 7    1  0.3113151E-004  0.5208657E+02  0.7546771E-02  0.1506241E+00
          1   -1    0    0  503    0  0.00000000000E+00  0.00000000000E+00  0.95750782410E+03  0.95750782410E+03  0.00000000000E+00 0. -1.
         -1   -1    0    0    0  501 -0.00000000000E+00 -0.00000000000E+00 -0.21648665828E+02  0.21648665828E+02  0.00000000000E+00 0.  1.
         25    2    1    2    0    0 -0.12474440879E+02  0.41998040288E+02  0.22717157092E+03  0.26294598643E+03  0.12495688090E+03 0.  0.
          4    1    3    3  502    0 -0.58657078514E+02  0.50854109039E+02  0.18136998410E+03  0.19729033757E+03  0.12700000000E+01 0.  1.
         -4    1    3    3    0  502  0.46182637635E+02 -0.88560687505E+01  0.45801586824E+02  0.65655648868E+02  0.12700000000E+01 0.  1.
          1    1    1    2  503    0  0.19115367439E+02  0.24573193489E+02  0.34650427665E+03  0.34790006158E+03  0.00000000000E+00 0. -1.
         -1    1    1    2    0  501 -0.66409265604E+01 -0.66571233778E+02  0.36218331070E+03  0.36831044191E+03  0.00000000000E+00 0.  1.
<mgrwt>
<rscale>  0 0.40268979E+02</rscale>
<asrwt>0</asrwt>
<pdfrwt beam="1">  1        1 0.14730886E+00 0.31132605E+02</pdfrwt>
<pdfrwt beam="2">  1       -1 0.33305647E-02 0.52086571E+02</pdfrwt>
<totfact> 0.53253631E+03</totfact>
</mgrwt>
</event>
<event>
 7    1  0.3113151E-004  0.5100698E+02  0.7546771E-02  0.1509980E+00
         -1   -1    0    0    0  501 -0.00000000000E+00  0.00000000000E+00  0.12892824460E+02  0.12892824460E+02  0.00000000000E+00 0.  1.
          1   -1    0    0  503    0  0.00000000000E+00 -0.00000000000E+00 -0.18095458068E+04  0.18095458068E+04  0.00000000000E+00 0. -1.
         25    2    1    2    0    0 -0.37489761063E+02  0.44655554540E+02 -0.78024381305E+03  0.79234179326E+03  0.12500203522E+03 0.  0.
          4    1    3    3  502    0  0.15864259736E+02  0.55496569739E+02 -0.62804824004E+03  0.63069624123E+03  0.12700000000E+01 0.  1.
         -4    1    3    3    0  502 -0.53354020800E+02 -0.10841015199E+02 -0.15219557302E+03  0.16164555203E+03  0.12700000000E+01 0.  1.
          1    1    1    2  503    0  0.70688520933E+01 -0.50588353622E+02 -0.98373755722E+03  0.98506280595E+03  0.00000000000E+00 0. -1.
         -1    1    1    2    0  501  0.30420908970E+02  0.59327990818E+01 -0.32671612097E+02  0.45034032071E+02  0.00000000000E+00 0.  1.
<mgrwt>
<rscale>  0 0.39760682E+02</rscale>
<asrwt>0</asrwt>
<pdfrwt beam="2">  1        1 0.27839172E+00 0.51006982E+02</pdfrwt>
<pdfrwt beam="1">  1       -1 0.19835111E-02 0.30994029E+02</pdfrwt>
<totfact> 0.27886184E+03</totfact>
</mgrwt>
</event>
<event>
 7    1  0.3113151E-004  0.9537023E+02  0.7546771E-02  0.1381247E+00
          2   -1    0    0  502    0  0.00000000000E+00  0.00000000000E+00  0.21546492256E+03  0.21546492256E+03  0.00000000000E+00 0. -1.
          2   -1    0    0  503    0 -0.00000000000E+00 -0.00000000000E+00 -0.49387168340E+03  0.49387168340E+03  0.00000000000E+00 0. -1.
         25    2    1    2    0    0 -0.31779454627E+02  0.65983236743E+02 -0.19009280125E+01  0.14488821804E+03  0.12500104373E+03 0.  0.
          4    1    3    3  501    0 -0.30139760582E+02 -0.33585907921E+02  0.23617086222E+01  0.45206293217E+02  0.12700000000E+01 0.  1.
         -4    1    3    3    0  501 -0.16396940445E+01  0.99569144665E+02 -0.42626366347E+01  0.99681924825E+02  0.12700000000E+01 0.  1.
          2    1    1    2  502    0  0.75268098422E+01 -0.10165148865E+03  0.12462785221E+03  0.16100242097E+03  0.00000000000E+00 0. -1.
          2    1    1    2  503    0  0.24252644784E+02  0.35668251910E+02 -0.40113368504E+03  0.40344596695E+03  0.00000000000E+00 0. -1.
<mgrwt>
<rscale>  0 0.64137035E+02</rscale>
<asrwt>0</asrwt>
<pdfrwt beam="1">  1        2 0.33148450E-01 0.95370234E+02</pdfrwt>
<pdfrwt beam="2">  1        2 0.75980259E-01 0.43132528E+02</pdfrwt>
<totfact> 0.15433212E+03</totfact>
</mgrwt>
</event>
<event>
 7    1  0.3113151E-004  0.1034523E+03  0.7546771E-02  0.1297001E+00
          1   -1    0    0  503    0  0.00000000000E+00  0.00000000000E+00  0.36574840744E+03  0.36574840744E+03  0.00000000000E+00 0. -1.
         -1   -1    0    0    0  501 -0.00000000000E+00 -0.00000000000E+00 -0.20494751071E+03  0.20494751071E+03  0.00000000000E+00 0.  1.
         25    2    1    2    0    0 -0.13353881672E+03 -0.79418997533E+02  0.11390224220E+03  0.22964813258E+03  0.12499820511E+03 0.  0.
          4    1    3    3  502    0 -0.36542403649E+02  0.32954793969E+02  0.15747104513E+02  0.51681233640E+02  0.12700000000E+01 0.  1.
         -4    1    3    3    0  502 -0.96996413074E+02 -0.11237379150E+03  0.98155137684E+02  0.17796689894E+03  0.12700000000E+01 0.  1.
          1    1    1    2  503    0  0.82406460677E+02 -0.61585081482E+01  0.16618059126E+03  0.18559294408E+03  0.00000000000E+00 0. -1.
         -1    1    1    2    0  501  0.51132356046E+02  0.85577505681E+02 -0.11928193672E+03  0.15545484148E+03  0.00000000000E+00 0.  1.
<mgrwt>
<rscale>  0 0.92460322E+02</rscale>
<asrwt>0</asrwt>
<pdfrwt beam="1">  1        1 0.56268985E-01 0.82636263E+02</pdfrwt>
<pdfrwt beam="2">  1       -1 0.31530386E-01 0.10345230E+03</pdfrwt>
<totfact> 0.64109452E+02</totfact>
</mgrwt>
</event>
<event>
 7    1  0.3113151E-004  0.5365799E+02  0.7546771E-02  0.1560323E+00
         -2   -1    0    0    0  501 -0.00000000000E+00  0.00000000000E+00  0.14174758190E+02  0.14174758190E+02  0.00000000000E+00 0.  1.
          2   -1    0    0  503    0  0.00000000000E+00 -0.00000000000E+00 -0.17861395916E+04  0.17861395916E+04  0.00000000000E+00 0. -1.
         25    2    1    2    0    0  0.36059203126E+02  0.55031756868E+02 -0.40737132740E+03  0.43116913928E+03  0.12500667135E+03 0.  0.
          4    1    3    3  502    0  0.68663251463E+01 -0.18899519794E+02 -0.28199661631E+03  0.28271548026E+03  0.12700000000E+01 0.  1.
         -4    1    3    3    0  502  0.29192877979E+02  0.73931276662E+02 -0.12537471109E+03  0.14845365901E+03  0.12700000000E+01 0.  1.
          2    1    1    2  503    0 -0.15265915658E+02 -0.50985206927E+02 -0.13015546567E+04  0.13026423392E+04  0.00000000000E+00 0. -1.
         -2    1    1    2    0  501 -0.20793287468E+02 -0.40465499413E+01 -0.63038849297E+02  0.66502871298E+02  0.00000000000E+00 0.  1.
<mgrwt>
<rscale>  0 0.33714348E+02</rscale>
<asrwt>0</asrwt>
<pdfrwt beam="2">  1        2 0.27479073E+00 0.53657988E+02</pdfrwt>
<pdfrwt beam="1">  1       -2 0.21807318E-02 0.21183375E+02</pdfrwt>
<totfact> 0.53399425E+03</totfact>
</mgrwt>
</event>
<event>
 7    1  0.3113151E-004  0.7610290E+03  0.7546771E-02  0.1106737E+00
          1   -1    0    0  503    0  0.00000000000E+00  0.00000000000E+00  0.16521210195E+04  0.16521210195E+04  0.00000000000E+00 0. -1.
          1   -1    0    0  502    0 -0.00000000000E+00 -0.00000000000E+00 -0.18769298266E+04  0.18769298266E+04  0.00000000000E+00 0. -1.
         25    2    1    2    0    0  0.58768517828E+02 -0.83060459902E+03  0.81631514272E+01  0.84205061741E+03  0.12499946661E+03 0.  0.
          4    1    3    3  501    0  0.80146043597E+02 -0.79529258527E+03 -0.27817407667E+01  0.79932661377E+03  0.12700000000E+01 0.  1.
         -4    1    3    3    0  501 -0.21377525769E+02 -0.35312013744E+02  0.10944892194E+02  0.42724003649E+02  0.12700000000E+01 0.  1.
          1    1    1    2  502    0 -0.68613422738E+02  0.74185820842E+03 -0.13630646315E+04  0.15533855262E+04  0.00000000000E+00 0. -1.
          1    1    1    2  503    0  0.98449049101E+01  0.88746390598E+02  0.11300926730E+04  0.11336147025E+04  0.00000000000E+00 0. -1.
<mgrwt>
<rscale>  0 0.26067773E+03</rscale>
<asrwt>0</asrwt>
<pdfrwt beam="1">  1        1 0.25417247E+00 0.89290783E+02</pdfrwt>
<pdfrwt beam="2">  1        1 0.28875843E+00 0.76102903E+03</pdfrwt>
<totfact> 0.28209802E+00</totfact>
</mgrwt>
</event>
<event>
 7    1  0.3113151E-004  0.9520697E+02  0.7546771E-02  0.1403779E+00
          2   -1    0    0  502    0  0.00000000000E+00  0.00000000000E+00  0.25896159392E+04  0.25896159392E+04  0.00000000000E+00 0. -1.
          2   -1    0    0  503    0 -0.00000000000E+00 -0.00000000000E+00 -0.15992764580E+04  0.15992764580E+04  0.00000000000E+00 0. -1.
         25    2    1    2    0    0  0.79916220416E+02 -0.31712707078E+02 -0.69324351765E+03  0.70964994380E+03  0.12499667956E+03 0.  0.
          4    1    3    3  501    0  0.92977144209E+02  0.17993846841E+02 -0.53337995964E+03  0.54172347385E+03  0.12700000000E+01 0.  1.
         -4    1    3    3    0  501 -0.13060923793E+02 -0.49706553919E+02 -0.15986355800E+03  0.16792646995E+03  0.12700000000E+01 0.  1.
          2    1    1    2  502    0 -0.61901062801E+01 -0.35540019345E+02  0.25785132361E+04  0.25787655805E+04  0.00000000000E+00 0. -1.
          2    1    1    2  503    0 -0.73726114136E+02  0.67252726423E+02 -0.89493023725E+03  0.90047687292E+03  0.00000000000E+00 0. -1.
<mgrwt>
<rscale>  0 0.58605442E+02</rscale>
<asrwt>0</asrwt>
<pdfrwt beam="1">  1        2 0.39840245E+00 0.36075066E+02</pdfrwt>
<pdfrwt beam="2">  1        2 0.24604253E+00 0.95206974E+02</pdfrwt>
<totfact> 0.98449144E+00</totfact>
</mgrwt>
</event>
<event>
 7    1  0.3113151E-004  0.2752925E+02  0.7546771E-02  0.1630010E+00
         -2   -1    0    0    0  501 -0.00000000000E+00  0.00000000000E+00  0.14878742164E+03  0.14878742164E+03  0.00000000000E+00 0.  1.
          1   -1    0    0  503    0  0.00000000000E+00 -0.00000000000E+00 -0.75606313569E+02  0.75606313569E+02  0.00000000000E+00 0. -1.
         25    2    1    2    0    0  0.16060927388E+02 -0.11123956780E+02  0.61040263385E+02  0.14046192049E+03  0.12498776560E+03 0.  0.
          4    1    3    3  502    0  0.35263874202E+01  0.78684261747E+01 -0.37921224941E+02  0.38909892569E+02  0.12700000000E+01 0. -1.
         -4    1    3    3    0  502  0.12534539968E+02 -0.18992382955E+02  0.98961488326E+02  0.10155202792E+03  0.12700000000E+01 0. -1.
          1    1    1    2  503    0  0.48189392141E+01  0.28355559829E+02 -0.24906425512E+02  0.38047207258E+02  0.00000000000E+00 0. -1.
         -2    1    1    2    0  501 -0.20879866602E+02 -0.17231603049E+02  0.37047270196E+02  0.45884607462E+02  0.00000000000E+00 0.  1.
<mgrwt>
<rscale>  0 0.27299703E+02</rscale>
<asrwt>0</asrwt>
<pdfrwt beam="2">  1        1 0.11631741E-01 0.27529251E+02</pdfrwt>
<pdfrwt beam="1">  1       -2 0.22890372E-01 0.27072070E+02</pdfrwt>
<totfact> 0.60734357E+03</totfact>
</mgrwt>
</event>
<event>
 7    1  0.3113151E-004  0.1425385E+03  0.7546771E-02  0.1256526E+00
          1   -1    0    0  503    0  0.00000000000E+00  0.00000000000E+00  0.12099483059E+04  0.12099483059E+04  0.00000000000E+00 0. -1.
          1   -1    0    0  502    0 -0.00000000000E+00 -0.00000000000E+00 -0.14168772502E+03  0.14168772502E+03  0.00000000000E+00 0. -1.
         25    2    1    2    0    0  0.11215912943E+03 -0.14347590826E+03  0.24117353595E+03  0.32703995717E+03  0.12500181030E+03 0.  0.
          4    1    3    3  501    0  0.74112214528E+02 -0.14003872902E+03  0.24147359574E+03  0.28881581728E+03  0.12700000000E+01 0.  1.
         -4    1    3    3    0  501  0.38046914905E+02 -0.34371792422E+01 -0.30005979410E+00  0.38224139896E+02  0.12700000000E+01 0.  1.
          1    1    1    2  502    0  0.15797609027E+02  0.86914956583E+02 -0.72447727702E+02  0.11424730797E+03  0.00000000000E+00 0. -1.
          1    1    1    2  503    0 -0.12795673846E+03  0.56560951679E+02  0.89953477260E+03  0.91034876575E+03  0.00000000000E+00 0. -1.
<mgrwt>
<rscale>  0 0.11221278E+03</rscale>
<asrwt>0</asrwt>
<pdfrwt beam="1">  1        1 0.18614589E+00 0.14253855E+03</pdfrwt>
<pdfrwt beam="2">  1        1 0.21798112E-01 0.88338973E+02</pdfrwt>
<totfact> 0.31344132E+02</totfact>
</mgrwt>
</event>
<event>
 7    1  0.3113151E-004  0.5788076E+02  0.7546771E-02  0.1424818E+00
          2   -1    0    0  502    0  0.00000000000E+00  0.00000000000E+00  0.16570443874E+04  0.16570443874E+04  0.00000000000E+00 0. -1.
          2   -1    0    0  503    0 -0.00000000000E+00 -0.00000000000E+00 -0.55805394280E+03  0.55805394280E+03  0.00000000000E+00 0. -1.
         25    2    1    2    0    0  0.11099534872E+02  0.10676737937E+03  0.18439117603E+03  0.24728098725E+03  0.12500123154E+03 0.  0.
          4    1    3    3  501    0 -0.45655018274E+02  0.86229489010E+01  0.28507960535E+02  0.54525706371E+02  0.12700000000E+01 0. -1.
         -4    1    3    3    0  501  0.56754553147E+02  0.98144430473E+02  0.15588321549E+03  0.19275528088E+03  0.12700000000E+01 0. -1.
          2    1    1    2  502    0 -0.41336426515E+01 -0.56844467042E+02  0.14394368401E+04  0.14405647494E+04  0.00000000000E+00 0. -1.
          2    1    1    2  503    0 -0.69658922209E+01 -0.49922912332E+02 -0.52483757159E+03  0.52725259353E+03  0.00000000000E+00 0. -1.
<mgrwt>
<rscale>  0 0.54014531E+02</rscale>
<asrwt>0</asrwt>
<pdfrwt beam="1">  1        2 0.25492990E+00 0.57880756E+02</pdfrwt>
<pdfrwt beam="2">  1        2 0.85854454E-01 0.50406555E+02</pdfrwt>
<totfact> 0.11425277E+02</totfact>
</mgrwt>
</event>
<event>
 7    1  0.3113151E-004  0.3924926E+02  0.7546771E-02  0.1537749E+00
         -1   -1    0    0    0  501 -0.00000000000E+00  0.00000000000E+00  0.40254813988E+03  0.40254813988E+03  0.00000000000E+00 0.  1.
          2   -1    0    0  503    0  0.00000000000E+00 -0.00000000000E+00 -0.32762275839E+04  0.32762275839E+04  0.00000000000E+00 0.  1.
         25    2    1    2    0    0  0.15525205494E+02  0.31927030204E+02 -0.85043784035E+03  0.86030870769E+03  0.12500473981E+03 0.  0.
          4    1    3    3  502    0  0.46357090835E+02  0.29517332466E+02 -0.79432886763E+03  0.79622874580E+03  0.12700000000E+01 0. -1.
         -4    1    3    3    0  502 -0.30831885341E+02  0.24096977381E+01 -0.56108972717E+02  0.64079961893E+02  0.12700000000E+01 0. -1.
          2    1    1    2  503    0  0.23003070424E+02 -0.24333376090E+02 -0.24197685957E+04  0.24200002709E+04  0.00000000000E+00 0.  1.
         -1    1    1    2    0  501 -0.38528275918E+02 -0.75936541144E+01  0.39652699201E+03  0.39846674519E+03  0.00000000000E+00 0.  1.
<mgrwt>
<rscale>  0 0.36252817E+02</rscale>
<asrwt>0</asrwt>
<pdfrwt beam="2">  1        2 0.50403503E+00 0.33485138E+02</pdfrwt>
<pdfrwt beam="1">  1       -1 0.61930481E-01 0.39249256E+02</pdfrwt>
<totfact> 0.67047270E+00</totfact>
</mgrwt>
</event>
<event>
 7    1  0.3113151E-004  0.7765411E+02  0.7546771E-02  0.1412475E+00
          2   -1    0    0  503    0  0.00000000000E+00  0.00000000000E+00  0.10470984944E+03  0.10470984944E+03  0.00000000000E+00 0. -1.
         -1   -1    0    0    0  501 -0.00000000000E+00 -0.00000000000E+00 -0.20064621834E+03  0.20064621834E+03  0.00000000000E+00 0.  1.
         25    2    1    2    0    0 -0.60559647432E+02  0.79631324671E+02 -0.73420025519E+02  0.17613589050E+03  0.12499893204E+03 0.  0.
          4    1    3    3  502    0 -0.37958868793E+02 -0.27547545035E+02 -0.54873946842E+01  0.47238409773E+02  0.12700000000E+01 0. -1.
         -4    1    3    3    0  502 -0.22600778639E+02  0.10717886971E+03 -0.67932630835E+02  0.12889748073E+03  0.12700000000E+01 0. -1.
          2    1    1    2  503    0  0.39443036120E+02 -0.12312362012E+02  0.20975292720E+02  0.46339079203E+02  0.00000000000E+00 0. -1.
         -1    1    1    2    0  501  0.21116611312E+02 -0.67318962659E+02 -0.43491636103E+02  0.82881098073E+02  0.00000000000E+00 0.  1.
<mgrwt>
<rscale>  0 0.56645146E+02</rscale>
<asrwt>0</asrwt>
<pdfrwt beam="1">  1        2 0.16109208E-01 0.41320060E+02</pdfrwt>
<pdfrwt beam="2">  1       -1 0.30868649E-01 0.77654112E+02</pdfrwt>
<totfact> 0.35689640E+03</totfact>
</mgrwt>
</event>
<event>
 7    1  0.3113151E-004  0.7582930E+02  0.7546771E-02  0.1356903E+00
          1   -1    0    0  503    0 -0.00000000000E+00  0.00000000000E+00  0.51135294028E+03  0.51135294028E+03  0.00000000000E+00 0. -1.
          2   -1    0    0  502    0  0.00000000000E+00 -0.00000000000E+00 -0.27063138756E+04  0.27063138756E+04  0.00000000000E+00 0. -1.
         25    2    1    2    0    0 -0.10838473912E+03  0.68492744661E+02 -0.58136046898E+03  0.60831218471E+03  0.12500084571E+03 0.  0.
          4    1    3    3  501    0 -0.71555548700E+02  0.37844865628E+02 -0.53679244829E+03  0.54286294389E+03  0.12700000000E+01 0. -1.
         -4    1    3    3    0  501 -0.36829190421E+02  0.30647879033E+02 -0.44568020696E+02  0.65449240828E+02  0.12700000000E+01 0. -1.
          2    1    1    2  502    0  0.72682916626E+02 -0.12532786327E+02 -0.21086174569E+04  0.21099069782E+04  0.00000000000E+00 0. -1.
          1    1    1    2  503    0  0.35701822496E+02 -0.55959958335E+02  0.49501699058E+03  0.49944765294E+03  0.00000000000E+00 0. -1.
<mgrwt>
<rscale>  0 0.70946835E+02</rscale>
<asrwt>0</asrwt>
<pdfrwt beam="2">  1        2 0.41635599E+00 0.75829302E+02</pdfrwt>
<pdfrwt beam="1">  1        1 0.78669682E-01 0.66378740E+02</pdfrwt>
<totfact> 0.22948860E+01</totfact>
</mgrwt>
</event>
<event>
 7    1  0.3113151E-004  0.8845789E+02  0.7546771E-02  0.1328592E+00
          2   -1    0    0  503    0  0.00000000000E+00  0.00000000000E+00  0.19850950761E+04  0.19850950761E+04  0.00000000000E+00 0. -1.
          2   -1    0    0  502    0 -0.00000000000E+00 -0.00000000000E+00 -0.67569607673E+02  0.67569607673E+02  0.00000000000E+00 0. -1.
         25    2    1    2    0    0 -0.21470609625E+02  0.53082213149E+02  0.36918615993E+03  0.39395655980E+03  0.12499856757E+03 0.  0.
          4    1    3    3  501    0  0.16516431006E+01 -0.27998910840E+02  0.22637125288E+03  0.22810572979E+03  0.12700000000E+01 0. -1.
         -4    1    3    3    0  501 -0.23122252725E+02  0.81081123989E+02  0.14281490705E+03  0.16585083001E+03  0.12700000000E+01 0. -1.
          2    1    1    2  502    0 -0.68350135517E+02 -0.24605135269E+02 -0.29246827392E+02  0.78310475795E+02  0.00000000000E+00 0. -1.
          2    1    1    2  503    0  0.89820745142E+02 -0.28477077880E+02  0.15775861359E+04  0.15803976482E+04  0.00000000000E+00 0. -1.
<mgrwt>
<rscale>  0 0.80161942E+02</rscale>
<asrwt>0</asrwt>
<pdfrwt beam="1">  1        2 0.30539920E+00 0.88457892E+02</pdfrwt>
<pdfrwt beam="2">  1        2 0.10395326E-01 0.72644020E+02</pdfrwt>
<totfact> 0.74341323E+02</totfact>
</mgrwt>
</event>
<event>
 7    1  0.3113151E-004  0.9824587E+02  0.7546771E-02  0.1402619E+00
          1   -1    0    0  503    0  0.00000000000E+00  0.00000000000E+00  0.20277193681E+04  0.20277193681E+04  0.00000000000E+00 0. -1.
         -1   -1    0    0    0  501 -0.00000000000E+00 -0.00000000000E+00 -0.46705970354E+03  0.46705970354E+03  0.00000000000E+00 0.  1.
         25    2    1    2    0    0 -0.30951792671E+02 -0.89178598538E+02  0.71992079236E+02  0.17238659446E+03  0.12499377012E+03 0.  0.
          4    1    3    3  502    0 -0.12695746034E+02 -0.10720248209E+03  0.90380635266E+02  0.14079711029E+03  0.12700000000E+01 0.  1.
         -4    1    3    3    0  502 -0.18256046637E+02  0.18023883556E+02 -0.18388556029E+02  0.31589484170E+02  0.12700000000E+01 0.  1.
          1    1    1    2  503    0 -0.32552517888E+02  0.13602399739E+02  0.18995199418E+04  0.18998475468E+04  0.00000000000E+00 0. -1.
         -1    1    1    2    0  501  0.63504310559E+02  0.75576198799E+02 -0.41085235654E+03  0.42254493034E+03  0.00000000000E+00 0.  1.
<mgrwt>
<rscale>  0 0.58873872E+02</rscale>
<asrwt>0</asrwt>
<pdfrwt beam="1">  1        1 0.31195682E+00 0.35280188E+02</pdfrwt>
<pdfrwt beam="2">  1       -1 0.71855340E-01 0.98245870E+02</pdfrwt>
<totfact> 0.88816148E+00</totfact>
</mgrwt>
</event>
<event>
 7    1  0.3113151E-004  0.6856590E+02  0.7546771E-02  0.1425899E+00
          2   -1    0    0  503    0  0.00000000000E+00  0.00000000000E+00  0.26927715582E+04  0.26927715582E+04  0.00000000000E+00 0.  1.
         -1   -1    0    0    0  501 -0.00000000000E+00 -0.00000000000E+00 -0.64779761834E+02  0.64779761834E+02  0.00000000000E+00 0.  1.
         25    2    1    2    0    0 -0.40429663135E+01  0.28807223132E+02  0.88933552499E+03  0.89854869764E+03  0.12500353731E+03 0.  0.
          4    1    3    3  502    0  0.58989995993E+02  0.22639706438E+02  0.51911744473E+03  0.52295019864E+03  0.12700000000E+01 0. -1.
         -4    1    3    3    0  502 -0.63032962306E+02  0.61675166941E+01  0.37021808026E+03  0.37559849900E+03  0.12700000000E+01 0. -1.
          2    1    1    2  503    0 -0.23803770610E+02  0.34847583765E+02  0.17784391674E+04  0.17789398094E+04  0.00000000000E+00 0.  1.
         -1    1    1    2    0  501  0.27846736924E+02 -0.63654806896E+02 -0.39782896017E+02  0.80062812927E+02  0.00000000000E+00 0.  1.
<mgrwt>
<rscale>  0 0.53792095E+02</rscale>
<asrwt>0</asrwt>
<pdfrwt beam="1">  1        2 0.41427246E+00 0.42201583E+02</pdfrwt>
<pdfrwt beam="2">  1       -1 0.99661193E-02 0.68565899E+02</pdfrwt>
<totfact> 0.26391697E+02</totfact>
</mgrwt>
</event>
<event>
 7    1  0.3113151E-004  0.6787506E+02  0.7546771E-02  0.1389968E+00
          2   -1    0    0  502    0  0.00000000000E+00  0.00000000000E+00  0.49910003326E+03  0.49910003326E+03  0.00000000000E+00 0. -1.
          1   -1    0    0  503    0 -0.00000000000E+00 -0.00000000000E+00 -0.87206041819E+03  0.87206041819E+03  0.00000000000E+00 0. -1.
         25    2    1    2    0    0  0.35538472032E+01 -0.24507833490E+02  0.10589020650E+03  0.16568369507E+03  0.12500034898E+03 0.  0.
          4    1    3    3  501    0  0.13619785517E+02  0.61349972828E+01  0.12650075796E+03  0.12738599379E+03  0.12700000000E+01 0. -1.
         -4    1    3    3    0  501 -0.10065938314E+02 -0.30642830773E+02 -0.20610551458E+02  0.38297701280E+02  0.12700000000E+01 0. -1.
          2    1    1    2  502    0 -0.50529974164E+02 -0.25227775985E+02  0.35971671304E+03  0.36412337553E+03  0.00000000000E+00 0. -1.
          1    1    1    2  503    0  0.46976126961E+02  0.49735609475E+02 -0.83856730446E+03  0.84135338085E+03  0.00000000000E+00 0. -1.
<mgrwt>
<rscale>  0 0.61914623E+02</rscale>
<asrwt>0</asrwt>
<pdfrwt beam="1">  1        2 0.76784621E-01 0.56477597E+02</pdfrwt>
<pdfrwt beam="2">  1        1 0.13416314E+00 0.67875064E+02</pdfrwt>
<totfact> 0.18932114E+02</totfact>
</mgrwt>
</event>
<event>
 7    1  0.3113151E-004  0.8109875E+02  0.7546771E-02  0.1366400E+00
          2   -1    0    0  503    0  0.00000000000E+00  0.00000000000E+00  0.15273511268E+04  0.15273511268E+04  0.00000000000E+00 0.  1.
         -1   -1    0    0    0  501 -0.00000000000E+00 -0.00000000000E+00 -0.16661997197E+03  0.16661997197E+03  0.00000000000E+00 0.  1.
         25    2    1    2    0    0 -0.11645432974E+03  0.67013654339E+02  0.11137592241E+03  0.21466843511E+03  0.12500200062E+03 0.  0.
          4    1    3    3  502    0  0.50866903269E+01 -0.28021299369E+02  0.10762816650E+02  0.30471605784E+02  0.12700000000E+01 0.  1.
         -4    1    3    3    0  502 -0.12154102006E+03  0.95034953707E+02  0.10061310576E+03  0.18419682933E+03  0.12700000000E+01 0.  1.
          2    1    1    2  503    0  0.61355056003E+02 -0.51227520867E+02  0.13559349555E+04  0.13582887415E+04  0.00000000000E+00 0.  1.
         -1    1    1    2    0  501  0.55099273732E+02 -0.15786133472E+02 -0.10657972309E+03  0.12101392213E+03  0.00000000000E+00 0.  1.
<mgrwt>
<rscale>  0 0.68178160E+02</rscale>
<asrwt>0</asrwt>
<pdfrwt beam="1">  1        2 0.23497709E+00 0.81098747E+02</pdfrwt>
<pdfrwt beam="2">  1       -1 0.25633843E-01 0.57316071E+02</pdfrwt>
<totfact> 0.21493898E+02</totfact>
</mgrwt>
</event>
<event>
 7    1  0.3113151E-004  0.9198072E+02  0.7546771E-02  0.1435406E+00
          1   -1    0    0  503    0  0.00000000000E+00  0.00000000000E+00  0.17980193206E+04  0.17980193206E+04  0.00000000000E+00 0. -1.
          1   -1    0    0  502    0 -0.00000000000E+00 -0.00000000000E+00 -0.19008580880E+02  0.19008580880E+02  0.00000000000E+00 0. -1.
         25    2    1    2    0    0 -0.29627141909E+02 -0.10513400361E+03  0.81911889495E+03  0.83577005733E+03  0.12499959363E+03 0.  0.
          4    1    3    3  501    0  0.84183807599E+00  0.27463858589E+02  0.19960047803E+03  0.20148681334E+03  0.12700000000E+01 0.  1.
         -4    1    3    3    0  501 -0.30468979985E+02 -0.13259786219E+03  0.61951841692E+03  0.63428324399E+03  0.12700000000E+01 0.  1.
          1    1    1    2  502    0  0.41270485377E+02  0.78275919898E+02  0.17765404941E+03  0.19847250155E+03  0.00000000000E+00 0. -1.
          1    1    1    2  503    0 -0.11643343469E+02  0.26858083708E+02  0.78223779533E+03  0.78278534257E+03  0.00000000000E+00 0. -1.
<mgrwt>
<rscale>  0 0.51890040E+02</rscale>
<asrwt>0</asrwt>
<pdfrwt beam="1">  1        1 0.27661822E+00 0.29273266E+02</pdfrwt>
<pdfrwt beam="2">  1        1 0.29243985E-02 0.91980725E+02</pdfrwt>
<totfact> 0.22184317E+03</totfact>
</mgrwt>
</event>
<event>
 7    1  0.3113151E-004  0.9437497E+02  0.7546771E-02  0.1460518E+00
          2   -1    0    0  503    0  0.00000000000E+00  0.00000000000E+00  0.38173662534E+03  0.38173662534E+03  0.00000000000E+00 0. -1.
         -1   -1    0    0    0  501 -0.00000000000E+00 -0.00000000000E+00 -0.32009136002E+03  0.32009136002E+03  0.00000000000E+00 0.  1.
         25    2    1    2    0    0 -0.93372810606E+02  0.51646564754E+02  0.27504014564E+03  0.32040259857E+03  0.12499957618E+03 0.  0.
          4    1    3    3  502    0 -0.11468753401E+03  0.59388791653E+02  0.17317348233E+03  0.21603455028E+03  0.12700000000E+01 0.  1.
         -4    1    3    3    0  502  0.21314723401E+02 -0.77422268990E+01  0.10186666331E+03  0.10436804830E+03  0.12700000000E+01 0.  1.
          2    1    1    2  503    0  0.71644500279E+02 -0.42185552284E+02  0.62813517546E+02  0.10420217478E+03  0.00000000000E+00 0. -1.
         -1    1    1    2    0  501  0.21728310327E+02 -0.94610124704E+01 -0.27620839787E+03  0.27722321201E+03  0.00000000000E+00 0.  1.
<mgrwt>
<rscale>  0 0.47292366E+02</rscale>
<asrwt>0</asrwt>
<pdfrwt beam="1">  1        2 0.58728712E-01 0.94374973E+02</pdfrwt>
<pdfrwt beam="2">  1       -1 0.49244824E-01 0.23698739E+02</pdfrwt>
<totfact> 0.41176416E+02</totfact>
</mgrwt>
</event>
<event>
 7    1  0.3113151E-004  0.1117590E+03  0.7546771E-02  0.1339830E+00
          2   -1    0    0  502    0  0.00000000000E+00  0.00000000000E+00  0.24617234722E+03  0.24617234722E+03  0.00000000000E+00 0. -1.
          2   -1    0    0  503    0 -0.00000000000E+00 -0.00000000000E+00 -0.81308809122E+03  0.81308809122E+03  0.00000000000E+00 0. -1.
         25    2    1    2    0    0  0.58952272908E+02 -0.61248555273E+02  0.24415938850E+02  0.15312795730E+03  0.12500110893E+03 0.  0.
          4    1    3    3  501    0  0.36978015082E+02 -0.99758748821E+02  0.12047378451E+02  0.10707910064E+03  0.12700000000E+01 0.  1.
         -4    1    3    3    0  501  0.21974257826E+02  0.38510193548E+02  0.12368560399E+02  0.46048856668E+02  0.12700000000E+01 0.  1.
          2    1    1    2  502    0 -0.50341787138E+02  0.11265191031E+03  0.13213647799E+03  0.18078937260E+03  0.00000000000E+00 0. -1.
          2    1    1    2  503    0 -0.86104857705E+01 -0.51403355038E+02 -0.72346816083E+03  0.72534310854E+03  0.00000000000E+00 0. -1.
<mgrwt>
<rscale>  0 0.76320555E+02</rscale>
<asrwt>0</asrwt>
<pdfrwt beam="1">  1        2 0.37872669E-01 0.11175901E+03</pdfrwt>
<pdfrwt beam="2">  1        2 0.12509048E+00 0.52119530E+02</pdfrwt>
<totfact> 0.77026725E+02</totfact>
</mgrwt>
</event>
<event>
 7    1  0.3113151E-004  0.1345358E+03  0.7546771E-02  0.1234603E+00
         -2   -1    0    0    0  501 -0.00000000000E+00  0.00000000000E+00  0.64041557342E+03  0.64041557342E+03  0.00000000000E+00 0.  1.
          2   -1    0    0  503    0  0.00000000000E+00 -0.00000000000E+00 -0.24998864733E+04  0.24998864733E+04  0.00000000000E+00 0.  1.
         25    2    1    2    0    0 -0.15231393982E+03 -0.27200607748E+02 -0.72317651640E+03  0.75003186088E+03  0.12499643654E+03 0.  0.
          4    1    3    3  502    0 -0.66975996761E+02 -0.34126957376E+02 -0.12582347632E+03  0.14657282646E+03  0.12700000000E+01 0.  1.
         -4    1    3    3    0  502 -0.85337943055E+02  0.69263496280E+01 -0.59735304008E+03  0.60345903443E+03  0.12700000000E+01 0.  1.
          2    1    1    2  503    0  0.78968989206E+02 -0.85918136658E+02 -0.17540739521E+04  0.17579514945E+04  0.00000000000E+00 0.  1.
         -2    1    1    2    0  501  0.73344950609E+02  0.11311874441E+03  0.61777956859E+03  0.63231869139E+03  0.00000000000E+00 0.  1.
<mgrwt>
<rscale>  0 0.12529896E+03</rscale>
<asrwt>0</asrwt>
<pdfrwt beam="2">  1        2 0.38459792E+00 0.11669630E+03</pdfrwt>
<pdfrwt beam="1">  1       -2 0.98525472E-01 0.13453579E+03</pdfrwt>
<totfact> 0.41195748E+00</totfact>
</mgrwt>
</event>
<event>
 7    1  0.3113151E-004  0.5431449E+02  0.7546771E-02  0.1507984E+00
          1   -1    0    0  503    0  0.00000000000E+00  0.00000000000E+00  0.23001505571E+03  0.23001505571E+03  0.00000000000E+00 0. -1.
         -3   -1    0    0    0  501 -0.00000000000E+00 -0.00000000000E+00 -0.24668780083E+03  0.24668780083E+03  0.00000000000E+00 0.  1.
         25    2    1    2    0    0  0.61804252337E+02 -0.16484766434E+02 -0.15686133618E+03  0.21053608601E+03  0.12501380561E+03 0.  0.
          4    1    3    3  502    0  0.45998380725E+02 -0.97227395097E+01 -0.17751150253E+03  0.18363640468E+03  0.12700000000E+01 0.  1.
         -4    1    3    3    0  502  0.15805871612E+02 -0.67620269245E+01  0.20650166350E+02  0.26899681333E+02  0.12700000000E+01 0.  1.
          1    1    1    2  503    0 -0.10690087422E+02  0.27498909053E+02  0.19099535658E+03  0.19326068975E+03  0.00000000000E+00 0. -1.
         -3    1    1    2    0  501 -0.51114164915E+02 -0.11014142618E+02 -0.50806765517E+02  0.72906080781E+02  0.00000000000E+00 0.  1.
<mgrwt>
<rscale>  0 0.40030965E+02</rscale>
<asrwt>0</asrwt>
<pdfrwt beam="1">  1        1 0.35386932E-01 0.29503694E+02</pdfrwt>
<pdfrwt beam="2">  1       -3 0.37951969E-01 0.54314493E+02</pdfrwt>
<totfact> 0.40741299E+02</totfact>
</mgrwt>
</event>
<event>
 7    1  0.3113151E-004  0.1466533E+03  0.7546771E-02  0.1232719E+00
          3   -1    0    0  503    0 -0.00000000000E+00  0.00000000000E+00  0.27300649738E+03  0.27300649738E+03  0.00000000000E+00 0. -1.
          2   -1    0    0  502    0  0.00000000000E+00 -0.00000000000E+00 -0.56946842995E+03  0.56946842995E+03  0.00000000000E+00 0. -1.
         25    2    1    2    0    0  0.80570190833E+02  0.63335717719E+02 -0.11802680315E+03  0.20014240768E+03  0.12499475308E+03 0.  0.
          4    1    3    3  501    0 -0.14191069503E+02  0.63352865217E+02 -0.33088474694E+02  0.72879572189E+02  0.12700000000E+01 0.  1.
         -4    1    3    3    0  501  0.94761260336E+02 -0.17147498451E-01 -0.84938328461E+02  0.12726283549E+03  0.12700000000E+01 0.  1.
          2    1    1    2  502    0 -0.56051605376E+02  0.93651757733E+02 -0.37443552820E+03  0.39001845978E+03  0.00000000000E+00 0. -1.
          3    1    1    2  503    0 -0.24518585457E+02 -0.15698747545E+03  0.19600039879E+03  0.25231405987E+03  0.00000000000E+00 0. -1.
<mgrwt>
<rscale>  0 0.12651619E+03</rscale>
<asrwt>0</asrwt>
<pdfrwt beam="2">  1        2 0.87610526E-01 0.10914410E+03</pdfrwt>
<pdfrwt beam="1">  1        3 0.42001000E-01 0.14665334E+03</pdfrwt>
<totfact> 0.18751626E+02</totfact>
</mgrwt>
</event>
<event>
 7    1  0.3113151E-004  0.1268392E+03  0.7546771E-02  0.1437630E+00
          1   -1    0    0  502    0  0.00000000000E+00  0.00000000000E+00  0.91178904061E+03  0.91178904061E+03  0.00000000000E+00 0. -1.
          1   -1    0    0  503    0 -0.00000000000E+00 -0.00000000000E+00 -0.19709683759E+04  0.19709683759E+04  0.00000000000E+00 0. -1.
         25    2    1    2    0    0 -0.10782175079E+03  0.30976783206E+01  0.36704646991E+03  0.40247180987E+03  0.12500128444E+03 0.  0.
          4    1    3    3  501    0 -0.27995550990E+02 -0.39165350870E+02  0.25012932428E+03  0.25472331528E+03  0.12700000000E+01 0. -1.
         -4    1    3    3    0  501 -0.79826199797E+02  0.42263029191E+02  0.11691714563E+03  0.14774849459E+03  0.12700000000E+01 0. -1.
          1    1    1    2  502    0 -0.18470991151E+02  0.97291968361E+01  0.52475962488E+03  0.52517473158E+03  0.00000000000E+00 0. -1.
          1    1    1    2  503    0  0.12629274194E+03 -0.12826875157E+02 -0.19509854301E+04  0.19551108751E+04  0.00000000000E+00 0. -1.
<mgrwt>
<rscale>  0 0.51458516E+02</rscale>
<asrwt>0</asrwt>
<pdfrwt beam="1">  1        1 0.14027524E+00 0.20876656E+02</pdfrwt>
<pdfrwt beam="2">  1        1 0.30322590E+00 0.12683922E+03</pdfrwt>
<totfact> 0.10129692E+01</totfact>
</mgrwt>
</event>
<event>
 7    1  0.3113151E-004  0.5020336E+02  0.7546771E-02  0.1478998E+00
          2   -1    0    0  503    0  0.00000000000E+00  0.00000000000E+00  0.38653612381E+02  0.38653612381E+02  0.00000000000E+00 0. -1.
         -1   -1    0    0    0  501 -0.00000000000E+00 -0.00000000000E+00 -0.34464947424E+03  0.34464947424E+03  0.00000000000E+00 0.  1.
         25    2    1    2    0    0 -0.29632762969E+02 -0.65056948641E+02 -0.17089230420E+03  0.22347445008E+03  0.12500457191E+03 0.  0.
          4    1    3    3  502    0 -0.35258141864E+02  0.29385293094E+02 -0.34303961203E+02  0.57314977729E+02  0.12700000000E+01 0.  1.
         -4    1    3    3    0  502  0.56253788948E+01 -0.94442241736E+02 -0.13658834299E+03  0.16615947235E+03  0.12700000000E+01 0.  1.
          2    1    1    2  503    0 -0.38029396568E+01  0.44932241430E+02 -0.58548250468E+02  0.73900380938E+02  0.00000000000E+00 0. -1.
         -1    1    1    2    0  501  0.33435702626E+02  0.20124707211E+02 -0.76555307192E+02  0.85928255595E+02  0.00000000000E+00 0.  1.
<mgrwt>
<rscale>  0 0.44262689E+02</rscale>
<asrwt>0</asrwt>
<pdfrwt beam="1">  1        2 0.59467099E-02 0.50203356E+02</pdfrwt>
<pdfrwt beam="2">  1       -1 0.53022994E-01 0.39024993E+02</pdfrwt>
<totfact> 0.46331532E+03</totfact>
</mgrwt>
</event>
<event>
 7    1  0.3113151E-004  0.7037547E+02  0.7546771E-02  0.1523170E+00
          2   -1    0    0  503    0  0.00000000000E+00  0.00000000000E+00  0.12427887248E+03  0.12427887248E+03  0.00000000000E+00 0. -1.
         -1   -1    0    0    0  501 -0.00000000000E+00 -0.00000000000E+00 -0.16376002175E+03  0.16376002175E+03  0.00000000000E+00 0.  1.
         25    2    1    2    0    0  0.75402882090E+02 -0.24750486966E+01  0.40692998339E+02  0.15156068141E+03  0.12499199792E+03 0.  0.
          4    1    3    3  502    0  0.10246377427E+02 -0.26261177121E+02  0.70588219011E+02  0.76019387246E+02  0.12700000000E+01 0.  1.
         -4    1    3    3    0  502  0.65156504663E+02  0.23786128424E+02 -0.29895220672E+02  0.75541294166E+02  0.12700000000E+01 0.  1.
          2    1    1    2  503    0 -0.86181541579E+01 -0.18665610394E+02  0.95318503808E+01  0.22661283374E+02  0.00000000000E+00 0. -1.
         -1    1    1    2    0  501 -0.66784727932E+02  0.21140659091E+02 -0.89705997988E+02  0.11381692944E+03  0.00000000000E+00 0.  1.
<mgrwt>
<rscale>  0 0.38037587E+02</rscale>
<asrwt>0</asrwt>
<pdfrwt beam="1">  1        2 0.19119827E-01 0.20559124E+02</pdfrwt>
<pdfrwt beam="2">  1       -1 0.25193850E-01 0.70375470E+02</pdfrwt>
<totfact> 0.39465750E+03</totfact>
</mgrwt>
</event>
<event>
 7    1  0.3113151E-004  0.6910596E+02  0.7546771E-02  0.1408974E+00
          1   -1    0    0  502    0  0.00000000000E+00  0.00000000000E+00  0.14062347972E+04  0.14062347972E+04  0.00000000000E+00 0. -1.
          1   -1    0    0  503    0 -0.00000000000E+00 -0.00000000000E+00 -0.90020307897E+02  0.90020307897E+02  0.00000000000E+00 0. -1.
         25    2    1    2    0    0 -0.54028337014E+02  0.47551590171E+02  0.16750114020E+03  0.22104503974E+03  0.12499625073E+03 0.  0.
          4    1    3    3  501    0  0.32391284649E+02 -0.12022770118E+02  0.19801736222E+02  0.39842991604E+02  0.12700000000E+01 0. -1.
         -4    1    3    3    0  501 -0.86419621663E+02  0.59574360290E+02  0.14769940398E+03  0.18120204813E+03  0.12700000000E+01 0. -1.
          1    1    1    2  502    0  0.11243622225E+02 -0.68676814207E+02  0.12018101168E+04  0.12038232763E+04  0.00000000000E+00 0. -1.
          1    1    1    2  503    0  0.42784714789E+02  0.21125224035E+02 -0.53096767675E+02  0.71386789027E+02  0.00000000000E+00 0. -1.
<mgrwt>
<rscale>  0 0.57423452E+02</rscale>
<asrwt>0</asrwt>
<pdfrwt beam="1">  1        1 0.21634380E+00 0.69105957E+02</pdfrwt>
<pdfrwt beam="2">  1        1 0.13849279E-01 0.47715898E+02</pdfrwt>
<totfact> 0.42421329E+02</totfact>
</mgrwt>
</event>
<event>
 7    1  0.3113151E-004  0.6004776E+02  0.7546771E-02  0.1471292E+00
          2   -1    0    0  503    0  0.00000000000E+00  0.00000000000E+00  0.20626658448E+02  0.20626658448E+02  0.00000000000E+00 0. -1.
         -1   -1    0    0    0  501 -0.00000000000E+00 -0.00000000000E+00 -0.74394260012E+03  0.74394260012E+03  0.00000000000E+00 0.  1.
         25    2    1    2    0    0 -0.52090455213E+02  0.39647979048E+02 -0.36576474331E+03  0.39203689372E+03  0.12499480318E+03 0.  0.
          4    1    3    3  502    0 -0.60819205224E+02  0.79329765856E+02 -0.27416619617E+03  0.29182341149E+03  0.12700000000E+01 0.  1.
         -4    1    3    3    0  502  0.87287500111E+01 -0.39681786809E+02 -0.91598547146E+02  0.10021348223E+03  0.12700000000E+01 0.  1.
          2    1    1    2  503    0 -0.81917456199E+01 -0.33477276522E+02 -0.62986091383E+02  0.71798888900E+02  0.00000000000E+00 0. -1.
         -1    1    1    2    0  501  0.60282200833E+02 -0.61707025257E+01 -0.29456510697E+03  0.30073347594E+03  0.00000000000E+00 0.  1.
<mgrwt>
<rscale>  0 0.45492231E+02</rscale>
<asrwt>0</asrwt>
<pdfrwt beam="1">  1        2 0.31733327E-02 0.34464949E+02</pdfrwt>
<pdfrwt beam="2">  1       -1 0.11445269E+00 0.60047763E+02</pdfrwt>
<totfact> 0.20957514E+03</totfact>
</mgrwt>
</event>
<event>
 7    1  0.3113151E-004  0.4321961E+03  0.7546771E-02  0.1033168E+00
          2   -1    0    0  503    0  0.00000000000E+00  0.00000000000E+00  0.77358885520E+03  0.77358885520E+03  0.00000000000E+00 0. -1.
         -1   -1    0    0    0  501 -0.00000000000E+00 -0.00000000000E+00 -0.60365882537E+02  0.60365882537E+02  0.00000000000E+00 0.  1.
         25    2    1    2    0    0 -0.65022088290E+02 -0.17625679150E+03  0.39266832065E+03  0.45289249112E+03  0.12501547889E+03 0.  0.
          4    1    3    3  502    0 -0.75280189790E+02 -0.39158907116E+02  0.18879609383E+03  0.20699300695E+03  0.12700000000E+01 0.  1.
         -4    1    3    3    0  502  0.10258101500E+02 -0.13709788438E+03  0.20387222682E+03  0.24589948417E+03  0.12700000000E+01 0.  1.
          2    1    1    2  503    0  0.49107195042E+02  0.33111892957E+02  0.12366987723E+03  0.13712094149E+03  0.00000000000E+00 0. -1.
         -1    1    1    2    0  501  0.15914893248E+02  0.14314489854E+03  0.19688477478E+03  0.24394130512E+03  0.00000000000E+00 0.  1.
<mgrwt>
<rscale>  0 0.43219613E+03</rscale>
<asrwt>0</asrwt>
<pdfrwt beam="1">  1        2 0.11901366E+00 0.43219613E+03</pdfrwt>
<pdfrwt beam="2">  1       -1 0.92870594E-02 0.43219613E+03</pdfrwt>
<totfact> 0.28941368E+03</totfact>
</mgrwt>
</event>
<event>
 7    1  0.3113151E-004  0.7371971E+02  0.7546771E-02  0.1443623E+00
         -2   -1    0    0    0  501 -0.00000000000E+00  0.00000000000E+00  0.23252111390E+03  0.23252111390E+03  0.00000000000E+00 0.  1.
          1   -1    0    0  503    0  0.00000000000E+00 -0.00000000000E+00 -0.76580472035E+02  0.76580472035E+02  0.00000000000E+00 0. -1.
         25    2    1    2    0    0  0.74351961615E+02 -0.61574061323E+01  0.12691749401E+03  0.19313210052E+03  0.12500332043E+03 0.  0.
          4    1    3    3  502    0  0.86971000733E+02 -0.88079604639E+01  0.25750195397E+02  0.91138469370E+02  0.12700000000E+01 0.  1.
         -4    1    3    3    0  502 -0.12619039118E+02  0.26505543316E+01  0.10116729861E+03  0.10199363115E+03  0.12700000000E+01 0.  1.
          1    1    1    2  503    0 -0.31615976546E+01  0.34201895573E+02  0.62185086524E+00  0.34353341308E+02  0.00000000000E+00 0. -1.
         -2    1    1    2    0  501 -0.71190363961E+02 -0.28044489441E+02  0.28401296997E+02  0.81616144114E+02  0.00000000000E+00 0.  1.
<mgrwt>
<rscale>  0 0.50320010E+02</rscale>
<asrwt>0</asrwt>
<pdfrwt beam="2">  1        1 0.11781611E-01 0.34347713E+02</pdfrwt>
<pdfrwt beam="1">  1       -2 0.35772479E-01 0.73719709E+02</pdfrwt>
<totfact> 0.29024552E+03</totfact>
</mgrwt>
</event>
<event>
 7    1  0.3113151E-004  0.9166669E+02  0.7546771E-02  0.1337309E+00
          2   -1    0    0  503    0  0.00000000000E+00  0.00000000000E+00  0.73083466703E+03  0.73083466703E+03  0.00000000000E+00 0. -1.
          2   -1    0    0  502    0 -0.00000000000E+00 -0.00000000000E+00 -0.62748207594E+03  0.62748207594E+03  0.00000000000E+00 0. -1.
         25    2    1    2    0    0 -0.92871409455E+01 -0.12320490868E+03  0.17622888683E+03  0.24889210464E+03  0.12499983476E+03 0.  0.
          4    1    3    3  501    0 -0.35590903513E+02 -0.40737579904E+02  0.17741971697E+01  0.54138927815E+02  0.12700000000E+01 0.  1.
         -4    1    3    3    0  501  0.26303762568E+02 -0.82467328781E+02  0.17445468966E+03  0.19475317683E+03  0.12700000000E+01 0.  1.
          2    1    1    2  502    0  0.49018955916E+02  0.42609533310E+02 -0.58544629097E+03  0.58903802083E+03  0.00000000000E+00 0. -1.
          2    1    1    2  503    0 -0.39731814970E+02  0.80595375375E+02  0.51256999523E+03  0.52038661749E+03  0.00000000000E+00 0. -1.
<mgrwt>
<rscale>  0 0.77160228E+02</rscale>
<asrwt>0</asrwt>
<pdfrwt beam="1">  1        2 0.11243610E+00 0.91666692E+02</pdfrwt>
<pdfrwt beam="2">  1        2 0.96535704E-01 0.64949445E+02</pdfrwt>
<totfact> 0.31802970E+02</totfact>
</mgrwt>
</event>
<event>
 7    1  0.3113151E-004  0.4754422E+02  0.7546771E-02  0.1462002E+00
         -1   -1    0    0    0  501 -0.00000000000E+00  0.00000000000E+00  0.48755785852E+02  0.48755785852E+02  0.00000000000E+00 0.  1.
          2   -1    0    0  503    0  0.00000000000E+00 -0.00000000000E+00 -0.14621086322E+04  0.14621086322E+04  0.00000000000E+00 0. -1.
         25    2    1    2    0    0  0.33089759023E+01  0.24347922727E+02 -0.18065232436E+03  0.22104797188E+03  0.12499269143E+03 0.  0.
          4    1    3    3  502    0  0.39053059515E+02  0.27094556832E+02 -0.12572295011E+02  0.49182638901E+02  0.12700000000E+01 0.  1.
         -4    1    3    3    0  502 -0.35744083613E+02 -0.27466341058E+01 -0.16808002935E+03  0.17186533297E+03  0.12700000000E+01 0.  1.
          2    1    1    2  503    0  0.45958662744E+02 -0.12175962791E+02 -0.12378901407E+04  0.12388028306E+04  0.00000000000E+00 0. -1.
         -1    1    1    2    0  501 -0.49267638646E+02 -0.12171959936E+02  0.51896187261E+01  0.51013615526E+02  0.00000000000E+00 0.  1.
<mgrwt>
<rscale>  0 0.47038549E+02</rscale>
<asrwt>0</asrwt>
<pdfrwt beam="2">  1        2 0.22493979E+00 0.47544219E+02</pdfrwt>
<pdfrwt beam="1">  1       -1 0.75008900E-02 0.46538257E+02</pdfrwt>
<totfact> 0.15516771E+03</totfact>
</mgrwt>
</event>
<event>
 7    1  0.3113151E-004  0.9894373E+02  0.7546771E-02  0.1368571E+00
          2   -1    0    0  503    0  0.00000000000E+00  0.00000000000E+00  0.15716262817E+03  0.15716262817E+03  0.00000000000E+00 0. -1.
          2   -1    0    0  502    0 -0.00000000000E+00 -0.00000000000E+00 -0.65549565996E+03  0.65549565996E+03  0.00000000000E+00 0. -1.
         25    2    1    2    0    0  0.11919134188E+03 -0.29123699051E+02  0.68860819387E+02  0.18820513672E+03  0.12499838085E+03 0.  0.
          4    1    3    3  501    0  0.43267440644E+00 -0.39193609063E+02 -0.15511918865E+02  0.42172962019E+02  0.12700000000E+01 0. -1.
         -4    1    3    3    0  501  0.11875866747E+03  0.10069910013E+02  0.84372738252E+02  0.14603217470E+03  0.12700000000E+01 0. -1.
          2    1    1    2  502    0 -0.42464808447E+02  0.18043257492E+02 -0.54049671188E+03  0.54246245460E+03  0.00000000000E+00 0. -1.
          2    1    1    2  503    0 -0.76726533434E+02  0.11080441559E+02 -0.26697139299E+02  0.81990696818E+02  0.00000000000E+00 0. -1.
<mgrwt>
<rscale>  0 0.67566096E+02</rscale>
<asrwt>0</asrwt>
<pdfrwt beam="1">  1        2 0.24178866E-01 0.98943727E+02</pdfrwt>
<pdfrwt beam="2">  1        2 0.10084549E+00 0.46139128E+02</pdfrwt>
<totfact> 0.16005108E+03</totfact>
</mgrwt>
</event>
<event>
 7    1  0.3113151E-004  0.6131717E+02  0.7546771E-02  0.1479183E+00
         -1   -1    0    0    0  501 -0.00000000000E+00  0.00000000000E+00  0.53801709243E+02  0.53801709243E+02  0.00000000000E+00 0.  1.
          2   -1    0    0  503    0  0.00000000000E+00 -0.00000000000E+00 -0.31766726017E+03  0.31766726017E+03  0.00000000000E+00 0. -1.
         25    2    1    2    0    0  0.68934084892E+02  0.38430220491E+02 -0.16759590270E+03  0.22347510369E+03  0.12499578177E+03 0.  0.
          4    1    3    3  502    0  0.59112882240E+02 -0.38302610893E+02 -0.78666420120E+02  0.10560038543E+03  0.12700000000E+01 0. -1.
         -4    1    3    3    0  502  0.98212026519E+01  0.76732831385E+02 -0.88929482580E+02  0.11787471826E+03  0.12700000000E+01 0. -1.
          2    1    1    2  503    0 -0.10819260559E+02 -0.30019775548E+02 -0.81383975760E+02  0.87416216079E+02  0.00000000000E+00 0. -1.
         -1    1    1    2    0  501 -0.58114824332E+02 -0.84104449437E+01 -0.14885672465E+02  0.60577649641E+02  0.00000000000E+00 0.  1.
<mgrwt>
<rscale>  0 0.44233770E+02</rscale>
<asrwt>0</asrwt>
<pdfrwt beam="2">  1        2 0.48871886E-01 0.31909925E+02</pdfrwt>
<pdfrwt beam="1">  1       -1 0.82771861E-02 0.61317174E+02</pdfrwt>
<totfact> 0.84534985E+03</totfact>
</mgrwt>
</event>
<event>
 7    1  0.3113151E-004  0.1325966E+03  0.7546771E-02  0.1389201E+00
          2   -1    0    0  502    0  0.00000000000E+00  0.00000000000E+00  0.26329118502E+03  0.26329118502E+03  0.00000000000E+00 0. -1.
          1   -1    0    0  503    0 -0.00000000000E+00 -0.00000000000E+00 -0.65637317990E+03  0.65637317990E+03  0.00000000000E+00 0. -1.
         25    2    1    2    0    0  0.11042541754E+03 -0.58599490302E+02  0.13717187525E+03  0.22375993725E+03  0.12499885222E+03 0.  0.
          4    1    3    3  501    0  0.51964726126E+02 -0.48669136776E+02  0.14728190220E+03  0.16359275428E+03  0.12700000000E+01 0. -1.
         -4    1    3    3    0  501  0.58460691413E+02 -0.99303535259E+01 -0.10110026954E+02  0.60167182971E+02  0.12700000000E+01 0. -1.
          2    1    1    2  502    0 -0.11550825674E+03  0.87241306249E+02  0.18899809006E+02  0.14598084008E+03  0.00000000000E+00 0. -1.
          1    1    1    2  503    0  0.50828391981E+01 -0.28641815947E+02 -0.54915367914E+03  0.54992358759E+03  0.00000000000E+00 0. -1.
<mgrwt>
<rscale>  0 0.62105926E+02</rscale>
<asrwt>0</asrwt>
<pdfrwt beam="1">  1        2 0.40506336E-01 0.13259661E+03</pdfrwt>
<pdfrwt beam="2">  1        1 0.10098049E+00 0.29089326E+02</pdfrwt>
<totfact> 0.57514464E+02</totfact>
</mgrwt>
</event>
<event>
 7    1  0.3113151E-004  0.5148585E+02  0.7546771E-02  0.1508392E+00
         -1   -1    0    0    0  501 -0.00000000000E+00  0.00000000000E+00  0.72986007665E+02  0.72986007665E+02  0.00000000000E+00 0.  1.
          1   -1    0    0  503    0  0.00000000000E+00 -0.00000000000E+00 -0.15136894952E+04  0.15136894952E+04  0.00000000000E+00 0. -1.
         25    2    1    2    0    0 -0.23932037765E+02 -0.46890399282E+00 -0.11002069298E+03  0.16823430846E+03  0.12500106943E+03 0.  0.
          4    1    3    3  502    0  0.28057314040E+02 -0.22929690449E+02  0.81725501435E+01  0.37167015633E+02  0.12700000000E+01 0. -1.
         -4    1    3    3    0  502 -0.51989351805E+02  0.22460786456E+02 -0.11819324313E+03  0.13106729283E+03  0.12700000000E+01 0. -1.
          1    1    1    2  503    0 -0.30934061974E+02  0.25427811819E+01 -0.13571393082E+04  0.13574941929E+04  0.00000000000E+00 0. -1.
         -1    1    1    2    0  501  0.54866099739E+02 -0.20738771891E+01  0.26456513700E+02  0.60947001438E+02  0.00000000000E+00 0.  1.
<mgrwt>
<rscale>  0 0.39975468E+02</rscale>
<asrwt>0</asrwt>
<pdfrwt beam="2">  1        1 0.23287532E+00 0.31038394E+02</pdfrwt>
<pdfrwt beam="1">  1       -1 0.11228616E-01 0.51485847E+02</pdfrwt>
<totfact> 0.40138870E+02</totfact>
</mgrwt>
</event>
<event>
 7    1  0.3113151E-004  0.3769763E+02  0.7546771E-02  0.1540957E+00
          2   -1    0    0  503    0  0.00000000000E+00  0.00000000000E+00  0.52599494755E+02  0.52599494755E+02  0.00000000000E+00 0. -1.
         -2   -1    0    0    0  501 -0.00000000000E+00 -0.00000000000E+00 -0.22822423342E+03  0.22822423342E+03  0.00000000000E+00 0.  1.
         25    2    1    2    0    0  0.12527617526E+02  0.48575640358E+01 -0.11963442710E+03  0.17354492167E+03  0.12499962624E+03 0.  0.
          4    1    3    3  502    0 -0.36662665517E+02 -0.43372250576E+02 -0.55270256754E+02  0.79257285750E+02  0.12700000000E+01 0. -1.
         -4    1    3    3    0  502  0.49190283043E+02  0.48229814612E+02 -0.64364170344E+02  0.94287635920E+02  0.12700000000E+01 0. -1.
          2    1    1    2  503    0  0.36304000698E+02 -0.10155346207E+02 -0.41504714031E+02  0.56069178789E+02  0.00000000000E+00 0.  1.
         -2    1    1    2    0  501 -0.48831618225E+02  0.52977821712E+01 -0.14485597532E+02  0.51209627710E+02  0.00000000000E+00 0. -1.
<mgrwt>
<rscale>  0 0.35875883E+02</rscale>
<asrwt>0</asrwt>
<pdfrwt beam="1">  1        2 0.80922300E-02 0.37697633E+02</pdfrwt>
<pdfrwt beam="2">  1       -2 0.35111421E-01 0.34142169E+02</pdfrwt>
<totfact> 0.53394051E+03</totfact>
</mgrwt>
</event>
<event>
 7    1  0.3113151E-004  0.4918764E+02  0.7546771E-02  0.1512330E+00
         -1   -1    0    0    0  501 -0.00000000000E+00  0.00000000000E+00  0.73152149275E+02  0.73152149275E+02  0.00000000000E+00 0.  1.
          1   -1    0    0  503    0  0.00000000000E+00 -0.00000000000E+00 -0.17451568399E+03  0.17451568399E+03  0.00000000000E+00 0. -1.
         25    2    1    2    0    0 -0.12478090239E+02 -0.26182921863E+02 -0.75736995810E+02  0.14900607902E+03  0.12500188365E+03 0.  0.
          4    1    3    3  502    0  0.25097429695E+02 -0.23060654245E+02  0.24440782403E+02  0.41959974928E+02  0.12700000000E+01 0.  1.
         -4    1    3    3    0  502 -0.37575519934E+02 -0.31222676183E+01 -0.10017777821E+03  0.10704610409E+03  0.12700000000E+01 0.  1.
          1    1    1    2  503    0  0.14614261033E+02 -0.28055215527E+02 -0.30780524014E+02  0.44137426322E+02  0.00000000000E+00 0. -1.
         -1    1    1    2    0  501 -0.21361707935E+01  0.54238137390E+02  0.51539851073E+01  0.54524327925E+02  0.00000000000E+00 0.  1.
<mgrwt>
<rscale>  0 0.39445811E+02</rscale>
<asrwt>0</asrwt>
<pdfrwt beam="2">  1        1 0.26848567E-01 0.31633396E+02</pdfrwt>
<pdfrwt beam="1">  1       -1 0.11254177E-01 0.49187636E+02</pdfrwt>
<totfact> 0.75299775E+03</totfact>
</mgrwt>
</event>
<event>
 7    1  0.3113151E-004  0.9337372E+02  0.7546771E-02  0.1361729E+00
         -2   -1    0    0    0  501  0.00000000000E+00  0.00000000000E+00  0.39579836787E+03  0.39579836787E+03  0.00000000000E+00 0.  1.
         -2   -1    0    0    0  502 -0.00000000000E+00 -0.00000000000E+00 -0.30848797007E+03  0.30848797007E+03  0.00000000000E+00 0. -1.
         25    2    1    2    0    0 -0.54726904573E+02  0.29246073006E+02  0.74724979219E+02  0.15827174427E+03  0.12496301711E+03 0.  0.
          4    1    3    3  503    0 -0.52127311509E+02  0.76861507469E+01 -0.23470348653E+02  0.57695785673E+02  0.12700000000E+01 0. -1.
         -4    1    3    3    0  503 -0.25995930636E+01  0.21559922259E+02  0.98195327872E+02  0.10057595860E+03  0.12700000000E+01 0. -1.
         -2    1    1    2    0  501  0.25646325844E+01  0.51698421806E+02  0.26805075968E+03  0.27300277274E+03  0.00000000000E+00 0.  1.
         -2    1    1    2    0  502  0.52162271988E+02 -0.80944494812E+02 -0.25546534110E+03  0.27301182093E+03  0.00000000000E+00 0. -1.
<mgrwt>
<rscale>  0 0.69521293E+02</rscale>
<asrwt>0</asrwt>
<pdfrwt beam="1">  1       -2 0.60892057E-01 0.51761995E+02</pdfrwt>
<pdfrwt beam="2">  1       -2 0.47459688E-01 0.93373723E+02</pdfrwt>
<totfact> 0.72671907E+01</totfact>
</mgrwt>
</event>
<event>
 7    1  0.3113151E-004  0.4628740E+02  0.7546771E-02  0.1544843E+00
         -2   -1    0    0    0  501 -0.00000000000E+00  0.00000000000E+00  0.80141385275E+03  0.80141385275E+03  0.00000000000E+00 0.  1.
          1   -1    0    0  503    0  0.00000000000E+00 -0.00000000000E+00 -0.14287647073E+02  0.14287647073E+02  0.00000000000E+00 0. -1.
         25    2    1    2    0    0  0.28807288009E+02 -0.17587582224E+01  0.48545179813E+03  0.50211579216E+03  0.12499546933E+03 0.  0.
          4    1    3    3  502    0  0.49327357951E+02  0.50076522853E+02  0.31594214883E+03  0.32366943120E+03  0.12700000000E+01 0.  1.
         -4    1    3    3    0  502 -0.20520069943E+02 -0.51835281076E+02  0.16950964930E+03  0.17844636096E+03  0.12700000000E+01 0.  1.
          1    1    1    2  503    0  0.27103485151E+02 -0.76966505134E+00  0.13708287314E+03  0.13973870402E+03  0.00000000000E+00 0. -1.
         -2    1    1    2    0  501 -0.55910773160E+02  0.25284232737E+01  0.16459153441E+03  0.17384700365E+03  0.00000000000E+00 0.  1.
<mgrwt>
<rscale>  0 0.35426764E+02</rscale>
<asrwt>0</asrwt>
<pdfrwt beam="2">  1        1 0.21981002E-02 0.27114411E+02</pdfrwt>
<pdfrwt beam="1">  1       -2 0.12329440E+00 0.46287399E+02</pdfrwt>
<totfact> 0.19015975E+03</totfact>
</mgrwt>
</event>
<event>
 7    1  0.3113151E-004  0.6747124E+02  0.7546771E-02  0.1495607E+00
         -1   -1    0    0    0  501  0.00000000000E+00  0.00000000000E+00  0.17604826309E+03  0.17604826309E+03  0.00000000000E+00 0.  1.
         -1   -1    0    0    0  502 -0.00000000000E+00 -0.00000000000E+00 -0.10758437108E+04  0.10758437108E+04  0.00000000000E+00 0.  1.
         25    2    1    2    0    0  0.65174337014E+02 -0.60142533736E+02 -0.21991927853E+02  0.15483109309E+03  0.12499681567E+03 0.  0.
          4    1    3    3  503    0  0.97867771269E+02 -0.20131852454E+02 -0.36618967369E+01  0.99992072306E+02  0.12700000000E+01 0. -1.
         -4    1    3    3    0  503 -0.32693434255E+02 -0.40010681282E+02 -0.18330031116E+02  0.54839020786E+02  0.12700000000E+01 0. -1.
         -1    1    1    2    0  501 -0.25072974426E+02  0.63042425623E+01  0.10694560084E+03  0.11002617443E+03  0.00000000000E+00 0.  1.
         -1    1    1    2    0  502 -0.40101362588E+02  0.53838291174E+02 -0.98474912067E+03  0.98703470635E+03  0.00000000000E+00 0.  1.
<mgrwt>
<rscale>  0 0.41765535E+02</rscale>
<asrwt>0</asrwt>
<pdfrwt beam="1">  1       -1 0.27084348E-01 0.25853385E+02</pdfrwt>
<pdfrwt beam="2">  1       -1 0.16551442E+00 0.67471239E+02</pdfrwt>
<totfact> 0.31140037E+01</totfact>
</mgrwt>
</event>
<event>
 7    1  0.3113151E-004  0.5310512E+02  0.7546771E-02  0.1527080E+00
         -1   -1    0    0    0  501 -0.00000000000E+00  0.00000000000E+00  0.30425012448E+02  0.30425012448E+02  0.00000000000E+00 0.  1.
          2   -1    0    0  503    0  0.00000000000E+00 -0.00000000000E+00 -0.39263734069E+03  0.39263734069E+03  0.00000000000E+00 0. -1.
         25    2    1    2    0    0  0.31478514477E+02 -0.16143915747E+02 -0.22268884365E+03  0.25780839036E+03  0.12499328849E+03 0.  0.
          4    1    3    3  502    0 -0.31607238401E+02 -0.13406540721E+02 -0.17585749947E+03  0.17918210255E+03  0.12700000000E+01 0. -1.
         -4    1    3    3    0  502  0.63085752878E+02 -0.27373750256E+01 -0.46831344174E+02  0.78626287814E+02  0.12700000000E+01 0. -1.
          2    1    1    2  503    0 -0.52890580430E+02  0.31836533830E+02 -0.10337072123E+03  0.12040134714E+03  0.00000000000E+00 0. -1.
         -1    1    1    2    0  501  0.21412065953E+02 -0.15692618083E+02 -0.36152763364E+02  0.44852615638E+02  0.00000000000E+00 0.  1.
<mgrwt>
<rscale>  0 0.37546946E+02</rscale>
<asrwt>0</asrwt>
<pdfrwt beam="2">  1        2 0.60405740E-01 0.53105116E+02</pdfrwt>
<pdfrwt beam="1">  1       -1 0.46807715E-02 0.26546842E+02</pdfrwt>
<totfact> 0.14166572E+04</totfact>
</mgrwt>
</event>
<event>
 7    1  0.3113151E-004  0.1214817E+03  0.7546771E-02  0.1271202E+00
          2   -1    0    0  502    0  0.00000000000E+00  0.00000000000E+00  0.66255679881E+03  0.66255679881E+03  0.00000000000E+00 0. -1.
          3   -1    0    0  503    0 -0.00000000000E+00 -0.00000000000E+00 -0.99863400017E+03  0.99863400017E+03  0.00000000000E+00 0. -1.
         25    2    1    2    0    0 -0.46901242410E+02  0.67223217975E+02  0.27987346484E+02  0.15207283441E+03  0.12499667126E+03 0.  0.
          4    1    3    3  501    0  0.73879039386E+01  0.59052138593E+02 -0.34566219065E+02  0.68834385284E+02  0.12700000000E+01 0.  1.
         -4    1    3    3    0  501 -0.54289146348E+02  0.81710793821E+01  0.62553565549E+02  0.83238449123E+02  0.12700000000E+01 0.  1.
          2    1    1    2  502    0 -0.20097460034E+02 -0.12703275083E+03  0.56310650445E+03  0.57760727405E+03  0.00000000000E+00 0. -1.
          3    1    1    2  503    0  0.66998702444E+02  0.59809532852E+02 -0.92717105229E+03  0.93151069052E+03  0.00000000000E+00 0. -1.
<mgrwt>
<rscale>  0 0.10445278E+03</rscale>
<asrwt>0</asrwt>
<pdfrwt beam="1">  1        2 0.10193182E+00 0.12148166E+03</pdfrwt>
<pdfrwt beam="2">  1        3 0.15363600E+00 0.89810948E+02</pdfrwt>
<totfact> 0.92700026E+00</totfact>
</mgrwt>
</event>
<event>
 7    1  0.3113151E-004  0.4824804E+02  0.7546771E-02  0.1481435E+00
          1   -1    0    0  503    0  0.00000000000E+00  0.00000000000E+00  0.49807751083E+03  0.49807751083E+03  0.00000000000E+00 0. -1.
         -2   -1    0    0    0  501 -0.00000000000E+00 -0.00000000000E+00 -0.26942881393E+02  0.26942881393E+02  0.00000000000E+00 0.  1.
         25    2    1    2    0    0 -0.33605922443E+02  0.38641372237E+02  0.29440251827E+03  0.32391376621E+03  0.12499908601E+03 0.  0.
          4    1    3    3  502    0 -0.72811592565E+02  0.43808148861E+02  0.13378667900E+03  0.15849659396E+03  0.12700000000E+01 0.  1.
         -4    1    3    3    0  502  0.39205670122E+02 -0.51667766245E+01  0.16061583928E+03  0.16541717225E+03  0.12700000000E+01 0.  1.
          1    1    1    2  503    0 -0.16961213842E+02 -0.36130411793E+02  0.11217397288E+03  0.11906338489E+03  0.00000000000E+00 0. -1.
         -2    1    1    2    0  501  0.50567136285E+02 -0.25109604440E+01  0.64558138288E+02  0.82043241121E+02  0.00000000000E+00 0.  1.
<mgrwt>
<rscale>  0 0.43883359E+02</rscale>
<asrwt>0</asrwt>
<pdfrwt beam="1">  1        1 0.76627303E-01 0.39913524E+02</pdfrwt>
<pdfrwt beam="2">  1       -2 0.41450590E-02 0.48248036E+02</pdfrwt>
<totfact> 0.90870275E+03</totfact>
</mgrwt>
</event>
<event>
 7    1  0.3113151E-004  0.6247587E+02  0.7546771E-02  0.1500131E+00
          2   -1    0    0  502    0  0.00000000000E+00  0.00000000000E+00  0.88270638163E+03  0.88270638163E+03  0.00000000000E+00 0.  1.
          1   -1    0    0  503    0 -0.00000000000E+00 -0.00000000000E+00 -0.49674229032E+03  0.49674229032E+03  0.00000000000E+00 0. -1.
         25    2    1    2    0    0  0.14611311251E+02  0.50913650488E+02  0.50676829625E+02  0.14491915140E+03  0.12501091616E+03 0.  0.
          4    1    3    3  501    0 -0.70129343756E+01 -0.32608911109E+02  0.48160505694E+02  0.58596668343E+02  0.12700000000E+01 0. -1.
         -4    1    3    3    0  501  0.21624245627E+02  0.83522561597E+02  0.25163239310E+01  0.86322483055E+02  0.12700000000E+01 0. -1.
          2    1    1    2  502    0  0.26808180630E+02 -0.37081991244E+01  0.78248039273E+03  0.78294827051E+03  0.00000000000E+00 0.  1.
          1    1    1    2  503    0 -0.41419491881E+02 -0.47205451364E+02 -0.44719313104E+03  0.45158125004E+03  0.00000000000E+00 0. -1.
<mgrwt>
<rscale>  0 0.41119478E+02</rscale>
<asrwt>0</asrwt>
<pdfrwt beam="1">  1        2 0.13580098E+00 0.27063431E+02</pdfrwt>
<pdfrwt beam="2">  1        1 0.76421891E-01 0.62475873E+02</pdfrwt>
<totfact> 0.22250053E+02</totfact>
</mgrwt>
</event>
<event>
 7    1  0.3113151E-004  0.7186495E+02  0.7546771E-02  0.1427550E+00
          1   -1    0    0  503    0  0.00000000000E+00  0.00000000000E+00  0.16435238639E+04  0.16435238639E+04  0.00000000000E+00 0. -1.
         -3   -1    0    0    0  501 -0.00000000000E+00 -0.00000000000E+00 -0.36211889763E+02  0.36211889763E+02  0.00000000000E+00 0.  1.
         25    2    1    2    0    0 -0.46627467451E+02  0.86509047386E+02  0.12750784501E+04  0.12849544337E+04  0.12499962672E+03 0.  0.
          4    1    3    3  502    0 -0.29489644828E+02  0.11444107134E+03  0.79264361861E+03  0.80140621222E+03  0.12700000000E+01 0.  1.
         -4    1    3    3    0  502 -0.17137822623E+02 -0.27932023951E+02  0.48243483152E+03  0.48354822147E+03  0.12700000000E+01 0.  1.
          1    1    1    2  503    0  0.25055144185E+02 -0.53108615015E+02  0.34732376365E+03  0.35225286661E+03  0.00000000000E+00 0. -1.
         -3    1    1    2    0  501  0.21572323267E+02 -0.33400432370E+02 -0.15090239635E+02  0.42528453368E+02  0.00000000000E+00 0.  1.
<mgrwt>
<rscale>  0 0.53455006E+02</rscale>
<asrwt>0</asrwt>
<pdfrwt beam="1">  1        1 0.25284977E+00 0.71864953E+02</pdfrwt>
<pdfrwt beam="2">  1       -3 0.55710612E-02 0.39761212E+02</pdfrwt>
<totfact> 0.54022272E+02</totfact>
</mgrwt>
</event>
<event>
 7    1  0.3113151E-004  0.5153699E+02  0.7546771E-02  0.1510050E+00
          2   -1    0    0  503    0  0.00000000000E+00  0.00000000000E+00  0.15631866354E+04  0.15631866354E+04  0.00000000000E+00 0. -1.
          2   -1    0    0  502    0 -0.00000000000E+00 -0.00000000000E+00 -0.13576555674E+02  0.13576555674E+02  0.00000000000E+00 0.  1.
         25    2    1    2    0    0 -0.42392107299E+01 -0.64835045870E+02  0.11597656867E+04  0.11682914825E+04  0.12500794384E+03 0.  0.
          4    1    3    3  501    0 -0.42562816370E+02 -0.23167837492E+02  0.94320872026E+03  0.94445362242E+03  0.12700000000E+01 0.  1.
         -4    1    3    3    0  501  0.38323605640E+02 -0.41667208378E+02  0.21655696641E+03  0.22383786008E+03  0.12700000000E+01 0.  1.
          2    1    1    2  502    0 -0.20548293235E+02  0.46789012275E+02  0.67448709746E+02  0.84621347608E+02  0.00000000000E+00 0.  1.
          2    1    1    2  503    0  0.24787503965E+02  0.18046033595E+02  0.32239568327E+03  0.32385036093E+03  0.00000000000E+00 0. -1.
<mgrwt>
<rscale>  0 0.39751242E+02</rscale>
<asrwt>0</asrwt>
<pdfrwt beam="1">  1        2 0.24049011E+00 0.30660719E+02</pdfrwt>
<pdfrwt beam="2">  1        2 0.20887021E-02 0.51536992E+02</pdfrwt>
<totfact> 0.99046686E+03</totfact>
</mgrwt>
</event>
<event>
 7    1  0.3113151E-004  0.8308584E+02  0.7546771E-02  0.1409927E+00
          2   -1    0    0  502    0  0.00000000000E+00  0.00000000000E+00  0.16361451081E+04  0.16361451081E+04  0.00000000000E+00 0. -1.
          1   -1    0    0  503    0 -0.00000000000E+00 -0.00000000000E+00 -0.29326697153E+04  0.29326697153E+04  0.00000000000E+00 0. -1.
         25    2    1    2    0    0 -0.49060302337E+02  0.12581422362E+02  0.73586339355E+03  0.74812130109E+03  0.12500136692E+03 0.  0.
          4    1    3    3  501    0  0.38604884537E+02 -0.57508751033E+01  0.34086151595E+03  0.34309123514E+03  0.12700000000E+01 0. -1.
         -4    1    3    3    0  501 -0.87665186875E+02  0.18332297465E+02  0.39500187760E+03  0.40503006596E+03  0.12700000000E+01 0. -1.
          2    1    1    2  502    0 -0.33682519116E+02 -0.20427875849E+02  0.89312839786E+03  0.89399672553E+03  0.00000000000E+00 0. -1.
          1    1    1    2  503    0  0.82742821454E+02  0.78464534874E+01 -0.29255163987E+04  0.29266967968E+04  0.00000000000E+00 0. -1.
<mgrwt>
<rscale>  0 0.57210161E+02</rscale>
<asrwt>0</asrwt>
<pdfrwt beam="1">  1        2 0.25171463E+00 0.39393022E+02</pdfrwt>
<pdfrwt beam="2">  1        1 0.45117995E+00 0.83085843E+02</pdfrwt>
<totfact> 0.18454086E+00</totfact>
</mgrwt>
</event>
<event>
 7    1  0.3113151E-004  0.9431845E+02  0.7546771E-02  0.1371553E+00
          2   -1    0    0  502    0  0.00000000000E+00  0.00000000000E+00  0.13718175214E+04  0.13718175214E+04  0.00000000000E+00 0. -1.
          1   -1    0    0  503    0 -0.00000000000E+00 -0.00000000000E+00 -0.49467373872E+02  0.49467373872E+02  0.00000000000E+00 0. -1.
         25    2    1    2    0    0  0.31026514511E+02 -0.56717448836E+02  0.21648236679E+03  0.25820308051E+03  0.12499880818E+03 0.  0.
          4    1    3    3  501    0  0.55003988284E+01 -0.94288729786E+02  0.15884384921E+03  0.18480692704E+03  0.12700000000E+01 0. -1.
         -4    1    3    3    0  501  0.25526115682E+02  0.37571280950E+02  0.57638517582E+02  0.73396153463E+02  0.12700000000E+01 0. -1.
          2    1    1    2  502    0  0.40839956270E+02 -0.23706086728E+02  0.10303154190E+04  0.10313969863E+04  0.00000000000E+00 0. -1.
          1    1    1    2  503    0 -0.71866470781E+02  0.80423535564E+02  0.75552361672E+02  0.13168482847E+03  0.00000000000E+00 0. -1.
<mgrwt>
<rscale>  0 0.66737315E+02</rscale>
<asrwt>0</asrwt>
<pdfrwt beam="1">  1        2 0.21104882E+00 0.47221611E+02</pdfrwt>
<pdfrwt beam="2">  1        1 0.76103662E-02 0.94318451E+02</pdfrwt>
<totfact> 0.21414454E+03</totfact>
</mgrwt>
</event>
<event>
 7    1  0.3113151E-004  0.7012585E+02  0.7546771E-02  0.1369410E+00
          2   -1    0    0  502    0  0.00000000000E+00  0.00000000000E+00  0.72099221825E+03  0.72099221825E+03  0.00000000000E+00 0. -1.
          2   -1    0    0  503    0 -0.00000000000E+00 -0.00000000000E+00 -0.33848641761E+04  0.33848641761E+04  0.00000000000E+00 0. -1.
         25    2    1    2    0    0  0.49008030042E+02 -0.78503007950E+02 -0.56478383944E+03  0.58580703238E+03  0.12499833850E+03 0.  0.
          4    1    3    3  501    0 -0.20923215527E+02  0.38002340367E+01 -0.28660676913E+03  0.28739741777E+03  0.12700000000E+01 0. -1.
         -4    1    3    3    0  501  0.69931245569E+02 -0.82303241987E+02 -0.27817707031E+03  0.29840961462E+03  0.12700000000E+01 0. -1.
          2    1    1    2  502    0 -0.63891597364E+02  0.98636548993E+01  0.70856991233E+03  0.71151299957E+03  0.00000000000E+00 0. -1.
          2    1    1    2  503    0  0.14883567322E+02  0.68639353051E+02 -0.28076580308E+04  0.28085363624E+04  0.00000000000E+00 0. -1.
<mgrwt>
<rscale>  0 0.67331497E+02</rscale>
<asrwt>0</asrwt>
<pdfrwt beam="1">  1        2 0.11092188E+00 0.64648495E+02</pdfrwt>
<pdfrwt beam="2">  1        2 0.52074833E+00 0.70125847E+02</pdfrwt>
<totfact> 0.10125673E+01</totfact>
</mgrwt>
</event>
<event>
 7    1  0.3113151E-004  0.1135700E+03  0.7546771E-02  0.1358265E+00
         -1   -1    0    0    0  501 -0.00000000000E+00  0.00000000000E+00  0.11484373030E+04  0.11484373030E+04  0.00000000000E+00 0.  1.
          1   -1    0    0  503    0  0.00000000000E+00 -0.00000000000E+00 -0.66959399349E+03  0.66959399349E+03  0.00000000000E+00 0. -1.
         25    2    1    2    0    0 -0.99485373460E+02  0.51982382252E+02  0.42906154477E+03  0.46077593456E+03  0.12498457935E+03 0.  0.
          4    1    3    3  502    0  0.14030713137E+02  0.38573633508E+02  0.20683265539E+03  0.21086997498E+03  0.12700000000E+01 0. -1.
         -4    1    3    3    0  502 -0.11351608660E+03  0.13408748745E+02  0.22222888938E+03  0.24990595958E+03  0.12700000000E+01 0. -1.
          1    1    1    2  503    0  0.73160656882E+02 -0.87006253921E+02 -0.64810279519E+03  0.65799681083E+03  0.00000000000E+00 0. -1.
         -1    1    1    2    0  501  0.26324716578E+02  0.35023871668E+02  0.69788455996E+03  0.69925855112E+03  0.00000000000E+00 0.  1.
<mgrwt>
<rscale>  0 0.70540410E+02</rscale>
<asrwt>0</asrwt>
<pdfrwt beam="2">  1        1 0.10301446E+00 0.11356998E+03</pdfrwt>
<pdfrwt beam="1">  1       -1 0.17668266E+00 0.43813951E+02</pdfrwt>
<totfact> 0.87818277E+00</totfact>
</mgrwt>
</event>
<event>
 7    1  0.3113151E-004  0.7656472E+02  0.7546771E-02  0.1461881E+00
          1   -1    0    0  502    0  0.00000000000E+00  0.00000000000E+00  0.10113759751E+04  0.10113759751E+04  0.00000000000E+00 0. -1.
          3   -1    0    0  503    0 -0.00000000000E+00 -0.00000000000E+00 -0.39141244466E+02  0.39141244466E+02  0.00000000000E+00 0. -1.
         25    2    1    2    0    0 -0.61964480797E+02 -0.31058113424E+02  0.18470414703E+03  0.23354669663E+03  0.12499693712E+03 0.  0.
          4    1    3    3  501    0 -0.41022295964E+02  0.26550324088E+01 -0.34273221971E+01  0.41270296833E+02  0.12700000000E+01 0. -1.
         -4    1    3    3    0  501 -0.20942184833E+02 -0.33713145833E+02  0.18813146922E+03  0.19227639980E+03  0.12700000000E+01 0. -1.
          1    1    1    2  502    0  0.77223912405E+02  0.64867482881E+01  0.78401254372E+03  0.78783328139E+03  0.00000000000E+00 0. -1.
          3    1    1    2  503    0 -0.15259431608E+02  0.24571365136E+02  0.35180398353E+01  0.29137241495E+02  0.00000000000E+00 0. -1.
<mgrwt>
<rscale>  0 0.47059152E+02</rscale>
<asrwt>0</asrwt>
<pdfrwt beam="1">  1        1 0.15559628E+00 0.76564717E+02</pdfrwt>
<pdfrwt beam="2">  1        3 0.60217307E-02 0.28924077E+02</pdfrwt>
<totfact> 0.11591372E+03</totfact>
</mgrwt>
</event>
<event>
 7    1  0.3113151E-004  0.1011111E+03  0.7546771E-02  0.1400119E+00
          3   -1    0    0  503    0  0.00000000000E+00  0.00000000000E+00  0.61928706933E+02  0.61928706933E+02  0.00000000000E+00 0. -1.
         -3   -1    0    0    0  501 -0.00000000000E+00 -0.00000000000E+00 -0.39108112896E+03  0.39108112896E+03  0.00000000000E+00 0.  1.
         25    2    1    2    0    0  0.64242420515E+02 -0.51008934126E+02 -0.91484122170E+02  0.17527853410E+03  0.12499687978E+03 0.  0.
          4    1    3    3  502    0  0.88288969586E+02 -0.21748044508E+02 -0.10130322967E+03  0.13613183622E+03  0.12700000000E+01 0. -1.
         -4    1    3    3    0  502 -0.24046549071E+02 -0.29260889618E+02  0.98191074968E+01  0.39146697888E+02  0.12700000000E+01 0. -1.
          3    1    1    2  503    0  0.24198313164E+01 -0.34880745903E+02 -0.59031628379E+02  0.68609439346E+02  0.00000000000E+00 0. -1.
         -3    1    1    2    0  501 -0.66662251831E+02  0.85889680029E+02 -0.17863667148E+03  0.20912186244E+03  0.00000000000E+00 0.  1.
<mgrwt>
<rscale>  0 0.59458455E+02</rscale>
<asrwt>0</asrwt>
<pdfrwt beam="1">  1        3 0.95274933E-02 0.34964582E+02</pdfrwt>
<pdfrwt beam="2">  1       -3 0.60166328E-01 0.10111111E+03</pdfrwt>
<totfact> 0.41585541E+02</totfact>
</mgrwt>
</event>
<event>
 7    1  0.3113151E-004  0.1487328E+03  0.7546771E-02  0.1318794E+00
         -2   -1    0    0    0  501 -0.00000000000E+00  0.00000000000E+00  0.21441772495E+03  0.21441772495E+03  0.00000000000E+00 0.  1.
          1   -1    0    0  503    0  0.00000000000E+00 -0.00000000000E+00 -0.15074730830E+04  0.15074730830E+04  0.00000000000E+00 0. -1.
         25    2    1    2    0    0 -0.11558127938E+03 -0.35982264397E+02 -0.42488930639E+02  0.17911983875E+03  0.12499940765E+03 0.  0.
          4    1    3    3  502    0 -0.62404700090E+02  0.44657128773E+02 -0.11104583341E+02  0.77546956193E+02  0.12700000000E+01 0.  1.
         -4    1    3    3    0  502 -0.53176579290E+02 -0.80639393169E+02 -0.31384347298E+02  0.10157288256E+03  0.12700000000E+01 0.  1.
          1    1    1    2  503    0  0.12646592288E+03  0.81841618435E+02 -0.13886851556E+04  0.13968314650E+04  0.00000000000E+00 0. -1.
         -2    1    1    2    0  501 -0.10884643503E+02 -0.45859354039E+02  0.13811872819E+03  0.14593950423E+03  0.00000000000E+00 0.  1.
<mgrwt>
<rscale>  0 0.83727404E+02</rscale>
<asrwt>0</asrwt>
<pdfrwt beam="2">  1        1 0.23191893E+00 0.14873276E+03</pdfrwt>
<pdfrwt beam="1">  1       -2 0.32987343E-01 0.47133383E+02</pdfrwt>
<totfact> 0.55306438E+01</totfact>
</mgrwt>
</event>
<event>
 7    1  0.3113151E-004  0.2051367E+03  0.7546771E-02  0.1224290E+00
          2   -1    0    0  502    0  0.00000000000E+00  0.00000000000E+00  0.68284996148E+03  0.68284996148E+03  0.00000000000E+00 0. -1.
          2   -1    0    0  503    0 -0.00000000000E+00 -0.00000000000E+00 -0.13810621923E+03  0.13810621923E+03  0.00000000000E+00 0. -1.
         25    2    1    2    0    0 -0.33801799667E+02  0.16090779065E+03  0.21265747585E+03  0.29644979082E+03  0.12500159075E+03 0.  0.
          4    1    3    3  501    0 -0.77157954413E+02  0.71413572026E+02  0.88930371342E+02  0.13770792296E+03  0.12700000000E+01 0. -1.
         -4    1    3    3    0  501  0.43356154746E+02  0.89494218624E+02  0.12372710451E+03  0.15874186786E+03  0.12700000000E+01 0. -1.
          2    1    1    2  502    0  0.85158984447E+01 -0.24220664199E+03  0.36081133989E+03  0.43465089548E+03  0.00000000000E+00 0. -1.
          2    1    1    2  503    0  0.25285901223E+02  0.81298851338E+02 -0.28725073483E+02  0.89855494413E+02  0.00000000000E+00 0. -1.
<mgrwt>
<rscale>  0 0.13215678E+03</rscale>
<asrwt>0</asrwt>
<pdfrwt beam="1">  1        2 0.10505384E+00 0.20513672E+03</pdfrwt>
<pdfrwt beam="2">  1        2 0.21247111E-01 0.85140355E+02</pdfrwt>
<totfact> 0.16808559E+03</totfact>
</mgrwt>
</event>
<event>
 7    1  0.3113151E-004  0.1084462E+03  0.7546771E-02  0.1324812E+00
          1   -1    0    0  503    0 -0.00000000000E+00  0.00000000000E+00  0.18018873676E+04  0.18018873676E+04  0.00000000000E+00 0. -1.
          2   -1    0    0  502    0  0.00000000000E+00 -0.00000000000E+00 -0.65943118724E+02  0.65943118724E+02  0.00000000000E+00 0. -1.
         25    2    1    2    0    0  0.41128279189E+02 -0.95908272436E+02  0.54142231636E+03  0.56537728699E+03  0.12499367953E+03 0.  0.
          4    1    3    3  501    0 -0.34168061990E+02 -0.78067788974E+02  0.29808203817E+03  0.31002669323E+03  0.12700000000E+01 0.  1.
         -4    1    3    3    0  501  0.75296341179E+02 -0.17840483462E+02  0.24334027819E+03  0.25535059376E+03  0.12700000000E+01 0.  1.
          2    1    1    2  502    0  0.51747969042E+02  0.32802548524E+02 -0.33146597646E+02  0.69660293031E+02  0.00000000000E+00 0. -1.
          1    1    1    2  503    0 -0.92876248231E+02  0.63105723912E+02  0.12276685302E+04  0.12327929063E+04  0.00000000000E+00 0. -1.
<mgrwt>
<rscale>  0 0.81512960E+02</rscale>
<asrwt>0</asrwt>
<pdfrwt beam="2">  1        2 0.10145097E-01 0.61268748E+02</pdfrwt>
<pdfrwt beam="1">  1        1 0.27721340E+00 0.10844619E+03</pdfrwt>
<totfact> 0.39167947E+02</totfact>
</mgrwt>
</event>
<event>
 7    1  0.3113151E-004  0.3970011E+02  0.7546771E-02  0.1535184E+00
          2   -1    0    0  502    0  0.00000000000E+00  0.00000000000E+00  0.19577558720E+04  0.19577558720E+04  0.00000000000E+00 0. -1.
          1   -1    0    0  503    0 -0.00000000000E+00 -0.00000000000E+00 -0.43214195268E+02  0.43214195268E+02  0.00000000000E+00 0. -1.
         25    2    1    2    0    0  0.51821244331E+02 -0.12906618719E+02  0.41402360342E+03  0.43576631022E+03  0.12499884305E+03 0.  0.
          4    1    3    3  501    0  0.44535017637E+02  0.38260804524E+02  0.34259031660E+03  0.34758739173E+03  0.12700000000E+01 0.  1.
         -4    1    3    3    0  501  0.72862266940E+01 -0.51167423244E+02  0.71433286820E+02  0.88178918494E+02  0.12700000000E+01 0.  1.
          2    1    1    2  502    0 -0.23865409438E+02  0.31662842406E+02  0.15237723770E+04  0.15242881454E+04  0.00000000000E+00 0. -1.
          1    1    1    2  503    0 -0.27955834893E+02 -0.18756223687E+02 -0.23254303714E+02  0.40915611602E+02  0.00000000000E+00 0. -1.
<mgrwt>
<rscale>  0 0.36558170E+02</rscale>
<asrwt>0</asrwt>
<pdfrwt beam="1">  1        2 0.30119314E+00 0.39700113E+02</pdfrwt>
<pdfrwt beam="2">  1        1 0.66483393E-02 0.33664887E+02</pdfrwt>
<totfact> 0.12302506E+03</totfact>
</mgrwt>
</event>
<event>
 7    1  0.3113151E-004  0.6778699E+02  0.7546771E-02  0.1386239E+00
          2   -1    0    0  502    0  0.00000000000E+00  0.00000000000E+00  0.62921501148E+03  0.62921501148E+03  0.00000000000E+00 0. -1.
          1   -1    0    0  503    0 -0.00000000000E+00 -0.00000000000E+00 -0.21342915904E+03  0.21342915904E+03  0.00000000000E+00 0. -1.
         25    2    1    2    0    0 -0.50228099370E+02 -0.98298905230E+02  0.62340342513E+02  0.17803582827E+03  0.12499960443E+03 0.  0.
          4    1    3    3  501    0  0.30382614651E+02 -0.64614383905E+02  0.12513511120E+01  0.71423390147E+02  0.12700000000E+01 0. -1.
         -4    1    3    3    0  501 -0.80610714021E+02 -0.33684521326E+02  0.61088991401E+02  0.10661243812E+03  0.12700000000E+01 0. -1.
          2    1    1    2  502    0  0.13597552676E+01  0.66550544392E+02  0.50129153517E+03  0.50569163245E+03  0.00000000000E+00 0. -1.
          1    1    1    2  503    0  0.48868344103E+02  0.31748360838E+02 -0.14784602525E+03  0.15891670980E+03  0.00000000000E+00 0. -1.
<mgrwt>
<rscale>  0 0.62851759E+02</rscale>
<asrwt>0</asrwt>
<pdfrwt beam="1">  1        2 0.96802309E-01 0.67786988E+02</pdfrwt>
<pdfrwt beam="2">  1        1 0.32835255E-01 0.58275840E+02</pdfrwt>
<totfact> 0.88836414E+02</totfact>
</mgrwt>
</event>
<event>
 7    1  0.3113151E-004  0.4448591E+02  0.7546771E-02  0.1599861E+00
          2   -1    0    0  502    0  0.00000000000E+00  0.00000000000E+00  0.19690306394E+03  0.19690306394E+03  0.00000000000E+00 0.  1.
          1   -1    0    0  503    0 -0.00000000000E+00 -0.00000000000E+00 -0.39715378162E+03  0.39715378162E+03  0.00000000000E+00 0. -1.
         25    2    1    2    0    0  0.35765095409E+02  0.31709136459E+02 -0.91264170914E+01  0.13413968711E+03  0.12500221112E+03 0.  0.
          4    1    3    3  501    0 -0.37801341059E+02 -0.17497435122E+02  0.11543737655E+02  0.43243177505E+02  0.12700000000E+01 0.  1.
         -4    1    3    3    0  501  0.73566436468E+02  0.49206571580E+02 -0.20670154747E+02  0.90896509606E+02  0.12700000000E+01 0.  1.
          2    1    1    2  502    0 -0.17915444208E+02 -0.40766687679E+02  0.13038813181E+03  0.13778225895E+03  0.00000000000E+00 0.  1.
          1    1    1    2  503    0 -0.17849651201E+02  0.90575512207E+01 -0.32151243240E+03  0.32213489949E+03  0.00000000000E+00 0. -1.
<mgrwt>
<rscale>  0 0.29840241E+02</rscale>
<asrwt>0</asrwt>
<pdfrwt beam="1">  1        2 0.30292779E-01 0.44485908E+02</pdfrwt>
<pdfrwt beam="2">  1        1 0.61100581E-01 0.20016225E+02</pdfrwt>
<totfact> 0.14212933E+03</totfact>
</mgrwt>
</event>
<event>
 7    1  0.3113151E-004  0.6650314E+02  0.7546771E-02  0.1472832E+00
          3   -1    0    0  503    0 -0.00000000000E+00  0.00000000000E+00  0.87921665797E+02  0.87921665797E+02  0.00000000000E+00 0. -1.
          2   -1    0    0  502    0  0.00000000000E+00 -0.00000000000E+00 -0.14530649459E+04  0.14530649459E+04  0.00000000000E+00 0. -1.
         25    2    1    2    0    0  0.31000662306E+02 -0.41944479770E+02 -0.25842921475E+03  0.29177672543E+03  0.12501047163E+03 0.  0.
          4    1    3    3  501    0  0.51528021990E+01 -0.84762427929E+02 -0.17442727845E+03  0.19400440440E+03  0.12700000000E+01 0.  1.
         -4    1    3    3    0  501  0.25847860107E+02  0.42817948159E+02 -0.84001936301E+02  0.97772321027E+02  0.12700000000E+01 0.  1.
          2    1    1    2  502    0 -0.12421308672E+02  0.66483400264E+02 -0.11736181860E+04  0.11755653865E+04  0.00000000000E+00 0. -1.
          3    1    1    2  503    0 -0.18579353634E+02 -0.24538920494E+02  0.66904120601E+02  0.73644499821E+02  0.00000000000E+00 0. -1.
<mgrwt>
<rscale>  0 0.45242731E+02</rscale>
<asrwt>0</asrwt>
<pdfrwt beam="2">  1        2 0.22354843E+00 0.66503141E+02</pdfrwt>
<pdfrwt beam="1">  1        3 0.13526412E-01 0.30779068E+02</pdfrwt>
<totfact> 0.35362225E+02</totfact>
</mgrwt>
</event>
<event>
 7    1  0.3113151E-004  0.6528217E+02  0.7546771E-02  0.1492123E+00
          1   -1    0    0  503    0 -0.00000000000E+00  0.00000000000E+00  0.11853238916E+03  0.11853238916E+03  0.00000000000E+00 0. -1.
          2   -1    0    0  502    0  0.00000000000E+00 -0.00000000000E+00 -0.10256755698E+04  0.10256755698E+04  0.00000000000E+00 0. -1.
         25    2    1    2    0    0 -0.65558018570E+02 -0.22941681422E+02 -0.17372495689E+03  0.22500886149E+03  0.12499781021E+03 0.  0.
          4    1    3    3  501    0  0.33118220482E+02 -0.28945026251E+02 -0.57979542722E+02  0.72786477774E+02  0.12700000000E+01 0. -1.
         -4    1    3    3    0  501 -0.98676239052E+02  0.60033448283E+01 -0.11574541417E+03  0.15222238372E+03  0.12700000000E+01 0. -1.
          2    1    1    2  502    0  0.65190215634E+02 -0.44289702799E+01 -0.82296865378E+03  0.82555846862E+03  0.00000000000E+00 0. -1.
          1    1    1    2  503    0  0.36780293571E+00  0.27370651702E+02  0.89550430034E+02  0.93640628857E+02  0.00000000000E+00 0. -1.
<mgrwt>
<rscale>  0 0.42272649E+02</rscale>
<asrwt>0</asrwt>
<pdfrwt beam="2">  1        2 0.15779624E+00 0.65282171E+02</pdfrwt>
<pdfrwt beam="1">  1        1 0.18235752E-01 0.27373123E+02</pdfrwt>
<totfact> 0.97025909E+02</totfact>
</mgrwt>
</event>
<event>
 7    1  0.3113151E-004  0.1937243E+03  0.7546771E-02  0.1235485E+00
          1   -1    0    0  502    0  0.00000000000E+00  0.00000000000E+00  0.69673369758E+03  0.69673369758E+03  0.00000000000E+00 0.  1.
          1   -1    0    0  503    0 -0.00000000000E+00 -0.00000000000E+00 -0.30496248870E+03  0.30496248870E+03  0.00000000000E+00 0. -1.
         25    2    1    2    0    0  0.18180251447E+03 -0.96804224821E+02  0.26882445789E+03  0.36100354020E+03  0.12503501375E+03 0.  0.
          4    1    3    3  501    0  0.49863947035E+02 -0.58096735042E+02  0.18435787274E+03  0.19962735779E+03  0.12700000000E+01 0.  1.
         -4    1    3    3    0  501  0.13193856743E+03 -0.38707489780E+02  0.84466585146E+02  0.16137618241E+03  0.12700000000E+01 0.  1.
          1    1    1    2  502    0 -0.19198892269E+03  0.17139085771E+02  0.35015774553E+03  0.39970481790E+03  0.00000000000E+00 0.  1.
          1    1    1    2  503    0  0.10186408224E+02  0.79665139051E+02 -0.22721099454E+03  0.24098782819E+03  0.00000000000E+00 0. -1.
<mgrwt>
<rscale>  0 0.12473462E+03</rscale>
<asrwt>0</asrwt>
<pdfrwt beam="1">  1        1 0.10718980E+00 0.19372432E+03</pdfrwt>
<pdfrwt beam="2">  1        1 0.46917306E-01 0.80313743E+02</pdfrwt>
<totfact> 0.29706360E+02</totfact>
</mgrwt>
</event>
<event>
 7    1  0.3113151E-004  0.1319599E+03  0.7546771E-02  0.1342278E+00
          2   -1    0    0  503    0  0.00000000000E+00  0.00000000000E+00  0.41010861522E+04  0.41010861522E+04  0.00000000000E+00 0. -1.
         -1   -1    0    0    0  501 -0.00000000000E+00 -0.00000000000E+00 -0.52336930996E+02  0.52336930996E+02  0.00000000000E+00 0.  1.
         25    2    1    2    0    0 -0.14243068921E+03  0.92544917491E+02  0.52079770245E+03  0.56187700173E+03  0.12499782082E+03 0.  0.
          4    1    3    3  502    0  0.44354411655E+01  0.43182357088E+02  0.21181002315E+03  0.21621629889E+03  0.12700000000E+01 0.  1.
         -4    1    3    3    0  502 -0.14686613038E+03  0.49362560404E+02  0.30898767931E+03  0.34566070284E+03  0.12700000000E+01 0.  1.
          2    1    1    2  503    0  0.11594723503E+03 -0.58394293033E+02  0.35433058627E+04  0.35456833038E+04  0.00000000000E+00 0. -1.
         -1    1    1    2    0  501  0.26483454179E+02 -0.34150624458E+02 -0.15354343898E+02  0.45862777638E+02  0.00000000000E+00 0.  1.
<mgrwt>
<rscale>  0 0.75516919E+02</rscale>
<asrwt>0</asrwt>
<pdfrwt beam="1">  1        2 0.63093608E+00 0.13195994E+03</pdfrwt>
<pdfrwt beam="2">  1       -1 0.80518388E-02 0.43216183E+02</pdfrwt>
<totfact> 0.36714583E+01</totfact>
</mgrwt>
</event>
<event>
 7    1  0.3113151E-004  0.5121824E+02  0.7546771E-02  0.1510668E+00
          1   -1    0    0  502    0  0.00000000000E+00  0.00000000000E+00  0.20434334917E+03  0.20434334917E+03  0.00000000000E+00 0. -1.
          1   -1    0    0  503    0 -0.00000000000E+00 -0.00000000000E+00 -0.17488639007E+04  0.17488639007E+04  0.00000000000E+00 0. -1.
         25    2    1    2    0    0 -0.20973094123E+02 -0.10259073369E+02 -0.10894303664E+03  0.16744842291E+03  0.12500107936E+03 0.  0.
          4    1    3    3  501    0 -0.14052480428E+02 -0.90974943887E+01 -0.13724184765E+03  0.13826486993E+03  0.12700000000E+01 0.  1.
         -4    1    3    3    0  501 -0.69206136943E+01 -0.11615789806E+01  0.28298811014E+02  0.29183552978E+02  0.12700000000E+01 0.  1.
          1    1    1    2  502    0  0.37277248385E+02  0.36298694085E+02  0.17107514325E+03  0.17881245224E+03  0.00000000000E+00 0. -1.
          1    1    1    2  503    0 -0.16304154262E+02 -0.26039620715E+02 -0.16066526582E+04  0.16069463747E+04  0.00000000000E+00 0. -1.
<mgrwt>
<rscale>  0 0.39668187E+02</rscale>
<asrwt>0</asrwt>
<pdfrwt beam="1">  1        1 0.31437439E-01 0.51218238E+02</pdfrwt>
<pdfrwt beam="2">  1        1 0.26905598E+00 0.30722749E+02</pdfrwt>
<totfact> 0.10463486E+02</totfact>
</mgrwt>
</event>
<event>
 7    1  0.3113151E-004  0.5783698E+02  0.7546771E-02  0.1428453E+00
         -1   -1    0    0    0  501 -0.00000000000E+00  0.00000000000E+00  0.87803397801E+02  0.87803397801E+02  0.00000000000E+00 0.  1.
          2   -1    0    0  503    0  0.00000000000E+00 -0.00000000000E+00 -0.36236891812E+03  0.36236891812E+03  0.00000000000E+00 0. -1.
         25    2    1    2    0    0  0.49851975475E+02 -0.53340258089E+02  0.10932766742E+02  0.14514318588E+03  0.12496646121E+03 0.  0.
          4    1    3    3  502    0 -0.34207887738E+02 -0.26520217860E+02 -0.24843134523E+02  0.49922898271E+02  0.12700000000E+01 0.  1.
         -4    1    3    3    0  502  0.84059863213E+02 -0.26820040229E+02  0.35775901266E+02  0.95220287610E+02  0.12700000000E+01 0.  1.
          2    1    1    2  503    0 -0.10049166381E+01  0.57980103093E+02 -0.16662664875E+03  0.17642885899E+03  0.00000000000E+00 0. -1.
         -1    1    1    2    0  501 -0.48847058837E+02 -0.46398450044E+01 -0.11887163831E+03  0.12860027105E+03  0.00000000000E+00 0.  1.
<mgrwt>
<rscale>  0 0.53271784E+02</rscale>
<asrwt>0</asrwt>
<pdfrwt beam="2">  1        2 0.55749064E-01 0.57836983E+02</pdfrwt>
<pdfrwt beam="1">  1       -1 0.13508215E-01 0.49066927E+02</pdfrwt>
<totfact> 0.35167558E+03</totfact>
</mgrwt>
</event>
<event>
 7    1  0.3113151E-004  0.6991305E+02  0.7546771E-02  0.1394580E+00
          2   -1    0    0  502    0  0.00000000000E+00  0.00000000000E+00  0.16458441548E+04  0.16458441548E+04  0.00000000000E+00 0. -1.
          1   -1    0    0  503    0 -0.00000000000E+00 -0.00000000000E+00 -0.12767416597E+03  0.12767416597E+03  0.00000000000E+00 0. -1.
         25    2    1    2    0    0 -0.11456948580E+03 -0.35679260646E+02  0.24749399420E+03  0.30209276382E+03  0.12493031687E+03 0.  0.
          4    1    3    3  501    0 -0.82508445249E+01  0.62852119574E+01 -0.13554313338E+02  0.17114690613E+02  0.12700000000E+01 0. -1.
         -4    1    3    3    0  501 -0.10631864128E+03 -0.41964472604E+02  0.26104830754E+03  0.28497807321E+03  0.12700000000E+01 0. -1.
          2    1    1    2  502    0  0.67295810299E+02  0.12066024838E+02  0.13631792999E+04  0.13648927133E+04  0.00000000000E+00 0. -1.
          1    1    1    2  503    0  0.47273675502E+02  0.23613235808E+02 -0.92503305260E+02  0.10653284369E+03  0.00000000000E+00 0. -1.
<mgrwt>
<rscale>  0 0.60781718E+02</rscale>
<asrwt>0</asrwt>
<pdfrwt beam="1">  1        2 0.25320678E+00 0.69913053E+02</pdfrwt>
<pdfrwt beam="2">  1        1 0.19642181E-01 0.52843025E+02</pdfrwt>
<totfact> 0.43246744E+02</totfact>
</mgrwt>
</event>
<event>
 7    1  0.3113151E-004  0.1597006E+03  0.7546771E-02  0.1227049E+00
          1   -1    0    0  503    0  0.00000000000E+00  0.00000000000E+00  0.25736170118E+03  0.25736170118E+03  0.00000000000E+00 0. -1.
         -2   -1    0    0    0  501 -0.00000000000E+00 -0.00000000000E+00 -0.11487745970E+04  0.11487745970E+04  0.00000000000E+00 0.  1.
         25    2    1    2    0    0 -0.17473243890E+02 -0.71478883800E+02 -0.24062208787E+02  0.14703365116E+03  0.12500143839E+03 0.  0.
          4    1    3    3  502    0 -0.65143516157E+02 -0.25585355933E+02  0.12974704827E+02  0.71191600634E+02  0.12700000000E+01 0.  1.
         -4    1    3    3    0  502  0.47670272267E+02 -0.45893527867E+02 -0.37036913614E+02  0.75842050527E+02  0.12700000000E+01 0.  1.
          1    1    1    2  503    0 -0.84369561782E+02 -0.64616280034E+02  0.17404560992E+03  0.20392489042E+03  0.00000000000E+00 0. -1.
         -2    1    1    2    0  501  0.10184280567E+03  0.13609516383E+03 -0.10413962969E+04  0.10551777566E+04  0.00000000000E+00 0.  1.
<mgrwt>
<rscale>  0 0.13027475E+03</rscale>
<asrwt>0</asrwt>
<pdfrwt beam="1">  1        1 0.39594107E-01 0.10627082E+03</pdfrwt>
<pdfrwt beam="2">  1       -2 0.17673456E+00 0.15970057E+03</pdfrwt>
<totfact> 0.19865489E+01</totfact>
</mgrwt>
</event>
<event>
 7    1  0.3113151E-004  0.8975632E+02  0.7546771E-02  0.1356563E+00
         -3   -1    0    0    0  501 -0.00000000000E+00  0.00000000000E+00  0.58538834687E+02  0.58538834687E+02  0.00000000000E+00 0.  1.
          3   -1    0    0  503    0  0.00000000000E+00 -0.00000000000E+00 -0.49825876475E+03  0.49825876475E+03  0.00000000000E+00 0. -1.
         25    2    1    2    0    0  0.97767845787E+02  0.86547861863E+02 -0.26228064556E+03  0.31853535868E+03  0.12499821451E+03 0.  0.
          4    1    3    3  502    0  0.95425967632E+02  0.65887952378E+02 -0.27189400297E+03  0.29559313138E+03  0.12700000000E+01 0. -1.
         -4    1    3    3    0  502  0.23418781546E+01  0.20659909485E+02  0.96133574045E+01  0.22942227307E+02  0.12700000000E+01 0. -1.
          3    1    1    2  503    0 -0.66491357563E+02 -0.39806539855E+02 -0.16255956737E+03  0.18008685180E+03  0.00000000000E+00 0.  1.
         -3    1    1    2    0  501 -0.31276488224E+02 -0.46741322008E+02 -0.14879717129E+02  0.58175388959E+02  0.00000000000E+00 0. -1.
<mgrwt>
<rscale>  0 0.71048723E+02</rscale>
<asrwt>0</asrwt>
<pdfrwt beam="2">  1        3 0.76655193E-01 0.89756317E+02</pdfrwt>
<pdfrwt beam="1">  1       -3 0.90059747E-02 0.56240287E+02</pdfrwt>
<totfact> 0.29538833E+02</totfact>
</mgrwt>
</event>
<event>
 7    1  0.3113151E-004  0.1062297E+03  0.7546771E-02  0.1320817E+00
          1   -1    0    0  503    0 -0.00000000000E+00  0.00000000000E+00  0.40143913598E+02  0.40143913598E+02  0.00000000000E+00 0. -1.
          2   -1    0    0  502    0  0.00000000000E+00 -0.00000000000E+00 -0.20535777722E+04  0.20535777722E+04  0.00000000000E+00 0. -1.
         25    2    1    2    0    0  0.25990720697E+02 -0.82247717287E+02 -0.92440607849E+03  0.93680107767E+03  0.12501782520E+03 0.  0.
          4    1    3    3  501    0  0.21502492876E+01  0.30686620292E+02 -0.31950621792E+03  0.32098618106E+03  0.12700000000E+01 0. -1.
         -4    1    3    3    0  501  0.23840471410E+02 -0.11293433758E+03 -0.60489986056E+03  0.61581489661E+03  0.12700000000E+01 0. -1.
          2    1    1    2  502    0  0.27422109731E+02  0.11895440027E+03 -0.10851501015E+04  0.10919949012E+04  0.00000000000E+00 0. -1.
          1    1    1    2  503    0 -0.53412830428E+02 -0.36706682978E+02 -0.38776786144E+01  0.64925706935E+02  0.00000000000E+00 0. -1.
<mgrwt>
<rscale>  0 0.82974268E+02</rscale>
<asrwt>0</asrwt>
<pdfrwt beam="2">  1        2 0.31593501E+00 0.10622974E+03</pdfrwt>
<pdfrwt beam="1">  1        1 0.61759873E-02 0.64809807E+02</pdfrwt>
<totfact> 0.11574368E+03</totfact>
</mgrwt>
</event>
<event>
 7    1  0.3113151E-004  0.4740258E+02  0.7546771E-02  0.1522630E+00
          2   -1    0    0  502    0  0.00000000000E+00  0.00000000000E+00  0.22949926174E+03  0.22949926174E+03  0.00000000000E+00 0. -1.
          2   -1    0    0  503    0 -0.00000000000E+00 -0.00000000000E+00 -0.11382514317E+04  0.11382514317E+04  0.00000000000E+00 0. -1.
         25    2    1    2    0    0  0.23524221743E+02 -0.63735113150E+02 -0.20983990895E+03  0.25352923707E+03  0.12501493114E+03 0.  0.
          4    1    3    3  501    0  0.48465916657E+02 -0.74305463590E+02 -0.20825165620E+03  0.22636389334E+03  0.12700000000E+01 0. -1.
         -4    1    3    3    0  501 -0.24941694914E+02  0.10570350440E+02 -0.15882527483E+01  0.27165343738E+02  0.12700000000E+01 0. -1.
          2    1    1    2  502    0 -0.25609183617E+02  0.16808977624E+02  0.20591233327E+03  0.20817843550E+03  0.00000000000E+00 0. -1.
          2    1    1    2  503    0  0.20849618741E+01  0.46926135526E+02 -0.90482459432E+03  0.90604302092E+03  0.00000000000E+00 0. -1.
<mgrwt>
<rscale>  0 0.38106122E+02</rscale>
<asrwt>0</asrwt>
<pdfrwt beam="1">  1        2 0.35307579E-01 0.30632858E+02</pdfrwt>
<pdfrwt beam="2">  1        2 0.17511560E+00 0.47402581E+02</pdfrwt>
<totfact> 0.52573743E+02</totfact>
</mgrwt>
</event>
<event>
 7    1  0.3113151E-004  0.1399959E+03  0.7546771E-02  0.1284838E+00
          1   -1    0    0  503    0 -0.00000000000E+00  0.00000000000E+00  0.24189869044E+03  0.24189869044E+03  0.00000000000E+00 0. -1.
          2   -1    0    0  502    0  0.00000000000E+00 -0.00000000000E+00 -0.80464283509E+03  0.80464283509E+03  0.00000000000E+00 0. -1.
         25    2    1    2    0    0  0.33089170589E+02  0.76450863540E+02 -0.71948663573E+02  0.16656304494E+03  0.12500803976E+03 0.  0.
          4    1    3    3  501    0  0.77370288994E+01  0.15658488090E+02  0.36037910269E+02  0.40067365049E+02  0.12700000000E+01 0.  1.
         -4    1    3    3    0  501  0.25352141689E+02  0.60792375450E+02 -0.10798657384E+03  0.12649567989E+03  0.12700000000E+01 0.  1.
          2    1    1    2  502    0 -0.77560781244E+02 -0.12844869681E+03 -0.67081649189E+03  0.68739327048E+03  0.00000000000E+00 0. -1.
          1    1    1    2  503    0  0.44471610655E+02  0.51997833271E+02  0.18002101082E+03  0.19258521012E+03  0.00000000000E+00 0. -1.
<mgrwt>
<rscale>  0 0.97870984E+02</rscale>
<asrwt>0</asrwt>
<pdfrwt beam="2">  1        2 0.12379120E+00 0.13999594E+03</pdfrwt>
<pdfrwt beam="1">  1        1 0.37215183E-01 0.68421479E+02</pdfrwt>
<totfact> 0.56032341E+02</totfact>
</mgrwt>
</event>
<event>
 7    1  0.3113151E-004  0.4966062E+02  0.7546771E-02  0.1465658E+00
          1   -1    0    0  503    0 -0.00000000000E+00  0.00000000000E+00  0.14627034468E+03  0.14627034468E+03  0.00000000000E+00 0. -1.
          2   -1    0    0  502    0  0.00000000000E+00 -0.00000000000E+00 -0.66856950794E+03  0.66856950794E+03  0.00000000000E+00 0. -1.
         25    2    1    2    0    0  0.35714274369E+02  0.38684219287E+01  0.66783470220E+02  0.14620337691E+03  0.12499968577E+03 0.  0.
          4    1    3    3  501    0  0.24357105709E+02 -0.11960558268E+02  0.10220737951E+03  0.10575577941E+03  0.12700000000E+01 0.  1.
         -4    1    3    3    0  501  0.11357168660E+02  0.15828980197E+02 -0.35423909291E+02  0.40447597499E+02  0.12700000000E+01 0.  1.
          2    1    1    2  502    0 -0.30887394685E+02  0.39255926884E+02 -0.61570453969E+03  0.61772739873E+03  0.00000000000E+00 0. -1.
          1    1    1    2  503    0 -0.48268796843E+01 -0.43124348813E+02  0.26621906211E+02  0.50909076974E+02  0.00000000000E+00 0. -1.
<mgrwt>
<rscale>  0 0.46421494E+02</rscale>
<asrwt>0</asrwt>
<pdfrwt beam="2">  1        2 0.10285685E+00 0.49660617E+02</pdfrwt>
<pdfrwt beam="1">  1        1 0.22503130E-01 0.43393643E+02</pdfrwt>
<totfact> 0.13098899E+03</totfact>
</mgrwt>
</event>
<event>
 7    1  0.3113151E-004  0.2165710E+03  0.7546771E-02  0.1155947E+00
          1   -1    0    0  503    0 -0.00000000000E+00  0.00000000000E+00  0.20899090872E+03  0.20899090872E+03  0.00000000000E+00 0. -1.
          2   -1    0    0  502    0  0.00000000000E+00 -0.00000000000E+00 -0.71746082946E+03  0.71746082946E+03  0.00000000000E+00 0. -1.
         25    2    1    2    0    0 -0.96332568639E+02 -0.48935348217E+02 -0.23351227617E+03  0.28605971638E+03  0.12501018411E+03 0.  0.
          4    1    3    3  501    0  0.76070805052E+01  0.25340458292E+02 -0.94306699750E+01  0.28116844354E+02  0.12700000000E+01 0.  1.
         -4    1    3    3    0  501 -0.10393964914E+03 -0.74275806509E+02 -0.22408160619E+03  0.25794287203E+03  0.12700000000E+01 0.  1.
          2    1    1    2  502    0 -0.72684368392E+02 -0.15551728531E+03 -0.32769092501E+03  0.36993240703E+03  0.00000000000E+00 0. -1.
          1    1    1    2  503    0  0.16901693703E+03  0.20445263352E+03  0.52733280437E+02  0.27045961477E+03  0.00000000000E+00 0. -1.
<mgrwt>
<rscale>  0 0.19281472E+03</rscale>
<asrwt>0</asrwt>
<pdfrwt beam="2">  1        2 0.11037859E+00 0.17166433E+03</pdfrwt>
<pdfrwt beam="1">  1        1 0.32152448E-01 0.21657101E+03</pdfrwt>
<totfact> 0.77653890E+02</totfact>
</mgrwt>
</event>
<event>
 7    1  0.3113151E-004  0.4681639E+02  0.7546771E-02  0.1547181E+00
         -1   -1    0    0    0  501 -0.00000000000E+00  0.00000000000E+00  0.65263777909E+01  0.65263777909E+01  0.00000000000E+00 0.  1.
          1   -1    0    0  503    0  0.00000000000E+00 -0.00000000000E+00 -0.20663258445E+04  0.20663258445E+04  0.00000000000E+00 0. -1.
         25    2    1    2    0    0  0.26814759628E+02 -0.29892562523E+02 -0.11891131659E+04  0.11963388692E+04  0.12499588768E+03 0.  0.
          4    1    3    3  502    0 -0.18248940914E+02  0.41326843363E+02 -0.32558232027E+03  0.32870411011E+03  0.12700000000E+01 0. -1.
         -4    1    3    3    0  502  0.45063700542E+02 -0.71219405886E+02 -0.86353084561E+03  0.86763475905E+03  0.12700000000E+01 0. -1.
          1    1    1    2  503    0  0.20504277487E+02  0.16639594949E+02 -0.64495134743E+03  0.64549170566E+03  0.00000000000E+00 0. -1.
         -1    1    1    2    0  501 -0.47319037115E+02  0.13252967574E+02 -0.22573495341E+03  0.23102164750E+03  0.00000000000E+00 0.  1.
<mgrwt>
<rscale>  0 0.35160424E+02</rscale>
<asrwt>0</asrwt>
<pdfrwt beam="2">  1        1 0.31789642E+00 0.26406467E+02</pdfrwt>
<pdfrwt beam="1">  1       -1 0.10040577E-02 0.46816388E+02</pdfrwt>
<totfact> 0.58975719E+03</totfact>
</mgrwt>
</event>
<event>
 7    1  0.3113151E-004  0.4734822E+02  0.7546771E-02  0.1484646E+00
          2   -1    0    0  502    0  0.00000000000E+00  0.00000000000E+00  0.19692282739E+04  0.19692282739E+04  0.00000000000E+00 0.  1.
          2   -1    0    0  503    0 -0.00000000000E+00 -0.00000000000E+00 -0.13692252745E+04  0.13692252745E+04  0.00000000000E+00 0. -1.
         25    2    1    2    0    0  0.41124882038E+02  0.10422210785E+02  0.12236914272E+03  0.17999483937E+03  0.12499622678E+03 0.  0.
          4    1    3    3  501    0  0.38384832427E+02  0.28845877878E+02  0.14377803893E+03  0.15158897522E+03  0.12700000000E+01 0. -1.
         -4    1    3    3    0  501  0.27400496106E+01 -0.18423667093E+02 -0.21408896209E+02  0.28405864147E+02  0.12700000000E+01 0. -1.
          2    1    1    2  502    0 -0.22151107256E+02  0.33022557572E+02  0.18174095671E+04  0.18178445191E+04  0.00000000000E+00 0.  1.
          2    1    1    2  503    0 -0.18973774782E+02 -0.43444768357E+02 -0.13397757105E+04  0.13406141900E+04  0.00000000000E+00 0. -1.
<mgrwt>
<rscale>  0 0.43390618E+02</rscale>
<asrwt>0</asrwt>
<pdfrwt beam="1">  1        2 0.30295820E+00 0.39763813E+02</pdfrwt>
<pdfrwt beam="2">  1        2 0.21065004E+00 0.47348219E+02</pdfrwt>
<totfact> 0.27144814E+01</totfact>
</mgrwt>
</event>
<event>
 7    1  0.3113151E-004  0.1173919E+03  0.7546771E-02  0.1313085E+00
          2   -1    0    0  503    0  0.00000000000E+00  0.00000000000E+00  0.30643665802E+04  0.30643665802E+04  0.00000000000E+00 0. -1.
          2   -1    0    0  502    0 -0.00000000000E+00 -0.00000000000E+00 -0.25603776517E+03  0.25603776517E+03  0.00000000000E+00 0. -1.
         25    2    1    2    0    0  0.91061939572E+02 -0.12015718118E+03  0.20471486040E+04  0.20564935971E+04  0.12497392825E+03 0.  0.
          4    1    3    3  501    0  0.10982476086E+03 -0.87452010532E+02  0.11478720256E+04  0.11564260168E+04  0.12700000000E+01 0.  1.
         -4    1    3    3    0  501 -0.18762821287E+02 -0.32705170653E+02  0.89927657838E+03  0.90006758023E+03  0.12700000000E+01 0.  1.
          2    1    1    2  502    0 -0.76712137582E+01  0.62392472846E+02 -0.24484395111E+03  0.25278494533E+03  0.00000000000E+00 0. -1.
          2    1    1    2  503    0 -0.83390725814E+02  0.57764708339E+02  0.10060241621E+04  0.10111258030E+04  0.00000000000E+00 0. -1.
<mgrwt>
<rscale>  0 0.85904144E+02</rscale>
<asrwt>0</asrwt>
<pdfrwt beam="1">  1        2 0.47144099E+00 0.11739186E+03</pdfrwt>
<pdfrwt beam="2">  1        2 0.39390428E-01 0.62862295E+02</pdfrwt>
<totfact> 0.43148526E+01</totfact>
</mgrwt>
</event>
<event>
 7    1  0.3113151E-004  0.1260026E+03  0.7546771E-02  0.1286147E+00
          1   -1    0    0  503    0  0.00000000000E+00  0.00000000000E+00  0.24062742751E+04  0.24062742751E+04  0.00000000000E+00 0. -1.
         -1   -1    0    0    0  501 -0.00000000000E+00 -0.00000000000E+00 -0.34952472714E+02  0.34952472714E+02  0.00000000000E+00 0.  1.
         25    2    1    2    0    0  0.10313490364E+03  0.26976037154E+01  0.46682397690E+03  0.49415963998E+03  0.12500015584E+03 0.  0.
          4    1    3    3  502    0  0.23123392512E+02  0.19001381274E+02  0.12342095718E+02  0.32398827113E+02  0.12700000000E+01 0.  1.
         -4    1    3    3    0  502  0.80011511126E+02 -0.16303777558E+02  0.45448188119E+03  0.46176081287E+03  0.12700000000E+01 0.  1.
          1    1    1    2  503    0  0.22561305295E+02 -0.71617663515E+02  0.16736365702E+04  0.16753201101E+04  0.00000000000E+00 0. -1.
         -1    1    1    2    0  501 -0.12569620893E+03  0.68920059799E+02  0.23086125529E+03  0.27174699774E+03  0.00000000000E+00 0.  1.
<mgrwt>
<rscale>  0 0.97268654E+02</rscale>
<asrwt>0</asrwt>
<pdfrwt beam="1">  1        1 0.37019591E+00 0.75087297E+02</pdfrwt>
<pdfrwt beam="2">  1       -1 0.53773054E-02 0.12600255E+03</pdfrwt>
<totfact> 0.32428488E+02</totfact>
</mgrwt>
</event>
<event>
 7    1  0.3113151E-004  0.2212780E+03  0.7546771E-02  0.1324196E+00
         -2   -1    0    0    0  501 -0.00000000000E+00  0.00000000000E+00  0.85754080189E+03  0.85754080189E+03  0.00000000000E+00 0.  1.
          1   -1    0    0  503    0  0.00000000000E+00 -0.00000000000E+00 -0.17372703123E+03  0.17372703123E+03  0.00000000000E+00 0. -1.
         25    2    1    2    0    0 -0.78660068061E+02 -0.19038402209E+03  0.14013859360E+03  0.27874212835E+03  0.12499946610E+03 0.  0.
          4    1    3    3  502    0 -0.21537817337E+02 -0.16819486784E+03  0.13588489198E+03  0.21730096160E+03  0.12700000000E+01 0.  1.
         -4    1    3    3    0  502 -0.57122250725E+02 -0.22189154248E+02  0.42537016227E+01  0.61441166750E+02  0.12700000000E+01 0.  1.
          1    1    1    2  503    0  0.71180284318E+02  0.21963442685E+03  0.24168280152E+02  0.23214224109E+03  0.00000000000E+00 0. -1.
         -2    1    1    2    0  501  0.74797837438E+01 -0.29250404756E+02  0.51950689690E+03  0.52038346368E+03  0.00000000000E+00 0.  1.
<mgrwt>
<rscale>  0 0.81735783E+02</rscale>
<asrwt>0</asrwt>
<pdfrwt beam="2">  1        1 0.26727236E-01 0.22127797E+03</pdfrwt>
<pdfrwt beam="1">  1       -2 0.13192935E+00 0.30191610E+02</pdfrwt>
<totfact> 0.74137026E+01</totfact>
</mgrwt>
</event>
<event>
 7    1  0.3113151E-004  0.5868095E+02  0.7546771E-02  0.1502034E+00
          1   -1    0    0  502    0  0.00000000000E+00  0.00000000000E+00  0.14502340865E+04  0.14502340865E+04  0.00000000000E+00 0. -1.
          1   -1    0    0  503    0 -0.00000000000E+00 -0.00000000000E+00 -0.45646380997E+03  0.45646380997E+03  0.00000000000E+00 0. -1.
         25    2    1    2    0    0 -0.19300428708E+02  0.29125228560E+02 -0.84203844803E+02  0.15471542191E+03  0.12500315520E+03 0.  0.
          4    1    3    3  501    0  0.49659124257E+02  0.32862666666E+02 -0.28752021537E+02  0.66138303008E+02  0.12700000000E+01 0.  1.
         -4    1    3    3    0  501 -0.68959552965E+02 -0.37374381058E+01 -0.55451823265E+02  0.88577118898E+02  0.12700000000E+01 0.  1.
          1    1    1    2  502    0  0.47070656380E+02 -0.35260472834E+02  0.14137658044E+04  0.14149885856E+04  0.00000000000E+00 0. -1.
          1    1    1    2  503    0 -0.27770227672E+02  0.61352442743E+01 -0.33579168309E+03  0.33699388897E+03  0.00000000000E+00 0. -1.
<mgrwt>
<rscale>  0 0.40851917E+02</rscale>
<asrwt>0</asrwt>
<pdfrwt beam="1">  1        1 0.22311293E+00 0.58680948E+02</pdfrwt>
<pdfrwt beam="2">  1        1 0.70225202E-01 0.28439880E+02</pdfrwt>
<totfact> 0.56898361E+01</totfact>
</mgrwt>
</event>
<event>
 7    1  0.3113151E-004  0.2324205E+03  0.7546771E-02  0.1136328E+00
          1   -1    0    0  503    0 -0.00000000000E+00  0.00000000000E+00  0.18545395930E+04  0.18545395930E+04  0.00000000000E+00 0. -1.
          2   -1    0    0  502    0  0.00000000000E+00 -0.00000000000E+00 -0.13784932265E+04  0.13784932265E+04  0.00000000000E+00 0. -1.
         25    2    1    2    0    0 -0.27411636222E+03  0.13618715451E+03 -0.24943819162E+02  0.33156454562E+03  0.12500453075E+03 0.  0.
          4    1    3    3  501    0 -0.10594106962E+03  0.70358635256E+02  0.49153766786E+02  0.13635084700E+03  0.12700000000E+01 0.  1.
         -4    1    3    3    0  501 -0.16817529259E+03  0.65828519256E+02 -0.74097585948E+02  0.19521369862E+03  0.12700000000E+01 0.  1.
          2    1    1    2  502    0  0.22435036930E+03  0.59731632963E+02 -0.11829103894E+04  0.12054783058E+04  0.00000000000E+00 0. -1.
          1    1    1    2  503    0  0.49765992913E+02 -0.19591878747E+03  0.16839005750E+04  0.16959899681E+04  0.00000000000E+00 0. -1.
<mgrwt>
<rscale>  0 0.21675245E+03</rscale>
<asrwt>0</asrwt>
<pdfrwt beam="2">  1        2 0.21207588E+00 0.23242052E+03</pdfrwt>
<pdfrwt beam="1">  1        1 0.28531379E+00 0.20214061E+03</pdfrwt>
<totfact> 0.95857613E+00</totfact>
</mgrwt>
</event>
<event>
 7    1  0.3113151E-004  0.8991127E+02  0.7546771E-02  0.1343739E+00
          1   -1    0    0  503    0 -0.00000000000E+00  0.00000000000E+00  0.80978180958E+02  0.80978180958E+02  0.00000000000E+00 0. -1.
          2   -1    0    0  502    0  0.00000000000E+00 -0.00000000000E+00 -0.89418834357E+03  0.89418834357E+03  0.00000000000E+00 0.  1.
         25    2    1    2    0    0  0.33372084100E+02  0.10102322596E+02 -0.14704314679E+03  0.19607676114E+03  0.12493460818E+03 0.  0.
          4    1    3    3  501    0  0.27014890532E+02  0.55533536604E+02 -0.13526034471E+03  0.14869684513E+03  0.12700000000E+01 0. -1.
         -4    1    3    3    0  501  0.63571935683E+01 -0.45431214008E+02 -0.11782802076E+02  0.47379916010E+02  0.12700000000E+01 0. -1.
          2    1    1    2  502    0 -0.93893559244E+02 -0.26227748254E+02 -0.70078040283E+03  0.70752884622E+03  0.00000000000E+00 0.  1.
          1    1    1    2  503    0  0.60521475144E+02  0.16125425658E+02  0.34613387007E+02  0.71560917171E+02  0.00000000000E+00 0. -1.
<mgrwt>
<rscale>  0 0.75042668E+02</rscale>
<asrwt>0</asrwt>
<pdfrwt beam="2">  1        2 0.13756744E+00 0.89911267E+02</pdfrwt>
<pdfrwt beam="1">  1        1 0.12458182E-01 0.62632885E+02</pdfrwt>
<totfact> 0.19298931E+03</totfact>
</mgrwt>
</event>
<event>
 7    1  0.3113151E-004  0.6445400E+02  0.7546771E-02  0.1456740E+00
          1   -1    0    0  503    0  0.00000000000E+00  0.00000000000E+00  0.54309364756E+03  0.54309364756E+03  0.00000000000E+00 0. -1.
         -2   -1    0    0    0  501 -0.00000000000E+00 -0.00000000000E+00 -0.60372350302E+02  0.60372350302E+02  0.00000000000E+00 0.  1.
         25    2    1    2    0    0  0.38623753916E+02 -0.47844693287E+02  0.33878540085E+02  0.14336566657E+03  0.12500019933E+03 0.  0.
          4    1    3    3  502    0 -0.32956341918E+02 -0.51922833419E+01  0.48377395112E+02  0.58779805517E+02  0.12700000000E+01 0. -1.
         -4    1    3    3    0  502  0.71580095833E+02 -0.42652409945E+02 -0.14498855027E+02  0.84585861057E+02  0.12700000000E+01 0. -1.
          1    1    1    2  503    0 -0.72494246323E+01  0.64810025853E+02  0.30598034683E+03  0.31285278687E+03  0.00000000000E+00 0. -1.
         -2    1    1    2    0  501 -0.31374329283E+02 -0.16965332566E+02  0.14286241034E+03  0.14724754442E+03  0.00000000000E+00 0.  1.
<mgrwt>
<rscale>  0 0.47946986E+02</rscale>
<asrwt>0</asrwt>
<pdfrwt beam="1">  1        1 0.83552866E-01 0.64453998E+02</pdfrwt>
<pdfrwt beam="2">  1       -2 0.92880542E-02 0.35667507E+02</pdfrwt>
<totfact> 0.23789152E+03</totfact>
</mgrwt>
</event>
<event>
 7    1  0.3113151E-004  0.1694933E+03  0.7546771E-02  0.1181038E+00
         -3   -1    0    0    0  501 -0.00000000000E+00  0.00000000000E+00  0.19003449837E+03  0.19003449837E+03  0.00000000000E+00 0.  1.
          1   -1    0    0  503    0  0.00000000000E+00 -0.00000000000E+00 -0.23474101315E+04  0.23474101315E+04  0.00000000000E+00 0. -1.
         25    2    1    2    0    0 -0.64335544114E+02  0.26029434056E+01 -0.51842551972E+02  0.14986127927E+03  0.12499966111E+03 0.  0.
          4    1    3    3  502    0 -0.94211621641E+02 -0.23524639422E+02 -0.20451544512E+02  0.99242717038E+02  0.12700000000E+01 0.  1.
         -4    1    3    3    0  502  0.29876077527E+02  0.26127582828E+02 -0.31391007460E+02  0.50618562229E+02  0.12700000000E+01 0.  1.
          1    1    1    2  503    0  0.80852945315E+02  0.16106370796E+03 -0.21936026829E+04  0.22009932865E+04  0.00000000000E+00 0. -1.
         -3    1    1    2    0  501 -0.16517401201E+02 -0.16366665137E+03  0.88069601671E+02  0.18659006418E+03  0.00000000000E+00 0.  1.
<mgrwt>
<rscale>  0 0.16697699E+03</rscale>
<asrwt>0</asrwt>
<pdfrwt beam="2">  1        1 0.36114003E+00 0.16949332E+03</pdfrwt>
<pdfrwt beam="1">  1       -3 0.29236076E-01 0.16449802E+03</pdfrwt>
<totfact> 0.12886590E+01</totfact>
</mgrwt>
</event>
<event>
 7    1  0.3113151E-004  0.3684200E+02  0.7546771E-02  0.1629980E+00
         -1   -1    0    0    0  501 -0.00000000000E+00  0.00000000000E+00  0.17534725404E+02  0.17534725404E+02  0.00000000000E+00 0.  1.
          1   -1    0    0  503    0  0.00000000000E+00 -0.00000000000E+00 -0.11123551053E+04  0.11123551053E+04  0.00000000000E+00 0. -1.
         25    2    1    2    0    0 -0.45117424752E+02 -0.32025694871E+02 -0.85108714731E+03  0.86199628038E+03  0.12500811146E+03 0.  0.
          4    1    3    3  502    0 -0.58248917060E+02  0.33666638783E+02 -0.50700227482E+03  0.51144823636E+03  0.12700000000E+01 0.  1.
         -4    1    3    3    0  502  0.13131492307E+02 -0.65692333654E+02 -0.34408487249E+03  0.35054804402E+03  0.12700000000E+01 0.  1.
          1    1    1    2  503    0  0.19040257936E+02  0.68425946095E+01 -0.22711439854E+03  0.22801382096E+03  0.00000000000E+00 0. -1.
         -1    1    1    2    0  501  0.26077166816E+02  0.25183100262E+02 -0.16618834023E+02  0.39879729340E+02  0.00000000000E+00 0.  1.
<mgrwt>
<rscale>  0 0.27302095E+02</rscale>
<asrwt>0</asrwt>
<pdfrwt beam="2">  1        1 0.17113151E+00 0.20232462E+02</pdfrwt>
<pdfrwt beam="1">  1       -1 0.26976507E-02 0.36842001E+02</pdfrwt>
<totfact> 0.55556010E+03</totfact>
</mgrwt>
</event>
<event>
 7    1  0.5270833E-004  0.9309489E+02  0.7546771E-02  0.1373178E+00
          1   -1    0    0  503    0  0.00000000000E+00  0.00000000000E+00  0.10851716712E+03  0.10851716712E+03  0.00000000000E+00 0. -1.
         -2   -1    0    0    0  501 -0.00000000000E+00 -0.00000000000E+00 -0.21990484867E+03  0.21990484867E+03  0.00000000000E+00 0.  1.
         25    2    1    2    0    0  0.10348826703E+03 -0.38416661667E+02 -0.30628342817E+02  0.16955382025E+03  0.12499896508E+03 0.  0.
          4    1    3    3  502    0  0.41070639168E+02  0.17679957610E+02  0.39886678481E+02  0.59932781706E+02  0.12700000000E+01 0.  1.
         -4    1    3    3    0  502  0.62417627863E+02 -0.56096619277E+02 -0.70515021298E+02  0.10962103854E+03  0.12700000000E+01 0.  1.
          1    1    1    2  503    0 -0.40180993991E+02 -0.24775764678E+02 -0.24319128771E+02  0.53101514269E+02  0.00000000000E+00 0. -1.
         -2    1    1    2    0  501 -0.63307273039E+02  0.63192426345E+02 -0.56440209957E+02  0.10576668127E+03  0.00000000000E+00 0.  1.
<mgrwt>
<rscale>  0 0.66291649E+02</rscale>
<asrwt>0</asrwt>
<pdfrwt beam="1">  1        1 0.16694949E-01 0.47205411E+02</pdfrwt>
<pdfrwt beam="2">  1       -2 0.33831515E-01 0.93094894E+02</pdfrwt>
<totfact> 0.21319983E+03</totfact>
</mgrwt>
</event>
<event>
 7    1  0.3113151E-004  0.9644639E+02  0.7546771E-02  0.1391385E+00
         -2   -1    0    0    0  501 -0.00000000000E+00  0.00000000000E+00  0.16499101028E+03  0.16499101028E+03  0.00000000000E+00 0.  1.
          2   -1    0    0  503    0  0.00000000000E+00 -0.00000000000E+00 -0.78986173316E+03  0.78986173316E+03  0.00000000000E+00 0. -1.
         25    2    1    2    0    0  0.10951665299E+03  0.41270642324E+02  0.30127521378E+02  0.17386628919E+03  0.12499862308E+03 0.  0.
          4    1    3    3  502    0  0.92003326898E+02  0.40697936269E+02  0.75122852725E+02  0.12556269382E+03  0.12700000000E+01 0.  1.
         -4    1    3    3    0  502  0.17513326089E+02  0.57270605478E+00 -0.44995331347E+02  0.48303595373E+02  0.12700000000E+01 0.  1.
          2    1    1    2  503    0 -0.74941568368E+02 -0.59947559562E+02 -0.70829591789E+03  0.71476783355E+03  0.00000000000E+00 0. -1.
         -2    1    1    2    0  501 -0.34575084619E+02  0.18676917238E+02  0.53297673627E+02  0.66218620704E+02  0.00000000000E+00 0.  1.
<mgrwt>
<rscale>  0 0.61563507E+02</rscale>
<asrwt>0</asrwt>
<pdfrwt beam="2">  1        2 0.12151719E+00 0.96446389E+02</pdfrwt>
<pdfrwt beam="1">  1       -2 0.25383232E-01 0.39297121E+02</pdfrwt>
<totfact> 0.49252818E+02</totfact>
</mgrwt>
</event>
<event>
 7    1  0.3113151E-004  0.4046071E+02  0.7546771E-02  0.1508957E+00
         -1   -1    0    0    0  501 -0.00000000000E+00  0.00000000000E+00  0.14574440154E+02  0.14574440154E+02  0.00000000000E+00 0.  1.
          2   -1    0    0  503    0  0.00000000000E+00 -0.00000000000E+00 -0.10256610881E+04  0.10256610881E+04  0.00000000000E+00 0. -1.
         25    2    1    2    0    0 -0.39956789850E+02  0.32047399987E+01 -0.36060868702E+03  0.38375595035E+03  0.12499275523E+03 0.  0.
          4    1    3    3  502    0 -0.54457413202E+02 -0.43045019814E+02 -0.12291376652E+03  0.14116618038E+03  0.12700000000E+01 0.  1.
         -4    1    3    3    0  502  0.14500623352E+02  0.46249759813E+02 -0.23769492050E+03  0.24258976997E+03  0.12700000000E+01 0.  1.
          2    1    1    2  503    0  0.12324716748E+02  0.37364534034E+02 -0.30754386808E+03  0.31005037952E+03  0.00000000000E+00 0. -1.
         -1    1    1    2    0  501  0.27632073102E+02 -0.40569274032E+02 -0.34293409290E+03  0.34642919844E+03  0.00000000000E+00 0.  1.
<mgrwt>
<rscale>  0 0.39898812E+02</rscale>
<asrwt>0</asrwt>
<pdfrwt beam="2">  1        2 0.15779403E+00 0.39344721E+02</pdfrwt>
<pdfrwt beam="1">  1       -1 0.22422213E-02 0.40460706E+02</pdfrwt>
<totfact> 0.14491117E+04</totfact>
</mgrwt>
</event>
<event>
 7    1  0.3113151E-004  0.1216813E+03  0.7546771E-02  0.1345703E+00
          2   -1    0    0  502    0  0.00000000000E+00  0.00000000000E+00  0.96330039644E+02  0.96330039644E+02  0.00000000000E+00 0. -1.
          2   -1    0    0  503    0 -0.00000000000E+00 -0.00000000000E+00 -0.14054278192E+04  0.14054278192E+04  0.00000000000E+00 0. -1.
         25    2    1    2    0    0 -0.78183078464E+02 -0.23530098099E+02 -0.49691379698E+03  0.51885894759E+03  0.12500010636E+03 0.  0.
          4    1    3    3  501    0 -0.21691207517E+02  0.10897978578E+01 -0.40171778206E+01  0.22123443686E+02  0.12700000000E+01 0. -1.
         -4    1    3    3    0  501 -0.56491870947E+02 -0.24619895957E+02 -0.49289661916E+03  0.49673550390E+03  0.12700000000E+01 0. -1.
          2    1    1    2  502    0  0.12361808295E+03  0.21013151420E+02  0.38368394094E+02  0.13113015149E+03  0.00000000000E+00 0. -1.
          2    1    1    2  503    0 -0.45435004483E+02  0.25169466790E+01 -0.85055237671E+03  0.85176875980E+03  0.00000000000E+00 0. -1.
<mgrwt>
<rscale>  0 0.74411479E+02</rscale>
<asrwt>0</asrwt>
<pdfrwt beam="1">  1        2 0.14820006E-01 0.12168133E+03</pdfrwt>
<pdfrwt beam="2">  1        2 0.21621967E+00 0.45504666E+02</pdfrwt>
<totfact> 0.10386676E+03</totfact>
</mgrwt>
</event>
<event>
 7    1  0.3113151E-004  0.4787253E+02  0.7546771E-02  0.1500944E+00
         -2   -1    0    0    0  501 -0.00000000000E+00  0.00000000000E+00  0.24582655966E+02  0.24582655966E+02  0.00000000000E+00 0.  1.
          1   -1    0    0  503    0  0.00000000000E+00 -0.00000000000E+00 -0.49422369797E+03  0.49422369797E+03  0.00000000000E+00 0. -1.
         25    2    1    2    0    0  0.53365489439E+00 -0.39571995302E+02 -0.29970538923E+03  0.32713388920E+03  0.12500813385E+03 0.  0.
          4    1    3    3  502    0 -0.54486926107E+02  0.11375009050E+02 -0.11444964115E+03  0.12727352123E+03  0.12700000000E+01 0. -1.
         -4    1    3    3    0  502  0.55020581001E+02 -0.50947004352E+02 -0.18525574808E+03  0.19986036797E+03  0.12700000000E+01 0. -1.
          1    1    1    2  503    0  0.35121952133E+02  0.18597987490E+00 -0.76776725842E+02  0.84428974536E+02  0.00000000000E+00 0. -1.
         -2    1    1    2    0  501 -0.35655607028E+02  0.39386015427E+02 -0.93158926928E+02  0.10724349020E+03  0.00000000000E+00 0.  1.
<mgrwt>
<rscale>  0 0.41004879E+02</rscale>
<asrwt>0</asrwt>
<pdfrwt beam="2">  1        1 0.76034409E-01 0.35122445E+02</pdfrwt>
<pdfrwt beam="1">  1       -2 0.37819474E-02 0.47872526E+02</pdfrwt>
<totfact> 0.10488481E+04</totfact>
</mgrwt>
</event>
<event>
 7    1  0.3113151E-004  0.8841642E+02  0.7546771E-02  0.1368969E+00
         -1   -1    0    0    0  501 -0.00000000000E+00  0.00000000000E+00  0.46678849461E+02  0.46678849461E+02  0.00000000000E+00 0.  1.
          2   -1    0    0  503    0  0.00000000000E+00 -0.00000000000E+00 -0.10666316956E+04  0.10666316956E+04  0.00000000000E+00 0. -1.
         25    2    1    2    0    0  0.20423397671E+02 -0.12587857742E+03 -0.39398272535E+03  0.43254136032E+03  0.12492841586E+03 0.  0.
          4    1    3    3  502    0  0.14471257489E+02 -0.31207218655E+02 -0.28901067495E+03  0.29105341593E+03  0.12700000000E+01 0.  1.
         -4    1    3    3    0  502  0.59521401818E+01 -0.94671358761E+02 -0.10497205040E+03  0.14148794439E+03  0.12700000000E+01 0.  1.
          2    1    1    2  503    0  0.79051397147E+01  0.82914825585E+02 -0.62372084781E+03  0.62925754309E+03  0.00000000000E+00 0. -1.
         -1    1    1    2    0  501 -0.28328537385E+02  0.42963751831E+02 -0.22492730262E+01  0.51511641703E+02  0.00000000000E+00 0.  1.
<mgrwt>
<rscale>  0 0.67454658E+02</rscale>
<asrwt>0</asrwt>
<pdfrwt beam="2">  1        2 0.16409716E+00 0.88416419E+02</pdfrwt>
<pdfrwt beam="1">  1       -1 0.71813624E-02 0.51462511E+02</pdfrwt>
<totfact> 0.25828847E+03</totfact>
</mgrwt>
</event>
<event>
 7    1  0.3113151E-004  0.8702400E+02  0.7546771E-02  0.1401189E+00
          2   -1    0    0  502    0  0.00000000000E+00  0.00000000000E+00  0.55339142263E+03  0.55339142263E+03  0.00000000000E+00 0. -1.
          1   -1    0    0  503    0 -0.00000000000E+00 -0.00000000000E+00 -0.96892183620E+03  0.96892183620E+03  0.00000000000E+00 0. -1.
         25    2    1    2    0    0  0.22889592627E+02 -0.62106514677E+02 -0.14762544207E+03  0.20444870749E+03  0.12499940093E+03 0.  0.
          4    1    3    3  501    0  0.90220311873E+01 -0.75806903956E+02 -0.25094938843E+02  0.80370719729E+02  0.12700000000E+01 0.  1.
         -4    1    3    3    0  501  0.13867561440E+02  0.13700389280E+02 -0.12253050322E+03  0.12407798776E+03  0.12700000000E+01 0.  1.
          2    1    1    2  502    0  0.40265935669E+02 -0.11397427597E+01  0.52168199931E+03  0.52323489275E+03  0.00000000000E+00 0. -1.
          1    1    1    2  503    0 -0.63155528296E+02  0.63246257436E+02 -0.78958697081E+03  0.79462965859E+03  0.00000000000E+00 0. -1.
<mgrwt>
<rscale>  0 0.59207317E+02</rscale>
<asrwt>0</asrwt>
<pdfrwt beam="1">  1        2 0.85137143E-01 0.40282063E+02</pdfrwt>
<pdfrwt beam="2">  1        1 0.14906490E+00 0.87024004E+02</pdfrwt>
<totfact> 0.14237891E+02</totfact>
</mgrwt>
</event>
<event>
 7    1  0.3113151E-004  0.8682034E+02  0.7546771E-02  0.1363159E+00
          2   -1    0    0  502    0  0.00000000000E+00  0.00000000000E+00  0.59158980795E+03  0.59158980795E+03  0.00000000000E+00 0. -1.
          2   -1    0    0  503    0 -0.00000000000E+00 -0.00000000000E+00 -0.59408626840E+02  0.59408626840E+02  0.00000000000E+00 0. -1.
         25    2    1    2    0    0 -0.68331899055E+02 -0.76524419606E+02  0.31330722779E+03  0.35258040743E+03  0.12500515786E+03 0.  0.
          4    1    3    3  501    0 -0.16268315048E+02 -0.81485090262E+02  0.27622759429E+03  0.28845757878E+03  0.12700000000E+01 0. -1.
         -4    1    3    3    0  501 -0.52063584007E+02  0.49606706563E+01  0.37079633497E+02  0.64122828644E+02  0.12700000000E+01 0. -1.
          2    1    1    2  502    0  0.13814093828E+02  0.83840984099E+02  0.22739791758E+03  0.24275492316E+03  0.00000000000E+00 0. -1.
          2    1    1    2  503    0  0.54517805227E+02 -0.73165644931E+01 -0.85239642521E+01  0.55663104201E+02  0.00000000000E+00 0. -1.
<mgrwt>
<rscale>  0 0.69106365E+02</rscale>
<asrwt>0</asrwt>
<pdfrwt beam="1">  1        2 0.91013813E-01 0.86820345E+02</pdfrwt>
<pdfrwt beam="2">  1        2 0.91397891E-02 0.55006574E+02</pdfrwt>
<totfact> 0.52438707E+03</totfact>
</mgrwt>
</event>
<event>
 7    1  0.3113151E-004  0.9946308E+02  0.7546771E-02  0.1317895E+00
          2   -1    0    0  502    0  0.00000000000E+00  0.00000000000E+00  0.10786317249E+04  0.10786317249E+04  0.00000000000E+00 0. -1.
          3   -1    0    0  503    0 -0.00000000000E+00 -0.00000000000E+00 -0.36661616022E+03  0.36661616022E+03  0.00000000000E+00 0. -1.
         25    2    1    2    0    0  0.13576212017E+03 -0.29537488874E+02 -0.41946135078E+02  0.19154219124E+03  0.12500046501E+03 0.  0.
          4    1    3    3  501    0  0.10913770106E+03 -0.43573724041E+02 -0.80622851149E+02  0.14251794359E+03  0.12700000000E+01 0.  1.
         -4    1    3    3    0  501  0.26624419116E+02  0.14036235167E+02  0.38676716072E+02  0.49024247643E+02  0.12700000000E+01 0.  1.
          2    1    1    2  502    0 -0.43248854647E+02  0.56372589985E+02  0.99323366664E+03  0.99577178554E+03  0.00000000000E+00 0. -1.
          3    1    1    2  503    0 -0.92513265526E+02 -0.26835101111E+02 -0.23927196687E+03  0.25793390835E+03  0.00000000000E+00 0. -1.
<mgrwt>
<rscale>  0 0.84065525E+02</rscale>
<asrwt>0</asrwt>
<pdfrwt beam="1">  1        2 0.16594334E+00 0.71051617E+02</pdfrwt>
<pdfrwt beam="2">  1        3 0.56402487E-01 0.99463078E+02</pdfrwt>
<totfact> 0.47736518E+01</totfact>
</mgrwt>
</event>
<event>
 7    1  0.3113151E-004  0.1246061E+03  0.7546771E-02  0.1244003E+00
         -1   -1    0    0    0  501 -0.00000000000E+00  0.00000000000E+00  0.59356689395E+03  0.59356689395E+03  0.00000000000E+00 0.  1.
          2   -1    0    0  503    0  0.00000000000E+00 -0.00000000000E+00 -0.23789372492E+03  0.23789372492E+03  0.00000000000E+00 0. -1.
         25    2    1    2    0    0  0.41868893309E+02  0.64319875166E+02  0.64684700169E+02  0.16031153119E+03  0.12500250408E+03 0.  0.
          4    1    3    3  502    0 -0.24802234933E+02  0.72910612406E+02  0.48944136082E+02  0.91259244002E+02  0.12700000000E+01 0.  1.
         -4    1    3    3    0  502  0.66671128242E+02 -0.85907372402E+01  0.15740564086E+02  0.69052287183E+02  0.12700000000E+01 0.  1.
          2    1    1    2  503    0  0.86069235806E+02 -0.90104214651E+02 -0.15934760135E+03  0.20228282405E+03  0.00000000000E+00 0. -1.
         -1    1    1    2    0  501 -0.12793812912E+03  0.25784339485E+02  0.45033607021E+03  0.46886626363E+03  0.00000000000E+00 0.  1.
<mgrwt>
<rscale>  0 0.11945256E+03</rscale>
<asrwt>0</asrwt>
<pdfrwt beam="2">  1        2 0.36599035E-01 0.12460611E+03</pdfrwt>
<pdfrwt beam="1">  1       -1 0.91317983E-01 0.11451216E+03</pdfrwt>
<totfact> 0.20351112E+02</totfact>
</mgrwt>
</event>
<event>
 7    1  0.3113151E-004  0.2057173E+03  0.7546771E-02  0.1238196E+00
          1   -1    0    0  503    0 -0.00000000000E+00  0.00000000000E+00  0.43549076302E+03  0.43549076302E+03  0.00000000000E+00 0. -1.
          2   -1    0    0  502    0  0.00000000000E+00 -0.00000000000E+00 -0.30685879061E+04  0.30685879061E+04  0.00000000000E+00 0. -1.
         25    2    1    2    0    0  0.13415108565E+03 -0.17286485744E+03 -0.44260507162E+03  0.50931878915E+03  0.12501042694E+03 0.  0.
          4    1    3    3  501    0  0.47741417351E+02 -0.72426448776E+02 -0.62895932147E+02  0.10715570257E+03  0.12700000000E+01 0. -1.
         -4    1    3    3    0  501  0.86409668295E+02 -0.10043840867E+03 -0.37970913947E+03  0.40216308658E+03  0.12700000000E+01 0. -1.
          2    1    1    2  502    0  0.39221047109E+02  0.62239839285E+02 -0.25657696349E+04  0.25668240897E+04  0.00000000000E+00 0. -1.
          1    1    1    2  503    0 -0.17337213275E+03  0.11062501816E+03  0.37527756338E+03  0.42793579032E+03  0.00000000000E+00 0. -1.
<mgrwt>
<rscale>  0 0.12302026E+03</rscale>
<asrwt>0</asrwt>
<pdfrwt beam="2">  1        2 0.47209047E+00 0.73566896E+02</pdfrwt>
<pdfrwt beam="1">  1        1 0.66998576E-01 0.20571733E+03</pdfrwt>
<totfact> 0.17447297E+01</totfact>
</mgrwt>
</event>
<event>
 7    1  0.3113151E-004  0.4472436E+03  0.7546771E-02  0.1028547E+00
          1   -1    0    0  503    0  0.00000000000E+00  0.00000000000E+00  0.96235622242E+02  0.96235622242E+02  0.00000000000E+00 0. -1.
         -2   -1    0    0    0  501 -0.00000000000E+00 -0.00000000000E+00 -0.51962783067E+03  0.51962783067E+03  0.00000000000E+00 0.  1.
         25    2    1    2    0    0 -0.14065209203E+03 -0.10097817724E+03 -0.88357228180E+02  0.23111107847E+03  0.12500291016E+03 0.  0.
          4    1    3    3  502    0 -0.11574059065E+03 -0.72027245928E+02 -0.16302770051E+01  0.13633810613E+03  0.12700000000E+01 0. -1.
         -4    1    3    3    0  502 -0.24911501372E+02 -0.28950931314E+02 -0.86726951175E+02  0.94772972332E+02  0.12700000000E+01 0. -1.
          1    1    1    2  503    0  0.44980685750E+02 -0.28211153295E+01 -0.54650271135E+02  0.70836945991E+02  0.00000000000E+00 0. -1.
         -2    1    1    2    0  501  0.95671406277E+02  0.10379929257E+03 -0.28038470911E+03  0.31391542845E+03  0.00000000000E+00 0.  1.
<mgrwt>
<rscale>  0 0.44724359E+03</rscale>
<asrwt>0</asrwt>
<pdfrwt beam="1">  1        1 0.14805480E-01 0.44724359E+03</pdfrwt>
<pdfrwt beam="2">  1       -2 0.79942743E-01 0.44724359E+03</pdfrwt>
<totfact> 0.47769812E+02</totfact>
</mgrwt>
</event>
<event>
 7    1  0.3113151E-004  0.1210233E+03  0.7546771E-02  0.1253812E+00
          1   -1    0    0  503    0 -0.00000000000E+00  0.00000000000E+00  0.19436347772E+04  0.19436347772E+04  0.00000000000E+00 0. -1.
          2   -1    0    0  502    0  0.00000000000E+00 -0.00000000000E+00 -0.18605369995E+04  0.18605369995E+04  0.00000000000E+00 0.  1.
         25    2    1    2    0    0 -0.12544912500E+03  0.62590089052E+02 -0.17263601946E+03  0.25511333386E+03  0.12499846275E+03 0.  0.
          4    1    3    3  501    0 -0.30817700362E+02  0.83282313425E+02 -0.10184811278E+03  0.13513077134E+03  0.12700000000E+01 0. -1.
         -4    1    3    3    0  501 -0.94631424640E+02 -0.20692224374E+02 -0.70787906673E+02  0.11998256253E+03  0.12700000000E+01 0. -1.
          2    1    1    2  502    0  0.11426997206E+03  0.43701941760E+02 -0.16428849232E+04  0.16474338703E+04  0.00000000000E+00 0.  1.
          1    1    1    2  503    0  0.11179152942E+02 -0.10629203081E+03  0.18986187204E+04  0.19016245725E+04  0.00000000000E+00 0. -1.
<mgrwt>
<rscale>  0 0.11373108E+03</rscale>
<asrwt>0</asrwt>
<pdfrwt beam="2">  1        2 0.28623646E+00 0.12102325E+03</pdfrwt>
<pdfrwt beam="1">  1        1 0.29902074E+00 0.10687829E+03</pdfrwt>
<totfact> 0.53483768E+00</totfact>
</mgrwt>
</event>
<event>
 7    1  0.3113151E-004  0.9877887E+02  0.7546771E-02  0.1363685E+00
         -1   -1    0    0    0  501 -0.00000000000E+00  0.00000000000E+00  0.14515608235E+03  0.14515608235E+03  0.00000000000E+00 0.  1.
          2   -1    0    0  503    0  0.00000000000E+00 -0.00000000000E+00 -0.15970559985E+04  0.15970559985E+04  0.00000000000E+00 0. -1.
         25    2    1    2    0    0 -0.69715523262E+02  0.18125834715E+02 -0.18732399310E+03  0.23644072542E+03  0.12500055272E+03 0.  0.
          4    1    3    3  502    0 -0.13366890202E+02  0.39205299131E+02 -0.18863992120E+01  0.41483739412E+02  0.12700000000E+01 0. -1.
         -4    1    3    3    0  502 -0.56348633061E+02 -0.21079464416E+02 -0.18543759389E+03  0.19495698601E+03  0.12700000000E+01 0. -1.
          2    1    1    2  503    0 -0.30692416534E+02 -0.37080487090E+02 -0.13630279408E+04  0.13638776170E+04  0.00000000000E+00 0. -1.
         -1    1    1    2    0  501  0.10040793980E+03  0.18954652375E+02  0.98452017679E+02  0.14189373843E+03  0.00000000000E+00 0.  1.
<mgrwt>
<rscale>  0 0.68954549E+02</rscale>
<asrwt>0</asrwt>
<pdfrwt beam="2">  1        2 0.24570093E+00 0.48135091E+02</pdfrwt>
<pdfrwt beam="1">  1       -1 0.22331704E-01 0.98778869E+02</pdfrwt>
<totfact> 0.26398375E+02</totfact>
</mgrwt>
</event>
<event>
 7    1  0.3113151E-004  0.1054595E+03  0.7546771E-02  0.1273110E+00
          1   -1    0    0  502    0  0.00000000000E+00  0.00000000000E+00  0.23334876405E+03  0.23334876405E+03  0.00000000000E+00 0. -1.
          1   -1    0    0  503    0 -0.00000000000E+00 -0.00000000000E+00 -0.13581425159E+04  0.13581425159E+04  0.00000000000E+00 0. -1.
         25    2    1    2    0    0 -0.50429541426E+01 -0.32053744975E+01 -0.21369803542E+02  0.12695361669E+03  0.12499938590E+03 0.  0.
          4    1    3    3  501    0  0.56209253517E+02  0.19930407423E+02 -0.10569002595E+02  0.60580673790E+02  0.12700000000E+01 0. -1.
         -4    1    3    3    0  501 -0.61252207659E+02 -0.23135781920E+02 -0.10800800947E+02  0.66372942901E+02  0.12700000000E+01 0. -1.
          1    1    1    2  502    0 -0.59013793603E+02  0.87401837905E+02  0.16276120246E+03  0.19394050152E+03  0.00000000000E+00 0. -1.
          1    1    1    2  503    0  0.64056747746E+02 -0.84196463408E+02 -0.12661851508E+04  0.12705971618E+04  0.00000000000E+00 0. -1.
<mgrwt>
<rscale>  0 0.10349684E+03</rscale>
<asrwt>0</asrwt>
<pdfrwt beam="1">  1        1 0.35899811E-01 0.10545951E+03</pdfrwt>
<pdfrwt beam="2">  1        1 0.20894500E+00 0.10157069E+03</pdfrwt>
<totfact> 0.13898459E+02</totfact>
</mgrwt>
</event>
<event>
 7    1  0.3113151E-004  0.8236148E+02  0.7546771E-02  0.1366721E+00
          2   -1    0    0  502    0  0.00000000000E+00  0.00000000000E+00  0.54852698339E+03  0.54852698339E+03  0.00000000000E+00 0. -1.
          1   -1    0    0  503    0 -0.00000000000E+00 -0.00000000000E+00 -0.77719504980E+03  0.77719504980E+03  0.00000000000E+00 0. -1.
         25    2    1    2    0    0  0.48878859582E+02 -0.34925062770E+01  0.23661535212E+02  0.13633179097E+03  0.12500059387E+03 0.  0.
          4    1    3    3  501    0  0.78808974349E+02  0.32570710379E+02  0.26659265842E+02  0.89353427286E+02  0.12700000000E+01 0.  1.
         -4    1    3    3    0  501 -0.29930114767E+02 -0.36063216656E+02 -0.29977306308E+01  0.46978363684E+02  0.12700000000E+01 0.  1.
          2    1    1    2  502    0 -0.70219039775E+02 -0.48592174912E+02  0.46352554066E+03  0.47132561977E+03  0.00000000000E+00 0. -1.
          1    1    1    2  503    0  0.21340180192E+02  0.52084681189E+02 -0.71585514228E+03  0.71806462246E+03  0.00000000000E+00 0. -1.
<mgrwt>
<rscale>  0 0.68087252E+02</rscale>
<asrwt>0</asrwt>
<pdfrwt beam="1">  1        2 0.84388767E-01 0.82361478E+02</pdfrwt>
<pdfrwt beam="2">  1        1 0.11956847E+00 0.56286919E+02</pdfrwt>
<totfact> 0.20359866E+02</totfact>
</mgrwt>
</event>
<event>
 7    1  0.3113151E-004  0.8066727E+02  0.7546771E-02  0.1424585E+00
          2   -1    0    0  503    0  0.00000000000E+00  0.00000000000E+00  0.13799558717E+03  0.13799558717E+03  0.00000000000E+00 0. -1.
         -1   -1    0    0    0  501 -0.00000000000E+00 -0.00000000000E+00 -0.16211489400E+03  0.16211489400E+03  0.00000000000E+00 0.  1.
         25    2    1    2    0    0  0.35777550061E+01 -0.10778105518E+03 -0.22791390839E+02  0.16662857545E+03  0.12496430880E+03 0.  0.
          4    1    3    3  502    0  0.32035294472E+02 -0.10347657512E+03 -0.56588270157E+02  0.12221909389E+03  0.12700000000E+01 0.  1.
         -4    1    3    3    0  502 -0.28457539466E+02 -0.43044800542E+01  0.33796879318E+02  0.44409481563E+02  0.12700000000E+01 0.  1.
          2    1    1    2  503    0 -0.76617027373E+01  0.35412774603E+02  0.36748196273E+02  0.51606164585E+02  0.00000000000E+00 0. -1.
         -1    1    1    2    0  501  0.40839477312E+01  0.72368280574E+02 -0.38076112262E+02  0.81875741141E+02  0.00000000000E+00 0.  1.
<mgrwt>
<rscale>  0 0.54062427E+02</rscale>
<asrwt>0</asrwt>
<pdfrwt beam="1">  1        2 0.21230090E-01 0.36232117E+02</pdfrwt>
<pdfrwt beam="2">  1       -1 0.24940753E-01 0.80667270E+02</pdfrwt>
<totfact> 0.37205796E+03</totfact>
</mgrwt>
</event>
<event>
 7    1  0.3113151E-004  0.6689740E+02  0.7546771E-02  0.1437244E+00
          2   -1    0    0  502    0  0.00000000000E+00  0.00000000000E+00  0.10266709005E+03  0.10266709005E+03  0.00000000000E+00 0. -1.
          1   -1    0    0  503    0 -0.00000000000E+00 -0.00000000000E+00 -0.13691919643E+04  0.13691919643E+04  0.00000000000E+00 0. -1.
         25    2    1    2    0    0  0.52046633117E+02 -0.87625507653E+02 -0.86788767107E+02  0.18315258858E+03  0.12500199597E+03 0.  0.
          4    1    3    3  501    0  0.11696805085E+02 -0.41864383515E+02 -0.10967305162E+03  0.11797979915E+03  0.12700000000E+01 0. -1.
         -4    1    3    3    0  501  0.40349828032E+02 -0.45761124139E+02  0.22884284511E+02  0.65172789431E+02  0.12700000000E+01 0. -1.
          2    1    1    2  502    0 -0.32960363268E+02  0.52817341098E+02  0.36270001059E+02  0.72052550574E+02  0.00000000000E+00 0. -1.
          1    1    1    2  503    0 -0.19086269849E+02  0.34808166555E+02 -0.12160061082E+04  0.12166539152E+04  0.00000000000E+00 0. -1.
<mgrwt>
<rscale>  0 0.51533115E+02</rscale>
<asrwt>0</asrwt>
<pdfrwt beam="1">  1        2 0.15794937E-01 0.66897404E+02</pdfrwt>
<pdfrwt beam="2">  1        1 0.21064492E+00 0.39697533E+02</pdfrwt>
<totfact> 0.48730694E+02</totfact>
</mgrwt>
</event>
<event>
 7    1  0.3113151E-004  0.1785852E+03  0.7546771E-02  0.1298030E+00
          1   -1    0    0  503    0  0.00000000000E+00  0.00000000000E+00  0.25225717830E+03  0.25225717830E+03  0.00000000000E+00 0. -1.
          1   -1    0    0  502    0 -0.00000000000E+00 -0.00000000000E+00 -0.80298638915E+03  0.80298638915E+03  0.00000000000E+00 0. -1.
         25    2    1    2    0    0 -0.16516186274E+03 -0.60674694741E+02 -0.14945920404E+03  0.26253129502E+03  0.12499907082E+03 0.  0.
          4    1    3    3  501    0 -0.35840666042E+02 -0.76832508444E+02 -0.48603231996E+02  0.97732669853E+02  0.12700000000E+01 0. -1.
         -4    1    3    3    0  501 -0.12932119670E+03  0.16157813702E+02 -0.10085597204E+03  0.16479862516E+03  0.12700000000E+01 0. -1.
          1    1    1    2  502    0  0.18330584532E+02 -0.43729866197E+02 -0.55430170673E+03  0.55632606771E+03  0.00000000000E+00 0. -1.
          1    1    1    2  503    0  0.14683127821E+03  0.10440456094E+03  0.15303169992E+03  0.23638620473E+03  0.00000000000E+00 0. -1.
<mgrwt>
<rscale>  0 0.92020979E+02</rscale>
<asrwt>0</asrwt>
<pdfrwt beam="1">  1        1 0.38808797E-01 0.17858520E+03</pdfrwt>
<pdfrwt beam="2">  1        1 0.12353637E+00 0.47416363E+02</pdfrwt>
<totfact> 0.32644269E+02</totfact>
</mgrwt>
</event>
<event>
 7    1  0.3113151E-004  0.5216005E+02  0.7546771E-02  0.1452758E+00
          2   -1    0    0  503    0  0.00000000000E+00  0.00000000000E+00  0.90157655990E+03  0.90157655990E+03  0.00000000000E+00 0. -1.
          2   -1    0    0  502    0 -0.00000000000E+00 -0.00000000000E+00 -0.66284128864E+02  0.66284128864E+02  0.00000000000E+00 0. -1.
         25    2    1    2    0    0  0.10219693383E+02  0.70390792953E+00  0.18394188082E+03  0.22263002071E+03  0.12499829192E+03 0.  0.
          4    1    3    3  501    0 -0.51263231358E+02  0.19444867938E+02  0.12009410516E+03  0.13202359173E+03  0.12700000000E+01 0.  1.
         -4    1    3    3    0  501  0.61482924740E+02 -0.18740960008E+02  0.63847775659E+02  0.90606428984E+02  0.12700000000E+01 0.  1.
          2    1    1    2  502    0 -0.55585184243E+02 -0.17446337954E+01 -0.29443534073E+02  0.62925973596E+02  0.00000000000E+00 0. -1.
          2    1    1    2  503    0  0.45365490860E+02  0.10407258659E+01  0.68079408430E+03  0.68230469446E+03  0.00000000000E+00 0. -1.
<mgrwt>
<rscale>  0 0.48650683E+02</rscale>
<asrwt>0</asrwt>
<pdfrwt beam="1">  1        2 0.13870408E+00 0.45377427E+02</pdfrwt>
<pdfrwt beam="2">  1        2 0.10197559E-01 0.52160053E+02</pdfrwt>
<totfact> 0.28636972E+03</totfact>
</mgrwt>
</event>
<event>
 7    1  0.3113151E-004  0.8853536E+02  0.7546771E-02  0.1333249E+00
          2   -1    0    0  502    0  0.00000000000E+00  0.00000000000E+00  0.15345825076E+04  0.15345825076E+04  0.00000000000E+00 0. -1.
          1   -1    0    0  503    0 -0.00000000000E+00 -0.00000000000E+00 -0.72607335990E+03  0.72607335990E+03  0.00000000000E+00 0. -1.
         25    2    1    2    0    0 -0.55901179684E+02  0.25608512840E+02  0.13581564022E+03  0.19455791448E+03  0.12500462447E+03 0.  0.
          4    1    3    3  501    0 -0.26541452722E+02  0.54719237454E+02  0.94061836873E+01  0.61552683546E+02  0.12700000000E+01 0. -1.
         -4    1    3    3    0  501 -0.29359726962E+02 -0.29110724614E+02  0.12640945653E+03  0.13300523093E+03  0.12700000000E+01 0. -1.
          2    1    1    2  502    0  0.24327453476E+02 -0.87715321134E+02  0.13661354965E+04  0.13691647079E+04  0.00000000000E+00 0. -1.
          1    1    1    2  503    0  0.31573726209E+02  0.62106808294E+02 -0.69344198909E+03  0.69693324505E+03  0.00000000000E+00 0. -1.
<mgrwt>
<rscale>  0 0.78539258E+02</rscale>
<asrwt>0</asrwt>
<pdfrwt beam="1">  1        2 0.23608962E+00 0.88535356E+02</pdfrwt>
<pdfrwt beam="2">  1        1 0.11170359E+00 0.69671772E+02</pdfrwt>
<totfact> 0.55738794E+01</totfact>
</mgrwt>
</event>
<event>
 7    1  0.3113151E-004  0.2768091E+03  0.7546771E-02  0.1194137E+00
          2   -1    0    0  502    0  0.00000000000E+00  0.00000000000E+00  0.17663430778E+04  0.17663430778E+04  0.00000000000E+00 0. -1.
          1   -1    0    0  503    0 -0.00000000000E+00 -0.00000000000E+00 -0.47286631702E+03  0.47286631702E+03  0.00000000000E+00 0. -1.
         25    2    1    2    0    0  0.14868555945E+03  0.12648045519E+03  0.76766664849E+03  0.80190255994E+03  0.12502372291E+03 0.  0.
          4    1    3    3  501    0  0.16030352829E+03  0.10051234007E+03  0.53448178066E+03  0.56698530708E+03  0.12700000000E+01 0.  1.
         -4    1    3    3    0  501 -0.11617968839E+02  0.25968115125E+02  0.23318486783E+03  0.23491725285E+03  0.12700000000E+01 0.  1.
          2    1    1    2  502    0  0.55355264305E+02  0.67248676090E+02  0.93591771841E+03  0.93996200208E+03  0.00000000000E+00 0. -1.
          1    1    1    2  503    0 -0.20404082376E+03 -0.19372913128E+03 -0.41010760615E+03  0.49734483277E+03  0.00000000000E+00 0. -1.
<mgrwt>
<rscale>  0 0.15527511E+03</rscale>
<asrwt>0</asrwt>
<pdfrwt beam="1">  1        2 0.27174509E+00 0.87101032E+02</pdfrwt>
<pdfrwt beam="2">  1        1 0.72748665E-01 0.27680913E+03</pdfrwt>
<totfact> 0.73078591E+01</totfact>
</mgrwt>
</event>
<event>
 7    1  0.3113151E-004  0.6041513E+02  0.7546771E-02  0.1524178E+00
         -3   -1    0    0    0  501 -0.00000000000E+00  0.00000000000E+00  0.28674449791E+02  0.28674449791E+02  0.00000000000E+00 0.  1.
          2   -1    0    0  503    0  0.00000000000E+00 -0.00000000000E+00 -0.67376329182E+03  0.67376329182E+03  0.00000000000E+00 0. -1.
         25    2    1    2    0    0 -0.51296125944E+02  0.10531993640E+02 -0.45965997225E+03  0.47922194969E+03  0.12499668615E+03 0.  0.
          4    1    3    3  502    0  0.30195814901E+01 -0.46751056825E+02 -0.26583320873E+03  0.26993274524E+03  0.12700000000E+01 0. -1.
         -4    1    3    3    0  502 -0.54315707434E+02  0.57283050465E+02 -0.19382676352E+03  0.20928920445E+03  0.12700000000E+01 0. -1.
          2    1    1    2  503    0 -0.93804982799E+01 -0.21860992343E+02 -0.15034763245E+03  0.15221795990E+03  0.00000000000E+00 0. -1.
         -3    1    1    2    0  501  0.60676624224E+02  0.11328998703E+02 -0.35081237333E+02  0.70997832021E+02  0.00000000000E+00 0.  1.
<mgrwt>
<rscale>  0 0.37910294E+02</rscale>
<asrwt>0</asrwt>
<pdfrwt beam="2">  1        2 0.10365589E+00 0.23788584E+02</pdfrwt>
<pdfrwt beam="1">  1       -3 0.44114538E-02 0.60415129E+02</pdfrwt>
<totfact> 0.67709068E+03</totfact>
</mgrwt>
</event>
<event>
 7    1  0.3113151E-004  0.1034226E+03  0.7546771E-02  0.1396407E+00
          2   -1    0    0  502    0  0.00000000000E+00  0.00000000000E+00  0.11086919388E+04  0.11086919388E+04  0.00000000000E+00 0. -1.
          1   -1    0    0  503    0 -0.00000000000E+00 -0.00000000000E+00 -0.19123235618E+03  0.19123235618E+03  0.00000000000E+00 0. -1.
         25    2    1    2    0    0  0.92572016455E+02 -0.92885104545E+02  0.58862025761E+03  0.61587053609E+03  0.12500195467E+03 0.  0.
          4    1    3    3  501    0  0.12346630943E+03 -0.80951939200E+02  0.46441012645E+03  0.48731460523E+03  0.12700000000E+01 0.  1.
         -4    1    3    3    0  501 -0.30894292979E+02 -0.11933165345E+02  0.12421013117E+03  0.12855593086E+03  0.12700000000E+01 0.  1.
          2    1    1    2  502    0 -0.81513390444E+01  0.34248463627E+02  0.49089173181E+03  0.49215251086E+03  0.00000000000E+00 0. -1.
          1    1    1    2  503    0 -0.84420677410E+02  0.58636640919E+02 -0.16205240682E+03  0.19190124801E+03  0.00000000000E+00 0. -1.
<mgrwt>
<rscale>  0 0.60340760E+02</rscale>
<asrwt>0</asrwt>
<pdfrwt beam="1">  1        2 0.17056799E+00 0.35205136E+02</pdfrwt>
<pdfrwt beam="2">  1        1 0.29420363E-01 0.10342262E+03</pdfrwt>
<totfact> 0.53005823E+02</totfact>
</mgrwt>
</event>
<event>
 7    1  0.3113151E-004  0.1097196E+03  0.7546771E-02  0.1380443E+00
          2   -1    0    0  503    0  0.00000000000E+00  0.00000000000E+00  0.15477159106E+03  0.15477159106E+03  0.00000000000E+00 0. -1.
         -1   -1    0    0    0  501 -0.00000000000E+00 -0.00000000000E+00 -0.25543881092E+03  0.25543881092E+03  0.00000000000E+00 0.  1.
         25    2    1    2    0    0 -0.83375576560E+02  0.79484977567E+02  0.73964123906E+02  0.18537868791E+03  0.12500087151E+03 0.  0.
          4    1    3    3  502    0 -0.79562659294E+02  0.71588648257E+02 -0.38075129162E+01  0.10710397457E+03  0.12700000000E+01 0. -1.
         -4    1    3    3    0  502 -0.38129172660E+01  0.78963293096E+01  0.77771636822E+02  0.78274713341E+02  0.12700000000E+01 0. -1.
          2    1    1    2  503    0  0.91721106449E+02 -0.42681305765E+02 -0.10612344914E+03  0.14661733079E+03  0.00000000000E+00 0. -1.
         -1    1    1    2    0  501 -0.83455298896E+01 -0.36803671802E+02 -0.68507894625E+02  0.78214383288E+02  0.00000000000E+00 0.  1.
<mgrwt>
<rscale>  0 0.64347508E+02</rscale>
<asrwt>0</asrwt>
<pdfrwt beam="1">  1        2 0.23811014E-01 0.10971964E+03</pdfrwt>
<pdfrwt beam="2">  1       -1 0.39298278E-01 0.37738020E+02</pdfrwt>
<totfact> 0.15915662E+03</totfact>
</mgrwt>
</event>
<event>
 7    1  0.3113151E-004  0.1048056E+03  0.7546771E-02  0.1467500E+00
          2   -1    0    0  503    0  0.00000000000E+00  0.00000000000E+00  0.89131083521E+03  0.89131083521E+03  0.00000000000E+00 0. -1.
          2   -1    0    0  502    0 -0.00000000000E+00 -0.00000000000E+00 -0.16323862053E+04  0.16323862053E+04  0.00000000000E+00 0. -1.
         25    2    1    2    0    0  0.10949340552E+03 -0.58249001162E+02 -0.39075476132E+03  0.42859873266E+03  0.12500335259E+03 0.  0.
          4    1    3    3  501    0  0.67841802610E+02 -0.90183774202E+02 -0.18906669613E+03  0.22018958149E+03  0.12700000000E+01 0. -1.
         -4    1    3    3    0  501  0.41651602914E+02  0.31934773040E+02 -0.20168806519E+03  0.20840915117E+03  0.12700000000E+01 0. -1.
          2    1    1    2  502    0 -0.14610868913E+02  0.14079418778E+02 -0.12194857776E+04  0.12196545697E+04  0.00000000000E+00 0. -1.
          2    1    1    2  503    0 -0.94882536612E+02  0.44169582384E+02  0.86916516890E+03  0.87544373811E+03  0.00000000000E+00 0. -1.
<mgrwt>
<rscale>  0 0.46114707E+02</rscale>
<asrwt>0</asrwt>
<pdfrwt beam="1">  1        2 0.13712474E+00 0.10480560E+03</pdfrwt>
<pdfrwt beam="2">  1        2 0.25113634E+00 0.20290577E+02</pdfrwt>
<totfact> 0.73963999E+01</totfact>
</mgrwt>
</event>
<event>
 7    1  0.3113151E-004  0.8460956E+02  0.7546771E-02  0.1451470E+00
          2   -1    0    0  503    0  0.00000000000E+00  0.00000000000E+00  0.33360508311E+04  0.33360508311E+04  0.00000000000E+00 0. -1.
          2   -1    0    0  502    0 -0.00000000000E+00 -0.00000000000E+00 -0.29646444386E+02  0.29646444386E+02  0.00000000000E+00 0. -1.
         25    2    1    2    0    0 -0.57323222859E+02 -0.66994903138E+02  0.12884002599E+04  0.12974491963E+04  0.12499967302E+03 0.  0.
          4    1    3    3  501    0 -0.75069473402E+02  0.81349473868E+01  0.60073829665E+03  0.60546652853E+03  0.12700000000E+01 0. -1.
         -4    1    3    3    0  501  0.17746250543E+02 -0.75129850525E+02  0.68766196328E+03  0.69198266777E+03  0.12700000000E+01 0. -1.
          2    1    1    2  502    0  0.72728047937E+02  0.43326332457E+02  0.46584841248E+02  0.96626536081E+02  0.00000000000E+00 0. -1.
          2    1    1    2  503    0 -0.15404825078E+02  0.23668570681E+02  0.19714192855E+04  0.19716215431E+04  0.00000000000E+00 0. -1.
<mgrwt>
<rscale>  0 0.48881410E+02</rscale>
<asrwt>0</asrwt>
<pdfrwt beam="1">  1        2 0.51323829E+00 0.28240217E+02</pdfrwt>
<pdfrwt beam="2">  1        2 0.45609941E-02 0.84609557E+02</pdfrwt>
<totfact> 0.48812753E+02</totfact>
</mgrwt>
</event>
<event>
 7    1  0.3113151E-004  0.3307361E+02  0.7546771E-02  0.1587127E+00
          2   -1    0    0  502    0  0.00000000000E+00  0.00000000000E+00  0.10118949774E+03  0.10118949774E+03  0.00000000000E+00 0. -1.
          1   -1    0    0  503    0 -0.00000000000E+00 -0.00000000000E+00 -0.95983604955E+02  0.95983604955E+02  0.00000000000E+00 0. -1.
         25    2    1    2    0    0  0.44699937102E+01 -0.13570449915E+02  0.49993254031E+01  0.12591381626E+03  0.12500063166E+03 0.  0.
          4    1    3    3  501    0  0.38896190542E+02 -0.14433759890E+02  0.52690261687E+02  0.67075507004E+02  0.12700000000E+01 0.  1.
         -4    1    3    3    0  501 -0.34426196832E+02  0.86330997491E+00 -0.47690936284E+02  0.58838309255E+02  0.12700000000E+01 0.  1.
          2    1    1    2  502    0 -0.32969447339E+02  0.19380162618E+02  0.11687649722E+02  0.39989702637E+02  0.00000000000E+00 0. -1.
          1    1    1    2  503    0  0.28499453629E+02 -0.58097127035E+01 -0.11481082344E+02  0.31269583794E+02  0.00000000000E+00 0. -1.
<mgrwt>
<rscale>  0 0.31015569E+02</rscale>
<asrwt>0</asrwt>
<pdfrwt beam="1">  1        2 0.15567615E-01 0.33073611E+02</pdfrwt>
<pdfrwt beam="2">  1        1 0.14766708E-01 0.29085591E+02</pdfrwt>
<totfact> 0.15384200E+04</totfact>
</mgrwt>
</event>
<event>
 7    1  0.3113151E-004  0.4380004E+02  0.7546771E-02  0.1556078E+00
          2   -1    0    0  503    0  0.00000000000E+00  0.00000000000E+00  0.21944331641E+04  0.21944331641E+04  0.00000000000E+00 0. -1.
         -2   -1    0    0    0  501 -0.00000000000E+00 -0.00000000000E+00 -0.51359223598E+01  0.51359223598E+01  0.00000000000E+00 0.  1.
         25    2    1    2    0    0 -0.66255701660E+00 -0.22811168805E+02  0.10292757533E+04  0.10370893614E+04  0.12499991508E+03 0.  0.
          4    1    3    3  502    0 -0.56940944417E+02 -0.24825732041E+02  0.34914381806E+03  0.35462882950E+03  0.12700000000E+01 0.  1.
         -4    1    3    3    0  502  0.56278387400E+02  0.20145632363E+01  0.68013193526E+03  0.68246053191E+03  0.12700000000E+01 0.  1.
          2    1    1    2  503    0 -0.12826882736E+02  0.45807237166E+02  0.84201558534E+03  0.84335821443E+03  0.00000000000E+00 0. -1.
         -2    1    1    2    0  501  0.13489439753E+02 -0.22996068362E+02  0.31800590309E+03  0.31912151063E+03  0.00000000000E+00 0.  1.
<mgrwt>
<rscale>  0 0.34172102E+02</rscale>
<asrwt>0</asrwt>
<pdfrwt beam="1">  1        2 0.33760435E+00 0.43800041E+02</pdfrwt>
<pdfrwt beam="2">  1       -2 0.79014365E-03 0.26660535E+02</pdfrwt>
<totfact> 0.14472060E+04</totfact>
</mgrwt>
</event>
<event>
 7    1  0.3113151E-004  0.7272756E+02  0.7546771E-02  0.1381057E+00
         -3   -1    0    0    0  501 -0.00000000000E+00  0.00000000000E+00  0.47186143896E+03  0.47186143896E+03  0.00000000000E+00 0.  1.
          2   -1    0    0  503    0  0.00000000000E+00 -0.00000000000E+00 -0.15228407207E+04  0.15228407207E+04  0.00000000000E+00 0. -1.
         25    2    1    2    0    0 -0.53420061318E+02 -0.91703817329E+01  0.30144733768E+03  0.33080641323E+03  0.12499834712E+03 0.  0.
          4    1    3    3  502    0  0.34365959118E+02 -0.95848251850E+01  0.33934964246E+02  0.49255281121E+02  0.12700000000E+01 0.  1.
         -4    1    3    3    0  502 -0.87786020436E+02  0.41444345204E+00  0.26751237344E+03  0.28155113211E+03  0.12700000000E+01 0.  1.
          2    1    1    2  503    0  0.14989753771E+02  0.71166042964E+02 -0.14986900117E+04  0.15004536146E+04  0.00000000000E+00 0. -1.
         -3    1    1    2    0  501  0.38430307547E+02 -0.61995661231E+02  0.14626339226E+03  0.16344213186E+03  0.00000000000E+00 0.  1.
<mgrwt>
<rscale>  0 0.64186867E+02</rscale>
<asrwt>0</asrwt>
<pdfrwt beam="2">  1        2 0.23428319E+00 0.72727563E+02</pdfrwt>
<pdfrwt beam="1">  1       -3 0.72594066E-01 0.56649141E+02</pdfrwt>
<totfact> 0.16140066E+01</totfact>
</mgrwt>
</event>
<event>
 7    1  0.3113151E-004  0.6212673E+02  0.7546771E-02  0.1525060E+00
         -1   -1    0    0    0  501 -0.00000000000E+00  0.00000000000E+00  0.50118727929E+01  0.50118727929E+01  0.00000000000E+00 0.  1.
          2   -1    0    0  503    0  0.00000000000E+00 -0.00000000000E+00 -0.26901546424E+04  0.26901546424E+04  0.00000000000E+00 0. -1.
         25    2    1    2    0    0 -0.69724392269E+01 -0.48034862229E+02 -0.17697260513E+04  0.17747986806E+04  0.12499638727E+03 0.  0.
          4    1    3    3  502    0  0.32480128494E+02 -0.15168063544E+02 -0.14892265369E+03  0.15318158695E+03  0.12700000000E+01 0. -1.
         -4    1    3    3    0  502 -0.39452567721E+02 -0.32866798686E+02 -0.16208033977E+04  0.16216170936E+04  0.12700000000E+01 0. -1.
          2    1    1    2  503    0  0.14478353632E+02  0.69773486445E+02 -0.74633809620E+03  0.74973229620E+03  0.00000000000E+00 0. -1.
         -1    1    1    2    0  501 -0.75059144055E+01 -0.21738624216E+02 -0.16907862208E+03  0.17063553844E+03  0.00000000000E+00 0.  1.
<mgrwt>
<rscale>  0 0.37799320E+02</rscale>
<asrwt>0</asrwt>
<pdfrwt beam="2">  1        2 0.41387054E+00 0.62126733E+02</pdfrwt>
<pdfrwt beam="1">  1       -1 0.77105625E-03 0.22997968E+02</pdfrwt>
<totfact> 0.77127947E+03</totfact>
</mgrwt>
</event>
<event>
 7    1  0.3113151E-004  0.7504254E+02  0.7546771E-02  0.1364944E+00
         -1   -1    0    0    0  501 -0.00000000000E+00  0.00000000000E+00  0.29435983104E+02  0.29435983104E+02  0.00000000000E+00 0.  1.
          2   -1    0    0  503    0  0.00000000000E+00 -0.00000000000E+00 -0.78268144976E+03  0.78268144976E+03  0.00000000000E+00 0. -1.
         25    2    1    2    0    0 -0.21051940346E+01  0.10524738429E+03 -0.32676880512E+03  0.36535631702E+03  0.12500377053E+03 0.  0.
          4    1    3    3  502    0 -0.27009215839E+02  0.12568407200E+03 -0.23179816814E+03  0.26506223298E+03  0.12700000000E+01 0.  1.
         -4    1    3    3    0  502  0.24904021804E+02 -0.20436687712E+02 -0.94970636978E+02  0.10029408405E+03  0.12700000000E+01 0.  1.
          2    1    1    2  503    0  0.41685414424E+02 -0.56622014006E+02 -0.21763688772E+03  0.22871279182E+03  0.00000000000E+00 0. -1.
         -1    1    1    2    0  501 -0.39580220389E+02 -0.48625370286E+02 -0.20883977382E+03  0.21804832402E+03  0.00000000000E+00 0.  1.
<mgrwt>
<rscale>  0 0.68593044E+02</rscale>
<asrwt>0</asrwt>
<pdfrwt beam="2">  1        2 0.12041254E+00 0.75042535E+02</pdfrwt>
<pdfrwt beam="1">  1       -1 0.45286126E-02 0.62697851E+02</pdfrwt>
<totfact> 0.77257927E+03</totfact>
</mgrwt>
</event>
<event>
 7    1  0.3113151E-004  0.1718022E+03  0.7546771E-02  0.1229818E+00
          1   -1    0    0  503    0  0.00000000000E+00  0.00000000000E+00  0.86096920022E+03  0.86096920022E+03  0.00000000000E+00 0. -1.
         -2   -1    0    0    0  501 -0.00000000000E+00 -0.00000000000E+00 -0.54426596771E+03  0.54426596771E+03  0.00000000000E+00 0.  1.
         25    2    1    2    0    0 -0.41929508839E+02 -0.24976499720E+03  0.15071674587E+02  0.28283125721E+03  0.12500290853E+03 0.  0.
          4    1    3    3  502    0  0.20914985644E+02 -0.74646764281E+02  0.51718814486E+02  0.93198845025E+02  0.12700000000E+01 0. -1.
         -4    1    3    3    0  502 -0.62844494483E+02 -0.17511823292E+03 -0.36647139899E+02  0.18963241219E+03  0.12700000000E+01 0. -1.
          1    1    1    2  503    0  0.41436752539E+02  0.86589835014E+02  0.69235395942E+03  0.69897697323E+03  0.00000000000E+00 0. -1.
         -2    1    1    2    0  501  0.49275629996E+00  0.16317516219E+03 -0.39072240149E+03  0.42342693749E+03  0.00000000000E+00 0.  1.
<mgrwt>
<rscale>  0 0.12842096E+03</rscale>
<asrwt>0</asrwt>
<pdfrwt beam="1">  1        1 0.13245680E+00 0.95993771E+02</pdfrwt>
<pdfrwt beam="2">  1       -2 0.83733226E-01 0.17180222E+03</pdfrwt>
<totfact> 0.25171338E+01</totfact>
</mgrwt>
</event>
<event>
 7    1  0.3113151E-004  0.4941695E+02  0.7546771E-02  0.1466355E+00
          1   -1    0    0  503    0  0.00000000000E+00  0.00000000000E+00  0.16478640756E+03  0.16478640756E+03  0.00000000000E+00 0. -1.
         -2   -1    0    0    0  501 -0.00000000000E+00 -0.00000000000E+00 -0.88397242637E+02  0.88397242637E+02  0.00000000000E+00 0.  1.
         25    2    1    2    0    0 -0.43421670275E+02  0.30673186015E+02  0.12798943380E+02  0.13643743144E+03  0.12500029582E+03 0.  0.
          4    1    3    3  502    0  0.17438858618E+02 -0.26611604120E+02  0.37576301638E+02  0.49253249726E+02  0.12700000000E+01 0.  1.
         -4    1    3    3    0  502 -0.60860528893E+02  0.57284790136E+02 -0.24777358258E+02  0.87184181709E+02  0.12700000000E+01 0.  1.
          1    1    1    2  503    0  0.36650313224E+02  0.23224359380E+02  0.24568836193E+02  0.49862250650E+02  0.00000000000E+00 0. -1.
         -2    1    1    2    0  501  0.67713570517E+01 -0.53897545395E+02  0.39021385352E+02  0.66883968114E+02  0.00000000000E+00 0.  1.
<mgrwt>
<rscale>  0 0.46305057E+02</rscale>
<asrwt>0</asrwt>
<pdfrwt beam="1">  1        1 0.25351755E-01 0.43389127E+02</pdfrwt>
<pdfrwt beam="2">  1       -2 0.13599576E-01 0.49416950E+02</pdfrwt>
<totfact> 0.57662703E+03</totfact>
</mgrwt>
</event>
<event>
 7    1  0.3113151E-004  0.5827437E+02  0.7546771E-02  0.1531578E+00
          1   -1    0    0  503    0 -0.00000000000E+00  0.00000000000E+00  0.13432879012E+03  0.13432879012E+03  0.00000000000E+00 0. -1.
          2   -1    0    0  502    0  0.00000000000E+00 -0.00000000000E+00 -0.68851313067E+03  0.68851313067E+03  0.00000000000E+00 0. -1.
         25    2    1    2    0    0 -0.52037822058E+02  0.86015635498E+01 -0.47372989678E+02  0.14371283351E+03  0.12500902586E+03 0.  0.
          4    1    3    3  501    0  0.35594108729E+02 -0.96720932283E+00 -0.42439439143E+02  0.55412949433E+02  0.12700000000E+01 0. -1.
         -4    1    3    3    0  501 -0.87631930787E+02  0.95687728726E+01 -0.49335505352E+01  0.88299884081E+02  0.12700000000E+01 0. -1.
          2    1    1    2  502    0  0.56772677688E+02  0.14400348193E+02 -0.58989225512E+03  0.59279286400E+03  0.00000000000E+00 0. -1.
          1    1    1    2  503    0 -0.47348556293E+01 -0.23001911742E+02  0.83080904238E+02  0.86336223282E+02  0.00000000000E+00 0. -1.
<mgrwt>
<rscale>  0 0.36993591E+02</rscale>
<asrwt>0</asrwt>
<pdfrwt beam="2">  1        2 0.10592510E+00 0.58274366E+02</pdfrwt>
<pdfrwt beam="1">  1        1 0.20665967E-01 0.23484182E+02</pdfrwt>
<totfact> 0.13569809E+03</totfact>
</mgrwt>
</event>
<event>
 7    1  0.3113151E-004  0.5394136E+02  0.7546771E-02  0.1549883E+00
         -1   -1    0    0    0  501 -0.00000000000E+00  0.00000000000E+00  0.33195568560E+03  0.33195568560E+03  0.00000000000E+00 0. -1.
          1   -1    0    0  503    0  0.00000000000E+00 -0.00000000000E+00 -0.30677299720E+03  0.30677299720E+03  0.00000000000E+00 0. -1.
         25    2    1    2    0    0 -0.87054700745E+01  0.34597828338E+02  0.33342607908E+01  0.13003225084E+03  0.12499789610E+03 0.  0.
          4    1    3    3  502    0 -0.11721781067E+01  0.80393910390E+02  0.15819782992E+02  0.81953848373E+02  0.12700000000E+01 0. -1.
         -4    1    3    3    0  502 -0.75332919678E+01 -0.45796082051E+02 -0.12485522201E+02  0.48078402467E+02  0.12700000000E+01 0. -1.
          1    1    1    2  503    0 -0.11840919896E+01 -0.54833938242E+02 -0.23984468162E+03  0.24603583917E+03  0.00000000000E+00 0. -1.
         -1    1    1    2    0  501  0.98895620641E+01  0.20236109903E+02  0.26169310923E+03  0.26266059278E+03  0.00000000000E+00 0. -1.
<mgrwt>
<rscale>  0 0.34856030E+02</rscale>
<asrwt>0</asrwt>
<pdfrwt beam="2">  1        1 0.47195846E-01 0.53941359E+02</pdfrwt>
<pdfrwt beam="1">  1       -1 0.51070106E-01 0.22523401E+02</pdfrwt>
<totfact> 0.34327721E+02</totfact>
</mgrwt>
</event>
<event>
 7    1  0.3113151E-004  0.2663937E+03  0.7546771E-02  0.1171775E+00
          2   -1    0    0  503    0  0.00000000000E+00  0.00000000000E+00  0.37737817991E+04  0.37737817991E+04  0.00000000000E+00 0. -1.
          2   -1    0    0  502    0 -0.00000000000E+00 -0.00000000000E+00 -0.13505141141E+04  0.13505141141E+04  0.00000000000E+00 0.  1.
         25    2    1    2    0    0 -0.86940236803E+02 -0.23096613713E+03  0.10001429700E+04  0.10376959704E+04  0.12499202045E+03 0.  0.
          4    1    3    3  501    0 -0.93778613873E+02 -0.75602777521E+02  0.47214373918E+03  0.48726946522E+03  0.12700000000E+01 0.  1.
         -4    1    3    3    0  501  0.68383770700E+01 -0.15536335961E+03  0.52799923084E+03  0.55042650515E+03  0.12700000000E+01 0.  1.
          2    1    1    2  502    0 -0.11141498916E+03  0.33077913252E+02 -0.13220575032E+04  0.13271561664E+04  0.00000000000E+00 0.  1.
          2    1    1    2  503    0  0.19835522596E+03  0.19788822388E+03  0.27451822181E+04  0.27594437764E+04  0.00000000000E+00 0. -1.
<mgrwt>
<rscale>  0 0.17595649E+03</rscale>
<asrwt>0</asrwt>
<pdfrwt beam="1">  1        2 0.58058181E+00 0.26639369E+03</pdfrwt>
<pdfrwt beam="2">  1        2 0.20777140E+00 0.11622155E+03</pdfrwt>
<totfact> 0.18087624E+00</totfact>
</mgrwt>
</event>
<event>
 7    1  0.3113151E-004  0.3774694E+02  0.7546771E-02  0.1539152E+00
          1   -1    0    0  503    0  0.00000000000E+00  0.00000000000E+00  0.68053054909E+03  0.68053054909E+03  0.00000000000E+00 0. -1.
         -1   -1    0    0    0  501 -0.00000000000E+00 -0.00000000000E+00 -0.21329536030E+02  0.21329536030E+02  0.00000000000E+00 0.  1.
         25    2    1    2    0    0  0.41231386692E+02  0.61889769401E+01  0.26272660495E+03  0.29391845301E+03  0.12499782953E+03 0.  0.
          4    1    3    3  502    0 -0.99345662230E+01  0.15811988055E+02 -0.64140402574E+01  0.19785534734E+02  0.12700000000E+01 0. -1.
         -4    1    3    3    0  502  0.51165952915E+02 -0.96230111148E+01  0.26914064521E+03  0.27413291828E+03  0.12700000000E+01 0. -1.
          1    1    1    2  503    0 -0.19636751149E+02 -0.33095546192E+02  0.33695910547E+03  0.33914945957E+03  0.00000000000E+00 0. -1.
         -1    1    1    2    0  501 -0.21594635543E+02  0.26906569252E+02  0.59515302644E+02  0.68792172534E+02  0.00000000000E+00 0.  1.
<mgrwt>
<rscale>  0 0.36087286E+02</rscale>
<asrwt>0</asrwt>
<pdfrwt beam="1">  1        1 0.10469699E+00 0.37746939E+02</pdfrwt>
<pdfrwt beam="2">  1       -1 0.32814676E-02 0.34500605E+02</pdfrwt>
<totfact> 0.82725485E+03</totfact>
</mgrwt>
</event>
<event>
 7    1  0.3113151E-004  0.2008084E+03  0.7546771E-02  0.1345766E+00
          2   -1    0    0  502    0  0.00000000000E+00  0.00000000000E+00  0.28915329036E+04  0.28915329036E+04  0.00000000000E+00 0. -1.
          2   -1    0    0  503    0 -0.00000000000E+00 -0.00000000000E+00 -0.91574809058E+02  0.91574809058E+02  0.00000000000E+00 0. -1.
         25    2    1    2    0    0 -0.82848053716E+02  0.18074589942E+03  0.18741955217E+04  0.18888548735E+04  0.12502399517E+03 0.  0.
          4    1    3    3  501    0 -0.25817492614E+02  0.75345304953E+01  0.63139167687E+02  0.68640217591E+02  0.12700000000E+01 0.  1.
         -4    1    3    3    0  501 -0.57030561101E+02  0.17321136893E+03  0.18110563540E+04  0.18202146559E+04  0.12700000000E+01 0.  1.
          2    1    1    2  502    0  0.59739094786E+02 -0.19576188081E+03  0.99704102781E+03  0.10178321495E+04  0.00000000000E+00 0. -1.
          2    1    1    2  503    0  0.23108958929E+02  0.15015981388E+02 -0.71278454924E+02  0.76420689713E+02  0.00000000000E+00 0. -1.
<mgrwt>
<rscale>  0 0.74391511E+02</rscale>
<asrwt>0</asrwt>
<pdfrwt beam="1">  1        2 0.44485115E+00 0.20080837E+03</pdfrwt>
<pdfrwt beam="2">  1        2 0.14088434E-01 0.27559094E+02</pdfrwt>
<totfact> 0.14502272E+02</totfact>
</mgrwt>
</event>
<event>
 7    1  0.3113151E-004  0.5736142E+02  0.7546771E-02  0.1470125E+00
          1   -1    0    0  503    0  0.00000000000E+00  0.00000000000E+00  0.20204464944E+04  0.20204464944E+04  0.00000000000E+00 0. -1.
         -2   -1    0    0    0  501 -0.00000000000E+00 -0.00000000000E+00 -0.21614802242E+03  0.21614802242E+03  0.00000000000E+00 0.  1.
         25    2    1    2    0    0 -0.35769205531E+02  0.81138381374E+02  0.61386470581E+02  0.16509742103E+03  0.12500394660E+03 0.  0.
          4    1    3    3  502    0 -0.33676747460E+02  0.10284680238E+03  0.81437409227E+02  0.13544464774E+03  0.12700000000E+01 0.  1.
         -4    1    3    3    0  502 -0.20924580713E+01 -0.21708421008E+02 -0.20050938646E+02  0.29652773294E+02  0.12700000000E+01 0.  1.
          1    1    1    2  503    0  0.25489662992E+02 -0.25959564152E+02  0.19022316841E+04  0.19025795652E+04  0.00000000000E+00 0. -1.
         -2    1    1    2    0  501  0.10279542539E+02 -0.55178817223E+02 -0.15931968267E+03  0.16891753063E+03  0.00000000000E+00 0.  1.
<mgrwt>
<rscale>  0 0.45682613E+02</rscale>
<asrwt>0</asrwt>
<pdfrwt beam="1">  1        1 0.31083791E+00 0.36381615E+02</pdfrwt>
<pdfrwt beam="2">  1       -2 0.33253543E-01 0.57361422E+02</pdfrwt>
<totfact> 0.30859410E+01</totfact>
</mgrwt>
</event>
<event>
 7    1  0.3113151E-004  0.4454685E+02  0.7546771E-02  0.1507355E+00
          1   -1    0    0  503    0  0.00000000000E+00  0.00000000000E+00  0.77750460757E+03  0.77750460757E+03  0.00000000000E+00 0. -1.
          1   -1    0    0  502    0 -0.00000000000E+00 -0.00000000000E+00 -0.26358362059E+03  0.26358362059E+03  0.00000000000E+00 0. -1.
         25    2    1    2    0    0 -0.69637695195E+02 -0.13974971173E+02 -0.19101950889E+03  0.23907930410E+03  0.12500300980E+03 0.  0.
          4    1    3    3  501    0 -0.10173214378E+03 -0.27345616634E+02 -0.11794367873E+03  0.15814403586E+03  0.12700000000E+01 0.  1.
         -4    1    3    3    0  501  0.32094448585E+02  0.13370645461E+02 -0.73075830166E+02  0.80935268236E+02  0.12700000000E+01 0.  1.
          1    1    1    2  502    0  0.37032878051E+02 -0.15839386511E+01 -0.40955508279E+02  0.55238542493E+02  0.00000000000E+00 0. -1.
          1    1    1    2  503    0  0.32604817144E+02  0.15558909824E+02  0.74589600415E+03  0.74677038157E+03  0.00000000000E+00 0. -1.
<mgrwt>
<rscale>  0 0.40116582E+02</rscale>
<asrwt>0</asrwt>
<pdfrwt beam="1">  1        1 0.11961609E+00 0.36126912E+02</pdfrwt>
<pdfrwt beam="2">  1        1 0.40551326E-01 0.44546850E+02</pdfrwt>
<totfact> 0.32517425E+02</totfact>
</mgrwt>
</event>
<event>
 7    1  0.3113151E-004  0.6870833E+02  0.7546771E-02  0.1419253E+00
          1   -1    0    0  503    0  0.00000000000E+00  0.00000000000E+00  0.72692847812E+03  0.72692847812E+03  0.00000000000E+00 0. -1.
          1   -1    0    0  502    0 -0.00000000000E+00 -0.00000000000E+00 -0.72169813330E+02  0.72169813330E+02  0.00000000000E+00 0. -1.
         25    2    1    2    0    0 -0.54933823580E+02  0.48196094827E+02  0.74179851001E+02  0.16270722682E+03  0.12502160948E+03 0.  0.
          4    1    3    3  501    0 -0.50383676865E+02 -0.33130487716E+02  0.15392801657E+02  0.62247050963E+02  0.12700000000E+01 0.  1.
         -4    1    3    3    0  501 -0.45501467146E+01  0.81326582543E+02  0.58787049344E+02  0.10046017586E+03  0.12700000000E+01 0.  1.
          1    1    1    2  502    0  0.39902238538E+02  0.19275969344E+02 -0.69097031367E+01  0.44849700467E+02  0.00000000000E+00 0. -1.
          1    1    1    2  503    0  0.15031585042E+02 -0.67472064170E+02  0.58748851692E+03  0.59154136416E+03  0.00000000000E+00 0. -1.
<mgrwt>
<rscale>  0 0.55179318E+02</rscale>
<asrwt>0</asrwt>
<pdfrwt beam="1">  1        1 0.11183515E+00 0.68708329E+02</pdfrwt>
<pdfrwt beam="2">  1        1 0.11103049E-01 0.44314237E+02</pdfrwt>
<totfact> 0.16892316E+03</totfact>
</mgrwt>
</event>
<event>
 7    1  0.3113151E-004  0.7657331E+02  0.7546771E-02  0.1486049E+00
          1   -1    0    0  503    0 -0.00000000000E+00  0.00000000000E+00  0.16196359892E+04  0.16196359892E+04  0.00000000000E+00 0. -1.
          2   -1    0    0  502    0  0.00000000000E+00 -0.00000000000E+00 -0.16476299565E+03  0.16476299565E+03  0.00000000000E+00 0. -1.
         25    2    1    2    0    0 -0.48257891955E+02  0.60254874117E+02  0.46635054762E+02  0.15413435896E+03  0.12499239292E+03 0.  0.
          4    1    3    3  501    0 -0.25780898004E+02 -0.32582779570E+02 -0.10433899001E+02  0.42857570799E+02  0.12700000000E+01 0.  1.
         -4    1    3    3    0  501 -0.22476993951E+02  0.92837653687E+02  0.57068953763E+02  0.11127678816E+03  0.12700000000E+01 0.  1.
          2    1    1    2  502    0  0.64432012982E+02 -0.42056838410E+02 -0.97570786460E+02  0.12425908548E+03  0.00000000000E+00 0. -1.
          1    1    1    2  503    0 -0.16174121027E+02 -0.18198035707E+02  0.15058087253E+04  0.15060055404E+04  0.00000000000E+00 0. -1.
<mgrwt>
<rscale>  0 0.43177788E+02</rscale>
<asrwt>0</asrwt>
<pdfrwt beam="2">  1        2 0.25348154E-01 0.76573311E+02</pdfrwt>
<pdfrwt beam="1">  1        1 0.24917476E+00 0.24346883E+02</pdfrwt>
<totfact> 0.21545464E+02</totfact>
</mgrwt>
</event>
<event>
 7    1  0.3113151E-004  0.4729352E+02  0.7546771E-02  0.1486766E+00
         -1   -1    0    0    0  501 -0.00000000000E+00  0.00000000000E+00  0.12953266767E+02  0.12953266767E+02  0.00000000000E+00 0.  1.
          2   -1    0    0  503    0  0.00000000000E+00 -0.00000000000E+00 -0.12123089281E+04  0.12123089281E+04  0.00000000000E+00 0. -1.
         25    2    1    2    0    0  0.30316314225E+02 -0.36647989116E+02 -0.93933966887E+03  0.94881305917E+03  0.12500021494E+03 0.  0.
          4    1    3    3  502    0  0.28891368250E+00 -0.40468515068E+02 -0.88995805356E+03  0.89087863044E+03  0.12700000000E+01 0.  1.
         -4    1    3    3    0  502  0.30027400542E+02  0.38205259516E+01 -0.49381615307E+02  0.57934428730E+02  0.12700000000E+01 0.  1.
          2    1    1    2  503    0  0.46259053500E+01  0.54465654771E+02 -0.14960490929E+03  0.15927816999E+03  0.00000000000E+00 0. -1.
         -1    1    1    2    0  501 -0.34942219575E+02 -0.17817665655E+02 -0.11041108322E+03  0.11717096575E+03  0.00000000000E+00 0.  1.
<mgrwt>
<rscale>  0 0.43069528E+02</rscale>
<asrwt>0</asrwt>
<pdfrwt beam="2">  1        2 0.18650912E+00 0.47293522E+02</pdfrwt>
<pdfrwt beam="1">  1       -1 0.19928097E-02 0.39222798E+02</pdfrwt>
<totfact> 0.13336602E+04</totfact>
</mgrwt>
</event>
<event>
 7    1  0.3113151E-004  0.6766078E+02  0.7546771E-02  0.1514245E+00
         -2   -1    0    0    0  501 -0.00000000000E+00  0.00000000000E+00  0.13094385817E+03  0.13094385817E+03  0.00000000000E+00 0.  1.
          2   -1    0    0  503    0  0.00000000000E+00 -0.00000000000E+00 -0.11670932408E+03  0.11670932408E+03  0.00000000000E+00 0. -1.
         25    2    1    2    0    0  0.37064489547E+01  0.56730801593E+02 -0.15012987405E+02  0.13814669113E+03  0.12500798721E+03 0.  0.
          4    1    3    3  502    0 -0.22858686035E+02  0.84302761135E+01 -0.61413781426E+02  0.66082180137E+02  0.12700000000E+01 0.  1.
         -4    1    3    3    0  502  0.26565134990E+02  0.48300525480E+02  0.46400794021E+02  0.72064510991E+02  0.12700000000E+01 0.  1.
          2    1    1    2  503    0  0.10626866586E+02 -0.74335093919E+02  0.34887944487E+01  0.75171857554E+02  0.00000000000E+00 0. -1.
         -2    1    1    2    0  501 -0.14333315541E+02  0.17604292326E+02  0.25758727056E+02  0.34334633568E+02  0.00000000000E+00 0.  1.
<mgrwt>
<rscale>  0 0.39191794E+02</rscale>
<asrwt>0</asrwt>
<pdfrwt beam="2">  1        2 0.17955281E-01 0.67660783E+02</pdfrwt>
<pdfrwt beam="1">  1       -2 0.20145209E-01 0.22701433E+02</pdfrwt>
<totfact> 0.55304511E+03</totfact>
</mgrwt>
</event>
<event>
 7    1  0.3113151E-004  0.6804266E+02  0.7546771E-02  0.1443896E+00
          1   -1    0    0  503    0 -0.00000000000E+00  0.00000000000E+00  0.97711278892E+02  0.97711278892E+02  0.00000000000E+00 0. -1.
          2   -1    0    0  502    0  0.00000000000E+00 -0.00000000000E+00 -0.15782826268E+04  0.15782826268E+04  0.00000000000E+00 0. -1.
         25    2    1    2    0    0  0.33552097967E+02  0.47961550081E+02 -0.13652351867E+04  0.13721948072E+04  0.12500168216E+03 0.  0.
          4    1    3    3  501    0  0.50913230884E+02 -0.17670586785E+02 -0.94255957124E+03  0.94409987022E+03  0.12700000000E+01 0. -1.
         -4    1    3    3    0  501 -0.17361132917E+02  0.65632136867E+02 -0.42267561543E+03  0.42809493702E+03  0.12700000000E+01 0. -1.
          2    1    1    2  502    0 -0.31155977770E+02  0.20212392020E+02 -0.19523781918E+03  0.19873862680E+03  0.00000000000E+00 0. -1.
          1    1    1    2  503    0 -0.23961201968E+01 -0.68173942101E+02  0.79901657910E+02  0.10506047168E+03  0.00000000000E+00 0. -1.
<mgrwt>
<rscale>  0 0.50269003E+02</rscale>
<asrwt>0</asrwt>
<pdfrwt beam="2">  1        2 0.24281269E+00 0.37138063E+02</pdfrwt>
<pdfrwt beam="1">  1        1 0.15032506E-01 0.68042662E+02</pdfrwt>
<totfact> 0.70029224E+02</totfact>
</mgrwt>
</event>
<event>
 7    1  0.3113151E-004  0.3501275E+02  0.7546771E-02  0.1550671E+00
          1   -1    0    0  503    0  0.00000000000E+00  0.00000000000E+00  0.10508252054E+03  0.10508252054E+03  0.00000000000E+00 0. -1.
         -2   -1    0    0    0  501 -0.00000000000E+00 -0.00000000000E+00 -0.11277260948E+03  0.11277260948E+03  0.00000000000E+00 0.  1.
         25    2    1    2    0    0 -0.10495802705E+02  0.22446954990E+02 -0.29699775840E+02  0.13084288052E+03  0.12499502004E+03 0.  0.
          4    1    3    3  502    0 -0.12505919234E+02  0.66764953916E+02  0.13096201444E+02  0.69188730871E+02  0.12700000000E+01 0.  1.
         -4    1    3    3    0  502  0.20101165281E+01 -0.44317998926E+02 -0.42795977284E+02  0.61654149649E+02  0.12700000000E+01 0.  1.
          1    1    1    2  503    0 -0.30539843514E+02 -0.17123399627E+02  0.28475860089E+02  0.45130560206E+02  0.00000000000E+00 0. -1.
         -2    1    1    2    0  501  0.41035646220E+02 -0.53235553630E+01 -0.64661731940E+01  0.41881689294E+02  0.00000000000E+00 0.  1.
<mgrwt>
<rscale>  0 0.34767979E+02</rscale>
<asrwt>0</asrwt>
<pdfrwt beam="1">  1        1 0.16166542E-01 0.35012753E+02</pdfrwt>
<pdfrwt beam="2">  1       -2 0.17349632E-01 0.34524917E+02</pdfrwt>
<totfact> 0.65495718E+03</totfact>
</mgrwt>
</event>
<event>
 7    1  0.3113151E-004  0.6243796E+02  0.7546771E-02  0.1476341E+00
         -1   -1    0    0    0  501 -0.00000000000E+00  0.00000000000E+00  0.30707864054E+02  0.30707864054E+02  0.00000000000E+00 0.  1.
          1   -1    0    0  503    0  0.00000000000E+00 -0.00000000000E+00 -0.46406685675E+03  0.46406685675E+03  0.00000000000E+00 0. -1.
         25    2    1    2    0    0 -0.43181507520E+02 -0.26521221833E+02 -0.25276577160E+03  0.28650143677E+03  0.12499808071E+03 0.  0.
          4    1    3    3  502    0  0.12533191100E+02  0.40544439084E+02 -0.12333316335E+03  0.13043624689E+03  0.12700000000E+01 0. -1.
         -4    1    3    3    0  502 -0.55714698620E+02 -0.67065660917E+02 -0.12943260825E+03  0.15606518989E+03  0.12700000000E+01 0. -1.
          1    1    1    2  503    0  0.69341965111E+02  0.81364847885E+01 -0.14135473106E+03  0.15765681243E+03  0.00000000000E+00 0. -1.
         -1    1    1    2    0  501 -0.26160457591E+02  0.18384737044E+02 -0.39238490033E+02  0.50616471604E+02  0.00000000000E+00 0.  1.
<mgrwt>
<rscale>  0 0.44681339E+02</rscale>
<asrwt>0</asrwt>
<pdfrwt beam="2">  1        1 0.71394890E-01 0.62437962E+02</pdfrwt>
<pdfrwt beam="1">  1       -1 0.47242875E-02 0.31974491E+02</pdfrwt>
<totfact> 0.79069286E+03</totfact>
</mgrwt>
</event>
<event>
 7    1  0.3113151E-004  0.7335150E+02  0.7546771E-02  0.1380726E+00
          2   -1    0    0  503    0  0.00000000000E+00  0.00000000000E+00  0.19841772661E+04  0.19841772661E+04  0.00000000000E+00 0. -1.
          2   -1    0    0  502    0 -0.00000000000E+00 -0.00000000000E+00 -0.91727642699E+02  0.91727642699E+02  0.00000000000E+00 0. -1.
         25    2    1    2    0    0  0.46745576167E+02  0.69722147448E+02  0.92889110072E+02  0.17691767843E+03  0.12500060574E+03 0.  0.
          4    1    3    3  501    0  0.15616023982E+02  0.10038012631E+03  0.42269947121E+02  0.11003813563E+03  0.12700000000E+01 0.  1.
         -4    1    3    3    0  501  0.31129552185E+02 -0.30657978864E+02  0.50619162951E+02  0.66879542800E+02  0.12700000000E+01 0.  1.
          2    1    1    2  502    0  0.94019215690E+01 -0.74112295547E+02 -0.20963844942E+02  0.77591953676E+02  0.00000000000E+00 0. -1.
          2    1    1    2  503    0 -0.56147497736E+02  0.43901480996E+01  0.18205243582E+04  0.18213952766E+04  0.00000000000E+00 0. -1.
<mgrwt>
<rscale>  0 0.64273426E+02</rscale>
<asrwt>0</asrwt>
<pdfrwt beam="1">  1        2 0.30525801E+00 0.56318868E+02</pdfrwt>
<pdfrwt beam="2">  1        2 0.14111946E-01 0.73351497E+02</pdfrwt>
<totfact> 0.54660807E+02</totfact>
</mgrwt>
</event>
<event>
 7    1  0.3113151E-004  0.1157731E+03  0.7546771E-02  0.1364475E+00
          2   -1    0    0  502    0  0.00000000000E+00  0.00000000000E+00  0.76019084946E+02  0.76019084946E+02  0.00000000000E+00 0. -1.
          1   -1    0    0  503    0 -0.00000000000E+00 -0.00000000000E+00 -0.22802731924E+04  0.22802731924E+04  0.00000000000E+00 0. -1.
         25    2    1    2    0    0  0.54977865639E+01  0.11160744817E+03 -0.11809658888E+04  0.11928082525E+04  0.12499859411E+03 0.  0.
          4    1    3    3  501    0  0.55945593768E+02  0.90951322039E+02 -0.61310798294E+03  0.62233838391E+03  0.12700000000E+01 0. -1.
         -4    1    3    3    0  501 -0.50447807204E+02  0.20656126134E+02 -0.56785790586E+03  0.57046986857E+03  0.12700000000E+01 0. -1.
          2    1    1    2  502    0  0.35291984015E+02 -0.11072758021E+03  0.21255654265E+02  0.11814365829E+03  0.00000000000E+00 0. -1.
          1    1    1    2  503    0 -0.40789770579E+02 -0.87986796332E+00 -0.10445438729E+04  0.10453403666E+04  0.00000000000E+00 0. -1.
<mgrwt>
<rscale>  0 0.68727417E+02</rscale>
<asrwt>0</asrwt>
<pdfrwt beam="1">  1        2 0.11695247E-01 0.11577313E+03</pdfrwt>
<pdfrwt beam="2">  1        1 0.35081116E+00 0.40799259E+02</pdfrwt>
<totfact> 0.19733472E+02</totfact>
</mgrwt>
</event>
<event>
 7    1  0.3113151E-004  0.4171408E+02  0.7546771E-02  0.1527748E+00
         -2   -1    0    0    0  501 -0.00000000000E+00  0.00000000000E+00  0.13508301278E+02  0.13508301278E+02  0.00000000000E+00 0.  1.
          1   -1    0    0  503    0  0.00000000000E+00 -0.00000000000E+00 -0.89061992014E+03  0.89061992014E+03  0.00000000000E+00 0. -1.
         25    2    1    2    0    0  0.21360619082E+02 -0.28610821871E+02 -0.49577961640E+03  0.51253853625E+03  0.12499387159E+03 0.  0.
          4    1    3    3  502    0  0.71819882194E+02 -0.96008851073E+00 -0.25049140138E+03  0.26058889522E+03  0.12700000000E+01 0.  1.
         -4    1    3    3    0  502 -0.50459263112E+02 -0.27650733360E+02 -0.24528821502E+03  0.25194964103E+03  0.12700000000E+01 0.  1.
          1    1    1    2  503    0  0.85001814813E+01  0.44117593748E+02 -0.30333961963E+03  0.30664888716E+03  0.00000000000E+00 0. -1.
         -2    1    1    2    0  501 -0.29860800563E+02 -0.15506771877E+02 -0.77992382840E+02  0.84940798003E+02  0.00000000000E+00 0.  1.
<mgrwt>
<rscale>  0 0.37464087E+02</rscale>
<asrwt>0</asrwt>
<pdfrwt beam="2">  1        1 0.13701846E+00 0.41714079E+02</pdfrwt>
<pdfrwt beam="1">  1       -2 0.20782000E-02 0.33647101E+02</pdfrwt>
<totfact> 0.10470839E+04</totfact>
</mgrwt>
</event>
<event>
 7    1  0.3113151E-004  0.1672982E+03  0.7546771E-02  0.1288161E+00
         -1   -1    0    0    0  501 -0.00000000000E+00  0.00000000000E+00  0.29855620533E+03  0.29855620533E+03  0.00000000000E+00 0.  1.
          2   -1    0    0  503    0  0.00000000000E+00 -0.00000000000E+00 -0.63913181176E+03  0.63913181176E+03  0.00000000000E+00 0. -1.
         25    2    1    2    0    0  0.14645168235E+03 -0.15681810051E+03 -0.10683375515E+03  0.27032816979E+03  0.12499542485E+03 0.  0.
          4    1    3    3  502    0  0.15096329267E+03 -0.16886290391E+03 -0.79434295516E+02  0.24003336488E+03  0.12700000000E+01 0.  1.
         -4    1    3    3    0  502 -0.45116103204E+01  0.12044803400E+02 -0.27399459632E+02  0.30294804913E+02  0.12700000000E+01 0.  1.
          2    1    1    2  503    0 -0.10973233167E+03  0.11521336366E+03 -0.43258565658E+03  0.46091827264E+03  0.00000000000E+00 0. -1.
         -1    1    1    2    0  501 -0.36719350676E+02  0.41604736847E+02  0.19884380530E+03  0.20644157466E+03  0.00000000000E+00 0.  1.
<mgrwt>
<rscale>  0 0.96351259E+02</rscale>
<asrwt>0</asrwt>
<pdfrwt beam="2">  1        2 0.98327970E-01 0.16729820E+03</pdfrwt>
<pdfrwt beam="1">  1       -1 0.45931724E-01 0.55491124E+02</pdfrwt>
<totfact> 0.26301547E+02</totfact>
</mgrwt>
</event>
<event>
 7    1  0.3113151E-004  0.2108140E+03  0.7546771E-02  0.1310490E+00
          2   -1    0    0  503    0  0.00000000000E+00  0.00000000000E+00  0.89548230826E+03  0.89548230826E+03  0.00000000000E+00 0. -1.
          2   -1    0    0  502    0 -0.00000000000E+00 -0.00000000000E+00 -0.16230327831E+03  0.16230327831E+03  0.00000000000E+00 0.  1.
         25    2    1    2    0    0  0.37906604370E+02 -0.21984666344E+03  0.19765692600E+02  0.25648947489E+03  0.12500680800E+03 0.  0.
          4    1    3    3  501    0  0.77796225072E+02 -0.18190814847E+03 -0.39541113316E+00  0.19784993395E+03  0.12700000000E+01 0.  1.
         -4    1    3    3    0  501 -0.39889620702E+02 -0.37938514970E+02  0.20161103733E+02  0.58639540939E+02  0.12700000000E+01 0.  1.
          2    1    1    2  502    0  0.28892620135E+02  0.21200593337E+02 -0.18245168516E+02  0.40213614986E+02  0.00000000000E+00 0.  1.
          2    1    1    2  503    0 -0.66799224505E+02  0.19864607010E+03  0.73165850586E+03  0.76108249669E+03  0.00000000000E+00 0. -1.
<mgrwt>
<rscale>  0 0.86918454E+02</rscale>
<asrwt>0</asrwt>
<pdfrwt beam="1">  1        2 0.13776651E+00 0.21081399E+03</pdfrwt>
<pdfrwt beam="2">  1        2 0.24969736E-01 0.35836415E+02</pdfrwt>
<totfact> 0.97004782E+02</totfact>
</mgrwt>
</event>
<event>
 7    1  0.3113151E-004  0.2761356E+02  0.7546771E-02  0.1666338E+00
          1   -1    0    0  503    0  0.00000000000E+00  0.00000000000E+00  0.66584843042E+03  0.66584843042E+03  0.00000000000E+00 0. -1.
         -2   -1    0    0    0  501 -0.00000000000E+00 -0.00000000000E+00 -0.21710752134E+02  0.21710752134E+02  0.00000000000E+00 0.  1.
         25    2    1    2    0    0 -0.10504302779E+02 -0.37951506671E+02  0.50819640146E+03  0.52482333066E+03  0.12500115487E+03 0.  0.
          4    1    3    3  502    0  0.14883811070E+02 -0.24120463117E+01  0.45809553538E+03  0.45834537003E+03  0.12700000000E+01 0. -1.
         -4    1    3    3    0  502 -0.25388113849E+02 -0.35539460359E+02  0.50100866082E+02  0.66477960631E+02  0.12700000000E+01 0. -1.
          1    1    1    2  503    0 -0.99117887582E+01  0.19610652955E+02  0.13337351880E+03  0.13517143479E+03  0.00000000000E+00 0. -1.
         -2    1    1    2    0  501  0.20416091537E+02  0.18340853716E+02  0.25677580250E+01  0.27564417098E+02  0.00000000000E+00 0.  1.
<mgrwt>
<rscale>  0 0.24632463E+02</rscale>
<asrwt>0</asrwt>
<pdfrwt beam="1">  1        1 0.10243820E+00 0.21973194E+02</pdfrwt>
<pdfrwt beam="2">  1       -2 0.33401162E-02 0.27613565E+02</pdfrwt>
<totfact> 0.80702080E+03</totfact>
</mgrwt>
</event>
<event>
 7    1  0.3113151E-004  0.4177144E+02  0.7546771E-02  0.1536689E+00
          1   -1    0    0  503    0  0.00000000000E+00  0.00000000000E+00  0.12519880462E+04  0.12519880462E+04  0.00000000000E+00 0. -1.
         -1   -1    0    0    0  501 -0.00000000000E+00 -0.00000000000E+00 -0.10418373919E+02  0.10418373919E+02  0.00000000000E+00 0.  1.
         25    2    1    2    0    0  0.81345208927E+01 -0.24467278204E+01  0.50760414900E+03  0.52283686809E+03  0.12499704654E+03 0.  0.
          4    1    3    3  502    0  0.45351758690E+01  0.29251782031E+02  0.47916459766E+03  0.48007974247E+03  0.12700000000E+01 0. -1.
         -4    1    3    3    0  502  0.35993450237E+01 -0.31698509851E+02  0.28439551337E+02  0.42757125624E+02  0.12700000000E+01 0. -1.
          1    1    1    2  503    0  0.34852473629E+02  0.23025174469E+02  0.40905914138E+03  0.41118637468E+03  0.00000000000E+00 0. -1.
         -1    1    1    2    0  501 -0.42986994522E+02 -0.20578446649E+02  0.32490638188E+03  0.32838317733E+03  0.00000000000E+00 0.  1.
<mgrwt>
<rscale>  0 0.36378490E+02</rscale>
<asrwt>0</asrwt>
<pdfrwt beam="1">  1        1 0.19261343E+00 0.41771445E+02</pdfrwt>
<pdfrwt beam="2">  1       -1 0.16028277E-02 0.31681800E+02</pdfrwt>
<totfact> 0.85065890E+03</totfact>
</mgrwt>
</event>
<event>
 7    1  0.3113151E-004  0.9906296E+02  0.7546771E-02  0.1330607E+00
          2   -1    0    0  502    0  0.00000000000E+00  0.00000000000E+00  0.24237443467E+03  0.24237443467E+03  0.00000000000E+00 0. -1.
          1   -1    0    0  503    0 -0.00000000000E+00 -0.00000000000E+00 -0.14573369556E+04  0.14573369556E+04  0.00000000000E+00 0. -1.
         25    2    1    2    0    0  0.99406391763E+02  0.36904482531E+02 -0.12914361202E+03  0.20868005274E+03  0.12500288130E+03 0.  0.
          4    1    3    3  501    0  0.46099819661E+02 -0.27217889423E+02 -0.11113231524E+03  0.12336130377E+03  0.12700000000E+01 0.  1.
         -4    1    3    3    0  501  0.53306572102E+02  0.64122371954E+02 -0.18011296780E+02  0.85318748971E+02  0.12700000000E+01 0.  1.
          2    1    1    2  502    0 -0.96283494208E+02  0.26746001356E+02  0.18944023332E+03  0.21418090916E+03  0.00000000000E+00 0. -1.
          1    1    1    2  503    0 -0.31228975552E+01 -0.63650483887E+02 -0.12752591422E+04  0.12768504284E+04  0.00000000000E+00 0. -1.
<mgrwt>
<rscale>  0 0.79454326E+02</rscale>
<asrwt>0</asrwt>
<pdfrwt beam="1">  1        2 0.37288375E-01 0.99062960E+02</pdfrwt>
<pdfrwt beam="2">  1        1 0.22420568E+00 0.63727048E+02</pdfrwt>
<totfact> 0.16240900E+02</totfact>
</mgrwt>
</event>
<event>
 7    1  0.3113151E-004  0.4032338E+02  0.7546771E-02  0.1518413E+00
          1   -1    0    0  503    0 -0.00000000000E+00  0.00000000000E+00  0.11339836480E+04  0.11339836480E+04  0.00000000000E+00 0. -1.
          2   -1    0    0  502    0  0.00000000000E+00 -0.00000000000E+00 -0.24449602495E+02  0.24449602495E+02  0.00000000000E+00 0.  1.
         25    2    1    2    0    0 -0.49518625132E+02 -0.19203044617E+02  0.23245351924E+03  0.26922472451E+03  0.12500584994E+03 0.  0.
          4    1    3    3  501    0  0.30910410032E+02  0.93943141108E+01  0.15055394255E+02  0.35664890048E+02  0.12700000000E+01 0.  1.
         -4    1    3    3    0  501 -0.80429035164E+02 -0.28597358728E+02  0.21739812499E+03  0.23355983446E+03  0.12700000000E+01 0.  1.
          2    1    1    2  502    0  0.36729576450E+02 -0.15558749057E+02  0.64862955547E+02  0.76146828304E+02  0.00000000000E+00 0.  1.
          1    1    1    2  503    0  0.12789048682E+02  0.34761793675E+02  0.81221757069E+03  0.81306169766E+03  0.00000000000E+00 0. -1.
<mgrwt>
<rscale>  0 0.38646699E+02</rscale>
<asrwt>0</asrwt>
<pdfrwt beam="2">  1        2 0.37614782E-02 0.40323380E+02</pdfrwt>
<pdfrwt beam="1">  1        1 0.17445898E+00 0.37039736E+02</pdfrwt>
<totfact> 0.37973168E+03</totfact>
</mgrwt>
</event>
<event>
 7    1  0.3113151E-004  0.6734232E+02  0.7546771E-02  0.1395876E+00
          1   -1    0    0  503    0 -0.00000000000E+00  0.00000000000E+00  0.70240948529E+02  0.70240948529E+02  0.00000000000E+00 0. -1.
          2   -1    0    0  502    0  0.00000000000E+00 -0.00000000000E+00 -0.22589227564E+04  0.22589227564E+04  0.00000000000E+00 0.  1.
         25    2    1    2    0    0  0.27814687027E+02 -0.48850198895E+02 -0.83669966125E+03  0.84785104899E+03  0.12500031761E+03 0.  0.
          4    1    3    3  501    0  0.47646477758E+02  0.41606132047E+01 -0.67184368935E+03  0.67354513832E+03  0.12700000000E+01 0.  1.
         -4    1    3    3    0  501 -0.19831790731E+02 -0.53010812100E+02 -0.16485597190E+03  0.17430591067E+03  0.12700000000E+01 0.  1.
          2    1    1    2  502    0  0.39250721107E+02  0.37516648778E+02 -0.13980882269E+04  0.13991421687E+04  0.00000000000E+00 0.  1.
          1    1    1    2  503    0 -0.67065408135E+02  0.11333550116E+02  0.46106080305E+02  0.82170487205E+02  0.00000000000E+00 0. -1.
<mgrwt>
<rscale>  0 0.60468648E+02</rscale>
<asrwt>0</asrwt>
<pdfrwt beam="2">  1        2 0.34752652E+00 0.54296575E+02</pdfrwt>
<pdfrwt beam="1">  1        1 0.10806302E-01 0.67342321E+02</pdfrwt>
<totfact> 0.47723982E+02</totfact>
</mgrwt>
</event>
<event>
 7    1  0.3154200E-004  0.8591518E+02  0.7546771E-02  0.1363935E+00
         -1   -1    0    0    0  501 -0.00000000000E+00  0.00000000000E+00  0.26435935756E+02  0.26435935756E+02  0.00000000000E+00 0.  1.
          2   -1    0    0  503    0  0.00000000000E+00 -0.00000000000E+00 -0.99738912895E+03  0.99738912895E+03  0.00000000000E+00 0. -1.
         25    2    1    2    0    0  0.51526413084E+02 -0.10792671182E+03 -0.41516537799E+03  0.44976686764E+03  0.12499919111E+03 0.  0.
          4    1    3    3  502    0 -0.15030534885E+02 -0.10318189835E+03 -0.21899174489E+03  0.24255188797E+03  0.12700000000E+01 0. -1.
         -4    1    3    3    0  502  0.66556947969E+02 -0.47448134639E+01 -0.19617363310E+03  0.20721497968E+03  0.12700000000E+01 0. -1.
          2    1    1    2  503    0 -0.38958534703E+01  0.79974574434E+02 -0.41827716161E+03  0.42587192225E+03  0.00000000000E+00 0. -1.
         -1    1    1    2    0  501 -0.47630559613E+02  0.27952137384E+02 -0.13751065358E+03  0.14818627481E+03  0.00000000000E+00 0.  1.
<mgrwt>
<rscale>  0 0.68882617E+02</rscale>
<asrwt>0</asrwt>
<pdfrwt beam="2">  1        2 0.15344446E+00 0.85915182E+02</pdfrwt>
<pdfrwt beam="1">  1       -1 0.40670676E-02 0.55226734E+02</pdfrwt>
<totfact> 0.64963865E+03</totfact>
</mgrwt>
</event>
<event>
 7    1  0.3113151E-004  0.8039299E+02  0.7546771E-02  0.1422131E+00
          1   -1    0    0  503    0  0.00000000000E+00  0.00000000000E+00  0.10988895144E+03  0.10988895144E+03  0.00000000000E+00 0. -1.
         -2   -1    0    0    0  501 -0.00000000000E+00 -0.00000000000E+00 -0.26375268047E+03  0.26375268047E+03  0.00000000000E+00 0.  1.
         25    2    1    2    0    0 -0.58757712161E+02  0.97385299262E+02 -0.16726702668E+03  0.23778376470E+03  0.12500598101E+03 0.  0.
          4    1    3    3  502    0 -0.70670579742E+02  0.12120668990E+03 -0.12559566179E+03  0.18831164509E+03  0.12700000000E+01 0. -1.
         -4    1    3    3    0  502  0.11912867581E+02 -0.23821390642E+02 -0.41671364895E+02  0.49472119606E+02  0.12700000000E+01 0. -1.
          1    1    1    2  503    0  0.38775224097E+02 -0.66191670829E+02  0.43446548753E+02  0.88161544278E+02  0.00000000000E+00 0. -1.
         -2    1    1    2    0  501  0.19982488064E+02 -0.31193628434E+02 -0.30043251100E+02  0.47696322927E+02  0.00000000000E+00 0.  1.
<mgrwt>
<rscale>  0 0.54572608E+02</rscale>
<asrwt>0</asrwt>
<pdfrwt beam="1">  1        1 0.16905993E-01 0.80392993E+02</pdfrwt>
<pdfrwt beam="2">  1       -2 0.40577335E-01 0.37045138E+02</pdfrwt>
<totfact> 0.15162113E+03</totfact>
</mgrwt>
</event>
<event>
 7    1  0.3113151E-004  0.4619981E+02  0.7546771E-02  0.1487647E+00
          1   -1    0    0  503    0 -0.00000000000E+00  0.00000000000E+00  0.29114307645E+03  0.29114307645E+03  0.00000000000E+00 0. -1.
          2   -1    0    0  502    0  0.00000000000E+00 -0.00000000000E+00 -0.77023270988E+02  0.77023270988E+02  0.00000000000E+00 0. -1.
         25    2    1    2    0    0 -0.62848176918E+02 -0.12786036230E+02  0.79559699052E+02  0.16145349953E+03  0.12499644289E+03 0.  0.
          4    1    3    3  501    0 -0.24025048306E+02 -0.13554050451E+02 -0.32618746602E+02  0.42737697172E+02  0.12700000000E+01 0. -1.
         -4    1    3    3    0  501 -0.38823128612E+02  0.76801422090E+00  0.11217844565E+03  0.11871580236E+03  0.12700000000E+01 0. -1.
          2    1    1    2  502    0  0.40599475112E+02 -0.20340807228E+02 -0.18129236435E+02  0.48895143233E+02  0.00000000000E+00 0. -1.
          1    1    1    2  503    0  0.22248701805E+02  0.33126843458E+02  0.15268934284E+03  0.15781770467E+03  0.00000000000E+00 0. -1.
<mgrwt>
<rscale>  0 0.42937090E+02</rscale>
<asrwt>0</asrwt>
<pdfrwt beam="2">  1        2 0.11849734E-01 0.46199807E+02</pdfrwt>
<pdfrwt beam="1">  1        1 0.44791242E-01 0.39904793E+02</pdfrwt>
<totfact> 0.57517426E+03</totfact>
</mgrwt>
</event>
<event>
 7    1  0.3113151E-004  0.6727183E+02  0.7546771E-02  0.1449112E+00
          2   -1    0    0  502    0  0.00000000000E+00  0.00000000000E+00  0.14566571987E+04  0.14566571987E+04  0.00000000000E+00 0. -1.
          2   -1    0    0  503    0 -0.00000000000E+00 -0.00000000000E+00 -0.18730171726E+03  0.18730171726E+03  0.00000000000E+00 0. -1.
         25    2    1    2    0    0  0.55498543152E+02 -0.88617144817E+01  0.20716252486E+03  0.24839208910E+03  0.12499479966E+03 0.  0.
          4    1    3    3  501    0 -0.31734006950E+02 -0.30958906105E+02  0.92891912915E+02  0.10293697805E+03  0.12700000000E+01 0.  1.
         -4    1    3    3    0  501  0.87232550103E+02  0.22097191623E+02  0.11427061195E+03  0.14545511105E+03  0.12700000000E+01 0.  1.
          2    1    1    2  502    0 -0.62780214131E+02 -0.26537763919E+02  0.12259631152E+04  0.12278563303E+04  0.00000000000E+00 0. -1.
          2    1    1    2  503    0  0.72816709786E+01  0.35399478400E+02 -0.16377015859E+03  0.16771049653E+03  0.00000000000E+00 0. -1.
<mgrwt>
<rscale>  0 0.49307676E+02</rscale>
<asrwt>0</asrwt>
<pdfrwt beam="1">  1        2 0.22410110E+00 0.67271829E+02</pdfrwt>
<pdfrwt beam="2">  1        2 0.28815650E-01 0.36140639E+02</pdfrwt>
<totfact> 0.43407289E+02</totfact>
</mgrwt>
</event>
<event>
 7    1  0.3113151E-004  0.3431321E+02  0.7546771E-02  0.1569556E+00
          2   -1    0    0  503    0  0.00000000000E+00  0.00000000000E+00  0.15223331074E+04  0.15223331074E+04  0.00000000000E+00 0. -1.
         -1   -1    0    0    0  501 -0.00000000000E+00 -0.00000000000E+00 -0.15965494356E+02  0.15965494356E+02  0.00000000000E+00 0.  1.
         25    2    1    2    0    0 -0.28776431353E+02  0.31255454198E+02  0.67878886340E+03  0.69151072733E+03  0.12501111355E+03 0.  0.
          4    1    3    3  502    0 -0.28347556247E+02  0.49295318368E+02  0.12395516172E+03  0.13638221063E+03  0.12700000000E+01 0.  1.
         -4    1    3    3    0  502 -0.42887510617E+00 -0.18039864170E+02  0.55483370168E+03  0.55512851670E+03  0.12700000000E+01 0.  1.
          2    1    1    2  503    0  0.31091857227E+02  0.31875996052E+01  0.80484974006E+03  0.80545637278E+03  0.00000000000E+00 0. -1.
         -1    1    1    2    0  501 -0.23154258739E+01 -0.34443053804E+02  0.22729009591E+02  0.41331501658E+02  0.00000000000E+00 0.  1.
<mgrwt>
<rscale>  0 0.32748337E+02</rscale>
<asrwt>0</asrwt>
<pdfrwt beam="1">  1        2 0.23420498E+00 0.31254830E+02</pdfrwt>
<pdfrwt beam="2">  1       -1 0.24562311E-02 0.34313210E+02</pdfrwt>
<totfact> 0.70669558E+03</totfact>
</mgrwt>
</event>
<event>
 7    1  0.3113151E-004  0.1228287E+03  0.7546771E-02  0.1298193E+00
          2   -1    0    0  503    0  0.00000000000E+00  0.00000000000E+00  0.13451992529E+03  0.13451992529E+03  0.00000000000E+00 0. -1.
          2   -1    0    0  502    0 -0.00000000000E+00 -0.00000000000E+00 -0.16132129538E+04  0.16132129538E+04  0.00000000000E+00 0. -1.
         25    2    1    2    0    0  0.64637749950E+02  0.65814872940E+02 -0.33302797705E+03  0.36749020848E+03  0.12502713152E+03 0.  0.
          4    1    3    3  501    0  0.10158544141E+03  0.48118926120E+02 -0.21614736886E+03  0.24363154747E+03  0.12700000000E+01 0. -1.
         -4    1    3    3    0  501 -0.36947691461E+02  0.17695946820E+02 -0.11688060818E+03  0.12385866101E+03  0.12700000000E+01 0. -1.
          2    1    1    2  502    0 -0.36711660469E+02  0.58229966092E+02 -0.12272438414E+04  0.12291728606E+04  0.00000000000E+00 0. -1.
          2    1    1    2  503    0 -0.27926089482E+02 -0.12404483903E+03  0.81578789859E+02  0.15106981008E+03  0.00000000000E+00 0. -1.
<mgrwt>
<rscale>  0 0.91951669E+02</rscale>
<asrwt>0</asrwt>
<pdfrwt beam="1">  1        2 0.20695372E-01 0.12282872E+03</pdfrwt>
<pdfrwt beam="2">  1        2 0.24818662E+00 0.68836582E+02</pdfrwt>
<totfact> 0.53886094E+02</totfact>
</mgrwt>
</event>
<event>
 7    1  0.3113151E-004  0.1370325E+03  0.7546771E-02  0.1404837E+00
         -1   -1    0    0    0  501  0.00000000000E+00  0.00000000000E+00  0.64274575520E+03  0.64274575520E+03  0.00000000000E+00 0.  1.
         -1   -1    0    0    0  502 -0.00000000000E+00 -0.00000000000E+00 -0.24895459706E+03  0.24895459706E+03  0.00000000000E+00 0.  1.
         25    2    1    2    0    0 -0.12666179136E+03  0.22558068134E+02  0.36470312792E+02  0.18305002125E+03  0.12500060294E+03 0.  0.
          4    1    3    3  503    0 -0.14433240312E+03 -0.61831827024E+01  0.37548209020E+02  0.14927007483E+03  0.12700000000E+01 0. -1.
         -4    1    3    3    0  503  0.17670611761E+02  0.28741250836E+02 -0.10778962275E+01  0.33779946417E+02  0.12700000000E+01 0. -1.
         -1    1    1    2    0  501  0.13826727055E+03 -0.57743282415E+00  0.52307580989E+03  0.54104202649E+03  0.00000000000E+00 0.  1.
         -1    1    1    2    0  502 -0.11605479186E+02 -0.21980635310E+02 -0.16575496454E+03  0.16760830453E+03  0.00000000000E+00 0.  1.
<mgrwt>
<rscale>  0 0.58361969E+02</rscale>
<asrwt>0</asrwt>
<pdfrwt beam="1">  1       -1 0.98883962E-01 0.13703246E+03</pdfrwt>
<pdfrwt beam="2">  1       -1 0.38300707E-01 0.24856297E+02</pdfrwt>
<totfact> 0.58991821E+01</totfact>
</mgrwt>
</event>
<event>
 7    1  0.3113151E-004  0.9319294E+02  0.7546771E-02  0.1315457E+00
          1   -1    0    0  503    0  0.00000000000E+00  0.00000000000E+00  0.20313835416E+04  0.20313835416E+04  0.00000000000E+00 0. -1.
         -1   -1    0    0    0  501 -0.00000000000E+00 -0.00000000000E+00 -0.21600278334E+02  0.21600278334E+02  0.00000000000E+00 0.  1.
         25    2    1    2    0    0  0.15598234996E+02  0.46010945903E+02  0.11454315193E+04  0.11532557898E+04  0.12500095760E+03 0.  0.
          4    1    3    3  502    0  0.25189718240E+02 -0.29716334930E+02  0.15279998304E+03  0.15769283491E+03  0.12700000000E+01 0.  1.
         -4    1    3    3    0  502 -0.95914832438E+01  0.75727280832E+02  0.99263153623E+03  0.99556295493E+03  0.12700000000E+01 0.  1.
          1    1    1    2  503    0 -0.64226931793E+02  0.43390863244E+02  0.71385406816E+03  0.71804978686E+03  0.00000000000E+00 0. -1.
         -1    1    1    2    0  501  0.48628696797E+02 -0.89401809146E+02  0.15049767584E+03  0.18167824323E+03  0.00000000000E+00 0.  1.
<mgrwt>
<rscale>  0 0.84990730E+02</rscale>
<asrwt>0</asrwt>
<pdfrwt beam="1">  1        1 0.31252040E+00 0.77510424E+02</pdfrwt>
<pdfrwt beam="2">  1       -1 0.33231213E-02 0.93192940E+02</pdfrwt>
<totfact> 0.10897061E+03</totfact>
</mgrwt>
</event>
<event>
 7    1  0.3113151E-004  0.1275500E+03  0.7546771E-02  0.1243087E+00
         -2   -1    0    0    0  501 -0.00000000000E+00  0.00000000000E+00  0.15642369337E+03  0.15642369337E+03  0.00000000000E+00 0.  1.
          3   -1    0    0  503    0  0.00000000000E+00 -0.00000000000E+00 -0.19288701322E+04  0.19288701322E+04  0.00000000000E+00 0. -1.
         25    2    1    2    0    0  0.12171134474E+03 -0.16948931862E+03 -0.42206901235E+03  0.48713922336E+03  0.12498836420E+03 0.  0.
          4    1    3    3  502    0  0.16323327314E+02 -0.12861845909E+03 -0.24151045412E+03  0.27411324554E+03  0.12700000000E+01 0.  1.
         -4    1    3    3    0  502  0.10538801742E+03 -0.40870859533E+02 -0.18055855823E+03  0.21302597782E+03  0.12700000000E+01 0.  1.
          3    1    1    2  503    0 -0.19736451307E+02  0.12101890605E+03 -0.14453943455E+04  0.14505860599E+04  0.00000000000E+00 0. -1.
         -2    1    1    2    0  501 -0.10197489343E+03  0.48470412568E+02  0.95016919024E+02  0.14756854233E+03  0.00000000000E+00 0.  1.
<mgrwt>
<rscale>  0 0.12000599E+03</rscale>
<asrwt>0</asrwt>
<pdfrwt beam="2">  1        3 0.29674926E+00 0.12754999E+03</pdfrwt>
<pdfrwt beam="1">  1       -2 0.24065183E-01 0.11290819E+03</pdfrwt>
<totfact> 0.28892371E+00</totfact>
</mgrwt>
</event>
<event>
 7    1  0.3113151E-004  0.1014964E+03  0.7546771E-02  0.1292186E+00
          1   -1    0    0  503    0  0.00000000000E+00  0.00000000000E+00  0.16192243058E+04  0.16192243058E+04  0.00000000000E+00 0. -1.
         -1   -1    0    0    0  501 -0.00000000000E+00 -0.00000000000E+00 -0.36137110109E+03  0.36137110109E+03  0.00000000000E+00 0.  1.
         25    2    1    2    0    0  0.97915089990E+02 -0.77363683045E+02 -0.22627071965E+03  0.28704695909E+03  0.12500005540E+03 0.  0.
          4    1    3    3  502    0 -0.16858794266E+02 -0.32093329531E+02 -0.11609511521E+03  0.12163013368E+03  0.12700000000E+01 0.  1.
         -4    1    3    3    0  502  0.11477388426E+03 -0.45270353514E+02 -0.11017560444E+03  0.16541682541E+03  0.12700000000E+01 0.  1.
          1    1    1    2  503    0 -0.12988567863E+02  0.10073940738E+03  0.15683736575E+04  0.15716593336E+04  0.00000000000E+00 0. -1.
         -1    1    1    2    0  501 -0.84926522127E+02 -0.23375724336E+02 -0.84249733136E+02  0.12188911429E+03  0.00000000000E+00 0.  1.
<mgrwt>
<rscale>  0 0.94553134E+02</rscale>
<asrwt>0</asrwt>
<pdfrwt beam="1">  1        1 0.24911143E+00 0.10149641E+03</pdfrwt>
<pdfrwt beam="2">  1       -1 0.55595555E-01 0.88084838E+02</pdfrwt>
<totfact> 0.22794701E+01</totfact>
</mgrwt>
</event>
<event>
 7    1  0.3113151E-004  0.1158814E+03  0.7546771E-02  0.1292258E+00
          3   -1    0    0  503    0 -0.00000000000E+00  0.00000000000E+00  0.50312734777E+02  0.50312734777E+02  0.00000000000E+00 0. -1.
          1   -1    0    0  502    0  0.00000000000E+00 -0.00000000000E+00 -0.23282343118E+04  0.23282343118E+04  0.00000000000E+00 0. -1.
         25    2    1    2    0    0  0.15364635281E+03  0.82367394106E+02 -0.12016987198E+04  0.12206949503E+04  0.12499903665E+03 0.  0.
          4    1    3    3  501    0  0.15618947009E+03  0.43876911400E+02 -0.74984191673E+03  0.76719283554E+03  0.12700000000E+01 0.  1.
         -4    1    3    3    0  501 -0.25431172811E+01  0.38490482707E+02 -0.45185680311E+03  0.45350211479E+03  0.12700000000E+01 0.  1.
          1    1    1    2  502    0 -0.78650906341E+02 -0.64482176582E+02 -0.10759568566E+04  0.10807530123E+04  0.00000000000E+00 0. -1.
          3    1    1    2  503    0 -0.74995446471E+02 -0.17885217524E+02 -0.26600056437E+00  0.77099084000E+02  0.00000000000E+00 0. -1.
<mgrwt>
<rscale>  0 0.94521400E+02</rscale>
<asrwt>0</asrwt>
<pdfrwt beam="2">  1        1 0.35819000E+00 0.11588138E+03</pdfrwt>
<pdfrwt beam="1">  1        3 0.77404184E-02 0.77098625E+02</pdfrwt>
<totfact> 0.12576963E+02</totfact>
</mgrwt>
</event>
<event>
 7    1  0.3113151E-004  0.3091459E+02  0.7546771E-02  0.1598852E+00
          2   -1    0    0  503    0  0.00000000000E+00  0.00000000000E+00  0.49722022380E+03  0.49722022380E+03  0.00000000000E+00 0. -1.
         -1   -1    0    0    0  501 -0.00000000000E+00 -0.00000000000E+00 -0.29356199166E+02  0.29356199166E+02  0.00000000000E+00 0.  1.
         25    2    1    2    0    0 -0.18747994134E+02 -0.20754219132E+02  0.15234106572E+03  0.19902993750E+03  0.12499156299E+03 0.  0.
          4    1    3    3  502    0 -0.24963803997E+02  0.39892484792E+02  0.16080033738E+02  0.49747183216E+02  0.12700000000E+01 0.  1.
         -4    1    3    3    0  502  0.62158098628E+01 -0.60646703924E+02  0.13626103198E+03  0.14928275428E+03  0.12700000000E+01 0.  1.
          2    1    1    2  503    0  0.25503477734E+02 -0.17472387769E+02  0.47153805173E+02  0.56384333402E+02  0.00000000000E+00 0. -1.
         -1    1    1    2    0  501 -0.67554835994E+01  0.38226606901E+02  0.26836915374E+03  0.27116215206E+03  0.00000000000E+00 0.  1.
<mgrwt>
<rscale>  0 0.29931038E+02</rscale>
<asrwt>0</asrwt>
<pdfrwt beam="1">  1        2 0.76495413E-01 0.30914587E+02</pdfrwt>
<pdfrwt beam="2">  1       -1 0.45163387E-02 0.28978781E+02</pdfrwt>
<totfact> 0.11862716E+04</totfact>
</mgrwt>
</event>
<event>
 7    1  0.3113151E-004  0.7826774E+02  0.7546771E-02  0.1430159E+00
          2   -1    0    0  502    0  0.00000000000E+00  0.00000000000E+00  0.97388668670E+03  0.97388668670E+03  0.00000000000E+00 0. -1.
          1   -1    0    0  503    0 -0.00000000000E+00 -0.00000000000E+00 -0.27357193098E+04  0.27357193098E+04  0.00000000000E+00 0. -1.
         25    2    1    2    0    0 -0.61274482049E+02 -0.56978170465E+02  0.22716390246E+01  0.15043608613E+03  0.12499912643E+03 0.  0.
          4    1    3    3  501    0 -0.67206707113E+02 -0.39081227072E+02  0.54461570711E+02  0.94930286920E+02  0.12700000000E+01 0.  1.
         -4    1    3    3    0  501  0.59322250642E+01 -0.17896943393E+02 -0.52189931686E+02  0.55505799214E+02  0.12700000000E+01 0.  1.
          2    1    1    2  502    0  0.32167091522E+02 -0.15696354055E+02  0.89660001601E+03  0.89731415124E+03  0.00000000000E+00 0. -1.
          1    1    1    2  503    0  0.29107390527E+02  0.72674524520E+02 -0.26607042781E+04  0.26618557591E+04  0.00000000000E+00 0. -1.
<mgrwt>
<rscale>  0 0.52928175E+02</rscale>
<asrwt>0</asrwt>
<pdfrwt beam="1">  1        2 0.14982872E+00 0.35792420E+02</pdfrwt>
<pdfrwt beam="2">  1        1 0.42087989E+00 0.78267737E+02</pdfrwt>
<totfact> 0.55192842E+00</totfact>
</mgrwt>
</event>
<event>
 7    1  0.3113151E-004  0.1008757E+03  0.7546771E-02  0.1426907E+00
          1   -1    0    0  503    0 -0.00000000000E+00  0.00000000000E+00  0.21129882749E+04  0.21129882749E+04  0.00000000000E+00 0. -1.
          2   -1    0    0  502    0  0.00000000000E+00 -0.00000000000E+00 -0.15198834637E+03  0.15198834637E+03  0.00000000000E+00 0. -1.
         25    2    1    2    0    0 -0.11095641686E+03  0.22786066116E+02  0.13309822833E+03  0.21486160185E+03  0.12497935155E+03 0.  0.
          4    1    3    3  501    0  0.22680343902E+02 -0.16903991957E+02  0.31507239181E+02  0.42361090217E+02  0.12700000000E+01 0.  1.
         -4    1    3    3    0  501 -0.13363676077E+03  0.39690058073E+02  0.10159098915E+03  0.17250051164E+03  0.12700000000E+01 0.  1.
          2    1    1    2  502    0  0.90217138167E+02 -0.42283658860E+02 -0.88642968560E+02  0.13335897308E+03  0.00000000000E+00 0. -1.
          1    1    1    2  503    0  0.20739278697E+02  0.19497592743E+02  0.19165446688E+04  0.19167560464E+04  0.00000000000E+00 0. -1.
<mgrwt>
<rscale>  0 0.53585994E+02</rscale>
<asrwt>0</asrwt>
<pdfrwt beam="2">  1        2 0.23382824E-01 0.10087573E+03</pdfrwt>
<pdfrwt beam="1">  1        1 0.32507510E+00 0.28465309E+02</pdfrwt>
<totfact> 0.11819210E+02</totfact>
</mgrwt>
</event>
<event>
 7    1  0.3113151E-004  0.1655334E+03  0.7546771E-02  0.1301504E+00
          2   -1    0    0  502    0  0.00000000000E+00  0.00000000000E+00  0.15731309212E+04  0.15731309212E+04  0.00000000000E+00 0. -1.
          2   -1    0    0  503    0 -0.00000000000E+00 -0.00000000000E+00 -0.10591511418E+04  0.10591511418E+04  0.00000000000E+00 0. -1.
         25    2    1    2    0    0  0.20291268588E+03  0.33894876773E+02 -0.40324525424E+00  0.24072361214E+03  0.12500109628E+03 0.  0.
          4    1    3    3  501    0  0.10379470840E+03  0.47503314936E+02 -0.55029473787E+02  0.12672711749E+03  0.12700000000E+01 0. -1.
         -4    1    3    3    0  501  0.99117977481E+02 -0.13608438163E+02  0.54626228533E+02  0.11399649465E+03  0.12700000000E+01 0. -1.
          2    1    1    2  502    0 -0.47177529164E+02  0.15123395992E+02  0.14454430474E+04  0.14462918239E+04  0.00000000000E+00 0. -1.
          2    1    1    2  503    0 -0.15573515672E+03 -0.49018272766E+02 -0.93106002278E+03  0.94526662700E+03  0.00000000000E+00 0. -1.
<mgrwt>
<rscale>  0 0.90558816E+02</rscale>
<asrwt>0</asrwt>
<pdfrwt beam="1">  1        2 0.24202014E+00 0.49542268E+02</pdfrwt>
<pdfrwt beam="2">  1        2 0.16294633E+00 0.16553338E+03</pdfrwt>
<totfact> 0.55958985E+01</totfact>
</mgrwt>
</event>
<event>
 7    1  0.3113151E-004  0.1151920E+03  0.7546771E-02  0.1263479E+00
          2   -1    0    0  503    0  0.00000000000E+00  0.00000000000E+00  0.53064232140E+03  0.53064232140E+03  0.00000000000E+00 0. -1.
          2   -1    0    0  502    0 -0.00000000000E+00 -0.00000000000E+00 -0.17441262043E+04  0.17441262043E+04  0.00000000000E+00 0.  1.
         25    2    1    2    0    0 -0.80931508435E+02 -0.43809063620E+02 -0.76299853306E+03  0.77862531310E+03  0.12498589378E+03 0.  0.
          4    1    3    3  501    0 -0.78096585999E+02  0.21001884018E+02 -0.28540140829E+03  0.29664074675E+03  0.12700000000E+01 0.  1.
         -4    1    3    3    0  501 -0.28349224360E+01 -0.64810947638E+02 -0.47759712476E+03  0.48198456635E+03  0.12700000000E+01 0.  1.
          2    1    1    2  502    0  0.99606588587E+00  0.12675197821E+03 -0.96276436652E+03  0.97107274782E+03  0.00000000000E+00 0.  1.
          2    1    1    2  503    0  0.79935442550E+02 -0.82942914591E+02  0.51227901667E+03  0.52507046477E+03  0.00000000000E+00 0. -1.
<mgrwt>
<rscale>  0 0.10844365E+03</rscale>
<asrwt>0</asrwt>
<pdfrwt beam="1">  1        2 0.81637280E-01 0.11519202E+03</pdfrwt>
<pdfrwt beam="2">  1        2 0.26832711E+00 0.10209063E+03</pdfrwt>
<totfact> 0.10201308E+02</totfact>
</mgrwt>
</event>
<event>
 7    1  0.3113151E-004  0.9698195E+02  0.7546771E-02  0.1347882E+00
          2   -1    0    0  502    0  0.00000000000E+00  0.00000000000E+00  0.71435520515E+03  0.71435520515E+03  0.00000000000E+00 0. -1.
          1   -1    0    0  503    0 -0.00000000000E+00 -0.00000000000E+00 -0.17109675526E+04  0.17109675526E+04  0.00000000000E+00 0. -1.
         25    2    1    2    0    0  0.12935163292E+03  0.79316849742E+02 -0.99595622157E+02  0.22037866471E+03  0.12499784124E+03 0.  0.
          4    1    3    3  501    0 -0.17106195544E+02 -0.11283526900E+02 -0.25904824531E+02  0.33054693151E+02  0.12700000000E+01 0.  1.
         -4    1    3    3    0  501  0.14645782846E+03  0.90600376642E+02 -0.73690797626E+02  0.18732397156E+03  0.12700000000E+01 0.  1.
          2    1    1    2  502    0 -0.80338644770E+02 -0.52152331932E+02  0.64994651394E+03  0.65696623547E+03  0.00000000000E+00 0. -1.
          1    1    1    2  503    0 -0.49012988148E+02 -0.27164517810E+02 -0.15469632392E+04  0.15479778576E+04  0.00000000000E+00 0. -1.
<mgrwt>
<rscale>  0 0.73719813E+02</rscale>
<asrwt>0</asrwt>
<pdfrwt beam="1">  1        2 0.10990080E+00 0.96981948E+02</pdfrwt>
<pdfrwt beam="2">  1        1 0.26322578E+00 0.56037345E+02</pdfrwt>
<totfact> 0.35676661E+01</totfact>
</mgrwt>
</event>
<event>
 7    1  0.3113151E-004  0.6568414E+02  0.7546771E-02  0.1440181E+00
         -1   -1    0    0    0  501 -0.00000000000E+00  0.00000000000E+00  0.18789898552E+02  0.18789898552E+02  0.00000000000E+00 0.  1.
          2   -1    0    0  503    0  0.00000000000E+00 -0.00000000000E+00 -0.92710471628E+03  0.92710471628E+03  0.00000000000E+00 0. -1.
         25    2    1    2    0    0  0.57151140620E+02  0.41826071837E+02 -0.66342112445E+03  0.67880043767E+03  0.12500709041E+03 0.  0.
          4    1    3    3  502    0 -0.32340862052E+02  0.34706836930E+01 -0.32568127773E+03  0.32730396357E+03  0.12700000000E+01 0.  1.
         -4    1    3    3    0  502  0.89492002672E+02  0.38355388144E+02 -0.33773984672E+03  0.35149647410E+03  0.12700000000E+01 0.  1.
          2    1    1    2  503    0 -0.66251876765E+02 -0.33358800504E+01 -0.13794048642E+03  0.15306213465E+03  0.00000000000E+00 0. -1.
         -1    1    1    2    0  501  0.91007361445E+01 -0.38490191786E+02 -0.10695320686E+03  0.11403204251E+03  0.00000000000E+00 0.  1.
<mgrwt>
<rscale>  0 0.50969636E+02</rscale>
<asrwt>0</asrwt>
<pdfrwt beam="2">  1        2 0.14263150E+00 0.65684137E+02</pdfrwt>
<pdfrwt beam="1">  1       -1 0.28907536E-02 0.39551463E+02</pdfrwt>
<totfact> 0.11237854E+04</totfact>
</mgrwt>
</event>
<event>
 7    1  0.3113151E-004  0.3523361E+02  0.7546771E-02  0.1586113E+00
          2   -1    0    0  502    0  0.00000000000E+00  0.00000000000E+00  0.72078240223E+03  0.72078240223E+03  0.00000000000E+00 0. -1.
          1   -1    0    0  503    0 -0.00000000000E+00 -0.00000000000E+00 -0.92078003536E+02  0.92078003536E+02  0.00000000000E+00 0. -1.
         25    2    1    2    0    0 -0.10554813978E+01 -0.22051080281E+02  0.28298386207E+03  0.31014144816E+03  0.12498194866E+03 0.  0.
          4    1    3    3  501    0 -0.27307910009E+02  0.39226948873E+02  0.56342769740E+02  0.73895846087E+02  0.12700000000E+01 0.  1.
         -4    1    3    3    0  501  0.26252428611E+02 -0.61278029154E+02  0.22664109234E+03  0.23624560208E+03  0.12700000000E+01 0.  1.
          2    1    1    2  502    0  0.28521529244E+02  0.22647077925E+02  0.42100562925E+03  0.42257793084E+03  0.00000000000E+00 0. -1.
          1    1    1    2  503    0 -0.27466047846E+02 -0.59599764327E+00 -0.75285092636E+02  0.80141026763E+02  0.00000000000E+00 0. -1.
<mgrwt>
<rscale>  0 0.31111990E+02</rscale>
<asrwt>0</asrwt>
<pdfrwt beam="1">  1        2 0.11088960E+00 0.35233612E+02</pdfrwt>
<pdfrwt beam="2">  1        1 0.14165847E-01 0.27472513E+02</pdfrwt>
<totfact> 0.20859590E+03</totfact>
</mgrwt>
</event>
<event>
 7    1  0.3113151E-004  0.3602837E+02  0.7546771E-02  0.1547194E+00
         -1   -1    0    0    0  501 -0.00000000000E+00  0.00000000000E+00  0.94077437158E+01  0.94077437158E+01  0.00000000000E+00 0.  1.
          2   -1    0    0  503    0  0.00000000000E+00 -0.00000000000E+00 -0.13900405925E+04  0.13900405925E+04  0.00000000000E+00 0. -1.
         25    2    1    2    0    0  0.11128997445E+01 -0.16650185475E+02 -0.10794986719E+04  0.10868400826E+04  0.12500206110E+03 0.  0.
          4    1    3    3  502    0 -0.13324993250E+02 -0.26516467650E+02 -0.10607678539E+04  0.10611836463E+04  0.12700000000E+01 0.  1.
         -4    1    3    3    0  502  0.14437892995E+02  0.98662821746E+01 -0.18730817998E+02  0.25656436248E+02  0.12700000000E+01 0.  1.
          2    1    1    2  503    0  0.34240137402E+02  0.21935295213E+01 -0.22315783130E+03  0.22578001739E+03  0.00000000000E+00 0. -1.
         -1    1    1    2    0  501 -0.35353037147E+02  0.14456655954E+02 -0.77976345591E+02  0.86828236240E+02  0.00000000000E+00 0.  1.
<mgrwt>
<rscale>  0 0.35158856E+02</rscale>
<asrwt>0</asrwt>
<pdfrwt beam="2">  1        2 0.21385241E+00 0.34310328E+02</pdfrwt>
<pdfrwt beam="1">  1       -1 0.14473451E-02 0.36028370E+02</pdfrwt>
<totfact> 0.17030111E+04</totfact>
</mgrwt>
</event>
<event>
 7    1  0.3113151E-004  0.5478597E+02  0.7546771E-02  0.1467595E+00
         -2   -1    0    0    0  501 -0.00000000000E+00  0.00000000000E+00  0.26682075855E+02  0.26682075855E+02  0.00000000000E+00 0.  1.
          1   -1    0    0  503    0  0.00000000000E+00 -0.00000000000E+00 -0.61190665552E+03  0.61190665552E+03  0.00000000000E+00 0. -1.
         25    2    1    2    0    0  0.68477381561E+02 -0.27083953561E+02 -0.27838494102E+03  0.31391905803E+03  0.12499722911E+03 0.  0.
          4    1    3    3  502    0  0.48610487614E+02 -0.59652321860E+02 -0.76703836176E+02  0.10865758323E+03  0.12700000000E+01 0.  1.
         -4    1    3    3    0  502  0.19866893947E+02  0.32568368298E+02 -0.20168110484E+03  0.20526147480E+03  0.12700000000E+01 0.  1.
          1    1    1    2  503    0 -0.32652212405E+02  0.41955952373E+02 -0.25169735347E+03  0.25725090216E+03  0.00000000000E+00 0. -1.
         -2    1    1    2    0  501 -0.35825169156E+02 -0.14871998812E+02 -0.55142285173E+02  0.67418771183E+02  0.00000000000E+00 0.  1.
<mgrwt>
<rscale>  0 0.46098978E+02</rscale>
<asrwt>0</asrwt>
<pdfrwt beam="2">  1        1 0.94139486E-01 0.54785965E+02</pdfrwt>
<pdfrwt beam="1">  1       -2 0.41049347E-02 0.38789420E+02</pdfrwt>
<totfact> 0.68311832E+03</totfact>
</mgrwt>
</event>
<event>
 7    1  0.3113151E-004  0.2090001E+03  0.7546771E-02  0.1189310E+00
         -1   -1    0    0    0  501 -0.00000000000E+00  0.00000000000E+00  0.51413861456E+03  0.51413861456E+03  0.00000000000E+00 0.  1.
          1   -1    0    0  503    0  0.00000000000E+00 -0.00000000000E+00 -0.20431359221E+04  0.20431359221E+04  0.00000000000E+00 0. -1.
         25    2    1    2    0    0 -0.21188589164E+03  0.13990316149E+01 -0.14919476138E+04  0.15120945905E+04  0.12499911964E+03 0.  0.
          4    1    3    3  502    0 -0.12556076409E+02 -0.12669198468E+01 -0.83999184164E+01  0.15212878428E+02  0.12700000000E+01 0. -1.
         -4    1    3    3    0  502 -0.19932981523E+03  0.26659514618E+01 -0.14835476954E+04  0.14968817120E+04  0.12700000000E+01 0. -1.
          1    1    1    2  503    0  0.19105844660E+03 -0.12126204209E+03 -0.50940670058E+03  0.55740739093E+03  0.00000000000E+00 0. -1.
         -1    1    1    2    0  501  0.20827445040E+02  0.11986301047E+03  0.47235700683E+03  0.48777255524E+03  0.00000000000E+00 0.  1.
<mgrwt>
<rscale>  0 0.15945768E+03</rscale>
<asrwt>0</asrwt>
<pdfrwt beam="2">  1        1 0.31432861E+00 0.20900010E+03</pdfrwt>
<pdfrwt beam="1">  1       -1 0.79098248E-01 0.12165905E+03</pdfrwt>
<totfact> 0.56769532E+00</totfact>
</mgrwt>
</event>
<event>
 7    1  0.3113151E-004  0.1023078E+03  0.7546771E-02  0.1280862E+00
          2   -1    0    0  502    0  0.00000000000E+00  0.00000000000E+00  0.85908863255E+03  0.85908863255E+03  0.00000000000E+00 0. -1.
          2   -1    0    0  503    0 -0.00000000000E+00 -0.00000000000E+00 -0.13853390506E+03  0.13853390506E+03  0.00000000000E+00 0. -1.
         25    2    1    2    0    0 -0.10276648629E+02 -0.25722879603E+02  0.15671523701E+03  0.20234216328E+03  0.12496163207E+03 0.  0.
          4    1    3    3  501    0  0.50092050982E+02  0.96531390485E+00  0.27322673850E+02  0.57081405106E+02  0.12700000000E+01 0. -1.
         -4    1    3    3    0  501 -0.60368699611E+02 -0.26688193508E+02  0.12939256316E+03  0.14526075818E+03  0.12700000000E+01 0. -1.
          2    1    1    2  502    0  0.90378477211E+02  0.80816892129E+02  0.65252142576E+03  0.66368957373E+03  0.00000000000E+00 0. -1.
          2    1    1    2  503    0 -0.80101828582E+02 -0.55094012525E+02 -0.88681935282E+02  0.13159080060E+03  0.00000000000E+00 0. -1.
<mgrwt>
<rscale>  0 0.99731268E+02</rscale>
<asrwt>0</asrwt>
<pdfrwt beam="1">  1        2 0.13216748E+00 0.10230781E+03</pdfrwt>
<pdfrwt beam="2">  1        2 0.21312909E-01 0.97219613E+02</pdfrwt>
<totfact> 0.13004533E+03</totfact>
</mgrwt>
</event>
<event>
 7    1  0.3113151E-004  0.2059568E+03  0.7546771E-02  0.1235378E+00
          2   -1    0    0  502    0  0.00000000000E+00  0.00000000000E+00  0.57539236771E+03  0.57539236771E+03  0.00000000000E+00 0. -1.
          2   -1    0    0  503    0 -0.00000000000E+00 -0.00000000000E+00 -0.53140515905E+04  0.53140515905E+04  0.00000000000E+00 0. -1.
         25    2    1    2    0    0 -0.10674022198E+03  0.10479279848E+03 -0.18190988240E+02  0.19578291803E+03  0.12500013335E+03 0.  0.
          4    1    3    3  501    0 -0.46316403566E+02  0.10419419439E+03 -0.53312921759E+02  0.12587898915E+03  0.12700000000E+01 0. -1.
         -4    1    3    3    0  501 -0.60423818416E+02  0.59860409606E+00  0.35121933519E+02  0.69903928881E+02  0.12700000000E+01 0. -1.
          2    1    1    2  502    0  0.17914636524E+03 -0.12662509684E+03  0.46157995439E+03  0.51106104295E+03  0.00000000000E+00 0. -1.
          2    1    1    2  503    0 -0.72406143256E+02  0.21832298359E+02 -0.51820481889E+04  0.51825999972E+04  0.00000000000E+00 0. -1.
<mgrwt>
<rscale>  0 0.12480264E+03</rscale>
<asrwt>0</asrwt>
<pdfrwt beam="1">  1        2 0.88521901E-01 0.20595680E+03</pdfrwt>
<pdfrwt beam="2">  1        2 0.81754641E+00 0.75626046E+02</pdfrwt>
<totfact> 0.23684148E-01</totfact>
</mgrwt>
</event>
<event>
 7    1  0.3113151E-004  0.2067036E+03  0.7546771E-02  0.1267662E+00
         -1   -1    0    0    0  501 -0.00000000000E+00  0.00000000000E+00  0.44176086779E+03  0.44176086779E+03  0.00000000000E+00 0.  1.
          1   -1    0    0  503    0  0.00000000000E+00 -0.00000000000E+00 -0.25483443319E+04  0.25483443319E+04  0.00000000000E+00 0. -1.
         25    2    1    2    0    0 -0.16379271598E+03 -0.11863044108E+03  0.96143821655E+02  0.25645715707E+03  0.12500161444E+03 0.  0.
          4    1    3    3  502    0 -0.36443271891E+01 -0.16931067771E+02 -0.25676560386E+02  0.30997432632E+02  0.12700000000E+01 0.  1.
         -4    1    3    3    0  502 -0.16014838879E+03 -0.10169937331E+03  0.12182038204E+03  0.22545972444E+03  0.12700000000E+01 0.  1.
          1    1    1    2  503    0  0.19371163747E+03  0.72930990076E+02 -0.24609865337E+04  0.24696756562E+04  0.00000000000E+00 0. -1.
         -1    1    1    2    0  501 -0.29918921499E+02  0.45699451009E+02  0.25825924790E+03  0.26397238645E+03  0.00000000000E+00 0.  1.
<mgrwt>
<rscale>  0 0.10625724E+03</rscale>
<asrwt>0</asrwt>
<pdfrwt beam="2">  1        1 0.39205298E+00 0.20670364E+03</pdfrwt>
<pdfrwt beam="1">  1       -1 0.67963209E-01 0.54622172E+02</pdfrwt>
<totfact> 0.36607000E+00</totfact>
</mgrwt>
</event>
<event>
 7    1  0.3113151E-004  0.3891194E+02  0.7546771E-02  0.1608491E+00
          2   -1    0    0  503    0  0.00000000000E+00  0.00000000000E+00  0.16158192867E+04  0.16158192867E+04  0.00000000000E+00 0. -1.
         -1   -1    0    0    0  501 -0.00000000000E+00 -0.00000000000E+00 -0.77679492464E+01  0.77679492464E+01  0.00000000000E+00 0.  1.
         25    2    1    2    0    0 -0.34620038379E+02  0.25484544156E+02  0.85821046916E+03  0.86833114616E+03  0.12500304383E+03 0.  0.
          4    1    3    3  502    0 -0.52248276667E+02  0.15305152114E+02  0.83748269592E+03  0.83925145753E+03  0.12700000000E+01 0.  1.
         -4    1    3    3    0  502  0.17628238288E+02  0.10179392042E+02  0.20727773242E+02  0.29079688634E+02  0.12700000000E+01 0.  1.
          2    1    1    2  503    0 -0.42218719240E+01 -0.21317618047E+02  0.60041679337E+03  0.60080994566E+03  0.00000000000E+00 0. -1.
         -1    1    1    2    0  501  0.38841910303E+02 -0.41669261087E+01  0.14942407490E+03  0.15444614411E+03  0.00000000000E+00 0.  1.
<mgrwt>
<rscale>  0 0.29079565E+02</rscale>
<asrwt>0</asrwt>
<pdfrwt beam="1">  1        2 0.24858732E+00 0.21731660E+02</pdfrwt>
<pdfrwt beam="2">  1       -1 0.11950704E-02 0.38911942E+02</pdfrwt>
<totfact> 0.18315308E+04</totfact>
</mgrwt>
</event>
<event>
 7    1  0.3113151E-004  0.9280865E+02  0.7546771E-02  0.1454372E+00
         -1   -1    0    0    0  501 -0.00000000000E+00  0.00000000000E+00  0.12294655821E+04  0.12294655821E+04  0.00000000000E+00 0.  1.
          2   -1    0    0  503    0  0.00000000000E+00 -0.00000000000E+00 -0.78324775170E+03  0.78324775170E+03  0.00000000000E+00 0. -1.
         25    2    1    2    0    0 -0.89900787560E+02 -0.69584854244E+02  0.63846682203E+03  0.66044548028E+03  0.12499658412E+03 0.  0.
          4    1    3    3  502    0 -0.73966627371E+01 -0.39771626473E+02  0.45797537222E+03  0.45976031511E+03  0.12700000000E+01 0.  1.
         -4    1    3    3    0  502 -0.82504124823E+02 -0.29813227771E+02  0.18049144981E+03  0.20068516516E+03  0.12700000000E+01 0.  1.
          2    1    1    2  503    0  0.64926365546E+02  0.66198519465E+02 -0.76919903607E+03  0.77476760001E+03  0.00000000000E+00 0. -1.
         -1    1    1    2    0  501  0.24974422014E+02  0.33863347791E+01  0.57695004442E+03  0.57750025348E+03  0.00000000000E+00 0.  1.
<mgrwt>
<rscale>  0 0.48363751E+02</rscale>
<asrwt>0</asrwt>
<pdfrwt beam="2">  1        2 0.12049965E+00 0.92808653E+02</pdfrwt>
<pdfrwt beam="1">  1       -1 0.18914855E+00 0.25202957E+02</pdfrwt>
<totfact> 0.10561369E+01</totfact>
</mgrwt>
</event>
<event>
 7    1  0.3113151E-004  0.4240520E+02  0.7546771E-02  0.1552622E+00
         -1   -1    0    0    0  501 -0.00000000000E+00  0.00000000000E+00  0.18945435972E+03  0.18945435972E+03  0.00000000000E+00 0.  1.
          2   -1    0    0  503    0  0.00000000000E+00 -0.00000000000E+00 -0.74163883864E+02  0.74163883864E+02  0.00000000000E+00 0. -1.
         25    2    1    2    0    0 -0.62665785823E+01 -0.56732383743E+02  0.52232634905E+02  0.14700398068E+03  0.12499635521E+03 0.  0.
          4    1    3    3  502    0 -0.57725713626E+02  0.37643990963E+01  0.25012283217E+02  0.63036940963E+02  0.12700000000E+01 0.  1.
         -4    1    3    3    0  502  0.51459135044E+02 -0.60496782839E+02  0.27220351688E+02  0.83967039720E+02  0.12700000000E+01 0.  1.
          2    1    1    2  503    0 -0.14753979306E+02  0.38006343911E+02 -0.67674515707E+01  0.41327478554E+02  0.00000000000E+00 0. -1.
         -1    1    1    2    0  501  0.21020557888E+02  0.18726039832E+02  0.69825292523E+02  0.75286784349E+02  0.00000000000E+00 0.  1.
<mgrwt>
<rscale>  0 0.34551210E+02</rscale>
<asrwt>0</asrwt>
<pdfrwt beam="2">  1        2 0.11409828E-01 0.42405199E+02</pdfrwt>
<pdfrwt beam="1">  1       -1 0.29146824E-01 0.28151881E+02</pdfrwt>
<totfact> 0.56537735E+03</totfact>
</mgrwt>
</event>
<event>
 7    1  0.3113151E-004  0.4915998E+02  0.7546771E-02  0.1471601E+00
          2   -1    0    0  503    0  0.00000000000E+00  0.00000000000E+00  0.31016105463E+03  0.31016105463E+03  0.00000000000E+00 0. -1.
         -1   -1    0    0    0  501 -0.00000000000E+00 -0.00000000000E+00 -0.57993114755E+02  0.57993114755E+02  0.00000000000E+00 0.  1.
         25    2    1    2    0    0  0.81775310961E+02 -0.17054460869E+02  0.12339969268E+03  0.19450254339E+03  0.12500279641E+03 0.  0.
          4    1    3    3  502    0 -0.32960193889E+01 -0.47350441942E+02  0.82875134912E+02  0.95513501572E+02  0.12700000000E+01 0. -1.
         -4    1    3    3    0  502  0.85071330350E+02  0.30295981073E+02  0.40524557771E+02  0.98989041814E+02  0.12700000000E+01 0. -1.
          2    1    1    2  503    0 -0.37865268483E+02  0.18184399655E+02  0.12222590477E+03  0.12924249589E+03  0.00000000000E+00 0. -1.
         -1    1    1    2    0  501 -0.43910042478E+02 -0.11299387856E+01  0.65423424206E+01  0.44409130102E+02  0.00000000000E+00 0.  1.
<mgrwt>
<rscale>  0 0.45442083E+02</rscale>
<asrwt>0</asrwt>
<pdfrwt beam="1">  1        2 0.47717084E-01 0.42005368E+02</pdfrwt>
<pdfrwt beam="2">  1       -1 0.89220178E-02 0.49159976E+02</pdfrwt>
<totfact> 0.76338349E+03</totfact>
</mgrwt>
</event>
<event>
 7    1  0.3113151E-004  0.8452688E+02  0.7546771E-02  0.1463846E+00
         -2   -1    0    0    0  501 -0.00000000000E+00  0.00000000000E+00  0.33100187078E+02  0.33100187078E+02  0.00000000000E+00 0.  1.
          1   -1    0    0  503    0  0.00000000000E+00 -0.00000000000E+00 -0.69104412289E+03  0.69104412289E+03  0.00000000000E+00 0. -1.
         25    2    1    2    0    0 -0.18642720780E+02 -0.98878792774E+02 -0.25748587399E+03  0.30339535137E+03  0.12500078892E+03 0.  0.
          4    1    3    3  502    0  0.28060360380E+02 -0.94555733223E+02 -0.22682777436E+03  0.24734717025E+03  0.12700000000E+01 0.  1.
         -4    1    3    3    0  502 -0.46703081160E+02 -0.43230595514E+01 -0.30658099623E+02  0.56048181114E+02  0.12700000000E+01 0.  1.
          1    1    1    2  503    0 -0.68997814596E+00  0.81749120077E+02 -0.37730819051E+03  0.38606329187E+03  0.00000000000E+00 0. -1.
         -2    1    1    2    0  501  0.19332698926E+02  0.17129672697E+02 -0.23149871311E+02  0.34685666726E+02  0.00000000000E+00 0.  1.
<mgrwt>
<rscale>  0 0.46725934E+02</rscale>
<asrwt>0</asrwt>
<pdfrwt beam="2">  1        1 0.10631448E+00 0.84526875E+02</pdfrwt>
<pdfrwt beam="1">  1       -2 0.50923367E-02 0.25829807E+02</pdfrwt>
<totfact> 0.39629067E+03</totfact>
</mgrwt>
</event>
<event>
 7    1  0.3113151E-004  0.1001166E+03  0.7546771E-02  0.1310305E+00
         -1   -1    0    0    0  501 -0.00000000000E+00  0.00000000000E+00  0.40329806358E+02  0.40329806358E+02  0.00000000000E+00 0.  1.
          2   -1    0    0  503    0  0.00000000000E+00 -0.00000000000E+00 -0.27969726171E+04  0.27969726171E+04  0.00000000000E+00 0.  1.
         25    2    1    2    0    0 -0.86462736800E+02 -0.45150826579E+01 -0.71352834502E+03  0.72955065978E+03  0.12500110087E+03 0.  0.
          4    1    3    3  502    0 -0.49138242068E+02  0.26672441488E+02 -0.63299170974E+03  0.63545739705E+03  0.12700000000E+01 0. -1.
         -4    1    3    3    0  502 -0.37324494732E+02 -0.31187524145E+02 -0.80536635275E+02  0.94093262727E+02  0.12700000000E+01 0. -1.
          2    1    1    2  503    0  0.71603341470E+02  0.78627415007E+02 -0.20278524923E+04  0.20306390717E+04  0.00000000000E+00 0.  1.
         -1    1    1    2    0  501  0.14859395330E+02 -0.74112332349E+02 -0.15261973436E+02  0.77112692010E+02  0.00000000000E+00 0.  1.
<mgrwt>
<rscale>  0 0.86991626E+02</rscale>
<asrwt>0</asrwt>
<pdfrwt beam="2">  1        2 0.43030351E+00 0.10011660E+03</pdfrwt>
<pdfrwt beam="1">  1       -1 0.62045851E-02 0.75587297E+02</pdfrwt>
<totfact> 0.41241485E+02</totfact>
</mgrwt>
</event>
<event>
 7    1  0.3113151E-004  0.4267408E+02  0.7546771E-02  0.1537590E+00
          1   -1    0    0  503    0  0.00000000000E+00  0.00000000000E+00  0.86963476776E+03  0.86963476776E+03  0.00000000000E+00 0. -1.
          1   -1    0    0  502    0 -0.00000000000E+00 -0.00000000000E+00 -0.36185516953E+03  0.36185516953E+03  0.00000000000E+00 0. -1.
         25    2    1    2    0    0  0.62421486756E+02 -0.37662024206E+02  0.11281542228E+03  0.18348685764E+03  0.12500094938E+03 0.  0.
          4    1    3    3  501    0  0.39216826534E+02  0.21909118227E+02  0.11073812845E+03  0.11950947635E+03  0.12700000000E+01 0. -1.
         -4    1    3    3    0  501  0.23204660223E+02 -0.59571142433E+02  0.20772938329E+01  0.63977381288E+02  0.12700000000E+01 0. -1.
          1    1    1    2  502    0 -0.34435347757E+02  0.24729618250E+02 -0.32481194269E+03  0.32756700888E+03  0.00000000000E+00 0. -1.
          1    1    1    2  503    0 -0.27986138999E+02  0.12932405956E+02  0.71977611864E+03  0.72043607077E+03  0.00000000000E+00 0. -1.
<mgrwt>
<rscale>  0 0.36271607E+02</rscale>
<asrwt>0</asrwt>
<pdfrwt beam="1">  1        1 0.13378996E+00 0.30829711E+02</pdfrwt>
<pdfrwt beam="2">  1        1 0.55670026E-01 0.42674077E+02</pdfrwt>
<totfact> 0.19168228E+02</totfact>
</mgrwt>
</event>
<event>
 7    1  0.3113151E-004  0.1299544E+03  0.7546771E-02  0.1266062E+00
          1   -1    0    0  503    0  0.00000000000E+00  0.00000000000E+00  0.10898119550E+04  0.10898119550E+04  0.00000000000E+00 0. -1.
          1   -1    0    0  502    0 -0.00000000000E+00 -0.00000000000E+00 -0.59300906026E+03  0.59300906026E+03  0.00000000000E+00 0. -1.
         25    2    1    2    0    0 -0.34589993705E+02  0.81105276069E+02 -0.15192973732E+03  0.21559818811E+03  0.12500160064E+03 0.  0.
          4    1    3    3  501    0 -0.36139700686E+02  0.98443409150E+02 -0.57569034759E+02  0.11963690665E+03  0.12700000000E+01 0. -1.
         -4    1    3    3    0  501  0.15497069811E+01 -0.17338133081E+02 -0.94360702562E+02  0.95961281455E+02  0.12700000000E+01 0. -1.
          1    1    1    2  502    0  0.76902264352E+02  0.43276648142E+02 -0.40034274026E+03  0.40995260240E+03  0.00000000000E+00 0. -1.
          1    1    1    2  503    0 -0.42312270647E+02 -0.12438192421E+03  0.10490753723E+04  0.10572702247E+04  0.00000000000E+00 0. -1.
<mgrwt>
<rscale>  0 0.10708672E+03</rscale>
<asrwt>0</asrwt>
<pdfrwt beam="1">  1        1 0.16766338E+00 0.12995440E+03</pdfrwt>
<pdfrwt beam="2">  1        1 0.91232163E-01 0.88242997E+02</pdfrwt>
<totfact> 0.64562967E+01</totfact>
</mgrwt>
</event>
<event>
 7    1  0.3113151E-004  0.1703117E+03  0.7546771E-02  0.1344535E+00
          1   -1    0    0  503    0 -0.00000000000E+00  0.00000000000E+00  0.49324592490E+02  0.49324592490E+02  0.00000000000E+00 0. -1.
          2   -1    0    0  502    0  0.00000000000E+00 -0.00000000000E+00 -0.21217026869E+04  0.21217026869E+04  0.00000000000E+00 0. -1.
         25    2    1    2    0    0 -0.16279647627E+03  0.25987894428E+02 -0.95862698471E+03  0.98069802355E+03  0.12499941702E+03 0.  0.
          4    1    3    3  501    0 -0.78958653843E+02  0.27580256897E+02 -0.76669471859E+03  0.77124415331E+03  0.12700000000E+01 0.  1.
         -4    1    3    3    0  501 -0.83837822429E+02 -0.15923624697E+01 -0.19193226611E+03  0.20945387025E+03  0.12700000000E+01 0.  1.
          2    1    1    2  502    0  0.16450593418E+03 -0.58782810938E+02 -0.11368410421E+04  0.11501848444E+04  0.00000000000E+00 0. -1.
          1    1    1    2  503    0 -0.17094579085E+01  0.32794916511E+02  0.23089932376E+02  0.40144411472E+02  0.00000000000E+00 0. -1.
<mgrwt>
<rscale>  0 0.74785976E+02</rscale>
<asrwt>0</asrwt>
<pdfrwt beam="2">  1        2 0.32641568E+00 0.17031174E+03</pdfrwt>
<pdfrwt beam="1">  1        1 0.75884016E-02 0.32839440E+02</pdfrwt>
<totfact> 0.72640071E+02</totfact>
</mgrwt>
</event>
<event>
 7    1  0.3113151E-004  0.8068080E+02  0.7546771E-02  0.1370743E+00
          1   -1    0    0  503    0  0.00000000000E+00  0.00000000000E+00  0.18274601469E+04  0.18274601469E+04  0.00000000000E+00 0. -1.
          1   -1    0    0  502    0 -0.00000000000E+00 -0.00000000000E+00 -0.11581601804E+03  0.11581601804E+03  0.00000000000E+00 0. -1.
         25    2    1    2    0    0 -0.12388073463E+03 -0.44504730684E+02  0.11200899299E+04  0.11347044661E+04  0.12500266677E+03 0.  0.
          4    1    3    3  501    0 -0.10953755702E+03 -0.82444105903E+02  0.94991254095E+03  0.95975567482E+03  0.12700000000E+01 0.  1.
         -4    1    3    3    0  501 -0.14343177610E+02  0.37939375219E+02  0.17017738898E+03  0.17494879123E+03  0.12700000000E+01 0.  1.
          1    1    1    2  502    0  0.79221073311E+02  0.11428956811E+02 -0.92466337765E+02  0.12229727360E+03  0.00000000000E+00 0. -1.
          1    1    1    2  503    0  0.44659661321E+02  0.33075773873E+02  0.68402053668E+03  0.68627442526E+03  0.00000000000E+00 0. -1.
<mgrwt>
<rscale>  0 0.66960966E+02</rscale>
<asrwt>0</asrwt>
<pdfrwt beam="1">  1        1 0.28114769E+00 0.55574204E+02</pdfrwt>
<pdfrwt beam="2">  1        1 0.17817850E-01 0.80680795E+02</pdfrwt>
<totfact> 0.17748966E+02</totfact>
</mgrwt>
</event>
<event>
 7    1  0.3113151E-004  0.6300756E+02  0.7546771E-02  0.1488821E+00
         -2   -1    0    0    0  501 -0.00000000000E+00  0.00000000000E+00  0.10878240165E+03  0.10878240165E+03  0.00000000000E+00 0.  1.
          2   -1    0    0  503    0  0.00000000000E+00 -0.00000000000E+00 -0.17126855548E+03  0.17126855548E+03  0.00000000000E+00 0. -1.
         25    2    1    2    0    0  0.37548091953E+01  0.46441011169E+02  0.34592313895E+02  0.13781122009E+03  0.12499775234E+03 0.  0.
          4    1    3    3  502    0  0.44891533587E+02  0.66685667406E+02  0.43009521256E+02  0.91179273104E+02  0.12700000000E+01 0.  1.
         -4    1    3    3    0  502 -0.41136724391E+02 -0.20244656237E+02 -0.84172073610E+01  0.46631946984E+02  0.12700000000E+01 0.  1.
          2    1    1    2  503    0 -0.30409329582E+02 -0.57919269983E+02 -0.91830014445E+02  0.11274804084E+03  0.00000000000E+00 0. -1.
         -2    1    1    2    0  501  0.26654520387E+02  0.11478258814E+02 -0.52484532826E+01  0.29491696193E+02  0.00000000000E+00 0.  1.
<mgrwt>
<rscale>  0 0.42761401E+02</rscale>
<asrwt>0</asrwt>
<pdfrwt beam="2">  1        2 0.26349009E-01 0.63007559E+02</pdfrwt>
<pdfrwt beam="1">  1       -2 0.16735754E-01 0.29020921E+02</pdfrwt>
<totfact> 0.49593641E+03</totfact>
</mgrwt>
</event>
<event>
 7    1  0.3113151E-004  0.6174439E+02  0.7546771E-02  0.1462052E+00
          1   -1    0    0  502    0  0.00000000000E+00  0.00000000000E+00  0.21532824365E+04  0.21532824365E+04  0.00000000000E+00 0. -1.
          1   -1    0    0  503    0 -0.00000000000E+00 -0.00000000000E+00 -0.66042879104E+03  0.66042879104E+03  0.00000000000E+00 0. -1.
         25    2    1    2    0    0  0.12250124535E+01  0.93543451888E+02 -0.22625994142E+03  0.27489993638E+03  0.12499814350E+03 0.  0.
          4    1    3    3  501    0  0.48758447642E+02  0.12564015103E+02 -0.13442718611E+03  0.14355320253E+03  0.12700000000E+01 0. -1.
         -4    1    3    3    0  501 -0.47533435188E+02  0.80979436784E+02 -0.91832755317E+02  0.13134673385E+03  0.12700000000E+01 0. -1.
          1    1    1    2  502    0  0.12430896177E+02 -0.60426114513E+02  0.21277317538E+04  0.21286259085E+04  0.00000000000E+00 0. -1.
          1    1    1    2  503    0 -0.13655908630E+02 -0.33117337374E+02 -0.40861816685E+03  0.41018538267E+03  0.00000000000E+00 0. -1.
<mgrwt>
<rscale>  0 0.47030099E+02</rscale>
<asrwt>0</asrwt>
<pdfrwt beam="1">  1        1 0.33127422E+00 0.61744392E+02</pdfrwt>
<pdfrwt beam="2">  1        1 0.10160443E+00 0.35822366E+02</pdfrwt>
<totfact> 0.12978597E+01</totfact>
</mgrwt>
</event>
<event>
 7    1  0.3113151E-004  0.6243958E+02  0.7546771E-02  0.1463972E+00
          1   -1    0    0  503    0  0.00000000000E+00  0.00000000000E+00  0.17660636325E+04  0.17660636325E+04  0.00000000000E+00 0. -1.
          1   -1    0    0  502    0 -0.00000000000E+00 -0.00000000000E+00 -0.13707258622E+03  0.13707258622E+03  0.00000000000E+00 0. -1.
         25    2    1    2    0    0 -0.57984571647E+02 -0.31156054677E+02 -0.14803596453E+02  0.14204501873E+03  0.12499892234E+03 0.  0.
          4    1    3    3  501    0 -0.88937989957E+02 -0.13699168957E+02 -0.39978639490E+02  0.98476077314E+02  0.12700000000E+01 0.  1.
         -4    1    3    3    0  501  0.30953418310E+02 -0.17456885719E+02  0.25175043037E+02  0.43568941415E+02  0.12700000000E+01 0.  1.
          1    1    1    2  502    0  0.26469411696E+02 -0.22799454718E+02 -0.52819238856E+02  0.63327062811E+02  0.00000000000E+00 0. -1.
          1    1    1    2  503    0  0.31515159951E+02  0.53955509395E+02  0.16966138816E+04  0.16977641372E+04  0.00000000000E+00 0. -1.
<mgrwt>
<rscale>  0 0.46704588E+02</rscale>
<asrwt>0</asrwt>
<pdfrwt beam="1">  1        1 0.27170208E+00 0.62439583E+02</pdfrwt>
<pdfrwt beam="2">  1        1 0.21088091E-01 0.34934866E+02</pdfrwt>
<totfact> 0.14946480E+02</totfact>
</mgrwt>
</event>
<event>
 7    1  0.3113151E-004  0.9914007E+02  0.7546771E-02  0.1426991E+00
          2   -1    0    0  502    0  0.00000000000E+00  0.00000000000E+00  0.60717461547E+03  0.60717461547E+03  0.00000000000E+00 0. -1.
          1   -1    0    0  503    0 -0.00000000000E+00 -0.00000000000E+00 -0.43316677843E+02  0.43316677843E+02  0.00000000000E+00 0. -1.
         25    2    1    2    0    0 -0.72576802334E+02 -0.26048151874E+02  0.32883309413E+03  0.36014161711E+03  0.12499952849E+03 0.  0.
          4    1    3    3  501    0 -0.79108489703E+01 -0.66053630874E+02  0.19714760451E+03  0.20807319516E+03  0.12700000000E+01 0. -1.
         -4    1    3    3    0  501 -0.64665953364E+02  0.40005479001E+02  0.13168548962E+03  0.15206842194E+03  0.12700000000E+01 0. -1.
          2    1    1    2  502    0 -0.28021283241E+02 -0.72541645782E+01  0.15468628104E+03  0.15737109252E+03  0.00000000000E+00 0. -1.
          1    1    1    2  503    0  0.10059808558E+03  0.33302316452E+02  0.80338562459E+02  0.13297858369E+03  0.00000000000E+00 0. -1.
<mgrwt>
<rscale>  0 0.53568770E+02</rscale>
<asrwt>0</asrwt>
<pdfrwt beam="1">  1        2 0.93411473E-01 0.28945038E+02</pdfrwt>
<pdfrwt beam="2">  1        1 0.66641047E-02 0.99140071E+02</pdfrwt>
<totfact> 0.73469437E+03</totfact>
</mgrwt>
</event>
<event>
 7    1  0.3113151E-004  0.4943855E+02  0.7546771E-02  0.1547632E+00
          2   -1    0    0  503    0  0.00000000000E+00  0.00000000000E+00  0.10116861606E+04  0.10116861606E+04  0.00000000000E+00 0.  1.
          2   -1    0    0  502    0 -0.00000000000E+00 -0.00000000000E+00 -0.98951418001E+02  0.98951418001E+02  0.00000000000E+00 0.  1.
         25    2    1    2    0    0 -0.56480870527E+02 -0.38123731327E+02  0.25983467833E+03  0.29628093915E+03  0.12499930885E+03 0.  0.
          4    1    3    3  501    0 -0.87943091005E+02 -0.56015884737E+02  0.17015802506E+03  0.19956736454E+03  0.12700000000E+01 0. -1.
         -4    1    3    3    0  501  0.31462220478E+02  0.17892153410E+02  0.89676653274E+02  0.96713574608E+02  0.12700000000E+01 0. -1.
          2    1    1    2  502    0  0.24912145299E+02  0.10263118203E+01 -0.77972836058E+02  0.81862271299E+02  0.00000000000E+00 0.  1.
          2    1    1    2  503    0  0.31568725229E+02  0.37097419507E+02  0.73087290030E+03  0.73249436813E+03  0.00000000000E+00 0.  1.
<mgrwt>
<rscale>  0 0.35109331E+02</rscale>
<asrwt>0</asrwt>
<pdfrwt beam="1">  1        2 0.15564402E+00 0.49438551E+02</pdfrwt>
<pdfrwt beam="2">  1        2 0.15223296E-01 0.24933277E+02</pdfrwt>
<totfact> 0.14753042E+03</totfact>
</mgrwt>
</event>
<event>
 7    1  0.3113151E-004  0.1169448E+03  0.7546771E-02  0.1372084E+00
          1   -1    0    0  503    0  0.00000000000E+00  0.00000000000E+00  0.19168043173E+03  0.19168043173E+03  0.00000000000E+00 0. -1.
          1   -1    0    0  502    0 -0.00000000000E+00 -0.00000000000E+00 -0.89958085596E+03  0.89958085596E+03  0.00000000000E+00 0. -1.
         25    2    1    2    0    0 -0.15294415328E+02  0.85538719230E+02 -0.43409275092E+03  0.46001227996E+03  0.12499595869E+03 0.  0.
          4    1    3    3  501    0 -0.55887034727E+02 -0.17325980137E+01 -0.16501908754E+03  0.17423913079E+03  0.12700000000E+01 0. -1.
         -4    1    3    3    0  501  0.40592619399E+02  0.87271317243E+02 -0.26907366338E+03  0.28577314917E+03  0.12700000000E+01 0. -1.
          1    1    1    2  502    0 -0.29278403888E+02  0.24095616797E+02 -0.43201380556E+03  0.43367470745E+03  0.00000000000E+00 0. -1.
          1    1    1    2  503    0  0.44572819217E+02 -0.10963433603E+03  0.15820613225E+03  0.19757430028E+03  0.00000000000E+00 0. -1.
<mgrwt>
<rscale>  0 0.66591201E+02</rscale>
<asrwt>0</asrwt>
<pdfrwt beam="1">  1        1 0.29489297E-01 0.11694479E+03</pdfrwt>
<pdfrwt beam="2">  1        1 0.13839706E+00 0.37918646E+02</pdfrwt>
<totfact> 0.39172896E+02</totfact>
</mgrwt>
</event>
<event>
 7    1  0.3113151E-004  0.4663489E+02  0.7546771E-02  0.1470120E+00
          2   -1    0    0  503    0  0.00000000000E+00  0.00000000000E+00  0.14631365794E+04  0.14631365794E+04  0.00000000000E+00 0. -1.
         -1   -1    0    0    0  501 -0.00000000000E+00 -0.00000000000E+00 -0.93973688687E+01  0.93973688687E+01  0.00000000000E+00 0.  1.
         25    2    1    2    0    0 -0.14468279594E+02  0.52681099053E+02  0.81421074701E+03  0.82556017744E+03  0.12500334680E+03 0.  0.
          4    1    3    3  502    0 -0.39482969852E+02 -0.27971456264E+02  0.39274707824E+03  0.39571857126E+03  0.12700000000E+01 0. -1.
         -4    1    3    3    0  502  0.25014690258E+02  0.80652555317E+02  0.42146366877E+03  0.42984160618E+03  0.12700000000E+01 0. -1.
          2    1    1    2  503    0  0.43920124997E+02 -0.15679147445E+02  0.22681855038E+03  0.23156309689E+03  0.00000000000E+00 0. -1.
         -1    1    1    2    0  501 -0.29451845403E+02 -0.37001951608E+02  0.41270991313E+03  0.41541067393E+03  0.00000000000E+00 0.  1.
<mgrwt>
<rscale>  0 0.45683418E+02</rscale>
<asrwt>0</asrwt>
<pdfrwt beam="1">  1        2 0.22509776E+00 0.46634891E+02</pdfrwt>
<pdfrwt beam="2">  1       -1 0.14457502E-02 0.44751357E+02</pdfrwt>
<totfact> 0.15906834E+04</totfact>
</mgrwt>
</event>
<event>
 7    1  0.3113151E-004  0.4806276E+02  0.7546771E-02  0.1497382E+00
          2   -1    0    0  503    0  0.00000000000E+00  0.00000000000E+00  0.14345656950E+04  0.14345656950E+04  0.00000000000E+00 0. -1.
         -1   -1    0    0    0  501 -0.00000000000E+00 -0.00000000000E+00 -0.13195688564E+02  0.13195688564E+02  0.00000000000E+00 0.  1.
         25    2    1    2    0    0  0.16055951685E+02  0.40680358278E+02  0.38234916313E+03  0.40463633685E+03  0.12500798941E+03 0.  0.
          4    1    3    3  502    0  0.43356352330E+02  0.47265507313E+02  0.36708333950E+03  0.37264673957E+03  0.12700000000E+01 0. -1.
         -4    1    3    3    0  502 -0.27300400645E+02 -0.65851490349E+01  0.15265823629E+02  0.31989597282E+02  0.12700000000E+01 0. -1.
          2    1    1    2  503    0  0.19515157549E+02 -0.45154493953E+02  0.79080297656E+03  0.79233144417E+03  0.00000000000E+00 0. -1.
         -1    1    1    2    0  501 -0.35571109234E+02  0.44741356755E+01  0.24821786673E+03  0.25079360252E+03  0.00000000000E+00 0.  1.
<mgrwt>
<rscale>  0 0.41510437E+02</rscale>
<asrwt>0</asrwt>
<pdfrwt beam="1">  1        2 0.22070229E+00 0.48062759E+02</pdfrwt>
<pdfrwt beam="2">  1       -1 0.20301071E-02 0.35851384E+02</pdfrwt>
<totfact> 0.98551726E+03</totfact>
</mgrwt>
</event>
<event>
 7    1  0.3113151E-004  0.8755988E+02  0.7546771E-02  0.1416067E+00
          2   -1    0    0  503    0  0.00000000000E+00  0.00000000000E+00  0.11314233123E+03  0.11314233123E+03  0.00000000000E+00 0. -1.
          2   -1    0    0  502    0 -0.00000000000E+00 -0.00000000000E+00 -0.91172452209E+03  0.91172452209E+03  0.00000000000E+00 0. -1.
         25    2    1    2    0    0  0.69687267221E+02 -0.17491950713E+01 -0.23423516185E+03  0.27450340790E+03  0.12500653985E+03 0.  0.
          4    1    3    3  501    0  0.73436333204E+02 -0.48962695367E+02 -0.19079071691E+03  0.21022119573E+03  0.12700000000E+01 0. -1.
         -4    1    3    3    0  501 -0.37490659830E+01  0.47213500296E+02 -0.43444444941E+02  0.64282212175E+02  0.12700000000E+01 0. -1.
          2    1    1    2  502    0 -0.84306885685E+02  0.34251573157E+02 -0.65065454866E+03  0.65698718627E+03  0.00000000000E+00 0. -1.
          2    1    1    2  503    0  0.14619618465E+02 -0.32502378086E+02  0.86307519651E+02  0.93376259154E+02  0.00000000000E+00 0. -1.
<mgrwt>
<rscale>  0 0.55861846E+02</rscale>
<asrwt>0</asrwt>
<pdfrwt beam="1">  1        2 0.17406513E-01 0.35638993E+02</pdfrwt>
<pdfrwt beam="2">  1        2 0.14026531E+00 0.87559878E+02</pdfrwt>
<totfact> 0.14505714E+03</totfact>
</mgrwt>
</event>
<event>
 7    1  0.3113151E-004  0.5753721E+02  0.7546771E-02  0.1540332E+00
          1   -1    0    0  503    0  0.00000000000E+00  0.00000000000E+00  0.52103155937E+03  0.52103155937E+03  0.00000000000E+00 0. -1.
         -1   -1    0    0    0  501 -0.00000000000E+00 -0.00000000000E+00 -0.35164976596E+02  0.35164976596E+02  0.00000000000E+00 0.  1.
         25    2    1    2    0    0 -0.72372080447E+02  0.70386056817E+00  0.34786215093E+03  0.37665670292E+03  0.12499592935E+03 0.  0.
          4    1    3    3  502    0  0.35391638119E+02  0.24140924810E+01  0.10816685946E+03  0.11384233956E+03  0.12700000000E+01 0.  1.
         -4    1    3    3    0  502 -0.10776371857E+03 -0.17102319128E+01  0.23969529148E+03  0.26281436336E+03  0.12700000000E+01 0.  1.
          1    1    1    2  503    0  0.17792038611E+02 -0.13708660815E+02  0.11777317731E+03  0.11989581024E+03  0.00000000000E+00 0. -1.
         -1    1    1    2    0  501  0.54580041837E+02  0.13004800247E+02  0.20231254525E+02  0.59644022802E+02  0.00000000000E+00 0.  1.
<mgrwt>
<rscale>  0 0.35948953E+02</rscale>
<asrwt>0</asrwt>
<pdfrwt beam="1">  1        1 0.80158696E-01 0.22460722E+02</pdfrwt>
<pdfrwt beam="2">  1       -1 0.54099968E-02 0.57537209E+02</pdfrwt>
<totfact> 0.61791164E+03</totfact>
</mgrwt>
</event>
<event>
 7    1  0.3113151E-004  0.1033269E+03  0.7546771E-02  0.1379822E+00
          2   -1    0    0  503    0  0.00000000000E+00  0.00000000000E+00  0.13501193813E+03  0.13501193813E+03  0.00000000000E+00 0. -1.
         -1   -1    0    0    0  501 -0.00000000000E+00 -0.00000000000E+00 -0.39884252898E+03  0.39884252898E+03  0.00000000000E+00 0.  1.
         25    2    1    2    0    0 -0.11577497355E+02 -0.13473430399E+03  0.43608248096E+02  0.18923532499E+03  0.12498383017E+03 0.  0.
          4    1    3    3  502    0 -0.43822566439E+02 -0.45091874833E+02  0.66208609203E+02  0.91317508386E+02  0.12700000000E+01 0. -1.
         -4    1    3    3    0  502  0.32245069084E+02 -0.89642429157E+02 -0.22600361107E+02  0.97917816600E+02  0.12700000000E+01 0. -1.
          2    1    1    2  503    0  0.21299648112E+02  0.34183327802E+02 -0.32643826862E+02  0.51843942187E+02  0.00000000000E+00 0. -1.
         -1    1    1    2    0  501 -0.97221507568E+01  0.10055097619E+03 -0.27479501208E+03  0.29277519993E+03  0.00000000000E+00 0.  1.
<mgrwt>
<rscale>  0 0.64510608E+02</rscale>
<asrwt>0</asrwt>
<pdfrwt beam="1">  1        2 0.20771068E-01 0.40276233E+02</pdfrwt>
<pdfrwt beam="2">  1       -1 0.61360388E-01 0.10332691E+03</pdfrwt>
<totfact> 0.80219291E+02</totfact>
</mgrwt>
</event>
<event>
 7    1  0.3113151E-004  0.9413712E+02  0.7546771E-02  0.1369957E+00
          2   -1    0    0  502    0  0.00000000000E+00  0.00000000000E+00  0.34257454353E+03  0.34257454353E+03  0.00000000000E+00 0. -1.
          2   -1    0    0  503    0 -0.00000000000E+00 -0.00000000000E+00 -0.23553027495E+03  0.23553027495E+03  0.00000000000E+00 0. -1.
         25    2    1    2    0    0 -0.11920666469E+03 -0.25208019582E+01 -0.15834787454E+03  0.23434175455E+03  0.12500170081E+03 0.  0.
          4    1    3    3  501    0  0.13839151565E+01 -0.30055931338E+02 -0.85811466022E+02  0.90942260971E+02  0.12700000000E+01 0.  1.
         -4    1    3    3    0  501 -0.12059057984E+03  0.27535129379E+02 -0.72536408517E+02  0.14339949357E+03  0.12700000000E+01 0.  1.
          2    1    1    2  502    0  0.47905519147E+02 -0.18461601117E+01  0.26802598365E+03  0.27227977337E+03  0.00000000000E+00 0. -1.
          2    1    1    2  503    0  0.71301145540E+02  0.43669620699E+01 -0.26338405367E+01  0.71483290558E+02  0.00000000000E+00 0. -1.
<mgrwt>
<rscale>  0 0.67179128E+02</rscale>
<asrwt>0</asrwt>
<pdfrwt beam="1">  1        2 0.52703776E-01 0.47941079E+02</pdfrwt>
<pdfrwt beam="2">  1        2 0.36235427E-01 0.94137124E+02</pdfrwt>
<totfact> 0.20439561E+03</totfact>
</mgrwt>
</event>
<event>
 7    1  0.3113151E-004  0.8072712E+02  0.7546771E-02  0.1392036E+00
          1   -1    0    0  502    0  0.00000000000E+00  0.00000000000E+00  0.85285171545E+02  0.85285171545E+02  0.00000000000E+00 0. -1.
          1   -1    0    0  503    0 -0.00000000000E+00 -0.00000000000E+00 -0.53418685654E+03  0.53418685654E+03  0.00000000000E+00 0. -1.
         25    2    1    2    0    0 -0.52145874885E+02 -0.29407604327E+02 -0.65830610014E+02  0.15345645693E+03  0.12502485952E+03 0.  0.
          4    1    3    3  501    0 -0.18487404541E+02  0.18025737456E+02  0.31079208107E+02  0.40425751868E+02  0.12700000000E+01 0.  1.
         -4    1    3    3    0  501 -0.33658470344E+02 -0.47433341783E+02 -0.96909818121E+02  0.11303070506E+03  0.12700000000E+01 0.  1.
          1    1    1    2  502    0  0.13426190571E+02 -0.44733416371E+02  0.22547617283E+02  0.51862666520E+02  0.00000000000E+00 0. -1.
          1    1    1    2  503    0  0.38719684314E+02  0.74141020698E+02 -0.40561869227E+03  0.41415290464E+03  0.00000000000E+00 0. -1.
<mgrwt>
<rscale>  0 0.61403146E+02</rscale>
<asrwt>0</asrwt>
<pdfrwt beam="1">  1        1 0.13120796E-01 0.46704830E+02</pdfrwt>
<pdfrwt beam="2">  1        1 0.82182593E-01 0.80727118E+02</pdfrwt>
<totfact> 0.20662126E+03</totfact>
</mgrwt>
</event>
<event>
 7    1  0.3113151E-004  0.2414907E+02  0.7546771E-02  0.1680685E+00
          1   -1    0    0  502    0  0.00000000000E+00  0.00000000000E+00  0.38752289812E+03  0.38752289812E+03  0.00000000000E+00 0. -1.
          1   -1    0    0  503    0 -0.00000000000E+00 -0.00000000000E+00 -0.24616723624E+02  0.24616723624E+02  0.00000000000E+00 0. -1.
         25    2    1    2    0    0 -0.28796811913E+01 -0.15722211766E+02  0.27950142631E+03  0.30659571930E+03  0.12499762909E+03 0.  0.
          4    1    3    3  501    0 -0.14360870801E+02 -0.60888430153E+02  0.23098787715E+03  0.23931286598E+03  0.12700000000E+01 0. -1.
         -4    1    3    3    0  501  0.11481189610E+02  0.45166218387E+02  0.48513549166E+02  0.67282853320E+02  0.12700000000E+01 0. -1.
          1    1    1    2  502    0  0.25015993946E+02  0.60702114942E+01  0.76067004439E+02  0.80304648589E+02  0.00000000000E+00 0. -1.
          1    1    1    2  503    0 -0.22136312754E+02  0.96520002717E+01  0.73377437408E+01  0.25239253848E+02  0.00000000000E+00 0. -1.
<mgrwt>
<rscale>  0 0.23682204E+02</rscale>
<asrwt>0</asrwt>
<pdfrwt beam="1">  1        1 0.59618903E-01 0.23224366E+02</pdfrwt>
<pdfrwt beam="2">  1        1 0.37871885E-02 0.24149067E+02</pdfrwt>
<totfact> 0.14365981E+04</totfact>
</mgrwt>
</event>
<event>
 7    1  0.3113151E-004  0.5725810E+02  0.7546771E-02  0.1526017E+00
          2   -1    0    0  503    0  0.00000000000E+00  0.00000000000E+00  0.18185513865E+04  0.18185513865E+04  0.00000000000E+00 0. -1.
         -1   -1    0    0    0  501 -0.00000000000E+00 -0.00000000000E+00 -0.87867529867E+01  0.87867529867E+01  0.00000000000E+00 0.  1.
         25    2    1    2    0    0  0.56804012458E+02  0.35352513186E+02  0.12623996023E+04  0.12703353789E+04  0.12499089161E+03 0.  0.
          4    1    3    3  502    0  0.12702109180E+02  0.59839842102E+02  0.27847314634E+03  0.28511586489E+03  0.12700000000E+01 0.  1.
         -4    1    3    3    0  502  0.44101903278E+02 -0.24487328916E+02  0.98392645591E+03  0.98521951397E+03  0.12700000000E+01 0.  1.
          2    1    1    2  503    0 -0.22820778180E+02  0.96968868778E+01  0.37105242929E+03  0.37187998442E+03  0.00000000000E+00 0. -1.
         -1    1    1    2    0  501 -0.33983234277E+02 -0.45049400064E+02  0.17631260199E+03  0.18512277623E+03  0.00000000000E+00 0.  1.
<mgrwt>
<rscale>  0 0.37679491E+02</rscale>
<asrwt>0</asrwt>
<pdfrwt beam="1">  1        2 0.27977684E+00 0.24795514E+02</pdfrwt>
<pdfrwt beam="2">  1       -1 0.13518096E-02 0.57258100E+02</pdfrwt>
<totfact> 0.13122551E+04</totfact>
</mgrwt>
</event>
<event>
 7    1  0.3113151E-004  0.8296394E+02  0.7546771E-02  0.1450456E+00
          1   -1    0    0  503    0 -0.00000000000E+00  0.00000000000E+00  0.27839257123E+02  0.27839257123E+02  0.00000000000E+00 0. -1.
          2   -1    0    0  502    0  0.00000000000E+00 -0.00000000000E+00 -0.17223246218E+04  0.17223246218E+04  0.00000000000E+00 0. -1.
         25    2    1    2    0    0  0.68846478725E+02  0.57787122632E+00 -0.73499584825E+03  0.74872355519E+03  0.12501157379E+03 0.  0.
          4    1    3    3  501    0  0.13447376378E+02 -0.31684704900E+02 -0.57954104621E+03  0.58056368264E+03  0.12700000000E+01 0.  1.
         -4    1    3    3    0  501  0.55399102348E+02  0.32262576126E+02 -0.15545480205E+03  0.16815987256E+03  0.12700000000E+01 0.  1.
          2    1    1    2  502    0  0.11693721176E+02  0.26555349587E+02 -0.89316323133E+03  0.89363442609E+03  0.00000000000E+00 0. -1.
          1    1    1    2  503    0 -0.80540199901E+02 -0.27133220813E+02 -0.66326285112E+02  0.10780589765E+03  0.00000000000E+00 0. -1.
<mgrwt>
<rscale>  0 0.49064078E+02</rscale>
<asrwt>0</asrwt>
<pdfrwt beam="2">  1        2 0.26497319E+00 0.29016025E+02</pdfrwt>
<pdfrwt beam="1">  1        1 0.42829599E-02 0.82963939E+02</pdfrwt>
<totfact> 0.32410087E+03</totfact>
</mgrwt>
</event>
<event>
 7    1  0.3113151E-004  0.3940426E+02  0.7546771E-02  0.1602629E+00
          2   -1    0    0  503    0  0.00000000000E+00  0.00000000000E+00  0.24538266955E+04  0.24538266955E+04  0.00000000000E+00 0. -1.
         -1   -1    0    0    0  501 -0.00000000000E+00 -0.00000000000E+00 -0.39643311542E+01  0.39643311542E+01  0.00000000000E+00 0.  1.
         25    2    1    2    0    0 -0.22976687084E+02  0.15821055402E+02  0.15144105971E+04  0.15198168367E+04  0.12500210666E+03 0.  0.
          4    1    3    3  502    0 -0.54134152889E+02 -0.20138537103E+02  0.37608051619E+03  0.38049209550E+03  0.12700000000E+01 0.  1.
         -4    1    3    3    0  502  0.31157465805E+02  0.35959592505E+02  0.11383300809E+04  0.11393247412E+04  0.12700000000E+01 0.  1.
          2    1    1    2  503    0  0.11608633918E+01  0.22194710073E+02  0.44972975857E+03  0.45027858988E+03  0.00000000000E+00 0. -1.
         -1    1    1    2    0  501  0.21815823693E+02 -0.38015765475E+02  0.48572200874E+03  0.48769560010E+03  0.00000000000E+00 0.  1.
<mgrwt>
<rscale>  0 0.29593268E+02</rscale>
<asrwt>0</asrwt>
<pdfrwt beam="1">  1        2 0.37751059E+00 0.22225048E+02</pdfrwt>
<pdfrwt beam="2">  1       -1 0.60989906E-03 0.39404257E+02</pdfrwt>
<totfact> 0.18656069E+04</totfact>
</mgrwt>
</event>
<event>
 7    1  0.3113151E-004  0.2054619E+03  0.7546771E-02  0.1305793E+00
          2   -1    0    0  502    0  0.00000000000E+00  0.00000000000E+00  0.19661265379E+04  0.19661265379E+04  0.00000000000E+00 0. -1.
          1   -1    0    0  503    0 -0.00000000000E+00 -0.00000000000E+00 -0.19531542463E+03  0.19531542463E+03  0.00000000000E+00 0. -1.
         25    2    1    2    0    0 -0.11031661599E+03  0.13703306070E+03  0.28022768102E+03  0.35369548406E+03  0.12500050699E+03 0.  0.
          4    1    3    3  501    0  0.14880783678E+02 -0.12884386789E+02  0.35125216505E+02  0.40284474432E+02  0.12700000000E+01 0.  1.
         -4    1    3    3    0  501 -0.12519739967E+03  0.14991744748E+03  0.24510246451E+03  0.31341100963E+03  0.12700000000E+01 0.  1.
          2    1    1    2  502    0  0.14515861215E+03 -0.15311840918E+03  0.16399816846E+04  0.16534981692E+04  0.00000000000E+00 0. -1.
          1    1    1    2  503    0 -0.34841996160E+02  0.16085348482E+02 -0.14939825228E+03  0.15424830928E+03  0.00000000000E+00 0. -1.
<mgrwt>
<rscale>  0 0.88796211E+02</rscale>
<asrwt>0</asrwt>
<pdfrwt beam="1">  1        2 0.30248099E+00 0.20546188E+03</pdfrwt>
<pdfrwt beam="2">  1        1 0.30048528E-01 0.38375814E+02</pdfrwt>
<totfact> 0.15835696E+02</totfact>
</mgrwt>
</event>
<event>
 7    1  0.3113151E-004  0.1212063E+03  0.7546771E-02  0.1376189E+00
         -1   -1    0    0    0  501 -0.00000000000E+00  0.00000000000E+00  0.51788826382E+03  0.51788826382E+03  0.00000000000E+00 0.  1.
          1   -1    0    0  503    0  0.00000000000E+00 -0.00000000000E+00 -0.31187890900E+03  0.31187890900E+03  0.00000000000E+00 0. -1.
         25    2    1    2    0    0 -0.36189403352E+02  0.80227528302E+02  0.23877370937E+03  0.28351825602E+03  0.12499435187E+03 0.  0.
          4    1    3    3  502    0 -0.13347039957E+02  0.69730140685E+02  0.36790018954E+02  0.79972210112E+02  0.12700000000E+01 0.  1.
         -4    1    3    3    0  502 -0.22842363396E+02  0.10497387617E+02  0.20198369042E+03  0.20354604591E+03  0.12700000000E+01 0.  1.
          1    1    1    2  503    0  0.44032398034E+02 -0.11471769132E+03 -0.27512628890E+03  0.30131955732E+03  0.00000000000E+00 0. -1.
         -1    1    1    2    0  501 -0.78429946813E+01  0.34490163017E+02  0.24236193436E+03  0.24492935948E+03  0.00000000000E+00 0.  1.
<mgrwt>
<rscale>  0 0.65476311E+02</rscale>
<asrwt>0</asrwt>
<pdfrwt beam="2">  1        1 0.47981371E-01 0.12120630E+03</pdfrwt>
<pdfrwt beam="1">  1       -1 0.79675117E-01 0.35370665E+02</pdfrwt>
<totfact> 0.14747287E+02</totfact>
</mgrwt>
</event>
<event>
 7    1  0.3113151E-004  0.1064992E+03  0.7546771E-02  0.1381305E+00
         -2   -1    0    0    0  501 -0.00000000000E+00  0.00000000000E+00  0.10216292753E+03  0.10216292753E+03  0.00000000000E+00 0.  1.
          1   -1    0    0  503    0  0.00000000000E+00 -0.00000000000E+00 -0.96820166074E+03  0.96820166074E+03  0.00000000000E+00 0. -1.
         25    2    1    2    0    0  0.28495354261E+02  0.13941576667E+03 -0.44948815089E+03  0.48776384314E+03  0.12500091067E+03 0.  0.
          4    1    3    3  502    0 -0.41881545569E+02  0.79080097977E+02 -0.28767238650E+03  0.30127187158E+03  0.12700000000E+01 0.  1.
         -4    1    3    3    0  502  0.70376899830E+02  0.60335668696E+02 -0.16181576440E+03  0.18649197155E+03  0.12700000000E+01 0.  1.
          1    1    1    2  503    0 -0.11733522959E+02 -0.36780917516E+02 -0.46589593530E+03  0.46749281704E+03  0.00000000000E+00 0. -1.
         -2    1    1    2    0  501 -0.16761831302E+02 -0.10263484916E+03  0.49345352980E+02  0.11510792810E+03  0.00000000000E+00 0.  1.
<mgrwt>
<rscale>  0 0.64121998E+02</rscale>
<asrwt>0</asrwt>
<pdfrwt beam="2">  1        1 0.14895410E+00 0.38607143E+02</pdfrwt>
<pdfrwt beam="1">  1       -2 0.15717374E-01 0.10649922E+03</pdfrwt>
<totfact> 0.51300386E+02</totfact>
</mgrwt>
</event>
<event>
 7    1  0.3113151E-004  0.7807216E+02  0.7546771E-02  0.1370914E+00
          2   -1    0    0  502    0  0.00000000000E+00  0.00000000000E+00  0.23211331423E+03  0.23211331423E+03  0.00000000000E+00 0.  1.
          2   -1    0    0  503    0 -0.00000000000E+00 -0.00000000000E+00 -0.24472584885E+04  0.24472584885E+04  0.00000000000E+00 0. -1.
         25    2    1    2    0    0  0.88441224131E+02  0.20555451314E+02 -0.95769441153E+03  0.97007629096E+03  0.12500019085E+03 0.  0.
          4    1    3    3  501    0  0.72859075350E+02  0.70658570228E+02 -0.66759491652E+03  0.67526710558E+03  0.12700000000E+01 0. -1.
         -4    1    3    3    0  501  0.15582148781E+02 -0.50103118914E+02 -0.29009949501E+03  0.29480918539E+03  0.12700000000E+01 0. -1.
          2    1    1    2  502    0 -0.48235756329E+02 -0.61452574987E+02  0.21859528090E+03  0.23213574475E+03  0.00000000000E+00 0.  1.
          2    1    1    2  503    0 -0.40205467802E+02  0.40897123673E+02 -0.14760460436E+04  0.14771597670E+04  0.00000000000E+00 0. -1.
<mgrwt>
<rscale>  0 0.66913824E+02</rscale>
<asrwt>0</asrwt>
<pdfrwt beam="1">  1        2 0.35709740E-01 0.78072156E+02</pdfrwt>
<pdfrwt beam="2">  1        2 0.37650132E+00 0.57350278E+02</pdfrwt>
<totfact> 0.11586929E+02</totfact>
</mgrwt>
</event>
<event>
 7    1  0.3113151E-004  0.5280392E+02  0.7546771E-02  0.1473345E+00
          1   -1    0    0  503    0  0.00000000000E+00  0.00000000000E+00  0.20805906901E+03  0.20805906901E+03  0.00000000000E+00 0. -1.
          1   -1    0    0  502    0 -0.00000000000E+00 -0.00000000000E+00 -0.18365846163E+03  0.18365846163E+03  0.00000000000E+00 0. -1.
         25    2    1    2    0    0  0.23387126317E+02  0.33393180830E+02 -0.83513453648E+02  0.15575645229E+03  0.12499405300E+03 0.  0.
          4    1    3    3  501    0  0.64125416956E+02  0.55135228852E+02 -0.61565438500E+02  0.10461299479E+03  0.12700000000E+01 0.  1.
         -4    1    3    3    0  501 -0.40738290638E+02 -0.21742048021E+02 -0.21948015148E+02  0.51143457502E+02  0.12700000000E+01 0.  1.
          1    1    1    2  502    0 -0.33432857289E+02  0.19337980725E+02 -0.53426504167E+02  0.65924993686E+02  0.00000000000E+00 0. -1.
          1    1    1    2  503    0  0.10045730972E+02 -0.52731161555E+02  0.16134056519E+03  0.17003608466E+03  0.00000000000E+00 0. -1.
<mgrwt>
<rscale>  0 0.45160050E+02</rscale>
<asrwt>0</asrwt>
<pdfrwt beam="1">  1        1 0.32009088E-01 0.52803916E+02</pdfrwt>
<pdfrwt beam="2">  1        1 0.28255148E-01 0.38622706E+02</pdfrwt>
<totfact> 0.25370479E+03</totfact>
</mgrwt>
</event>
<event>
 7    1  0.3113151E-004  0.4817390E+02  0.7546771E-02  0.1532478E+00
          1   -1    0    0  503    0  0.00000000000E+00  0.00000000000E+00  0.20374944420E+03  0.20374944420E+03  0.00000000000E+00 0. -1.
         -2   -1    0    0    0  501 -0.00000000000E+00 -0.00000000000E+00 -0.12059234458E+03  0.12059234458E+03  0.00000000000E+00 0.  1.
         25    2    1    2    0    0  0.36892216980E+02  0.40967450182E+02  0.15251814514E+03  0.20475969007E+03  0.12500151371E+03 0.  0.
          4    1    3    3  502    0  0.43175008172E+02 -0.28816424430E+02  0.21542898761E+02  0.56215451921E+02  0.12700000000E+01 0.  1.
         -4    1    3    3    0  502 -0.62827911920E+01  0.69783874612E+02  0.13097524638E+03  0.14854423815E+03  0.12700000000E+01 0.  1.
          1    1    1    2  503    0 -0.27526767385E+02  0.63074888888E+01  0.71742212489E+01  0.29137206271E+02  0.00000000000E+00 0. -1.
         -2    1    1    2    0  501 -0.93654495951E+01 -0.47274939070E+02 -0.76535266766E+02  0.90444892443E+02  0.00000000000E+00 0.  1.
<mgrwt>
<rscale>  0 0.36884133E+02</rscale>
<asrwt>0</asrwt>
<pdfrwt beam="1">  1        1 0.31346068E-01 0.28240172E+02</pdfrwt>
<pdfrwt beam="2">  1       -2 0.18552668E-01 0.48173900E+02</pdfrwt>
<totfact> 0.26825062E+03</totfact>
</mgrwt>
</event>
<event>
 7    1  0.3113151E-004  0.1043230E+03  0.7546771E-02  0.1341768E+00
          2   -1    0    0  503    0  0.00000000000E+00  0.00000000000E+00  0.74224519837E+03  0.74224519837E+03  0.00000000000E+00 0. -1.
          2   -1    0    0  502    0 -0.00000000000E+00 -0.00000000000E+00 -0.11245527203E+04  0.11245527203E+04  0.00000000000E+00 0. -1.
         25    2    1    2    0    0  0.39254788727E+02  0.80994530391E+02 -0.49947167797E+03  0.52268429899E+03  0.12500346765E+03 0.  0.
          4    1    3    3  501    0  0.21220208481E+02  0.54213965045E+02 -0.66029988534E+02  0.88039897431E+02  0.12700000000E+01 0. -1.
         -4    1    3    3    0  501  0.18034580246E+02  0.26780565346E+02 -0.43344168944E+03  0.43464440156E+03  0.12700000000E+01 0. -1.
          2    1    1    2  502    0 -0.49860589998E+02  0.22991639372E+02 -0.60849394498E+03  0.61096609971E+03  0.00000000000E+00 0. -1.
          2    1    1    2  503    0  0.10605801271E+02 -0.10398616976E+03  0.72565810100E+03  0.73314751999E+03  0.00000000000E+00 0. -1.
<mgrwt>
<rscale>  0 0.75683443E+02</rscale>
<asrwt>0</asrwt>
<pdfrwt beam="1">  1        2 0.11419157E+00 0.10432302E+03</pdfrwt>
<pdfrwt beam="2">  1        2 0.17300811E+00 0.54906228E+02</pdfrwt>
<totfact> 0.15251049E+02</totfact>
</mgrwt>
</event>
<event>
 7    1  0.3113151E-004  0.7079944E+02  0.7546771E-02  0.1371274E+00
          3   -1    0    0  503    0 -0.00000000000E+00  0.00000000000E+00  0.80665806127E+02  0.80665806127E+02  0.00000000000E+00 0. -1.
          1   -1    0    0  502    0  0.00000000000E+00 -0.00000000000E+00 -0.92586175093E+03  0.92586175093E+03  0.00000000000E+00 0. -1.
         25    2    1    2    0    0 -0.57162950820E+02  0.97500680258E+02 -0.37219689099E+03  0.40857719465E+03  0.12502324875E+03 0.  0.
          4    1    3    3  501    0 -0.64120129651E+02  0.69625821162E+02 -0.36742856408E+03  0.37942655232E+03  0.12700000000E+01 0.  1.
         -4    1    3    3    0  501  0.69571788306E+01  0.27874859096E+02 -0.47683269050E+01  0.29150642332E+02  0.12700000000E+01 0.  1.
          1    1    1    2  502    0  0.19071242063E+01 -0.67127906788E+02 -0.51682017470E+03  0.52116493163E+03  0.00000000000E+00 0. -1.
          3    1    1    2  503    0  0.55255826614E+02 -0.30372773470E+02  0.43821120885E+02  0.76785430771E+02  0.00000000000E+00 0. -1.
<mgrwt>
<rscale>  0 0.66814177E+02</rscale>
<asrwt>0</asrwt>
<pdfrwt beam="2">  1        1 0.14244027E+00 0.70799438E+02</pdfrwt>
<pdfrwt beam="1">  1        3 0.12410124E-01 0.63053245E+02</pdfrwt>
<totfact> 0.48588703E+02</totfact>
</mgrwt>
</event>
<event>
 7    1  0.3113151E-004  0.1462464E+03  0.7546771E-02  0.1419016E+00
          2   -1    0    0  502    0  0.00000000000E+00  0.00000000000E+00  0.37614626528E+03  0.37614626528E+03  0.00000000000E+00 0. -1.
          2   -1    0    0  503    0 -0.00000000000E+00 -0.00000000000E+00 -0.29773468317E+04  0.29773468317E+04  0.00000000000E+00 0. -1.
         25    2    1    2    0    0 -0.49536240308E+01 -0.16529373001E+03 -0.18425577444E+04  0.18541823626E+04  0.12500654773E+03 0.  0.
          4    1    3    3  501    0 -0.17428801346E+02 -0.12736207345E+03 -0.75318428179E+03  0.76407659047E+03  0.12700000000E+01 0.  1.
         -4    1    3    3    0  501  0.12475177316E+02 -0.37931656559E+02 -0.10893734626E+04  0.10901057722E+04  0.12700000000E+01 0.  1.
          2    1    1    2  502    0 -0.31276348128E+01  0.14606548018E+03  0.35582335077E+03  0.38464940342E+03  0.00000000000E+00 0. -1.
          2    1    1    2  503    0  0.80812588436E+01  0.19228249836E+02 -0.11144661728E+04  0.11146613310E+04  0.00000000000E+00 0. -1.
<mgrwt>
<rscale>  0 0.55229733E+02</rscale>
<asrwt>0</asrwt>
<pdfrwt beam="1">  1        2 0.57868657E-01 0.14624638E+03</pdfrwt>
<pdfrwt beam="2">  1        2 0.45805335E+00 0.20857429E+02</pdfrwt>
<totfact> 0.44188064E+01</totfact>
</mgrwt>
</event>
<event>
 7    1  0.3113151E-004  0.6358343E+02  0.7546771E-02  0.1447130E+00
          1   -1    0    0  503    0  0.00000000000E+00  0.00000000000E+00  0.31497663734E+04  0.31497663734E+04  0.00000000000E+00 0. -1.
         -1   -1    0    0    0  501 -0.00000000000E+00 -0.00000000000E+00 -0.48186269015E+02  0.48186269015E+02  0.00000000000E+00 0.  1.
         25    2    1    2    0    0 -0.21121601626E+02  0.14240765570E+02  0.12734347330E+04  0.12798083474E+04  0.12499786195E+03 0.  0.
          4    1    3    3  502    0 -0.72413746272E+02  0.53955243195E+01  0.60366155295E+03  0.60801459336E+03  0.12700000000E+01 0. -1.
         -4    1    3    3    0  502  0.51292144646E+02  0.88452412505E+01  0.66977318003E+03  0.67179375406E+03  0.12700000000E+01 0. -1.
          1    1    1    2  503    0 -0.31724588025E+02  0.22339644360E+02  0.18498877536E+04  0.18502946279E+04  0.00000000000E+00 0. -1.
         -1    1    1    2    0  501  0.52846189651E+02 -0.36580409930E+02 -0.21742382129E+02  0.67849667147E+02  0.00000000000E+00 0.  1.
<mgrwt>
<rscale>  0 0.49669848E+02</rscale>
<asrwt>0</asrwt>
<pdfrwt beam="1">  1        1 0.48457928E+00 0.38800892E+02</pdfrwt>
<pdfrwt beam="2">  1       -1 0.74132747E-02 0.63583431E+02</pdfrwt>
<totfact> 0.70115082E+01</totfact>
</mgrwt>
</event>
<event>
 7    1  0.3113151E-004  0.1052250E+03  0.7546771E-02  0.1278887E+00
         -2   -1    0    0    0  501  0.00000000000E+00  0.00000000000E+00  0.17362889570E+04  0.17362889570E+04  0.00000000000E+00 0.  1.
         -2   -1    0    0    0  502 -0.00000000000E+00 -0.00000000000E+00 -0.38510241510E+02  0.38510241510E+02  0.00000000000E+00 0.  1.
         25    2    1    2    0    0  0.94751997266E+02  0.14327179100E+03  0.63939472904E+03  0.67376181160E+03  0.12499844868E+03 0.  0.
          4    1    3    3  503    0  0.13456366252E+02  0.12008298278E+03  0.28771512751E+03  0.31206185933E+03  0.12700000000E+01 0. -1.
         -4    1    3    3    0  503  0.81295631013E+02  0.23188808219E+02  0.35167960152E+03  0.36169995228E+03  0.12700000000E+01 0. -1.
         -2    1    1    2    0  502 -0.84635090290E+02 -0.45978551249E+02  0.10437065284E+03  0.14202238857E+03  0.00000000000E+00 0.  1.
         -2    1    1    2    0  501 -0.10116906976E+02 -0.97293239752E+02  0.95401333360E+03  0.95901499832E+03  0.00000000000E+00 0.  1.
<mgrwt>
<rscale>  0 0.10067294E+03</rscale>
<asrwt>0</asrwt>
<pdfrwt beam="1">  1       -2 0.26712132E+00 0.10522497E+03</pdfrwt>
<pdfrwt beam="2">  1       -2 0.59246539E-02 0.96317837E+02</pdfrwt>
<totfact> 0.56260928E+01</totfact>
</mgrwt>
</event>
<event>
 7    1  0.3113151E-004  0.5274842E+02  0.7546771E-02  0.1440002E+00
          3   -1    0    0  503    0 -0.00000000000E+00  0.00000000000E+00  0.43175547434E+02  0.43175547434E+02  0.00000000000E+00 0. -1.
          1   -1    0    0  502    0  0.00000000000E+00 -0.00000000000E+00 -0.82932278405E+03  0.82932278405E+03  0.00000000000E+00 0. -1.
         25    2    1    2    0    0 -0.40811247255E+02 -0.15432097980E+02 -0.17962604539E+03  0.22314125536E+03  0.12499118415E+03 0.  0.
          4    1    3    3  501    0 -0.30787101628E+02 -0.70097537566E+02 -0.11044485432E+03  0.13439192366E+03  0.12700000000E+01 0.  1.
         -4    1    3    3    0  501 -0.10024145628E+02  0.54665439586E+02 -0.69181191067E+02  0.88749331706E+02  0.12700000000E+01 0.  1.
          1    1    1    2  502    0  0.42633837347E+02 -0.33850731621E+02 -0.59656741891E+03  0.59904607621E+03  0.00000000000E+00 0. -1.
          3    1    1    2  503    0 -0.18225900915E+01  0.49282829601E+02 -0.99537723181E+01  0.50310999906E+02  0.00000000000E+00 0. -1.
<mgrwt>
<rscale>  0 0.51003613E+02</rscale>
<asrwt>0</asrwt>
<pdfrwt beam="2">  1        1 0.12758813E+00 0.52748422E+02</pdfrwt>
<pdfrwt beam="1">  1        3 0.66423916E-02 0.49316520E+02</pdfrwt>
<totfact> 0.15361435E+03</totfact>
</mgrwt>
</event>
<event>
 7    1  0.3113151E-004  0.4319406E+02  0.7546771E-02  0.1514539E+00
          2   -1    0    0  503    0  0.00000000000E+00  0.00000000000E+00  0.18464970090E+03  0.18464970090E+03  0.00000000000E+00 0. -1.
          2   -1    0    0  502    0 -0.00000000000E+00 -0.00000000000E+00 -0.41842319747E+03  0.41842319747E+03  0.00000000000E+00 0. -1.
         25    2    1    2    0    0  0.76840139716E+02 -0.18351453149E+00 -0.78663382682E+02  0.16648795847E+03  0.12500348711E+03 0.  0.
          4    1    3    3  501    0  0.68719881636E+02  0.55991854554E+02 -0.58621664533E+02  0.10628086545E+03  0.12700000000E+01 0. -1.
         -4    1    3    3    0  501  0.81202580803E+01 -0.56175369085E+02 -0.20041718149E+02  0.60207093017E+02  0.12700000000E+01 0. -1.
          2    1    1    2  502    0 -0.34939657020E+02  0.62249654751E+01 -0.29156349302E+03  0.29371550910E+03  0.00000000000E+00 0. -1.
          2    1    1    2  503    0 -0.41900482696E+02 -0.60414509436E+01  0.13645337913E+03  0.14286943079E+03  0.00000000000E+00 0. -1.
<mgrwt>
<rscale>  0 0.39152916E+02</rscale>
<asrwt>0</asrwt>
<pdfrwt beam="1">  1        2 0.28407646E-01 0.43194057E+02</pdfrwt>
<pdfrwt beam="2">  1        2 0.64372800E-01 0.35489855E+02</pdfrwt>
<totfact> 0.21122172E+03</totfact>
</mgrwt>
</event>
<event>
 7    1  0.3113151E-004  0.7837317E+02  0.7546771E-02  0.1342105E+00
         -3   -1    0    0    0  501 -0.00000000000E+00  0.00000000000E+00  0.12711580311E+03  0.12711580311E+03  0.00000000000E+00 0.  1.
          1   -1    0    0  503    0  0.00000000000E+00 -0.00000000000E+00 -0.57901474588E+03  0.57901474588E+03  0.00000000000E+00 0. -1.
         25    2    1    2    0    0 -0.45099226167E+02 -0.58934794615E+02 -0.27327298012E+03  0.30952846694E+03  0.12498999946E+03 0.  0.
          4    1    3    3  502    0 -0.43348251149E+02  0.28603194360E+02 -0.62381687394E+02  0.81180671514E+02  0.12700000000E+01 0.  1.
         -4    1    3    3    0  502 -0.17509750179E+01 -0.87537988975E+02 -0.21089129273E+03  0.22834779543E+03  0.12700000000E+01 0.  1.
          1    1    1    2  503    0  0.88899306226E+02  0.69290439118E+00 -0.26737502839E+03  0.28176758609E+03  0.00000000000E+00 0. -1.
         -3    1    1    2    0  501 -0.43800080059E+02  0.58241890224E+02  0.88749065747E+02  0.11483449595E+03  0.00000000000E+00 0.  1.
<mgrwt>
<rscale>  0 0.75573385E+02</rscale>
<asrwt>0</asrwt>
<pdfrwt beam="2">  1        1 0.89079193E-01 0.78373166E+02</pdfrwt>
<pdfrwt beam="1">  1       -3 0.19556277E-01 0.72873622E+02</pdfrwt>
<totfact> 0.44597706E+02</totfact>
</mgrwt>
</event>
<event>
 7    1  0.3113151E-004  0.9003035E+02  0.7546771E-02  0.1419627E+00
         -2   -1    0    0    0  501 -0.00000000000E+00  0.00000000000E+00  0.26542389126E+03  0.26542389126E+03  0.00000000000E+00 0.  1.
          1   -1    0    0  503    0  0.00000000000E+00 -0.00000000000E+00 -0.96712428923E+02  0.96712428923E+02  0.00000000000E+00 0. -1.
         25    2    1    2    0    0 -0.46549771048E+02 -0.86999270540E+02  0.17538947893E+03  0.23692626177E+03  0.12504731081E+03 0.  0.
          4    1    3    3  502    0 -0.56131153867E+02 -0.11264668859E+03  0.16520304781E+03  0.20768640493E+03  0.12700000000E+01 0.  1.
         -4    1    3    3    0  502  0.95813828189E+01  0.25647418053E+02  0.10186431119E+02  0.29239856847E+02  0.12700000000E+01 0.  1.
          1    1    1    2  503    0  0.33341529045E+02  0.50514098297E+01 -0.22729262603E+02  0.40666862171E+02  0.00000000000E+00 0. -1.
         -2    1    1    2    0  501  0.13208242003E+02  0.81947860710E+02  0.16051246011E+02  0.84543196239E+02  0.00000000000E+00 0.  1.
<mgrwt>
<rscale>  0 0.55099952E+02</rscale>
<asrwt>0</asrwt>
<pdfrwt beam="2">  1        1 0.14878835E-01 0.33722015E+02</pdfrwt>
<pdfrwt beam="1">  1       -2 0.40834445E-01 0.90030345E+02</pdfrwt>
<totfact> 0.17008124E+03</totfact>
</mgrwt>
</event>
<event>
 7    1  0.3113151E-004  0.1407203E+03  0.7546771E-02  0.1293928E+00
         -1   -1    0    0    0  501 -0.00000000000E+00  0.00000000000E+00  0.45498711278E+03  0.45498711278E+03  0.00000000000E+00 0.  1.
          2   -1    0    0  503    0  0.00000000000E+00 -0.00000000000E+00 -0.67619859735E+03  0.67619859735E+03  0.00000000000E+00 0. -1.
         25    2    1    2    0    0  0.93764493436E+02 -0.73334049920E+02 -0.23297197005E+03  0.28994618322E+03  0.12499274869E+03 0.  0.
          4    1    3    3  502    0  0.78855119807E+02  0.15348906126E+02 -0.86424656229E+02  0.11800234296E+03  0.12700000000E+01 0. -1.
         -4    1    3    3    0  502  0.14909373629E+02 -0.88682956046E+02 -0.14654731383E+03  0.17194384026E+03  0.12700000000E+01 0. -1.
          2    1    1    2  503    0 -0.78033615997E+02  0.13383151396E+03 -0.39781805993E+03  0.42691840926E+03  0.00000000000E+00 0. -1.
         -1    1    1    2    0  501 -0.15730877439E+02 -0.60497464043E+02  0.40957854542E+03  0.41432111765E+03  0.00000000000E+00 0.  1.
<mgrwt>
<rscale>  0 0.93788680E+02</rscale>
<asrwt>0</asrwt>
<pdfrwt beam="2">  1        2 0.10403055E+00 0.14072029E+03</pdfrwt>
<pdfrwt beam="1">  1       -1 0.69998018E-01 0.62509229E+02</pdfrwt>
<totfact> 0.11401461E+02</totfact>
</mgrwt>
</event>
<event>
 7    1  0.3113151E-004  0.6669469E+02  0.7546771E-02  0.1448076E+00
          2   -1    0    0  502    0  0.00000000000E+00  0.00000000000E+00  0.24521935372E+04  0.24521935372E+04  0.00000000000E+00 0. -1.
          3   -1    0    0  503    0 -0.00000000000E+00 -0.00000000000E+00 -0.16677826216E+03  0.16677826216E+03  0.00000000000E+00 0. -1.
         25    2    1    2    0    0  0.96839043832E+02 -0.24129221130E+00  0.17829037890E+02  0.15912647031E+03  0.12500200130E+03 0.  0.
          4    1    3    3  501    0  0.30833928428E+02 -0.52308928165E+02 -0.23893201722E+02  0.65264485722E+02  0.12700000000E+01 0.  1.
         -4    1    3    3    0  501  0.66005115404E+02  0.52067635953E+02  0.41722239612E+02  0.93861984592E+02  0.12700000000E+01 0.  1.
          2    1    1    2  502    0 -0.34657801159E+02  0.12172382705E+02  0.23531312021E+04  0.23534178941E+04  0.00000000000E+00 0. -1.
          3    1    1    2  503    0 -0.62181242673E+02 -0.11931090493E+02 -0.85544964993E+02  0.10642743489E+03  0.00000000000E+00 0. -1.
<mgrwt>
<rscale>  0 0.49496578E+02</rscale>
<asrwt>0</asrwt>
<pdfrwt beam="1">  1        2 0.37726052E+00 0.36733229E+02</pdfrwt>
<pdfrwt beam="2">  1        3 0.25658196E-01 0.66694687E+02</pdfrwt>
<totfact> 0.45414551E+01</totfact>
</mgrwt>
</event>
<event>
 7    1  0.3113151E-004  0.7369749E+02  0.7546771E-02  0.1402111E+00
          2   -1    0    0  503    0  0.00000000000E+00  0.00000000000E+00  0.93462087485E+03  0.93462087485E+03  0.00000000000E+00 0. -1.
         -2   -1    0    0    0  501 -0.00000000000E+00 -0.00000000000E+00 -0.10929995351E+03  0.10929995351E+03  0.00000000000E+00 0.  1.
         25    2    1    2    0    0  0.40802761894E+02  0.51773396263E+02  0.10760533225E+03  0.17761768795E+03  0.12499514233E+03 0.  0.
          4    1    3    3  502    0 -0.23551546485E+02  0.48680959796E+02  0.98717296374E+02  0.11256655228E+03  0.12700000000E+01 0.  1.
         -4    1    3    3    0  502  0.64354308378E+02  0.30924364667E+01  0.88880358716E+01  0.65051135669E+02  0.12700000000E+01 0.  1.
          2    1    1    2  503    0 -0.40216379376E+02  0.24748046898E+02  0.77138886753E+03  0.77283284606E+03  0.00000000000E+00 0. -1.
         -2    1    1    2    0  501 -0.58638251810E+00 -0.76521443161E+02 -0.53673278444E+02  0.93470294355E+02  0.00000000000E+00 0.  1.
<mgrwt>
<rscale>  0 0.58992112E+02</rscale>
<asrwt>0</asrwt>
<pdfrwt beam="1">  1        2 0.14378782E+00 0.47221002E+02</pdfrwt>
<pdfrwt beam="2">  1       -2 0.16815378E-01 0.73697490E+02</pdfrwt>
<totfact> 0.84114399E+02</totfact>
</mgrwt>
</event>
<event>
 7    1  0.3113151E-004  0.4073782E+02  0.7546771E-02  0.1597729E+00
         -1   -1    0    0    0  501 -0.00000000000E+00  0.00000000000E+00  0.10507092358E+02  0.10507092358E+02  0.00000000000E+00 0.  1.
          1   -1    0    0  503    0  0.00000000000E+00 -0.00000000000E+00 -0.14150096387E+04  0.14150096387E+04  0.00000000000E+00 0. -1.
         25    2    1    2    0    0  0.29100762079E+02 -0.34946445121E+02 -0.61927011321E+03  0.63339434775E+03  0.12499927307E+03 0.  0.
          4    1    3    3  502    0  0.13954920395E+02 -0.38240689861E+02 -0.61619734468E+03  0.61754179669E+03  0.12700000000E+01 0. -1.
         -4    1    3    3    0  502  0.15145841684E+02  0.32942447407E+01 -0.30727685268E+01  0.15852551061E+02  0.12700000000E+01 0. -1.
          1    1    1    2  503    0  0.88997065343E+01  0.20273100131E+02 -0.66122978715E+03  0.66160035881E+03  0.00000000000E+00 0. -1.
         -1    1    1    2    0  501 -0.38000468613E+02  0.14673344989E+02 -0.12400264598E+03  0.13052202450E+03  0.00000000000E+00 0.  1.
<mgrwt>
<rscale>  0 0.30032601E+02</rscale>
<asrwt>0</asrwt>
<pdfrwt beam="2">  1        1 0.21769377E+00 0.22140537E+02</pdfrwt>
<pdfrwt beam="1">  1       -1 0.16164759E-02 0.40737817E+02</pdfrwt>
<totfact> 0.74187677E+03</totfact>
</mgrwt>
</event>
<event>
 7    1  0.3113151E-004  0.1077773E+03  0.7546771E-02  0.1435801E+00
          2   -1    0    0  503    0  0.00000000000E+00  0.00000000000E+00  0.18324557309E+04  0.18324557309E+04  0.00000000000E+00 0. -1.
         -2   -1    0    0    0  501 -0.00000000000E+00 -0.00000000000E+00 -0.51576398234E+03  0.51576398234E+03  0.00000000000E+00 0.  1.
         25    2    1    2    0    0 -0.46397102580E+02 -0.74989773363E+02  0.34393324855E+03  0.37642051444E+03  0.12500466789E+03 0.  0.
          4    1    3    3  502    0  0.20388616799E+02  0.23881982682E+02  0.10080840823E+03  0.10559352661E+03  0.12700000000E+01 0.  1.
         -4    1    3    3    0  502 -0.66785719379E+02 -0.98871756045E+02  0.24312484032E+03  0.27082698783E+03  0.12700000000E+01 0.  1.
          2    1    1    2  503    0  0.42079214920E+01 -0.24550737365E+02  0.14663221037E+04  0.14665336536E+04  0.00000000000E+00 0. -1.
         -2    1    1    2    0  501  0.42189181088E+02  0.99540510728E+02 -0.49356360369E+03  0.50526554520E+03  0.00000000000E+00 0.  1.
<mgrwt>
<rscale>  0 0.51813094E+02</rscale>
<asrwt>0</asrwt>
<pdfrwt beam="1">  1        2 0.28191626E+00 0.24908740E+02</pdfrwt>
<pdfrwt beam="2">  1       -2 0.79348306E-01 0.10777730E+03</pdfrwt>
<totfact> 0.17479352E+01</totfact>
</mgrwt>
</event>
<event>
 7    1  0.3113151E-004  0.7732227E+02  0.7546771E-02  0.1439746E+00
          3   -1    0    0  503    0 -0.00000000000E+00  0.00000000000E+00  0.10351733901E+03  0.10351733901E+03  0.00000000000E+00 0. -1.
          2   -1    0    0  502    0  0.00000000000E+00 -0.00000000000E+00 -0.51181574268E+03  0.51181574268E+03  0.00000000000E+00 0. -1.
         25    2    1    2    0    0  0.10217852259E+03  0.33590791439E+02 -0.16993664063E+03  0.23678953606E+03  0.12498812269E+03 0.  0.
          4    1    3    3  501    0  0.55131264507E+01 -0.13805485078E+02  0.16033197609E+02  0.21901194192E+02  0.12700000000E+01 0. -1.
         -4    1    3    3    0  501  0.96665396135E+02  0.47396276516E+02 -0.18596983824E+03  0.21488834187E+03  0.12700000000E+01 0. -1.
          2    1    1    2  502    0 -0.30157007039E+02 -0.15058656508E+02 -0.28746047249E+03  0.28943001132E+03  0.00000000000E+00 0. -1.
          3    1    1    2  503    0 -0.72021515547E+02 -0.18532134930E+02  0.49098709447E+02  0.89113534304E+02  0.00000000000E+00 0. -1.
<mgrwt>
<rscale>  0 0.51052472E+02</rscale>
<asrwt>0</asrwt>
<pdfrwt beam="2">  1        2 0.78740884E-01 0.33707688E+02</pdfrwt>
<pdfrwt beam="1">  1        3 0.15925744E-01 0.77322268E+02</pdfrwt>
<totfact> 0.11787491E+03</totfact>
</mgrwt>
</event>
<event>
 7    1  0.3113151E-004  0.5743465E+02  0.7546771E-02  0.1471347E+00
         -1   -1    0    0    0  501 -0.00000000000E+00  0.00000000000E+00  0.11199875300E+03  0.11199875300E+03  0.00000000000E+00 0.  1.
          1   -1    0    0  503    0  0.00000000000E+00 -0.00000000000E+00 -0.33057575526E+03  0.33057575526E+03  0.00000000000E+00 0. -1.
         25    2    1    2    0    0  0.17049577478E+02 -0.84643879656E+02 -0.82126145596E+02  0.17270115438E+03  0.12500284188E+03 0.  0.
          4    1    3    3  502    0  0.61381912287E+02 -0.62916721526E+02 -0.86235416755E+02  0.12314387117E+03  0.12700000000E+01 0. -1.
         -4    1    3    3    0  502 -0.44332334809E+02 -0.21727158131E+02  0.41092711583E+01  0.49557283214E+02  0.12700000000E+01 0. -1.
          1    1    1    2  503    0 -0.24588200734E+02  0.49422914332E+02 -0.19415532326E+03  0.20185017619E+03  0.00000000000E+00 0. -1.
         -1    1    1    2    0  501  0.75386232562E+01  0.35220965324E+02  0.57704466587E+02  0.68023177690E+02  0.00000000000E+00 0.  1.
<mgrwt>
<rscale>  0 0.45483202E+02</rscale>
<asrwt>0</asrwt>
<pdfrwt beam="2">  1        1 0.50857808E-01 0.57434645E+02</pdfrwt>
<pdfrwt beam="1">  1       -1 0.17230577E-01 0.36018707E+02</pdfrwt>
<totfact> 0.18335795E+03</totfact>
</mgrwt>
</event>
<event>
 7    1  0.3113151E-004  0.2259446E+02  0.7546771E-02  0.1706522E+00
          2   -1    0    0  503    0  0.00000000000E+00  0.00000000000E+00  0.74137508534E+03  0.74137508534E+03  0.00000000000E+00 0. -1.
         -1   -1    0    0    0  501 -0.00000000000E+00 -0.00000000000E+00 -0.16761708459E+02  0.16761708459E+02  0.00000000000E+00 0.  1.
         25    2    1    2    0    0 -0.23171866835E+02  0.93733542506E+01  0.54463095359E+03  0.55935029426E+03  0.12500032356E+03 0.  0.
          4    1    3    3  502    0  0.36648037513E+02  0.34156685105E+02  0.36454054223E+03  0.36796899002E+03  0.12700000000E+01 0. -1.
         -4    1    3    3    0  502 -0.59819904347E+02 -0.24783330854E+02  0.18009041136E+03  0.19138130423E+03  0.12700000000E+01 0. -1.
          2    1    1    2  503    0  0.37385224715E+01 -0.21291373298E+02  0.17383698139E+03  0.17517589796E+03  0.00000000000E+00 0. -1.
         -1    1    1    2    0  501  0.19433344363E+02  0.11918019048E+02  0.61454419040E+01  0.23610601588E+02  0.00000000000E+00 0.  1.
<mgrwt>
<rscale>  0 0.22100380E+02</rscale>
<asrwt>0</asrwt>
<pdfrwt beam="1">  1        2 0.11405768E+00 0.21617103E+02</pdfrwt>
<pdfrwt beam="2">  1       -1 0.25787250E-02 0.22594462E+02</pdfrwt>
<totfact> 0.16376869E+04</totfact>
</mgrwt>
</event>
<event>
 7    1  0.3113151E-004  0.1266352E+03  0.7546771E-02  0.1323240E+00
          2   -1    0    0  502    0  0.00000000000E+00  0.00000000000E+00  0.37024255986E+03  0.37024255986E+03  0.00000000000E+00 0. -1.
          2   -1    0    0  503    0 -0.00000000000E+00 -0.00000000000E+00 -0.52048296830E+03  0.52048296830E+03  0.00000000000E+00 0. -1.
         25    2    1    2    0    0  0.52316212510E+02  0.11863714246E+03 -0.20101299059E+03  0.26989631122E+03  0.12500415499E+03 0.  0.
          4    1    3    3  501    0  0.33408086100E+02 -0.16151659533E+02 -0.16551455936E+02  0.40651444207E+02  0.12700000000E+01 0.  1.
         -4    1    3    3    0  501  0.18908126411E+02  0.13478880200E+03 -0.18446153465E+03  0.22924486702E+03  0.12700000000E+01 0.  1.
          2    1    1    2  502    0  0.22447143236E+00 -0.12702359756E+03  0.32110196165E+03  0.34531364656E+03  0.00000000000E+00 0. -1.
          2    1    1    2  503    0 -0.52540683943E+02  0.83864551029E+01 -0.27032937950E+03  0.27551557037E+03  0.00000000000E+00 0. -1.
<mgrwt>
<rscale>  0 0.82083653E+02</rscale>
<asrwt>0</asrwt>
<pdfrwt beam="1">  1        2 0.56960394E-01 0.12663521E+03</pdfrwt>
<pdfrwt beam="2">  1        2 0.80074303E-01 0.53205790E+02</pdfrwt>
<totfact> 0.82417548E+02</totfact>
</mgrwt>
</event>
<event>
 7    1  0.3113151E-004  0.7637938E+02  0.7546771E-02  0.1340936E+00
         -3   -1    0    0    0  501 -0.00000000000E+00  0.00000000000E+00  0.56629642228E+03  0.56629642228E+03  0.00000000000E+00 0.  1.
          2   -1    0    0  503    0  0.00000000000E+00 -0.00000000000E+00 -0.29501010614E+03  0.29501010614E+03  0.00000000000E+00 0. -1.
         25    2    1    2    0    0  0.42966713010E+01  0.16220332531E+02  0.80527285433E+02  0.14967035037E+03  0.12504003162E+03 0.  0.
          4    1    3    3  502    0  0.18916197125E+02 -0.51344342482E+02  0.49844417269E+02  0.74027986947E+02  0.12700000000E+01 0.  1.
         -4    1    3    3    0  502 -0.14619525824E+02  0.67564675013E+02  0.30682868165E+02  0.75642363420E+02  0.12700000000E+01 0.  1.
          2    1    1    2  503    0 -0.64290628911E+02  0.41237412506E+02 -0.25088175371E+03  0.26225076454E+03  0.00000000000E+00 0. -1.
         -3    1    1    2    0  501  0.59993957610E+02 -0.57457745037E+02  0.44164078442E+03  0.44938541351E+03  0.00000000000E+00 0.  1.
<mgrwt>
<rscale>  0 0.75955953E+02</rscale>
<asrwt>0</asrwt>
<pdfrwt beam="2">  1        2 0.45386170E-01 0.76379377E+02</pdfrwt>
<pdfrwt beam="1">  1       -3 0.87122526E-01 0.75534876E+02</pdfrwt>
<totfact> 0.82256118E+01</totfact>
</mgrwt>
</event>
<event>
 7    1  0.3113151E-004  0.3926153E+02  0.7546771E-02  0.1516194E+00
          1   -1    0    0  503    0  0.00000000000E+00  0.00000000000E+00  0.84631137076E+03  0.84631137076E+03  0.00000000000E+00 0. -1.
         -1   -1    0    0    0  501 -0.00000000000E+00 -0.00000000000E+00 -0.99458352413E+02  0.99458352413E+02  0.00000000000E+00 0.  1.
         25    2    1    2    0    0 -0.41629277594E+02 -0.52758119330E+02  0.19519959325E+03  0.24134435922E+03  0.12501120995E+03 0.  0.
          4    1    3    3  502    0 -0.97660779293E+00 -0.85303933875E+02  0.90349119173E+02  0.12426701547E+03  0.12700000000E+01 0.  1.
         -4    1    3    3    0  502 -0.40652669801E+02  0.32545814545E+02  0.10485047408E+03  0.11707734375E+03  0.12700000000E+01 0.  1.
          1    1    1    2  503    0  0.35837295619E+02  0.14373648663E+02  0.62247034236E+03  0.62366677052E+03  0.00000000000E+00 0. -1.
         -1    1    1    2    0  501  0.57919819756E+01  0.38384470667E+02 -0.70816917260E+02  0.80758593437E+02  0.00000000000E+00 0.  1.
<mgrwt>
<rscale>  0 0.38935585E+02</rscale>
<asrwt>0</asrwt>
<pdfrwt beam="1">  1        1 0.13020174E+00 0.38612349E+02</pdfrwt>
<pdfrwt beam="2">  1       -1 0.15301286E-01 0.39261527E+02</pdfrwt>
<totfact> 0.66604418E+02</totfact>
</mgrwt>
</event>
<event>
 7    1  0.3113151E-004  0.7160807E+02  0.7546771E-02  0.1370066E+00
          1   -1    0    0  503    0  0.00000000000E+00  0.00000000000E+00  0.51040478061E+03  0.51040478061E+03  0.00000000000E+00 0. -1.
         -2   -1    0    0    0  501 -0.00000000000E+00 -0.00000000000E+00 -0.43861690364E+02  0.43861690364E+02  0.00000000000E+00 0.  1.
         25    2    1    2    0    0 -0.52893840963E+02 -0.87941372936E+02  0.20382436814E+03  0.26019395065E+03  0.12500030168E+03 0.  0.
          4    1    3    3  502    0 -0.75330340047E+02 -0.13834055492E+02  0.14104600688E+03  0.16050429957E+03  0.12700000000E+01 0. -1.
         -4    1    3    3    0  502  0.22436499084E+02 -0.74107317444E+02  0.62778361264E+02  0.99689651082E+02  0.12700000000E+01 0. -1.
          1    1    1    2  503    0 -0.66124024218E+01  0.67352626697E+02  0.15794342149E+03  0.17183196612E+03  0.00000000000E+00 0. -1.
         -2    1    1    2    0  501  0.59506243385E+02  0.20588746239E+02  0.10477530061E+03  0.12224055420E+03  0.00000000000E+00 0.  1.
<mgrwt>
<rscale>  0 0.67148877E+02</rscale>
<asrwt>0</asrwt>
<pdfrwt beam="1">  1        1 0.78523808E-01 0.71608070E+02</pdfrwt>
<pdfrwt beam="2">  1       -2 0.67479527E-02 0.62967368E+02</pdfrwt>
<totfact> 0.43757325E+03</totfact>
</mgrwt>
</event>
<event>
 7    1  0.3113151E-004  0.3102308E+02  0.7546771E-02  0.1591920E+00
         -1   -1    0    0    0  501 -0.00000000000E+00  0.00000000000E+00  0.62756752360E+03  0.62756752360E+03  0.00000000000E+00 0.  1.
          2   -1    0    0  503    0  0.00000000000E+00 -0.00000000000E+00 -0.16963170476E+02  0.16963170476E+02  0.00000000000E+00 0. -1.
         25    2    1    2    0    0  0.16742944860E+01 -0.55763419986E+01  0.37932726932E+03  0.39943164240E+03  0.12499024300E+03 0.  0.
          4    1    3    3  502    0  0.45939598157E+02  0.75728038537E+01  0.56077567638E+02  0.72897877399E+02  0.12700000000E+01 0.  1.
         -4    1    3    3    0  502 -0.44265303671E+02 -0.13149145852E+02  0.32324970168E+03  0.32653376500E+03  0.12700000000E+01 0.  1.
          2    1    1    2  503    0  0.11861777274E+02  0.32477517598E+02  0.46837967635E+02  0.58217575711E+02  0.00000000000E+00 0. -1.
         -1    1    1    2    0  501 -0.13536071760E+02 -0.26901175599E+02  0.18443911616E+03  0.18688147596E+03  0.00000000000E+00 0.  1.
<mgrwt>
<rscale>  0 0.30565542E+02</rscale>
<asrwt>0</asrwt>
<pdfrwt beam="2">  1        2 0.26097190E-02 0.31023077E+02</pdfrwt>
<pdfrwt beam="1">  1       -1 0.96548832E-01 0.30114755E+02</pdfrwt>
<totfact> 0.39528964E+03</totfact>
</mgrwt>
</event>
<event>
 7    1  0.3113151E-004  0.1160194E+03  0.7546771E-02  0.1258844E+00
          1   -1    0    0  503    0  0.00000000000E+00  0.00000000000E+00  0.21568555840E+03  0.21568555840E+03  0.00000000000E+00 0. -1.
         -1   -1    0    0    0  501 -0.00000000000E+00 -0.00000000000E+00 -0.52871526463E+03  0.52871526463E+03  0.00000000000E+00 0.  1.
         25    2    1    2    0    0  0.33448836544E+02 -0.34454859869E+01 -0.68956817098E+01  0.12960168864E+03  0.12497340210E+03 0.  0.
          4    1    3    3  502    0 -0.11406861944E+01  0.34051355834E+02  0.45239815822E+02  0.56648476014E+02  0.12700000000E+01 0.  1.
         -4    1    3    3    0  502  0.34589522738E+02 -0.37496841821E+02 -0.52135497532E+02  0.72953212628E+02  0.12700000000E+01 0.  1.
          1    1    1    2  503    0  0.75312786665E+02  0.74702749243E+02  0.12531442310E+03  0.16418349861E+03  0.00000000000E+00 0. -1.
         -1    1    1    2    0  501 -0.10876162321E+03 -0.71257263256E+02 -0.43144844762E+03  0.45061563577E+03  0.00000000000E+00 0.  1.
<mgrwt>
<rscale>  0 0.11093733E+03</rscale>
<asrwt>0</asrwt>
<pdfrwt beam="1">  1        1 0.33182393E-01 0.10607788E+03</pdfrwt>
<pdfrwt beam="2">  1       -1 0.81340810E-01 0.11601938E+03</pdfrwt>
<totfact> 0.21503657E+02</totfact>
</mgrwt>
</event>
<event>
 7    1  0.3113151E-004  0.4373581E+02  0.7546771E-02  0.1529818E+00
         -2   -1    0    0    0  501 -0.00000000000E+00  0.00000000000E+00  0.96227894277E+02  0.96227894277E+02  0.00000000000E+00 0.  1.
          1   -1    0    0  503    0  0.00000000000E+00 -0.00000000000E+00 -0.12431309951E+03  0.12431309951E+03  0.00000000000E+00 0. -1.
         25    2    1    2    0    0 -0.36810588468E+02 -0.57162188451E+01 -0.20447078141E+02  0.13202345952E+03  0.12499766509E+03 0.  0.
          4    1    3    3  502    0 -0.65674569804E+02 -0.11303552615E+02 -0.55159276966E+02  0.86516346178E+02  0.12700000000E+01 0.  1.
         -4    1    3    3    0  502  0.28863981336E+02  0.55873337698E+01  0.34712198825E+02  0.45507113339E+02  0.12700000000E+01 0.  1.
          1    1    1    2  503    0  0.39955477464E+02 -0.25782878225E+02 -0.23576439219E+02  0.53075846439E+02  0.00000000000E+00 0. -1.
         -2    1    1    2    0  501 -0.31448889969E+01  0.31499097070E+02  0.15938312124E+02  0.35441687833E+02  0.00000000000E+00 0.  1.
<mgrwt>
<rscale>  0 0.37208706E+02</rscale>
<asrwt>0</asrwt>
<pdfrwt beam="2">  1        1 0.19125092E-01 0.43735811E+02</pdfrwt>
<pdfrwt beam="1">  1       -2 0.14804291E-01 0.31655702E+02</pdfrwt>
<totfact> 0.68900479E+03</totfact>
</mgrwt>
</event>
<event>
 7    1  0.3113151E-004  0.3551714E+02  0.7546771E-02  0.1554984E+00
          2   -1    0    0  503    0  0.00000000000E+00  0.00000000000E+00  0.18771315958E+03  0.18771315958E+03  0.00000000000E+00 0. -1.
         -1   -1    0    0    0  501 -0.00000000000E+00 -0.00000000000E+00 -0.59776521859E+02  0.59776521859E+02  0.00000000000E+00 0.  1.
         25    2    1    2    0    0  0.73319039422E+01  0.23613791562E+02  0.76979027561E+02  0.14886945525E+03  0.12499990422E+03 0.  0.
          4    1    3    3  502    0  0.54985051502E+02  0.46051871135E+02  0.28227816507E+02  0.77087957869E+02  0.12700000000E+01 0. -1.
         -4    1    3    3    0  502 -0.47653147560E+02 -0.22438079573E+02  0.48751211054E+02  0.71781497383E+02  0.12700000000E+01 0. -1.
          2    1    1    2  503    0  0.28185196210E+02 -0.23665129015E+02  0.51258128767E+02  0.63101817576E+02  0.00000000000E+00 0. -1.
         -1    1    1    2    0  501 -0.35517100152E+02  0.51337452684E-01 -0.30051860787E+00  0.35518408610E+02  0.00000000000E+00 0.  1.
<mgrwt>
<rscale>  0 0.34291503E+02</rscale>
<asrwt>0</asrwt>
<pdfrwt beam="1">  1        2 0.28878947E-01 0.33108164E+02</pdfrwt>
<pdfrwt beam="2">  1       -1 0.91963880E-02 0.35517137E+02</pdfrwt>
<totfact> 0.11762440E+04</totfact>
</mgrwt>
</event>
<event>
 7    1  0.3113151E-004  0.2985831E+02  0.7546771E-02  0.1626680E+00
          3   -1    0    0  502    0  0.00000000000E+00  0.00000000000E+00  0.19497732237E+02  0.19497732237E+02  0.00000000000E+00 0.  1.
          3   -1    0    0  503    0 -0.00000000000E+00 -0.00000000000E+00 -0.82628898727E+03  0.82628898727E+03  0.00000000000E+00 0. -1.
         25    2    1    2    0    0 -0.26292300016E+02  0.20279472472E+01 -0.35467053134E+03  0.37696203428E+03  0.12495515948E+03 0.  0.
          4    1    3    3  501    0  0.15227140490E+02  0.25336272028E+02 -0.31080188965E+03  0.31220701465E+03  0.12700000000E+01 0. -1.
         -4    1    3    3    0  501 -0.41519440506E+02 -0.23308324781E+02 -0.43868641690E+02  0.64755019634E+02  0.12700000000E+01 0. -1.
          3    1    1    2  502    0  0.17115056440E+02 -0.25762947545E+02 -0.22009835496E+02  0.37961658048E+02  0.00000000000E+00 0.  1.
          3    1    1    2  503    0  0.91772435760E+01  0.23735000298E+02 -0.43011088820E+03  0.43086302717E+03  0.00000000000E+00 0. -1.
<mgrwt>
<rscale>  0 0.27564789E+02</rscale>
<asrwt>0</asrwt>
<pdfrwt beam="1">  1        3 0.29996521E-02 0.29858315E+02</pdfrwt>
<pdfrwt beam="2">  1        3 0.12712134E+00 0.25447437E+02</pdfrwt>
<totfact> 0.44517942E+02</totfact>
</mgrwt>
</event>
<event>
 7    1  0.3113151E-004  0.8636298E+02  0.7546771E-02  0.1347364E+00
          3   -1    0    0  503    0  0.00000000000E+00  0.00000000000E+00  0.65923495126E+02  0.65923495126E+02  0.00000000000E+00 0. -1.
         -3   -1    0    0    0  501 -0.00000000000E+00 -0.00000000000E+00 -0.77828971694E+03  0.77828971694E+03  0.00000000000E+00 0.  1.
         25    2    1    2    0    0 -0.30933688393E+02 -0.17561629693E+02 -0.72412155431E+02  0.14876577990E+03  0.12498973197E+03 0.  0.
          4    1    3    3  502    0 -0.41111948891E+02  0.16014344354E+02 -0.96549778799E+02  0.10616084143E+03  0.12700000000E+01 0. -1.
         -4    1    3    3    0  502  0.10178260498E+02 -0.33575974048E+02  0.24137623368E+02  0.42604938468E+02  0.12700000000E+01 0. -1.
          3    1    1    2  503    0 -0.14454720479E+02 -0.61532421450E+02 -0.16454110710E+02  0.65313977010E+02  0.00000000000E+00 0. -1.
         -3    1    1    2    0  501  0.45388408872E+02  0.79094051143E+02 -0.62349995567E+03  0.63013345515E+03  0.00000000000E+00 0.  1.
<mgrwt>
<rscale>  0 0.73883563E+02</rscale>
<asrwt>0</asrwt>
<pdfrwt beam="1">  1        3 0.10142076E-01 0.63207419E+02</pdfrwt>
<pdfrwt beam="2">  1       -3 0.11973688E+00 0.86362976E+02</pdfrwt>
<totfact> 0.91635726E+01</totfact>
</mgrwt>
</event>
<event>
 7    1  0.3113151E-004  0.7121269E+02  0.7546771E-02  0.1365325E+00
          1   -1    0    0  503    0  0.00000000000E+00  0.00000000000E+00  0.16029175524E+03  0.16029175524E+03  0.00000000000E+00 0. -1.
         -3   -1    0    0    0  501 -0.00000000000E+00 -0.00000000000E+00 -0.20347084370E+03  0.20347084370E+03  0.00000000000E+00 0.  1.
         25    2    1    2    0    0 -0.87509611810E+02 -0.42401464172E+02 -0.61245295290E+02  0.16980001068E+03  0.12500096443E+03 0.  0.
          4    1    3    3  502    0 -0.64811124790E+02  0.36532386484E+02 -0.41957987545E+02  0.85423549316E+02  0.12700000000E+01 0. -1.
         -4    1    3    3    0  502 -0.22698487020E+02 -0.78933850657E+02 -0.19287307744E+02  0.84376461365E+02  0.12700000000E+01 0. -1.
          1    1    1    2  503    0  0.67776042269E+02 -0.20432951664E+02  0.77703123477E+02  0.10511361861E+03  0.00000000000E+00 0. -1.
         -3    1    1    2    0  501  0.19733569541E+02  0.62834415837E+02 -0.59636916647E+02  0.88848969648E+02  0.00000000000E+00 0.  1.
<mgrwt>
<rscale>  0 0.68484221E+02</rscale>
<asrwt>0</asrwt>
<pdfrwt beam="1">  1        1 0.24660270E-01 0.71212694E+02</pdfrwt>
<pdfrwt beam="2">  1       -3 0.31303207E-01 0.65860288E+02</pdfrwt>
<totfact> 0.93312947E+02</totfact>
</mgrwt>
</event>
<event>
 7    1  0.3113151E-004  0.1001547E+03  0.7546771E-02  0.1318245E+00
          2   -1    0    0  502    0  0.00000000000E+00  0.00000000000E+00  0.89100894664E+03  0.89100894664E+03  0.00000000000E+00 0. -1.
          3   -1    0    0  503    0 -0.00000000000E+00 -0.00000000000E+00 -0.13255705441E+03  0.13255705441E+03  0.00000000000E+00 0. -1.
         25    2    1    2    0    0 -0.62336202916E+00 -0.38100745115E+02 -0.24012300994E+02  0.13285698271E+03  0.12498932713E+03 0.  0.
          4    1    3    3  501    0  0.15908302131E+02 -0.24975335542E+02  0.48767243250E+02  0.57067489662E+02  0.12700000000E+01 0.  1.
         -4    1    3    3    0  501 -0.16531664160E+02 -0.13125409573E+02 -0.72779544244E+02  0.75789493049E+02  0.12700000000E+01 0.  1.
          2    1    1    2  502    0  0.45475149442E+02  0.92285429313E+02  0.80901111401E+03  0.81552656135E+03  0.00000000000E+00 0. -1.
          3    1    1    2  503    0 -0.44851787413E+02 -0.54184684198E+02 -0.26546920784E+02  0.75182456989E+02  0.00000000000E+00 0. -1.
<mgrwt>
<rscale>  0 0.83933578E+02</rscale>
<asrwt>0</asrwt>
<pdfrwt beam="1">  1        2 0.13707830E+00 0.10015472E+03</pdfrwt>
<pdfrwt beam="2">  1        3 0.20393394E-01 0.70339625E+02</pdfrwt>
<totfact> 0.39375734E+02</totfact>
</mgrwt>
</event>
<event>
 7    1  0.3113151E-004  0.9534699E+02  0.7546771E-02  0.1427993E+00
          1   -1    0    0  503    0 -0.00000000000E+00  0.00000000000E+00  0.94360240811E+03  0.94360240811E+03  0.00000000000E+00 0. -1.
          2   -1    0    0  502    0  0.00000000000E+00 -0.00000000000E+00 -0.18402341442E+03  0.18402341442E+03  0.00000000000E+00 0. -1.
         25    2    1    2    0    0  0.55398523691E+02 -0.55986419965E+02  0.15288897927E+03  0.21261987311E+03  0.12501477837E+03 0.  0.
          4    1    3    3  501    0 -0.27297981486E+02 -0.24085256530E+01  0.93774599309E+02  0.97705010950E+02  0.12700000000E+01 0.  1.
         -4    1    3    3    0  501  0.82696505177E+02 -0.53577894312E+02  0.59114379959E+02  0.11491486216E+03  0.12700000000E+01 0.  1.
          2    1    1    2  502    0 -0.47186493625E+02  0.84703364808E+02 -0.13858310291E+03  0.16913456655E+03  0.00000000000E+00 0. -1.
          1    1    1    2  503    0 -0.82120300664E+01 -0.28716944844E+02  0.74527311733E+03  0.74587138286E+03  0.00000000000E+00 0. -1.
<mgrwt>
<rscale>  0 0.53365051E+02</rscale>
<asrwt>0</asrwt>
<pdfrwt beam="2">  1        2 0.28311295E-01 0.95346992E+02</pdfrwt>
<pdfrwt beam="1">  1        1 0.14516960E+00 0.29868049E+02</pdfrwt>
<totfact> 0.50362773E+02</totfact>
</mgrwt>
</event>
<event>
 7    1  0.3113151E-004  0.5506106E+02  0.7546771E-02  0.1494886E+00
          1   -1    0    0  503    0 -0.00000000000E+00  0.00000000000E+00  0.17545305946E+04  0.17545305946E+04  0.00000000000E+00 0. -1.
          2   -1    0    0  502    0  0.00000000000E+00 -0.00000000000E+00 -0.71399354639E+02  0.71399354639E+02  0.00000000000E+00 0. -1.
         25    2    1    2    0    0 -0.23233231810E+02 -0.59619090142E+02  0.24002768534E+03  0.27808941933E+03  0.12500486569E+03 0.  0.
          4    1    3    3  501    0 -0.22927749264E+02 -0.98681814428E+02  0.17561699642E+03  0.20274793344E+03  0.12700000000E+01 0. -1.
         -4    1    3    3    0  501 -0.30548254587E+00  0.39062724287E+02  0.64410688923E+02  0.75341485888E+02  0.12700000000E+01 0. -1.
          2    1    1    2  502    0  0.42826755724E+02  0.34523251720E+02 -0.37704365622E+02  0.66690367386E+02  0.00000000000E+00 0. -1.
          1    1    1    2  503    0 -0.19593523914E+02  0.25095838422E+02  0.14808079202E+04  0.14811501625E+04  0.00000000000E+00 0. -1.
<mgrwt>
<rscale>  0 0.41869755E+02</rscale>
<asrwt>0</asrwt>
<pdfrwt beam="2">  1        2 0.10984517E-01 0.55061059E+02</pdfrwt>
<pdfrwt beam="1">  1        1 0.26992775E+00 0.31838770E+02</pdfrwt>
<totfact> 0.43785130E+02</totfact>
</mgrwt>
</event>
<event>
 7    1  0.3113151E-004  0.6904795E+02  0.7546771E-02  0.1474360E+00
          2   -1    0    0  502    0  0.00000000000E+00  0.00000000000E+00  0.32178679886E+04  0.32178679886E+04  0.00000000000E+00 0. -1.
          1   -1    0    0  503    0 -0.00000000000E+00 -0.00000000000E+00 -0.31303434986E+02  0.31303434986E+02  0.00000000000E+00 0. -1.
         25    2    1    2    0    0  0.17570700700E+02  0.42168248779E+02  0.13984311630E+04  0.14047487925E+04  0.12499024683E+03 0.  0.
          4    1    3    3  501    0  0.19681995726E+01  0.20559913486E+02  0.32318310190E+02  0.38375381765E+02  0.12700000000E+01 0.  1.
         -4    1    3    3    0  501  0.15602501128E+02  0.21608335293E+02  0.13661128528E+04  0.13663734107E+04  0.12700000000E+01 0.  1.
          2    1    1    2  502    0  0.26898765297E+02  0.11675817508E+02  0.17726509314E+04  0.17728934522E+04  0.00000000000E+00 0. -1.
          1    1    1    2  503    0 -0.44469465997E+02 -0.53844066286E+02  0.15482459217E+02  0.71529178827E+02  0.00000000000E+00 0. -1.
<mgrwt>
<rscale>  0 0.44996980E+02</rscale>
<asrwt>0</asrwt>
<pdfrwt beam="1">  1        2 0.49505635E+00 0.29323511E+02</pdfrwt>
<pdfrwt beam="2">  1        1 0.48159156E-02 0.69047948E+02</pdfrwt>
<totfact> 0.48145123E+02</totfact>
</mgrwt>
</event>
<event>
 7    1  0.3113151E-004  0.1593646E+03  0.7546771E-02  0.1322312E+00
          2   -1    0    0  502    0  0.00000000000E+00  0.00000000000E+00  0.11696780689E+04  0.11696780689E+04  0.00000000000E+00 0. -1.
          2   -1    0    0  503    0 -0.00000000000E+00 -0.00000000000E+00 -0.40428652448E+04  0.40428652448E+04  0.00000000000E+00 0. -1.
         25    2    1    2    0    0 -0.39471639886E+01  0.16069675538E+03 -0.20998102902E+04  0.21096604331E+04  0.12499944331E+03 0.  0.
          4    1    3    3  501    0  0.44241550564E+02  0.83568022183E+02 -0.15016490097E+04  0.15046236375E+04  0.12700000000E+01 0. -1.
         -4    1    3    3    0  501 -0.48188714552E+02  0.77128733200E+02 -0.59816128048E+03  0.60503679562E+03  0.12700000000E+01 0. -1.
          2    1    1    2  502    0 -0.38260431911E+02 -0.15471512559E+03  0.11590648914E+04  0.11699709625E+04  0.00000000000E+00 0. -1.
          2    1    1    2  503    0  0.42207595900E+02 -0.59816297958E+01 -0.19324417771E+04  0.19329119180E+04  0.00000000000E+00 0. -1.
<mgrwt>
<rscale>  0 0.82423352E+02</rscale>
<asrwt>0</asrwt>
<pdfrwt beam="1">  1        2 0.17995048E+00 0.15936461E+03</pdfrwt>
<pdfrwt beam="2">  1        2 0.62197925E+00 0.42629345E+02</pdfrwt>
<totfact> 0.20933085E+00</totfact>
</mgrwt>
</event>
<event>
 7    1  0.3113151E-004  0.1433759E+03  0.7546771E-02  0.1320704E+00
         -2   -1    0    0    0  501 -0.00000000000E+00  0.00000000000E+00  0.65681645723E+02  0.65681645723E+02  0.00000000000E+00 0.  1.
          2   -1    0    0  503    0  0.00000000000E+00 -0.00000000000E+00 -0.73575540562E+03  0.73575540562E+03  0.00000000000E+00 0. -1.
         25    2    1    2    0    0 -0.16619110312E+03  0.21124085506E+02 -0.18117190386E+03  0.27661123369E+03  0.12499922443E+03 0.  0.
          4    1    3    3  502    0 -0.67050764225E+02  0.43936100357E+02 -0.14697074917E+02  0.81509525877E+02  0.12700000000E+01 0.  1.
         -4    1    3    3    0  502 -0.99140338897E+02 -0.22812014851E+02 -0.16647482894E+03  0.19510170781E+03  0.12700000000E+01 0.  1.
          2    1    1    2  503    0  0.48012403111E+02 -0.22910005503E+01 -0.27982457152E+03  0.28392293032E+03  0.00000000000E+00 0. -1.
         -2    1    1    2    0  501  0.11817870001E+03 -0.18833084956E+02 -0.20907728452E+03  0.24090288733E+03  0.00000000000E+00 0.  1.
<mgrwt>
<rscale>  0 0.83015996E+02</rscale>
<asrwt>0</asrwt>
<pdfrwt beam="2">  1        2 0.11319313E+00 0.48067032E+02</pdfrwt>
<pdfrwt beam="1">  1       -2 0.10104869E-01 0.14337594E+03</pdfrwt>
<totfact> 0.26249977E+03</totfact>
</mgrwt>
</event>
<event>
 7    1  0.3113151E-004  0.1104359E+03  0.7546771E-02  0.1348483E+00
          2   -1    0    0  502    0  0.00000000000E+00  0.00000000000E+00  0.76749327341E+03  0.76749327341E+03  0.00000000000E+00 0. -1.
          1   -1    0    0  503    0 -0.00000000000E+00 -0.00000000000E+00 -0.10550254726E+04  0.10550254726E+04  0.00000000000E+00 0. -1.
         25    2    1    2    0    0  0.16012175546E+02  0.60047620584E+02  0.70040710142E+03  0.71418274780E+03  0.12499913209E+03 0.  0.
          4    1    3    3  501    0  0.11520663169E+02  0.29100102731E+02  0.31086380204E+02  0.44130687656E+02  0.12700000000E+01 0. -1.
         -4    1    3    3    0  501  0.44915123765E+01  0.30947517853E+02  0.66932072122E+03  0.67005206014E+03  0.12700000000E+01 0. -1.
          2    1    1    2  502    0  0.37220008954E+01  0.48816343511E+02  0.46782342609E+02  0.67716144784E+02  0.00000000000E+00 0. -1.
          1    1    1    2  503    0 -0.19734176441E+02 -0.10886396410E+03 -0.10347216432E+04  0.10406198534E+04  0.00000000000E+00 0. -1.
<mgrwt>
<rscale>  0 0.73530446E+02</rscale>
<asrwt>0</asrwt>
<pdfrwt beam="1">  1        2 0.11807589E+00 0.48958030E+02</pdfrwt>
<pdfrwt beam="2">  1        1 0.16231161E+00 0.11043595E+03</pdfrwt>
<totfact> 0.84228891E+01</totfact>
</mgrwt>
</event>
<event>
 7    1  0.3113151E-004  0.6399862E+02  0.7546771E-02  0.1532443E+00
         -2   -1    0    0    0  501 -0.00000000000E+00  0.00000000000E+00  0.24422488604E+02  0.24422488604E+02  0.00000000000E+00 0.  1.
          1   -1    0    0  503    0  0.00000000000E+00 -0.00000000000E+00 -0.11014091552E+04  0.11014091552E+04  0.00000000000E+00 0. -1.
         25    2    1    2    0    0 -0.33004748762E+02  0.63510276864E+02 -0.22560578380E+03  0.26766704261E+03  0.12499922922E+03 0.  0.
          4    1    3    3  502    0 -0.69763835145E+02  0.37590545464E+02 -0.20170313307E+03  0.21671596293E+03  0.12700000000E+01 0. -1.
         -4    1    3    3    0  502  0.36759086383E+02  0.25919731400E+02 -0.23902650733E+02  0.50951079670E+02  0.12700000000E+01 0. -1.
          1    1    1    2  503    0  0.19724901947E+02 -0.79381428206E+01 -0.59981414504E+03  0.60019088169E+03  0.00000000000E+00 0. -1.
         -2    1    1    2    0  501  0.13279846815E+02 -0.55572134043E+02 -0.25156673779E+03  0.25797371955E+03  0.00000000000E+00 0.  1.
<mgrwt>
<rscale>  0 0.36888461E+02</rscale>
<asrwt>0</asrwt>
<pdfrwt beam="2">  1        1 0.16944759E+00 0.21262311E+02</pdfrwt>
<pdfrwt beam="1">  1       -2 0.37573053E-02 0.63998618E+02</pdfrwt>
<totfact> 0.37253318E+03</totfact>
</mgrwt>
</event>
<event>
 7    1  0.3113151E-004  0.7725512E+02  0.7546771E-02  0.1483901E+00
          1   -1    0    0  503    0  0.00000000000E+00  0.00000000000E+00  0.23158644311E+02  0.23158644311E+02  0.00000000000E+00 0. -1.
         -2   -1    0    0    0  501 -0.00000000000E+00 -0.00000000000E+00 -0.97434869749E+03  0.97434869749E+03  0.00000000000E+00 0.  1.
         25    2    1    2    0    0 -0.71653565708E+02  0.64426235795E+02 -0.69487942606E+03  0.71259164344E+03  0.12507781655E+03 0.  0.
          4    1    3    3  502    0  0.35213873417E+02  0.27890101752E+02 -0.19541528208E+03  0.20051588472E+03  0.12700000000E+01 0.  1.
         -4    1    3    3    0  502 -0.10686743913E+03  0.36536134042E+02 -0.49946414398E+03  0.51207575871E+03  0.12700000000E+01 0.  1.
          1    1    1    2  503    0  0.61496022752E+02 -0.42132828713E+02 -0.90240033261E+02  0.11704785206E+03  0.00000000000E+00 0. -1.
         -2    1    1    2    0  501  0.10157542956E+02 -0.22293407082E+02 -0.16607059386E+03  0.16786784630E+03  0.00000000000E+00 0.  1.
<mgrwt>
<rscale>  0 0.43504331E+02</rscale>
<asrwt>0</asrwt>
<pdfrwt beam="1">  1        1 0.35628684E-02 0.77255116E+02</pdfrwt>
<pdfrwt beam="2">  1       -2 0.14989980E+00 0.24498402E+02</pdfrwt>
<totfact> 0.73813648E+02</totfact>
</mgrwt>
</event>
<event>
 7    1  0.3113151E-004  0.6842407E+02  0.7546771E-02  0.1453040E+00
          1   -1    0    0  503    0  0.00000000000E+00  0.00000000000E+00  0.18746236389E+03  0.18746236389E+03  0.00000000000E+00 0. -1.
         -1   -1    0    0    0  501 -0.00000000000E+00 -0.00000000000E+00 -0.15677845020E+03  0.15677845020E+03  0.00000000000E+00 0.  1.
         25    2    1    2    0    0  0.44580631165E+02 -0.12327593799E+02  0.36614133388E+02  0.13822187767E+03  0.12500116183E+03 0.  0.
          4    1    3    3  502    0 -0.15167114372E+01  0.21163588933E+02 -0.38473180792E+02  0.43954481573E+02  0.12700000000E+01 0. -1.
         -4    1    3    3    0  502  0.46097342602E+02 -0.33491182732E+02  0.75087314180E+02  0.94267396095E+02  0.12700000000E+01 0. -1.
          1    1    1    2  503    0  0.26945441991E+02  0.21577214325E+02  0.83955788949E+02  0.90775588790E+02  0.00000000000E+00 0. -1.
         -1    1    1    2    0  501 -0.71526073156E+02 -0.92496205262E+01 -0.89886008647E+02  0.11524334762E+03  0.00000000000E+00 0.  1.
<mgrwt>
<rscale>  0 0.48600426E+02</rscale>
<asrwt>0</asrwt>
<pdfrwt beam="1">  1        1 0.28840364E-01 0.34520038E+02</pdfrwt>
<pdfrwt beam="2">  1       -1 0.24119762E-01 0.68424067E+02</pdfrwt>
<totfact> 0.21766891E+03</totfact>
</mgrwt>
</event>
<event>
 7    1  0.3113151E-004  0.3328482E+02  0.7546771E-02  0.1618607E+00
          2   -1    0    0  502    0  0.00000000000E+00  0.00000000000E+00  0.46328311734E+03  0.46328311734E+03  0.00000000000E+00 0. -1.
          2   -1    0    0  503    0 -0.00000000000E+00 -0.00000000000E+00 -0.47050737987E+02  0.47050737987E+02  0.00000000000E+00 0. -1.
         25    2    1    2    0    0  0.24208119531E+02  0.20139305025E+01  0.52598360372E+02  0.13777035584E+03  0.12499597780E+03 0.  0.
          4    1    3    3  501    0 -0.19707181307E+02 -0.23980726637E+02  0.75634251525E+02  0.81765525430E+02  0.12700000000E+01 0.  1.
         -4    1    3    3    0  501  0.43915300839E+02  0.25994657140E+02 -0.23035891153E+02  0.56004830406E+02  0.12700000000E+01 0.  1.
          2    1    1    2  502    0  0.23234068672E+02 -0.57314724480E+01  0.21896276949E+03  0.22026657973E+03  0.00000000000E+00 0. -1.
          2    1    1    2  503    0 -0.47442188203E+02  0.37175419454E+01  0.14467124950E+03  0.15229691977E+03  0.00000000000E+00 0. -1.
<mgrwt>
<rscale>  0 0.28222763E+02</rscale>
<asrwt>0</asrwt>
<pdfrwt beam="1">  1        2 0.71274323E-01 0.23930560E+02</pdfrwt>
<pdfrwt beam="2">  1        2 0.72385754E-02 0.33284819E+02</pdfrwt>
<totfact> 0.87493090E+03</totfact>
</mgrwt>
</event>
<event>
 7    1  0.3113151E-004  0.6763181E+02  0.7546771E-02  0.1482649E+00
         -1   -1    0    0    0  501 -0.00000000000E+00  0.00000000000E+00  0.10662217853E+02  0.10662217853E+02  0.00000000000E+00 0.  1.
          2   -1    0    0  503    0  0.00000000000E+00 -0.00000000000E+00 -0.14501994257E+04  0.14501994257E+04  0.00000000000E+00 0. -1.
         25    2    1    2    0    0  0.68127233582E+01 -0.59354285266E+02 -0.10184830984E+04  0.10278624832E+04  0.12499647258E+03 0.  0.
          4    1    3    3  502    0  0.54439470421E+02 -0.65807634732E+02 -0.50913654059E+03  0.51625180928E+03  0.12700000000E+01 0. -1.
         -4    1    3    3    0  502 -0.47626747063E+02  0.64533494656E+01 -0.50934655782E+03  0.51161067387E+03  0.12700000000E+01 0. -1.
          2    1    1    2  503    0 -0.26959356076E+02 -0.83800101478E+01 -0.16381921059E+03  0.16623406753E+03  0.00000000000E+00 0. -1.
         -1    1    1    2    0  501  0.20146632718E+02  0.67734295414E+02 -0.25723489887E+03  0.26676509289E+03  0.00000000000E+00 0.  1.
<mgrwt>
<rscale>  0 0.43696270E+02</rscale>
<asrwt>0</asrwt>
<pdfrwt beam="2">  1        2 0.22310765E+00 0.28231745E+02</pdfrwt>
<pdfrwt beam="1">  1       -1 0.16403409E-02 0.67631810E+02</pdfrwt>
<totfact> 0.15121220E+04</totfact>
</mgrwt>
</event>
<event>
 7    1  0.3113151E-004  0.1553476E+03  0.7546771E-02  0.1293902E+00
          1   -1    0    0  502    0  0.00000000000E+00  0.00000000000E+00  0.57494930980E+03  0.57494930980E+03  0.00000000000E+00 0. -1.
          1   -1    0    0  503    0 -0.00000000000E+00 -0.00000000000E+00 -0.12117130274E+04  0.12117130274E+04  0.00000000000E+00 0.  1.
         25    2    1    2    0    0 -0.14135890217E+03  0.80422868748E+02 -0.43895293406E+03  0.48451512269E+03  0.12500019500E+03 0.  0.
          4    1    3    3  501    0  0.66541818420E+01  0.54350907899E+02 -0.12220554463E+03  0.13391828614E+03  0.12700000000E+01 0.  1.
         -4    1    3    3    0  501 -0.14801308402E+03  0.26071960849E+02 -0.31674738943E+03  0.35059683654E+03  0.12700000000E+01 0.  1.
          1    1    1    2  502    0  0.15337374123E+03 -0.25074707050E+02  0.54012635673E+03  0.56203979100E+03  0.00000000000E+00 0. -1.
          1    1    1    2  503    0 -0.12014839050E+02 -0.55348161698E+02 -0.73793714029E+03  0.74010742354E+03  0.00000000000E+00 0.  1.
<mgrwt>
<rscale>  0 0.93800094E+02</rscale>
<asrwt>0</asrwt>
<pdfrwt beam="1">  1        1 0.88453741E-01 0.15534761E+03</pdfrwt>
<pdfrwt beam="2">  1        1 0.18641739E+00 0.56637226E+02</pdfrwt>
<totfact> 0.58146300E+01</totfact>
</mgrwt>
</event>
<event>
 7    1  0.3113151E-004  0.1001135E+03  0.7546771E-02  0.1450259E+00
         -2   -1    0    0    0  501 -0.00000000000E+00  0.00000000000E+00  0.49879749267E+03  0.49879749267E+03  0.00000000000E+00 0.  1.
          2   -1    0    0  503    0  0.00000000000E+00 -0.00000000000E+00 -0.69305816412E+03  0.69305816412E+03  0.00000000000E+00 0.  1.
         25    2    1    2    0    0 -0.24891202971E+02  0.12113070232E+03  0.30841766041E+03  0.35501897918E+03  0.12499921317E+03 0.  0.
          4    1    3    3  502    0  0.42747544687E+02  0.14995848893E+02  0.49387037784E+02  0.67029250793E+02  0.12700000000E+01 0.  1.
         -4    1    3    3    0  502 -0.67638747658E+02  0.10613485342E+03  0.25903062263E+03  0.28798972839E+03  0.12700000000E+01 0.  1.
          2    1    1    2  503    0  0.23242926761E+02 -0.97106778539E+02 -0.66514364180E+03  0.67259647955E+03  0.00000000000E+00 0.  1.
         -2    1    1    2    0  501  0.16482762092E+01 -0.24023923777E+02  0.16246530993E+03  0.16424019806E+03  0.00000000000E+00 0.  1.
<mgrwt>
<rscale>  0 0.49099628E+02</rscale>
<asrwt>0</asrwt>
<pdfrwt beam="2">  1        2 0.10662433E+00 0.10011351E+03</pdfrwt>
<pdfrwt beam="1">  1       -2 0.76738076E-01 0.24080401E+02</pdfrwt>
<totfact> 0.71531805E+01</totfact>
</mgrwt>
</event>
<event>
 7    1  0.3113151E-004  0.5014379E+02  0.7546771E-02  0.1530114E+00
          1   -1    0    0  503    0  0.00000000000E+00  0.00000000000E+00  0.65809853893E+03  0.65809853893E+03  0.00000000000E+00 0. -1.
         -1   -1    0    0    0  501 -0.00000000000E+00 -0.00000000000E+00 -0.21246760665E+02  0.21246760665E+02  0.00000000000E+00 0.  1.
         25    2    1    2    0    0 -0.54710556609E+01 -0.32576192441E+02  0.26626357636E+03  0.29599277521E+03  0.12499716043E+03 0.  0.
          4    1    3    3  502    0  0.36800413306E+02 -0.46394107007E+02  0.23308440063E+03  0.24049248283E+03  0.12700000000E+01 0. -1.
         -4    1    3    3    0  502 -0.42271468967E+02  0.13817914566E+02  0.33179175738E+02  0.55500292379E+02  0.12700000000E+01 0. -1.
          1    1    1    2  503    0  0.90167027111E+00 -0.27541814742E+02  0.21034396984E+03  0.21214134490E+03  0.00000000000E+00 0. -1.
         -1    1    1    2    0  501  0.45693853898E+01  0.60118007183E+02  0.16024423207E+03  0.17121117949E+03  0.00000000000E+00 0.  1.
<mgrwt>
<rscale>  0 0.37172449E+02</rscale>
<asrwt>0</asrwt>
<pdfrwt beam="1">  1        1 0.10124591E+00 0.27556570E+02</pdfrwt>
<pdfrwt beam="2">  1       -1 0.32687329E-02 0.50143793E+02</pdfrwt>
<totfact> 0.92763651E+03</totfact>
</mgrwt>
</event>
<event>
 7    1  0.3113151E-004  0.8668425E+02  0.7546771E-02  0.1338323E+00
          2   -1    0    0  503    0  0.00000000000E+00  0.00000000000E+00  0.59627189217E+03  0.59627189217E+03  0.00000000000E+00 0. -1.
          2   -1    0    0  502    0 -0.00000000000E+00 -0.00000000000E+00 -0.17753964682E+04  0.17753964682E+04  0.00000000000E+00 0. -1.
         25    2    1    2    0    0  0.12235619069E+03  0.68189474599E+01 -0.97461446884E+02  0.20035406982E+03  0.12500193687E+03 0.  0.
          4    1    3    3  501    0  0.32052791181E+02 -0.50341890792E+02 -0.65751791785E+01  0.60054419256E+02  0.12700000000E+01 0. -1.
         -4    1    3    3    0  501  0.90303399507E+02  0.57160838252E+02 -0.90886267706E+02  0.14029965057E+03  0.12700000000E+01 0. -1.
          2    1    1    2  502    0 -0.70054797253E+02 -0.50401583052E+02 -0.16232111540E+04  0.16255037510E+04  0.00000000000E+00 0. -1.
          2    1    1    2  503    0 -0.52301393435E+02  0.43582635592E+02  0.54154802483E+03  0.54581053954E+03  0.00000000000E+00 0. -1.
<mgrwt>
<rscale>  0 0.76820967E+02</rscale>
<asrwt>0</asrwt>
<pdfrwt beam="1">  1        2 0.91734138E-01 0.68079967E+02</pdfrwt>
<pdfrwt beam="2">  1        2 0.27313792E+00 0.86684251E+02</pdfrwt>
<totfact> 0.88785099E+01</totfact>
</mgrwt>
</event>
<event>
 7    1  0.3113151E-004  0.6668775E+02  0.7546771E-02  0.1385164E+00
          2   -1    0    0  502    0  0.00000000000E+00  0.00000000000E+00  0.75146932670E+03  0.75146932670E+03  0.00000000000E+00 0. -1.
          3   -1    0    0  503    0 -0.00000000000E+00 -0.00000000000E+00 -0.29885936352E+02  0.29885936352E+02  0.00000000000E+00 0. -1.
         25    2    1    2    0    0 -0.21394669882E+02 -0.87905170811E+00  0.21309740751E+03  0.24797780171E+03  0.12499592162E+03 0.  0.
          4    1    3    3  501    0 -0.34859802367E+02  0.56003833024E+02  0.88929618624E+02  0.11073267405E+03  0.12700000000E+01 0.  1.
         -4    1    3    3    0  501  0.13465132485E+02 -0.56882884732E+02  0.12416778889E+03  0.13724512766E+03  0.12700000000E+01 0.  1.
          2    1    1    2  502    0  0.65111973414E+02 -0.39855610136E+02  0.41818686632E+03  0.42509798153E+03  0.00000000000E+00 0. -1.
          3    1    1    2  503    0 -0.43717303532E+02  0.40734661845E+02  0.90299116518E+02  0.10827947981E+03  0.00000000000E+00 0. -1.
<mgrwt>
<rscale>  0 0.63125637E+02</rscale>
<asrwt>0</asrwt>
<pdfrwt beam="1">  1        2 0.11561065E+00 0.66687755E+02</pdfrwt>
<pdfrwt beam="2">  1        3 0.45978369E-02 0.59753789E+02</pdfrwt>
<totfact> 0.54329925E+03</totfact>
</mgrwt>
</event>
<event>
 7    1  0.3113151E-004  0.7955643E+02  0.7546771E-02  0.1462101E+00
         -2   -1    0    0    0  501 -0.00000000000E+00  0.00000000000E+00  0.52991923013E+02  0.52991923013E+02  0.00000000000E+00 0.  1.
          1   -1    0    0  503    0  0.00000000000E+00 -0.00000000000E+00 -0.33456574732E+03  0.33456574732E+03  0.00000000000E+00 0. -1.
         25    2    1    2    0    0 -0.24428743543E+02  0.78048016651E+02 -0.18169618838E+03  0.23520549352E+03  0.12497944989E+03 0.  0.
          4    1    3    3  502    0 -0.48817320461E+02 -0.12456445861E+02 -0.94898501884E+02  0.10745060437E+03  0.12700000000E+01 0.  1.
         -4    1    3    3    0  502  0.24388576918E+02  0.90504462512E+02 -0.86797686495E+02  0.12775488914E+03  0.12700000000E+01 0.  1.
          1    1    1    2  503    0  0.48302051035E+02 -0.63819019949E+02 -0.94853911524E+02  0.12410970942E+03  0.00000000000E+00 0. -1.
         -2    1    1    2    0  501 -0.23873307492E+02 -0.14228996702E+02 -0.50237244058E+01  0.28242467397E+02  0.00000000000E+00 0.  1.
<mgrwt>
<rscale>  0 0.47021674E+02</rscale>
<asrwt>0</asrwt>
<pdfrwt beam="2">  1        1 0.51471654E-01 0.79556429E+02</pdfrwt>
<pdfrwt beam="1">  1       -2 0.81526034E-02 0.27792070E+02</pdfrwt>
<totfact> 0.51311517E+03</totfact>
</mgrwt>
</event>
<event>
 7    1  0.3113151E-004  0.1019040E+03  0.7546771E-02  0.1335812E+00
          1   -1    0    0  503    0 -0.00000000000E+00  0.00000000000E+00  0.13903208949E+04  0.13903208949E+04  0.00000000000E+00 0. -1.
          2   -1    0    0  502    0  0.00000000000E+00 -0.00000000000E+00 -0.23964077912E+03  0.23964077912E+03  0.00000000000E+00 0.  1.
         25    2    1    2    0    0 -0.34442250287E+01  0.60044759733E+02  0.63691269591E+03  0.65184335952E+03  0.12499898911E+03 0.  0.
          4    1    3    3  501    0 -0.48704178002E+02  0.69564642732E+02  0.30075168018E+03  0.31251323573E+03  0.12700000000E+01 0.  1.
         -4    1    3    3    0  501  0.45259952974E+02 -0.95198829986E+01  0.33616101573E+03  0.33933012379E+03  0.12700000000E+01 0.  1.
          2    1    1    2  502    0  0.56801066976E+02 -0.85669440159E+02 -0.21954746409E+03  0.24241844644E+03  0.00000000000E+00 0.  1.
          1    1    1    2  503    0 -0.53356841947E+02  0.25624680426E+02  0.73331488392E+03  0.73569986802E+03  0.00000000000E+00 0. -1.
<mgrwt>
<rscale>  0 0.77664679E+02</rscale>
<asrwt>0</asrwt>
<pdfrwt beam="2">  1        2 0.36867813E-01 0.10190401E+03</pdfrwt>
<pdfrwt beam="1">  1        1 0.21389552E+00 0.59191020E+02</pdfrwt>
<totfact> 0.18262550E+02</totfact>
</mgrwt>
</event>
<event>
 7    1  0.3113151E-004  0.1366812E+03  0.7546771E-02  0.1229967E+00
          2   -1    0    0  503    0  0.00000000000E+00  0.00000000000E+00  0.42307751923E+02  0.42307751923E+02  0.00000000000E+00 0. -1.
          2   -1    0    0  502    0 -0.00000000000E+00 -0.00000000000E+00 -0.31833161534E+04  0.31833161534E+04  0.00000000000E+00 0. -1.
         25    2    1    2    0    0  0.11868734832E+02  0.16825659728E+03 -0.10086742843E+04  0.10302906451E+04  0.12499540794E+03 0.  0.
          4    1    3    3  501    0 -0.13843678951E+02  0.16763827216E+03 -0.67575097947E+03  0.69637291511E+03  0.12700000000E+01 0. -1.
         -4    1    3    3    0  501  0.25712413783E+02  0.61832511837E+00 -0.33292330487E+03  0.33391772995E+03  0.12700000000E+01 0. -1.
          2    1    1    2  502    0 -0.10428213977E+03 -0.90966954916E+02 -0.20370187568E+04  0.20417137818E+04  0.00000000000E+00 0. -1.
          2    1    1    2  503    0  0.92413404941E+02 -0.77289642360E+02 -0.95315360378E+02  0.15361947843E+03  0.00000000000E+00 0. -1.
<mgrwt>
<rscale>  0 0.12832187E+03</rscale>
<asrwt>0</asrwt>
<pdfrwt beam="1">  1        2 0.65088835E-02 0.12047376E+03</pdfrwt>
<pdfrwt beam="2">  1        2 0.48974105E+00 0.13668125E+03</pdfrwt>
<totfact> 0.29150460E+02</totfact>
</mgrwt>
</event>
<event>
 7    1  0.3113151E-004  0.7430495E+02  0.7546771E-02  0.1393551E+00
          2   -1    0    0  502    0  0.00000000000E+00  0.00000000000E+00  0.75454908904E+03  0.75454908904E+03  0.00000000000E+00 0. -1.
          3   -1    0    0  503    0 -0.00000000000E+00 -0.00000000000E+00 -0.31121251762E+03  0.31121251762E+03  0.00000000000E+00 0. -1.
         25    2    1    2    0    0  0.11566068621E+03 -0.44608240587E+02 -0.19037847215E+03  0.25930066924E+03  0.12500233977E+03 0.  0.
          4    1    3    3  501    0  0.11751655318E+03 -0.74526681621E+02 -0.12373850353E+03  0.18621814278E+03  0.12700000000E+01 0.  1.
         -4    1    3    3    0  501 -0.18558669740E+01  0.29918441033E+02 -0.66639968621E+02  0.73082526461E+02  0.12700000000E+01 0.  1.
          2    1    1    2  502    0 -0.68310301105E+02  0.28147721681E+02  0.71073447016E+03  0.71456425781E+03  0.00000000000E+00 0. -1.
          3    1    1    2  503    0 -0.47350385105E+02  0.16460518906E+02 -0.77019426585E+02  0.91896679612E+02  0.00000000000E+00 0. -1.
<mgrwt>
<rscale>  0 0.61031962E+02</rscale>
<asrwt>0</asrwt>
<pdfrwt beam="1">  1        2 0.11608447E+00 0.74304951E+02</pdfrwt>
<pdfrwt beam="2">  1        3 0.47878849E-01 0.50129908E+02</pdfrwt>
<totfact> 0.99805255E+01</totfact>
</mgrwt>
</event>
<event>
 7    1  0.3113151E-004  0.1860610E+03  0.7546771E-02  0.1387350E+00
         -1   -1    0    0    0  501 -0.00000000000E+00  0.00000000000E+00  0.24022523456E+03  0.24022523456E+03  0.00000000000E+00 0.  1.
          2   -1    0    0  503    0  0.00000000000E+00 -0.00000000000E+00 -0.55689478466E+03  0.55689478466E+03  0.00000000000E+00 0. -1.
         25    2    1    2    0    0  0.17711549558E+03  0.65912759510E+02 -0.56844390655E+02  0.23360515927E+03  0.12500278015E+03 0.  0.
          4    1    3    3  502    0  0.48674095377E+02  0.15104428180E+02 -0.78686379628E+02  0.93757509301E+02  0.12700000000E+01 0.  1.
         -4    1    3    3    0  502  0.12844140020E+03  0.50808331330E+02  0.21841988973E+02  0.13984764997E+03  0.12700000000E+01 0.  1.
          2    1    1    2  503    0 -0.18003340143E+03 -0.45074143033E+02 -0.38986418120E+03  0.43178441818E+03  0.00000000000E+00 0. -1.
         -1    1    1    2    0  501  0.29179058539E+01 -0.20838616477E+02  0.13003902175E+03  0.13173044177E+03  0.00000000000E+00 0.  1.
<mgrwt>
<rscale>  0 0.62570590E+02</rscale>
<asrwt>0</asrwt>
<pdfrwt beam="2">  1        2 0.85676119E-01 0.18606097E+03</pdfrwt>
<pdfrwt beam="1">  1       -1 0.36957729E-01 0.21041913E+02</pdfrwt>
<totfact> 0.43769008E+02</totfact>
</mgrwt>
</event>
<event>
 7    1  0.3113151E-004  0.1131842E+03  0.7546771E-02  0.1379449E+00
          1   -1    0    0  503    0  0.00000000000E+00  0.00000000000E+00  0.26878807674E+04  0.26878807674E+04  0.00000000000E+00 0. -1.
         -1   -1    0    0    0  501 -0.00000000000E+00 -0.00000000000E+00 -0.80133892428E+02  0.80133892428E+02  0.00000000000E+00 0.  1.
         25    2    1    2    0    0  0.54298944319E+02 -0.11131788866E+03  0.13362305859E+03  0.22093249998E+03  0.12496399510E+03 0.  0.
          4    1    3    3  502    0  0.36357843740E+02 -0.13236609815E+03  0.75773187577E+02  0.15679880611E+03  0.12700000000E+01 0.  1.
         -4    1    3    3    0  502  0.17941100579E+02  0.21048209498E+02  0.57849871009E+02  0.64133693866E+02  0.12700000000E+01 0.  1.
          1    1    1    2  503    0 -0.17420189656E+02  0.11167748531E+03  0.24996662082E+04  0.25022203093E+04  0.00000000000E+00 0. -1.
         -1    1    1    2    0  501 -0.36878754663E+02 -0.35959665815E+00 -0.25542391831E+02  0.44861850561E+02  0.00000000000E+00 0.  1.
<mgrwt>
<rscale>  0 0.64608745E+02</rscale>
<asrwt>0</asrwt>
<pdfrwt beam="1">  1        1 0.41352005E+00 0.11318418E+03</pdfrwt>
<pdfrwt beam="2">  1       -1 0.12328293E-01 0.36880508E+02</pdfrwt>
<totfact> 0.52954057E+01</totfact>
</mgrwt>
</event>
<event>
 7    1  0.3113151E-004  0.1723965E+03  0.7546771E-02  0.1234641E+00
          2   -1    0    0  503    0  0.00000000000E+00  0.00000000000E+00  0.32223483195E+03  0.32223483195E+03  0.00000000000E+00 0. -1.
          2   -1    0    0  502    0 -0.00000000000E+00 -0.00000000000E+00 -0.36340080299E+03  0.36340080299E+03  0.00000000000E+00 0. -1.
         25    2    1    2    0    0  0.14338644913E+03  0.27795211818E+02 -0.34190904352E+02  0.19524575532E+03  0.12497855590E+03 0.  0.
          4    1    3    3  501    0  0.16604912634E+03  0.26224247346E+02 -0.22333830746E+02  0.16958902206E+03  0.12700000000E+01 0.  1.
         -4    1    3    3    0  501 -0.22662677203E+02  0.15709644727E+01 -0.11857073607E+02  0.25656733267E+02  0.12700000000E+01 0.  1.
          2    1    1    2  502    0 -0.14925194676E+03 -0.11863875155E+03 -0.20040422475E+03  0.27661010516E+03  0.00000000000E+00 0. -1.
          2    1    1    2  503    0  0.58654976261E+01  0.90843539727E+02  0.19342915807E+03  0.21377977445E+03  0.00000000000E+00 0. -1.
<mgrwt>
<rscale>  0 0.12527456E+03</rscale>
<asrwt>0</asrwt>
<pdfrwt beam="1">  1        2 0.49574590E-01 0.91032702E+02</pdfrwt>
<pdfrwt beam="2">  1        2 0.55907816E-01 0.17239647E+03</pdfrwt>
<totfact> 0.13847712E+03</totfact>
</mgrwt>
</event>
<event>
 7    1  0.3113151E-004  0.2941218E+02  0.7546771E-02  0.1633056E+00
         -2   -1    0    0    0  501 -0.00000000000E+00  0.00000000000E+00  0.11304261813E+03  0.11304261813E+03  0.00000000000E+00 0.  1.
          1   -1    0    0  503    0  0.00000000000E+00 -0.00000000000E+00 -0.10353750279E+03  0.10353750279E+03  0.00000000000E+00 0. -1.
         25    2    1    2    0    0 -0.60641968303E+01  0.40752330461E+01  0.41601856160E+02  0.13193188665E+03  0.12498770448E+03 0.  0.
          4    1    3    3  502    0 -0.86761234910E+01 -0.60038538927E+02  0.25119759143E+02  0.65669753119E+02  0.12700000000E+01 0. -1.
         -4    1    3    3    0  502  0.26119266607E+01  0.64113771973E+02  0.16482097017E+02  0.66262133527E+02  0.12700000000E+01 0. -1.
          1    1    1    2  503    0  0.11680430892E+02 -0.28330344097E+02 -0.46646530867E+02  0.55811644882E+02  0.00000000000E+00 0. -1.
         -2    1    1    2    0  501 -0.56162340613E+01  0.24255111051E+02  0.14549790043E+02  0.28836589386E+02  0.00000000000E+00 0.  1.
<mgrwt>
<rscale>  0 0.27060494E+02</rscale>
<asrwt>0</asrwt>
<pdfrwt beam="2">  1        1 0.15928847E-01 0.29412184E+02</pdfrwt>
<pdfrwt beam="1">  1       -2 0.17391172E-01 0.24896837E+02</pdfrwt>
<totfact> 0.64262806E+03</totfact>
</mgrwt>
</event>
<event>
 7    1  0.3113151E-004  0.6237486E+02  0.7546771E-02  0.1528375E+00
          1   -1    0    0  503    0  0.00000000000E+00  0.00000000000E+00  0.18783626228E+03  0.18783626228E+03  0.00000000000E+00 0. -1.
         -2   -1    0    0    0  501 -0.00000000000E+00 -0.00000000000E+00 -0.19717244667E+03  0.19717244667E+03  0.00000000000E+00 0.  1.
         25    2    1    2    0    0 -0.12064256020E+02  0.74538432554E+02 -0.19152009822E+02  0.14724315161E+03  0.12494887760E+03 0.  0.
          4    1    3    3  502    0  0.16991060277E+02  0.73434028711E+02  0.37016169967E+02  0.83982512710E+02  0.12700000000E+01 0. -1.
         -4    1    3    3    0  502 -0.29055316298E+02  0.11044038432E+01 -0.56168179790E+02  0.63260638899E+02  0.12700000000E+01 0. -1.
          1    1    1    2  503    0 -0.58580707936E+01 -0.61086823613E+02  0.11493099137E+03  0.13028833328E+03  0.00000000000E+00 0. -1.
         -2    1    1    2    0  501  0.17922326814E+02 -0.13451608941E+02 -0.10511516594E+03  0.10747722406E+03  0.00000000000E+00 0.  1.
<mgrwt>
<rscale>  0 0.37386461E+02</rscale>
<asrwt>0</asrwt>
<pdfrwt beam="1">  1        1 0.28897887E-01 0.62374858E+02</pdfrwt>
<pdfrwt beam="2">  1       -2 0.30334222E-01 0.22408828E+02</pdfrwt>
<totfact> 0.12774713E+03</totfact>
</mgrwt>
</event>
<event>
 7    1  0.3113151E-004  0.4156966E+02  0.7546771E-02  0.1544793E+00
          2   -1    0    0  503    0  0.00000000000E+00  0.00000000000E+00  0.78118645751E+03  0.78118645751E+03  0.00000000000E+00 0. -1.
         -1   -1    0    0    0  501 -0.00000000000E+00 -0.00000000000E+00 -0.31639971106E+02  0.31639971106E+02  0.00000000000E+00 0.  1.
         25    2    1    2    0    0  0.68942117970E+02 -0.15861995441E+02  0.65282250788E+03  0.66843652391E+03  0.12500216467E+03 0.  0.
          4    1    3    3  502    0  0.62108129911E+02 -0.53228050910E+02  0.58498643627E+03  0.59067875256E+03  0.12700000000E+01 0.  1.
         -4    1    3    3    0  502  0.68339880583E+01  0.37366055469E+02  0.67836071610E+02  0.77757771352E+02  0.12700000000E+01 0.  1.
          2    1    1    2  503    0 -0.28765348695E+02  0.92019634440E+01  0.99095812039E+02  0.10359585600E+03  0.00000000000E+00 0. -1.
         -1    1    1    2    0  501 -0.40176769275E+02  0.66600319972E+01 -0.23718335145E+01  0.40794048706E+02  0.00000000000E+00 0.  1.
<mgrwt>
<rscale>  0 0.35432469E+02</rscale>
<asrwt>0</asrwt>
<pdfrwt beam="1">  1        2 0.12018252E+00 0.30201348E+02</pdfrwt>
<pdfrwt beam="2">  1       -1 0.48676884E-02 0.41569663E+02</pdfrwt>
<totfact> 0.68823433E+03</totfact>
</mgrwt>
</event>
<event>
 7    1  0.3113151E-004  0.1200542E+03  0.7546771E-02  0.1298030E+00
          2   -1    0    0  502    0  0.00000000000E+00  0.00000000000E+00  0.11182039391E+04  0.11182039391E+04  0.00000000000E+00 0. -1.
          1   -1    0    0  503    0 -0.00000000000E+00 -0.00000000000E+00 -0.58117049321E+03  0.58117049321E+03  0.00000000000E+00 0. -1.
         25    2    1    2    0    0  0.96819940800E+02 -0.43935934732E+02  0.29190203142E+03  0.33486738760E+03  0.12499961614E+03 0.  0.
          4    1    3    3  501    0  0.11350518620E+03 -0.69208541641E+02  0.25000283233E+03  0.28315416049E+03  0.12700000000E+01 0. -1.
         -4    1    3    3    0  501 -0.16685245397E+02  0.25272606909E+02  0.41899199089E+02  0.51713227111E+02  0.12700000000E+01 0. -1.
          2    1    1    2  502    0 -0.36239822056E+02 -0.60512053000E+02  0.79673075874E+03  0.79984681983E+03  0.00000000000E+00 0. -1.
          1    1    1    2  503    0 -0.60580118744E+02  0.10444798773E+03 -0.55159934429E+03  0.56466022487E+03  0.00000000000E+00 0. -1.
<mgrwt>
<rscale>  0 0.92021138E+02</rscale>
<asrwt>0</asrwt>
<pdfrwt beam="1">  1        2 0.17203137E+00 0.70533916E+02</pdfrwt>
<pdfrwt beam="2">  1        1 0.89410845E-01 0.12005416E+03</pdfrwt>
<totfact> 0.12465200E+02</totfact>
</mgrwt>
</event>
<event>
 7    1  0.3113151E-004  0.5779697E+02  0.7546771E-02  0.1459583E+00
          2   -1    0    0  503    0  0.00000000000E+00  0.00000000000E+00  0.18534319390E+03  0.18534319390E+03  0.00000000000E+00 0. -1.
         -1   -1    0    0    0  501 -0.00000000000E+00 -0.00000000000E+00 -0.82447328904E+02  0.82447328904E+02  0.00000000000E+00 0.  1.
         25    2    1    2    0    0 -0.33326092065E+02 -0.49926232274E+02  0.26003874460E+02  0.14108293031E+03  0.12499973862E+03 0.  0.
          4    1    3    3  502    0 -0.11537943821E+02 -0.22389540192E+02  0.75943147086E+02  0.80021185614E+02  0.12700000000E+01 0. -1.
         -4    1    3    3    0  502 -0.21788148244E+02 -0.27536692081E+02 -0.49939272626E+02  0.61061744694E+02  0.12700000000E+01 0. -1.
          2    1    1    2  503    0  0.57015001628E+02  0.18994675340E+02  0.35204213589E+02  0.69648006119E+02  0.00000000000E+00 0. -1.
         -1    1    1    2    0  501 -0.23688909563E+02  0.30931556933E+02  0.41687776943E+02  0.57059586373E+02  0.00000000000E+00 0.  1.
<mgrwt>
<rscale>  0 0.47453162E+02</rscale>
<asrwt>0</asrwt>
<pdfrwt beam="1">  1        2 0.28514337E-01 0.57796968E+02</pdfrwt>
<pdfrwt beam="2">  1       -1 0.12684205E-01 0.38960565E+02</pdfrwt>
<totfact> 0.76140701E+03</totfact>
</mgrwt>
</event>
<event>
 7    1  0.3113151E-004  0.2188473E+03  0.7546771E-02  0.1301181E+00
          3   -1    0    0  503    0 -0.00000000000E+00  0.00000000000E+00  0.60472248523E+03  0.60472248523E+03  0.00000000000E+00 0. -1.
          1   -1    0    0  502    0  0.00000000000E+00 -0.00000000000E+00 -0.16931521545E+04  0.16931521545E+04  0.00000000000E+00 0.  1.
         25    2    1    2    0    0 -0.17490960767E+03 -0.10970939306E+03  0.10207574038E+03  0.26205076204E+03  0.12498649259E+03 0.  0.
          4    1    3    3  501    0 -0.17309956446E+03 -0.66385975377E+02  0.11325581368E+03  0.21725342155E+03  0.12700000000E+01 0.  1.
         -4    1    3    3    0  501 -0.18100432110E+01 -0.43323417678E+02 -0.11180073303E+02  0.44797340488E+02  0.12700000000E+01 0.  1.
          1    1    1    2  502    0  0.56113175068E+01 -0.37163569628E+02 -0.15832131135E+04  0.15836591744E+04  0.00000000000E+00 0.  1.
          3    1    1    2  503    0  0.16929829016E+03  0.14687296268E+03  0.39270770388E+03  0.45216470330E+03  0.00000000000E+00 0. -1.
<mgrwt>
<rscale>  0 0.90693628E+02</rscale>
<asrwt>0</asrwt>
<pdfrwt beam="2">  1        1 0.26048494E+00 0.37584808E+02</pdfrwt>
<pdfrwt beam="1">  1        3 0.93034231E-01 0.21884731E+03</pdfrwt>
<totfact> 0.38425034E+00</totfact>
</mgrwt>
</event>
<event>
 7    1  0.3113151E-004  0.7883623E+02  0.7546771E-02  0.1440249E+00
          2   -1    0    0  503    0  0.00000000000E+00  0.00000000000E+00  0.12306184915E+04  0.12306184915E+04  0.00000000000E+00 0. -1.
         -1   -1    0    0    0  501 -0.00000000000E+00 -0.00000000000E+00 -0.16646338457E+02  0.16646338457E+02  0.00000000000E+00 0.  1.
         25    2    1    2    0    0  0.57832204791E+02 -0.78775786027E+02  0.62934563804E+03  0.64903853775E+03  0.12499961195E+03 0.  0.
          4    1    3    3  502    0 -0.17529586609E+02  0.21274492273E+02  0.59503742901E+02  0.65591148392E+02  0.12700000000E+01 0. -1.
         -4    1    3    3    0  502  0.75361791401E+02 -0.10005027830E+03  0.56984189514E+03  0.58344738936E+03  0.12700000000E+01 0. -1.
          2    1    1    2  503    0 -0.89274079668E+00  0.32924280852E+02  0.37055833302E+03  0.37201919766E+03  0.00000000000E+00 0. -1.
         -1    1    1    2    0  501 -0.56939463994E+02  0.45851505175E+02  0.21406818198E+03  0.22620709454E+03  0.00000000000E+00 0.  1.
<mgrwt>
<rscale>  0 0.50956649E+02</rscale>
<asrwt>0</asrwt>
<pdfrwt beam="1">  1        2 0.18932585E+00 0.32936382E+02</pdfrwt>
<pdfrwt beam="2">  1       -1 0.25609761E-02 0.78836228E+02</pdfrwt>
<totfact> 0.10410864E+04</totfact>
</mgrwt>
</event>
<event>
 7    1  0.3113151E-004  0.8356127E+02  0.7546771E-02  0.1465535E+00
         -1   -1    0    0    0  501 -0.00000000000E+00  0.00000000000E+00  0.81936361307E+02  0.81936361307E+02  0.00000000000E+00 0.  1.
          1   -1    0    0  503    0  0.00000000000E+00 -0.00000000000E+00 -0.22630340543E+03  0.22630340543E+03  0.00000000000E+00 0. -1.
         25    2    1    2    0    0 -0.61360480452E+02  0.49727288116E+02 -0.70201427769E+02  0.16368126184E+03  0.12500161308E+03 0.  0.
          4    1    3    3  502    0 -0.19955262040E+02  0.85794465742E+02 -0.62961135246E+02  0.10828028577E+03  0.12700000000E+01 0. -1.
         -4    1    3    3    0  502 -0.41405218412E+02 -0.36067177626E+02 -0.72402925226E+01  0.55400976069E+02  0.12700000000E+01 0. -1.
          1    1    1    2  503    0  0.12667057926E+02  0.22489905170E+02 -0.46477078388E+02  0.53163606034E+02  0.00000000000E+00 0. -1.
         -1    1    1    2    0  501  0.48693422526E+02 -0.72217193286E+02 -0.27688537964E+02  0.91394898862E+02  0.00000000000E+00 0.  1.
<mgrwt>
<rscale>  0 0.46442102E+02</rscale>
<asrwt>0</asrwt>
<pdfrwt beam="2">  1        1 0.34815909E-01 0.25811823E+02</pdfrwt>
<pdfrwt beam="1">  1       -1 0.12605594E-01 0.83561274E+02</pdfrwt>
<totfact> 0.48134599E+03</totfact>
</mgrwt>
</event>
<event>
 7    1  0.3113151E-004  0.4557163E+02  0.7546771E-02  0.1520752E+00
          2   -1    0    0  503    0  0.00000000000E+00  0.00000000000E+00  0.31695180399E+03  0.31695180399E+03  0.00000000000E+00 0. -1.
         -1   -1    0    0    0  501 -0.00000000000E+00 -0.00000000000E+00 -0.39003559349E+02  0.39003559349E+02  0.00000000000E+00 0.  1.
         25    2    1    2    0    0  0.31497678957E+02  0.26447040082E+01  0.21776323230E+03  0.25306983481E+03  0.12499767081E+03 0.  0.
          4    1    3    3  502    0 -0.48675310670E+02 -0.35277041277E+00  0.82277041965E+02  0.95606144417E+02  0.12700000000E+01 0.  1.
         -4    1    3    3    0  502  0.80172989628E+02  0.29974744210E+01  0.13548619034E+03  0.15746369039E+03  0.12700000000E+01 0.  1.
          2    1    1    2  503    0  0.31818860127E+01  0.32108018183E+02  0.35365843956E+02  0.47872665989E+02  0.00000000000E+00 0. -1.
         -1    1    1    2    0  501 -0.34679564970E+02 -0.34752722191E+02  0.24819168387E+02  0.55012862547E+02  0.00000000000E+00 0.  1.
<mgrwt>
<rscale>  0 0.38345563E+02</rscale>
<asrwt>0</asrwt>
<pdfrwt beam="1">  1        2 0.48761814E-01 0.32265295E+02</pdfrwt>
<pdfrwt beam="2">  1       -1 0.60005478E-02 0.45571635E+02</pdfrwt>
<totfact> 0.13172505E+04</totfact>
</mgrwt>
</event>
<event>
 7    1  0.3113151E-004  0.2639056E+03  0.7546771E-02  0.1124628E+00
          1   -1    0    0  502    0  0.00000000000E+00  0.00000000000E+00  0.89491974197E+03  0.89491974197E+03  0.00000000000E+00 0. -1.
          1   -1    0    0  503    0 -0.00000000000E+00 -0.00000000000E+00 -0.13685288600E+04  0.13685288600E+04  0.00000000000E+00 0. -1.
         25    2    1    2    0    0 -0.15598470111E+03  0.13207793655E+03 -0.20185717042E+03  0.31328327741E+03  0.12499714539E+03 0.  0.
          4    1    3    3  501    0 -0.11127760083E+03  0.15039081676E+03 -0.18207793515E+03  0.26106338230E+03  0.12700000000E+01 0. -1.
         -4    1    3    3    0  501 -0.44707100282E+02 -0.18312880215E+02 -0.19779235272E+02  0.52219895110E+02  0.12700000000E+01 0. -1.
          1    1    1    2  502    0 -0.14638816682E+03 -0.14423169152E+03  0.80545534658E+03  0.83125843849E+03  0.00000000000E+00 0. -1.
          1    1    1    2  503    0  0.30237286793E+03  0.12153754970E+02 -0.10772072942E+04  0.11189068861E+04  0.00000000000E+00 0. -1.
<mgrwt>
<rscale>  0 0.23288175E+03</rscale>
<asrwt>0</asrwt>
<pdfrwt beam="1">  1        1 0.13767996E+00 0.20550493E+03</pdfrwt>
<pdfrwt beam="2">  1        1 0.21054290E+00 0.26390563E+03</pdfrwt>
<totfact> 0.20849210E+01</totfact>
</mgrwt>
</event>
<event>
 7    1  0.3113151E-004  0.1089100E+03  0.7546771E-02  0.1323795E+00
          2   -1    0    0  503    0  0.00000000000E+00  0.00000000000E+00  0.18912853731E+03  0.18912853731E+03  0.00000000000E+00 0. -1.
         -1   -1    0    0    0  501 -0.00000000000E+00 -0.00000000000E+00 -0.25847850407E+03  0.25847850407E+03  0.00000000000E+00 0.  1.
         25    2    1    2    0    0 -0.11182304842E+03 -0.44613581510E+02  0.11828488204E+03  0.21002081481E+03  0.12499065374E+03 0.  0.
          4    1    3    3  502    0 -0.68627703088E+02 -0.20862829072E+02 -0.10141275401E+02  0.72453278979E+02  0.12700000000E+01 0. -1.
         -4    1    3    3    0  502 -0.43195345333E+02 -0.23750752439E+02  0.12842615745E+03  0.13756753584E+03  0.12700000000E+01 0. -1.
          2    1    1    2  503    0  0.81514801795E+02 -0.89697712159E+01 -0.12701726561E+03  0.15119029555E+03  0.00000000000E+00 0. -1.
         -1    1    1    2    0  501  0.30308246626E+02  0.53583352726E+02 -0.60617583193E+02  0.86395931010E+02  0.00000000000E+00 0.  1.
<mgrwt>
<rscale>  0 0.81881708E+02</rscale>
<asrwt>0</asrwt>
<pdfrwt beam="1">  1        2 0.29096698E-01 0.10890997E+03</pdfrwt>
<pdfrwt beam="2">  1       -1 0.39765924E-01 0.61561071E+02</pdfrwt>
<totfact> 0.12610871E+03</totfact>
</mgrwt>
</event>
<event>
 7    1  0.3113151E-004  0.7976414E+02  0.7546771E-02  0.1479720E+00
          2   -1    0    0  502    0  0.00000000000E+00  0.00000000000E+00  0.93994010629E+03  0.93994010629E+03  0.00000000000E+00 0.  1.
          1   -1    0    0  503    0 -0.00000000000E+00 -0.00000000000E+00 -0.38151732860E+03  0.38151732860E+03  0.00000000000E+00 0. -1.
         25    2    1    2    0    0  0.59574324820E+02 -0.29691039696E+02 -0.13373282407E+03  0.19481452880E+03  0.12505028741E+03 0.  0.
          4    1    3    3  501    0  0.45436706442E+02  0.45873114544E+02 -0.66188736333E+02  0.92473772756E+02  0.12700000000E+01 0. -1.
         -4    1    3    3    0  501  0.14137618378E+02 -0.75564154239E+02 -0.67544087738E+02  0.10234075604E+03  0.12700000000E+01 0. -1.
          2    1    1    2  502    0  0.21913737515E+02  0.10814707610E+02  0.90117589496E+03  0.90150716217E+03  0.00000000000E+00 0.  1.
          1    1    1    2  503    0 -0.81488062335E+02  0.18876332086E+02 -0.20902029320E+03  0.22513574391E+03  0.00000000000E+00 0. -1.
<mgrwt>
<rscale>  0 0.44149756E+02</rscale>
<asrwt>0</asrwt>
<pdfrwt beam="1">  1        2 0.14460617E+00 0.24437058E+02</pdfrwt>
<pdfrwt beam="2">  1        1 0.58694974E-01 0.79764143E+02</pdfrwt>
<totfact> 0.28681140E+02</totfact>
</mgrwt>
</event>
<event>
 7    1  0.3113151E-004  0.1320534E+03  0.7546771E-02  0.1329316E+00
          1   -1    0    0  502    0  0.00000000000E+00  0.00000000000E+00  0.86032266773E+03  0.86032266773E+03  0.00000000000E+00 0. -1.
          3   -1    0    0  503    0 -0.00000000000E+00 -0.00000000000E+00 -0.11791771821E+03  0.11791771821E+03  0.00000000000E+00 0. -1.
         25    2    1    2    0    0  0.43946992123E+02 -0.12997585556E+03  0.35566431273E+03  0.40118295508E+03  0.12500239578E+03 0.  0.
          4    1    3    3  501    0  0.68577974853E+00 -0.92774372049E+02  0.32160333822E+03  0.33472059162E+03  0.12700000000E+01 0. -1.
         -4    1    3    3    0  501  0.43261212375E+02 -0.37201483511E+02  0.34060974511E+02  0.66462363457E+02  0.12700000000E+01 0. -1.
          1    1    1    2  502    0 -0.83804230243E+02  0.10260122979E+03  0.46586149759E+03  0.48433159746E+03  0.00000000000E+00 0. -1.
          3    1    1    2  503    0  0.39857238120E+02  0.27374625773E+02 -0.79120860798E+02  0.92725833402E+02  0.00000000000E+00 0. -1.
<mgrwt>
<rscale>  0 0.79906943E+02</rscale>
<asrwt>0</asrwt>
<pdfrwt beam="1">  1        1 0.13235733E+00 0.13205341E+03</pdfrwt>
<pdfrwt beam="2">  1        3 0.18141188E-01 0.48352555E+02</pdfrwt>
<totfact> 0.26950746E+02</totfact>
</mgrwt>
</event>
<event>
 7    1  0.3113151E-004  0.7385094E+02  0.7546771E-02  0.1402147E+00
          1   -1    0    0  503    0  0.00000000000E+00  0.00000000000E+00  0.59701011740E+03  0.59701011740E+03  0.00000000000E+00 0. -1.
         -1   -1    0    0    0  501 -0.00000000000E+00 -0.00000000000E+00 -0.19409567462E+03  0.19409567462E+03  0.00000000000E+00 0.  1.
         25    2    1    2    0    0 -0.20048457607E+02  0.43613102586E+02  0.30077739889E+03  0.32923556593E+03  0.12499988327E+03 0.  0.
          4    1    3    3  502    0 -0.26358047942E+02 -0.40462707055E+02  0.88535436336E+02  0.10085689734E+03  0.12700000000E+01 0. -1.
         -4    1    3    3    0  502  0.63095903343E+01  0.84075809640E+02  0.21224196255E+03  0.22837866859E+03  0.12700000000E+01 0. -1.
          1    1    1    2  503    0  0.36978354570E+02  0.29186954558E+02  0.27212675894E+03  0.27617431081E+03  0.00000000000E+00 0. -1.
         -1    1    1    2    0  501 -0.16929896963E+02 -0.72800057144E+02 -0.16998971505E+03  0.18569591529E+03  0.00000000000E+00 0.  1.
<mgrwt>
<rscale>  0 0.58983549E+02</rscale>
<asrwt>0</asrwt>
<pdfrwt beam="1">  1        1 0.91847709E-01 0.47109203E+02</pdfrwt>
<pdfrwt beam="2">  1       -1 0.29860873E-01 0.73850942E+02</pdfrwt>
<totfact> 0.38134413E+02</totfact>
</mgrwt>
</event>
<event>
 7    1  0.3113151E-004  0.1075643E+03  0.7546771E-02  0.1424827E+00
         -2   -1    0    0    0  501 -0.00000000000E+00  0.00000000000E+00  0.71043727002E+03  0.71043727002E+03  0.00000000000E+00 0.  1.
          2   -1    0    0  503    0  0.00000000000E+00 -0.00000000000E+00 -0.11569710258E+04  0.11569710258E+04  0.00000000000E+00 0. -1.
         25    2    1    2    0    0  0.58733410232E+00  0.11486745443E+03 -0.57199056397E+03  0.59665310634E+03  0.12500738775E+03 0.  0.
          4    1    3    3  502    0 -0.19789871538E+02  0.83018768994E+02 -0.54116135377E+03  0.54785123778E+03  0.12700000000E+01 0. -1.
         -4    1    3    3    0  502  0.20377205640E+02  0.31848685440E+02 -0.30829210196E+02  0.48801868563E+02  0.12700000000E+01 0. -1.
          2    1    1    2  503    0 -0.25141639840E+02 -0.10173506210E+02 -0.56818267989E+03  0.56882964059E+03  0.00000000000E+00 0. -1.
         -2    1    1    2    0  501  0.24554305738E+02 -0.10469394822E+03  0.69363948809E+03  0.70192554887E+03  0.00000000000E+00 0.  1.
<mgrwt>
<rscale>  0 0.54012570E+02</rscale>
<asrwt>0</asrwt>
<pdfrwt beam="2">  1        2 0.17799554E+00 0.27121989E+02</pdfrwt>
<pdfrwt beam="1">  1       -2 0.10929804E+00 0.10756430E+03</pdfrwt>
<totfact> 0.17783969E+01</totfact>
</mgrwt>
</event>
<event>
 7    1  0.3113151E-004  0.4256148E+02  0.7546771E-02  0.1580886E+00
          1   -1    0    0  503    0  0.00000000000E+00  0.00000000000E+00  0.60635892002E+02  0.60635892002E+02  0.00000000000E+00 0. -1.
         -1   -1    0    0    0  501 -0.00000000000E+00 -0.00000000000E+00 -0.54781283997E+03  0.54781283997E+03  0.00000000000E+00 0. -1.
         25    2    1    2    0    0 -0.33358786602E+02  0.24088812849E+00 -0.47824298741E+03  0.49543464394E+03  0.12500505886E+03 0.  0.
          4    1    3    3  502    0 -0.41025986330E+02 -0.43509660813E+02 -0.40769011771E+03  0.41205468947E+03  0.12700000000E+01 0.  1.
         -4    1    3    3    0  502  0.76671997282E+01  0.43750548942E+02 -0.70552869698E+02  0.83379954468E+02  0.12700000000E+01 0.  1.
          1    1    1    2  503    0  0.36086276830E+02  0.23085178792E+02  0.40079646705E+02  0.58664494674E+02  0.00000000000E+00 0. -1.
         -1    1    1    2    0  501 -0.27274902277E+01 -0.23326066920E+02 -0.49013607261E+02  0.54349593353E+02  0.00000000000E+00 0. -1.
<mgrwt>
<rscale>  0 0.31615754E+02</rscale>
<asrwt>0</asrwt>
<pdfrwt beam="1">  1        1 0.93285993E-02 0.42561484E+02</pdfrwt>
<pdfrwt beam="2">  1       -1 0.84278893E-01 0.23484987E+02</pdfrwt>
<totfact> 0.98814931E+02</totfact>
</mgrwt>
</event>
<event>
 7    1  0.3113151E-004  0.7808662E+02  0.7546771E-02  0.1377265E+00
          2   -1    0    0  503    0  0.00000000000E+00  0.00000000000E+00  0.13489374115E+04  0.13489374115E+04  0.00000000000E+00 0. -1.
         -1   -1    0    0    0  501 -0.00000000000E+00 -0.00000000000E+00 -0.58040029289E+02  0.58040029289E+02  0.00000000000E+00 0.  1.
         25    2    1    2    0    0  0.12063653275E+03  0.40559327926E+02  0.12331261884E+04  0.12459612947E+04  0.12498447594E+03 0.  0.
          4    1    3    3  502    0  0.51421733253E+02  0.73029573642E+02  0.88718617218E+03  0.89167170545E+03  0.12700000000E+01 0.  1.
         -4    1    3    3    0  502  0.69214799500E+02 -0.32470245716E+02  0.34594001626E+03  0.35428958929E+03  0.12700000000E+01 0.  1.
          2    1    1    2  503    0 -0.54390640699E+02 -0.17929900559E+01  0.63999341538E+02  0.84008763390E+02  0.00000000000E+00 0. -1.
         -1    1    1    2    0  501 -0.66245892054E+02 -0.38766337870E+02 -0.62281477387E+01  0.77007382699E+02  0.00000000000E+00 0.  1.
<mgrwt>
<rscale>  0 0.65188101E+02</rscale>
<asrwt>0</asrwt>
<pdfrwt beam="1">  1        2 0.20752881E+00 0.54420186E+02</pdfrwt>
<pdfrwt beam="2">  1       -1 0.89292363E-02 0.78086624E+02</pdfrwt>
<totfact> 0.14137387E+03</totfact>
</mgrwt>
</event>
<event>
 7    1  0.3113151E-004  0.1719916E+03  0.7546771E-02  0.1314783E+00
          1   -1    0    0  502    0  0.00000000000E+00  0.00000000000E+00  0.33985302244E+04  0.33985302244E+04  0.00000000000E+00 0. -1.
          1   -1    0    0  503    0 -0.00000000000E+00 -0.00000000000E+00 -0.12878387569E+03  0.12878387569E+03  0.00000000000E+00 0. -1.
         25    2    1    2    0    0  0.11784843782E+03  0.89345761430E+02  0.28671623841E+03  0.34597623297E+03  0.12498973170E+03 0.  0.
          4    1    3    3  501    0 -0.12481481896E+02  0.18689141166E+02  0.12326806421E+03  0.12530642418E+03  0.12700000000E+01 0.  1.
         -4    1    3    3    0  501  0.13032991971E+03  0.70656620265E+02  0.16344817420E+03  0.22066980879E+03  0.12700000000E+01 0.  1.
          1    1    1    2  502    0  0.41403072454E+02 -0.84373094665E+01  0.30014657060E+04  0.30017631130E+04  0.00000000000E+00 0. -1.
          1    1    1    2  503    0 -0.15925151027E+03 -0.80908451964E+02 -0.18435595668E+02  0.17957475410E+03  0.00000000000E+00 0. -1.
<mgrwt>
<rscale>  0 0.85248680E+02</rscale>
<asrwt>0</asrwt>
<pdfrwt beam="1">  1        1 0.52285074E+00 0.42254025E+02</pdfrwt>
<pdfrwt beam="2">  1        1 0.19812907E-01 0.17199160E+03</pdfrwt>
<totfact> 0.16259909E+01</totfact>
</mgrwt>
</event>
<event>
 7    1  0.3113151E-004  0.9473879E+02  0.7546771E-02  0.1368052E+00
          1   -1    0    0  502    0  0.00000000000E+00  0.00000000000E+00  0.32874800954E+04  0.32874800954E+04  0.00000000000E+00 0. -1.
          3   -1    0    0  503    0 -0.00000000000E+00 -0.00000000000E+00 -0.16432352667E+02  0.16432352667E+02  0.00000000000E+00 0. -1.
         25    2    1    2    0    0  0.42798202587E+02  0.42471781430E+02  0.14134841132E+04  0.14202816178E+04  0.12500798833E+03 0.  0.
          4    1    3    3  501    0  0.12012982921E+01  0.40207887389E+02  0.12924008160E+03  0.13536147501E+03  0.12700000000E+01 0. -1.
         -4    1    3    3    0  501  0.41596904295E+02  0.22638940410E+01  0.12842440316E+04  0.12849201428E+04  0.12700000000E+01 0. -1.
          1    1    1    2  502    0 -0.96815529877E+00  0.48385335371E+02  0.16730500085E+04  0.16737498048E+04  0.00000000000E+00 0. -1.
          3    1    1    2  503    0 -0.41830047288E+02 -0.90857116802E+02  0.18451362099E+03  0.20988102549E+03  0.00000000000E+00 0. -1.
<mgrwt>
<rscale>  0 0.67711785E+02</rscale>
<asrwt>0</asrwt>
<pdfrwt beam="1">  1        1 0.50576565E+00 0.48395020E+02</pdfrwt>
<pdfrwt beam="2">  1        3 0.25280569E-02 0.94738792E+02</pdfrwt>
<totfact> 0.19955647E+02</totfact>
</mgrwt>
</event>
<event>
 7    1  0.3113151E-004  0.2176801E+03  0.7546771E-02  0.1331255E+00
          2   -1    0    0  503    0  0.00000000000E+00  0.00000000000E+00  0.13386524974E+04  0.13386524974E+04  0.00000000000E+00 0. -1.
          2   -1    0    0  502    0 -0.00000000000E+00 -0.00000000000E+00 -0.23097225349E+03  0.23097225349E+03  0.00000000000E+00 0. -1.
         25    2    1    2    0    0  0.15851396248E+03 -0.15260765572E+03  0.63047153734E+01  0.25314106493E+03  0.12499950574E+03 0.  0.
          4    1    3    3  501    0  0.21939565038E+01 -0.66883107834E+02 -0.26271275791E+02  0.71902408793E+02  0.12700000000E+01 0. -1.
         -4    1    3    3    0  501  0.15632000598E+03 -0.85724547883E+02  0.32575991164E+02  0.18123865614E+03  0.12700000000E+01 0. -1.
          2    1    1    2  502    0 -0.22861611703E+02 -0.17575535381E+02 -0.95615324099E+02  0.99869129045E+02  0.00000000000E+00 0. -1.
          2    1    1    2  503    0 -0.13565235078E+03  0.17018319110E+03  0.11969908527E+04  0.12166145569E+04  0.00000000000E+00 0. -1.
<mgrwt>
<rscale>  0 0.79228565E+02</rscale>
<asrwt>0</asrwt>
<pdfrwt beam="1">  1        2 0.20594653E+00 0.21768008E+03</pdfrwt>
<pdfrwt beam="2">  1        2 0.35534194E-01 0.28836656E+02</pdfrwt>
<totfact> 0.36786664E+02</totfact>
</mgrwt>
</event>
<event>
 7    1  0.3113151E-004  0.1049609E+03  0.7546771E-02  0.1326281E+00
         -1   -1    0    0    0  501 -0.00000000000E+00  0.00000000000E+00  0.21401857617E+03  0.21401857617E+03  0.00000000000E+00 0.  1.
          2   -1    0    0  503    0  0.00000000000E+00 -0.00000000000E+00 -0.19506579630E+03  0.19506579630E+03  0.00000000000E+00 0. -1.
         25    2    1    2    0    0  0.91902018923E+00 -0.62260279926E+02 -0.50413215409E+01  0.13973155870E+03  0.12498922562E+03 0.  0.
          4    1    3    3  502    0  0.24638296610E+02 -0.16838610324E+02  0.53898058098E+02  0.61621408814E+02  0.12700000000E+01 0.  1.
         -4    1    3    3    0  502 -0.23719276421E+02 -0.45421669603E+02 -0.58939379639E+02  0.78110149889E+02  0.12700000000E+01 0.  1.
          2    1    1    2  503    0 -0.27123428511E+02 -0.56290779594E+02 -0.85473474706E+02  0.10587750998E+03  0.00000000000E+00 0. -1.
         -1    1    1    2    0  501  0.26204408322E+02  0.11855105952E+03  0.10946757612E+03  0.16347530379E+03  0.00000000000E+00 0.  1.
<mgrwt>
<rscale>  0 0.80984241E+02</rscale>
<asrwt>0</asrwt>
<pdfrwt beam="2">  1        2 0.30010122E-01 0.62484656E+02</pdfrwt>
<pdfrwt beam="1">  1       -1 0.32925935E-01 0.10496092E+03</pdfrwt>
<totfact> 0.16693650E+03</totfact>
</mgrwt>
</event>
<event>
 7    1  0.3113151E-004  0.3006394E+02  0.7546771E-02  0.1600054E+00
         -2   -1    0    0    0  501 -0.00000000000E+00  0.00000000000E+00  0.34150889795E+02  0.34150889795E+02  0.00000000000E+00 0.  1.
          2   -1    0    0  503    0  0.00000000000E+00 -0.00000000000E+00 -0.35456666719E+03  0.35456666719E+03  0.00000000000E+00 0. -1.
         25    2    1    2    0    0  0.11994186723E+02  0.10093008336E+02 -0.15912262054E+03  0.20295309135E+03  0.12499687832E+03 0.  0.
          4    1    3    3  502    0  0.72931705977E+01  0.59537301499E+02 -0.35480080763E+02  0.69701719047E+02  0.12700000000E+01 0.  1.
         -4    1    3    3    0  502  0.47010161248E+01 -0.49444293163E+02 -0.12364253977E+03  0.13325137230E+03  0.12700000000E+01 0.  1.
          2    1    1    2  503    0 -0.21187057851E+02  0.21329532243E+02 -0.14699658220E+03  0.15003944663E+03  0.00000000000E+00 0. -1.
         -2    1    1    2    0  501  0.91928711286E+01 -0.31422540579E+02 -0.14296574658E+02  0.35725019006E+02  0.00000000000E+00 0.  1.
<mgrwt>
<rscale>  0 0.29822977E+02</rscale>
<asrwt>0</asrwt>
<pdfrwt beam="2">  1        2 0.54548719E-01 0.30063938E+02</pdfrwt>
<pdfrwt beam="1">  1       -2 0.52539829E-02 0.29583947E+02</pdfrwt>
<totfact> 0.13179566E+04</totfact>
</mgrwt>
</event>
<event>
 7    1  0.3113151E-004  0.5311324E+02  0.7546771E-02  0.1501760E+00
         -1   -1    0    0    0  501 -0.00000000000E+00  0.00000000000E+00  0.29286461525E+03  0.29286461525E+03  0.00000000000E+00 0.  1.
          2   -1    0    0  503    0  0.00000000000E+00 -0.00000000000E+00 -0.13561659979E+03  0.13561659979E+03  0.00000000000E+00 0. -1.
         25    2    1    2    0    0  0.15284855350E+02  0.24875116887E+02 -0.96538844500E+02  0.16061545917E+03  0.12500071593E+03 0.  0.
          4    1    3    3  502    0  0.39927947901E+02 -0.28326362443E+02 -0.15682676441E+01  0.48996899863E+02  0.12700000000E+01 0. -1.
         -4    1    3    3    0  502 -0.24643092550E+02  0.53201479330E+02 -0.94970576856E+02  0.11161855931E+03  0.12700000000E+01 0. -1.
          2    1    1    2  503    0 -0.12150515468E+02  0.29040937634E+02  0.84548832202E+02  0.90219266853E+02  0.00000000000E+00 0. -1.
         -1    1    1    2    0  501 -0.31343398823E+01 -0.53916054521E+02  0.16923802776E+03  0.17764648902E+03  0.00000000000E+00 0.  1.
<mgrwt>
<rscale>  0 0.40890370E+02</rscale>
<asrwt>0</asrwt>
<pdfrwt beam="2">  1        2 0.20864092E-01 0.31480329E+02</pdfrwt>
<pdfrwt beam="1">  1       -1 0.45056095E-01 0.53113244E+02</pdfrwt>
<totfact> 0.13878501E+03</totfact>
</mgrwt>
</event>
<event>
 7    1  0.3113151E-004  0.7676538E+02  0.7546771E-02  0.1398978E+00
          2   -1    0    0  502    0  0.00000000000E+00  0.00000000000E+00  0.17115559411E+03  0.17115559411E+03  0.00000000000E+00 0. -1.
          1   -1    0    0  503    0 -0.00000000000E+00 -0.00000000000E+00 -0.12740370848E+04  0.12740370848E+04  0.00000000000E+00 0. -1.
         25    2    1    2    0    0  0.75988650976E+02  0.85878194291E+02 -0.15580130845E+03  0.23032096514E+03  0.12499743971E+03 0.  0.
          4    1    3    3  501    0  0.11010473884E+03  0.52912333843E+02 -0.11297541935E+03  0.16639659511E+03  0.12700000000E+01 0. -1.
         -4    1    3    3    0  501 -0.34116087861E+02  0.32965860448E+02 -0.42825889099E+02  0.63924370025E+02  0.12700000000E+01 0. -1.
          2    1    1    2  502    0 -0.33539891014E+02 -0.66965555788E+02  0.12287853092E+03  0.14390428524E+03  0.00000000000E+00 0. -1.
          1    1    1    2  503    0 -0.42448759962E+02 -0.18912638503E+02 -0.10699587131E+04  0.10709674285E+04  0.00000000000E+00 0. -1.
<mgrwt>
<rscale>  0 0.59727631E+02</rscale>
<asrwt>0</asrwt>
<pdfrwt beam="1">  1        2 0.26331631E-01 0.76765381E+02</pdfrwt>
<pdfrwt beam="2">  1        1 0.19600570E+00 0.46471337E+02</pdfrwt>
<totfact> 0.31517255E+02</totfact>
</mgrwt>
</event>
<event>
 7    1  0.3113151E-004  0.1087169E+03  0.7546771E-02  0.1399525E+00
         -2   -1    0    0    0  501 -0.00000000000E+00  0.00000000000E+00  0.46215553812E+03  0.46215553812E+03  0.00000000000E+00 0. -1.
          2   -1    0    0  503    0  0.00000000000E+00 -0.00000000000E+00 -0.60496964215E+03  0.60496964215E+03  0.00000000000E+00 0. -1.
         25    2    1    2    0    0  0.12290326562E+03  0.65884709532E+02 -0.14142844672E+03  0.23467918683E+03  0.12500523006E+03 0.  0.
          4    1    3    3  502    0  0.29365955215E+02  0.57120160035E+02  0.77045900301E+00  0.64243898661E+02  0.12700000000E+01 0.  1.
         -4    1    3    3    0  502  0.93537310404E+02  0.87645494968E+01 -0.14219890572E+03  0.17043528817E+03  0.12700000000E+01 0.  1.
          2    1    1    2  503    0 -0.31243826845E+02 -0.95533618039E+01 -0.40929012653E+03  0.41059207386E+03  0.00000000000E+00 0. -1.
         -2    1    1    2    0  501 -0.91659438774E+02 -0.56331347728E+02  0.40790446922E+03  0.42185391958E+03  0.00000000000E+00 0. -1.
<mgrwt>
<rscale>  0 0.59598419E+02</rscale>
<asrwt>0</asrwt>
<pdfrwt beam="2">  1        2 0.93072253E-01 0.32671753E+02</pdfrwt>
<pdfrwt beam="1">  1       -2 0.71100852E-01 0.10871690E+03</pdfrwt>
<totfact> 0.99243896E+01</totfact>
</mgrwt>
</event>
<event>
 7    1  0.3113151E-004  0.6137656E+02  0.7546771E-02  0.1511370E+00
          2   -1    0    0  502    0  0.00000000000E+00  0.00000000000E+00  0.89817152719E+02  0.89817152719E+02  0.00000000000E+00 0. -1.
          1   -1    0    0  503    0 -0.00000000000E+00 -0.00000000000E+00 -0.21944511050E+04  0.21944511050E+04  0.00000000000E+00 0. -1.
         25    2    1    2    0    0  0.56721555136E+02  0.57610577540E+02 -0.20348936858E+04  0.20403321668E+04  0.12500689995E+03 0.  0.
          4    1    3    3  501    0  0.71657175685E+02 -0.14970660529E+02 -0.11579348353E+04  0.11602472009E+04  0.12700000000E+01 0. -1.
         -4    1    3    3    0  501 -0.14935620550E+02  0.72581238069E+02 -0.87695885042E+03  0.88008496585E+03  0.12700000000E+01 0. -1.
          2    1    1    2  502    0 -0.31737686045E+02 -0.52425478975E+02  0.75062428169E+02  0.96902423519E+02  0.00000000000E+00 0. -1.
          1    1    1    2  503    0 -0.24983869091E+02 -0.51850985646E+01 -0.14480269468E+03  0.14703366740E+03  0.00000000000E+00 0. -1.
<mgrwt>
<rscale>  0 0.39573975E+02</rscale>
<asrwt>0</asrwt>
<pdfrwt beam="1">  1        2 0.13818025E-01 0.61376557E+02</pdfrwt>
<pdfrwt beam="2">  1        1 0.33760784E+00 0.25516249E+02</pdfrwt>
<totfact> 0.19019393E+02</totfact>
</mgrwt>
</event>
<event>
 7    1  0.3113151E-004  0.2805485E+03  0.7546771E-02  0.1226931E+00
          2   -1    0    0  502    0  0.00000000000E+00  0.00000000000E+00  0.62719165883E+03  0.62719165883E+03  0.00000000000E+00 0. -1.
          1   -1    0    0  503    0 -0.00000000000E+00 -0.00000000000E+00 -0.21787672360E+03  0.21787672360E+03  0.00000000000E+00 0. -1.
         25    2    1    2    0    0 -0.22094505175E+03  0.12019615732E+03  0.97968529208E+02  0.29746759568E+03  0.12500122254E+03 0.  0.
          4    1    3    3  501    0 -0.91383115294E+02  0.72220027430E+02 -0.17010671861E+02  0.11771823130E+03  0.12700000000E+01 0.  1.
         -4    1    3    3    0  501 -0.12956193646E+03  0.47976129894E+02  0.11497920107E+03  0.17974936438E+03  0.12700000000E+01 0.  1.
          2    1    1    2  502    0 -0.50629179224E+02  0.33243659539E+02  0.21162919482E+03  0.22012580673E+03  0.00000000000E+00 0. -1.
          1    1    1    2  503    0  0.27157423097E+03 -0.15343981686E+03  0.99717211205E+02  0.32747498002E+03  0.00000000000E+00 0. -1.
<mgrwt>
<rscale>  0 0.13035412E+03</rscale>
<asrwt>0</asrwt>
<pdfrwt beam="1">  1        2 0.96491024E-01 0.60567769E+02</pdfrwt>
<pdfrwt beam="2">  1        1 0.33519496E-01 0.28054849E+03</pdfrwt>
<totfact> 0.88811366E+02</totfact>
</mgrwt>
</event>
<event>
 7    1  0.3113151E-004  0.4606516E+02  0.7546771E-02  0.1511310E+00
         -1   -1    0    0    0  501 -0.00000000000E+00  0.00000000000E+00  0.45745701631E+03  0.45745701631E+03  0.00000000000E+00 0.  1.
          1   -1    0    0  503    0  0.00000000000E+00 -0.00000000000E+00 -0.80806148450E+02  0.80806148450E+02  0.00000000000E+00 0. -1.
         25    2    1    2    0    0  0.49474354927E+02  0.69409222090E+01  0.15134485940E+03  0.20255519690E+03  0.12500981212E+03 0.  0.
          4    1    3    3  502    0 -0.31864348958E+02 -0.59903825976E+00  0.15534807131E+01  0.31933082903E+02  0.12700000000E+01 0.  1.
         -4    1    3    3    0  502  0.81338703885E+02  0.75399604688E+01  0.14979137869E+03  0.17062211399E+03  0.12700000000E+01 0.  1.
          1    1    1    2  503    0 -0.30460145308E+02 -0.35140863570E+02 -0.44143846144E+02  0.64120042865E+02  0.00000000000E+00 0. -1.
         -1    1    1    2    0  501 -0.19014209619E+02  0.28199941361E+02  0.26944985460E+03  0.27158792500E+03  0.00000000000E+00 0.  1.
<mgrwt>
<rscale>  0 0.39582086E+02</rscale>
<asrwt>0</asrwt>
<pdfrwt beam="2">  1        1 0.12431715E-01 0.46065157E+02</pdfrwt>
<pdfrwt beam="1">  1       -1 0.70378001E-01 0.34011422E+02</pdfrwt>
<totfact> 0.96963816E+02</totfact>
</mgrwt>
</event>
<event>
 7    1  0.3113151E-004  0.3930210E+02  0.7546771E-02  0.1539773E+00
         -1   -1    0    0    0  501 -0.00000000000E+00  0.00000000000E+00  0.16955258142E+02  0.16955258142E+02  0.00000000000E+00 0.  1.
          2   -1    0    0  503    0  0.00000000000E+00 -0.00000000000E+00 -0.84522386914E+03  0.84522386914E+03  0.00000000000E+00 0. -1.
         25    2    1    2    0    0  0.33842426245E+02  0.41113617420E+02 -0.54821228303E+03  0.56479746675E+03  0.12499532727E+03 0.  0.
          4    1    3    3  502    0  0.79271475732E+02  0.11657991347E+02 -0.36797476058E+03  0.37659914094E+03  0.12700000000E+01 0.  1.
         -4    1    3    3    0  502 -0.45429049487E+02  0.29455626073E+02 -0.18023752244E+03  0.18819832582E+03  0.12700000000E+01 0.  1.
          2    1    1    2  503    0  0.42086528581E+01 -0.32732175353E+02 -0.23710521177E+03  0.23939087182E+03  0.00000000000E+00 0. -1.
         -1    1    1    2    0  501 -0.38051079103E+02 -0.83814420669E+01 -0.42951116205E+02  0.57990788711E+02  0.00000000000E+00 0.  1.
<mgrwt>
<rscale>  0 0.36014354E+02</rscale>
<asrwt>0</asrwt>
<pdfrwt beam="2">  1        2 0.13003445E+00 0.33001637E+02</pdfrwt>
<pdfrwt beam="1">  1       -1 0.26085011E-02 0.39302101E+02</pdfrwt>
<totfact> 0.14979269E+04</totfact>
</mgrwt>
</event>
<event>
 7    1  0.3113151E-004  0.6356252E+02  0.7546771E-02  0.1399734E+00
          2   -1    0    0  503    0  0.00000000000E+00  0.00000000000E+00  0.51240888711E+03  0.51240888711E+03  0.00000000000E+00 0. -1.
         -1   -1    0    0    0  501 -0.00000000000E+00 -0.00000000000E+00 -0.47884399095E+02  0.47884399095E+02  0.00000000000E+00 0.  1.
         25    2    1    2    0    0  0.44016254193E+01 -0.11076057942E+03  0.18679927773E+03  0.25060673332E+03  0.12498993705E+03 0.  0.
          4    1    3    3  502    0  0.62077235606E+02 -0.50174670979E+02  0.11707954907E+03  0.14170502637E+03  0.12700000000E+01 0. -1.
         -4    1    3    3    0  502 -0.57675610186E+02 -0.60585908438E+02  0.69719728656E+02  0.10890170694E+03  0.12700000000E+01 0. -1.
          2    1    1    2  503    0  0.11387422022E+02  0.57252588350E+02  0.22665776578E+03  0.23405400027E+03  0.00000000000E+00 0. -1.
         -1    1    1    2    0  501 -0.15789047441E+02  0.53507991067E+02  0.51067444507E+02  0.75632552619E+02  0.00000000000E+00 0.  1.
<mgrwt>
<rscale>  0 0.59548987E+02</rscale>
<asrwt>0</asrwt>
<pdfrwt beam="1">  1        2 0.78832133E-01 0.63562521E+02</pdfrwt>
<pdfrwt beam="2">  1       -1 0.73668310E-02 0.55788880E+02</pdfrwt>
<totfact> 0.60873793E+03</totfact>
</mgrwt>
</event>
<event>
 7    1  0.3113151E-004  0.1462120E+03  0.7546771E-02  0.1277150E+00
         -3   -1    0    0    0  502 -0.00000000000E+00  0.00000000000E+00  0.11207732686E+04  0.11207732686E+04  0.00000000000E+00 0.  1.
         -2   -1    0    0    0  501  0.00000000000E+00 -0.00000000000E+00 -0.84759696354E+03  0.84759696354E+03  0.00000000000E+00 0.  1.
         25    2    1    2    0    0 -0.16268543970E+03  0.63263998289E+02 -0.53521222368E+03  0.57666985849E+03  0.12500846189E+03 0.  0.
          4    1    3    3  503    0 -0.18253769732E+03  0.59024349149E+02 -0.45241699600E+03  0.49141289758E+03  0.12700000000E+01 0.  1.
         -4    1    3    3    0  503  0.19852257620E+02  0.42396491403E+01 -0.82795227679E+02  0.85256960912E+02  0.12700000000E+01 0.  1.
         -2    1    1    2    0  501  0.96571886978E+02 -0.87675186424E+02 -0.27587130494E+03  0.30515249394E+03  0.00000000000E+00 0.  1.
         -3    1    1    2    0  502  0.66113552724E+02  0.24411188135E+02  0.10842598337E+04  0.10865478797E+04  0.00000000000E+00 0.  1.
<mgrwt>
<rscale>  0 0.10151099E+03</rscale>
<asrwt>0</asrwt>
<pdfrwt beam="2">  1       -2 0.13039953E+00 0.14621200E+03</pdfrwt>
<pdfrwt beam="1">  1       -3 0.17242666E+00 0.70476294E+02</pdfrwt>
<totfact> 0.45729107E-01</totfact>
</mgrwt>
</event>
<event>
 7    1  0.3113151E-004  0.8205200E+02  0.7546771E-02  0.1452735E+00
         -1   -1    0    0    0  501 -0.00000000000E+00  0.00000000000E+00  0.18568229129E+03  0.18568229129E+03  0.00000000000E+00 0.  1.
          2   -1    0    0  503    0  0.00000000000E+00 -0.00000000000E+00 -0.15267212252E+03  0.15267212252E+03  0.00000000000E+00 0. -1.
         25    2    1    2    0    0  0.31840067825E+02 -0.53201654156E+02 -0.93257019438E+02  0.16782725662E+03  0.12499964187E+03 0.  0.
          4    1    3    3  502    0 -0.19795579978E+02  0.29664655334E+02 -0.46788890724E+01  0.35991133154E+02  0.12700000000E+01 0. -1.
         -4    1    3    3    0  502  0.51635647804E+02 -0.82866309490E+02 -0.88578130365E+02  0.13183612347E+03  0.12700000000E+01 0. -1.
          2    1    1    2  503    0  0.28130173334E+02 -0.64091269268E+01  0.21994742673E+02  0.36278812894E+02  0.00000000000E+00 0. -1.
         -1    1    1    2    0  501 -0.59970241160E+02  0.59610781083E+02  0.10427244553E+03  0.13424834429E+03  0.00000000000E+00 0.  1.
<mgrwt>
<rscale>  0 0.48654775E+02</rscale>
<asrwt>0</asrwt>
<pdfrwt beam="2">  1        2 0.23488019E-01 0.28851058E+02</pdfrwt>
<pdfrwt beam="1">  1       -1 0.28566506E-01 0.82052004E+02</pdfrwt>
<totfact> 0.26493916E+03</totfact>
</mgrwt>
</event>
<event>
 7    1  0.3113151E-004  0.1051438E+03  0.7546771E-02  0.1358889E+00
          2   -1    0    0  503    0  0.00000000000E+00  0.00000000000E+00  0.21880649993E+04  0.21880649993E+04  0.00000000000E+00 0.  1.
         -1   -1    0    0    0  501 -0.00000000000E+00 -0.00000000000E+00 -0.87700239070E+02  0.87700239070E+02  0.00000000000E+00 0.  1.
         25    2    1    2    0    0 -0.11691323858E+03 -0.81711523808E+02  0.17735801731E+03  0.25966170430E+03  0.12499142331E+03 0.  0.
          4    1    3    3  502    0  0.17656977366E+02  0.13878105333E+02  0.10074780380E+02  0.24647205867E+02  0.12700000000E+01 0. -1.
         -4    1    3    3    0  502 -0.13457021594E+03 -0.95589629141E+02  0.16728323693E+03  0.23501449844E+03  0.12700000000E+01 0. -1.
          2    1    1    2  503    0  0.33438000987E+02  0.33138282197E+02  0.19188582175E+04  0.19194356214E+04  0.00000000000E+00 0.  1.
         -1    1    1    2    0  501  0.83475237588E+02  0.48573241611E+02  0.41485254520E+01  0.96667912745E+02  0.00000000000E+00 0.  1.
<mgrwt>
<rscale>  0 0.70355221E+02</rscale>
<asrwt>0</asrwt>
<pdfrwt beam="1">  1        2 0.33662534E+00 0.47077018E+02</pdfrwt>
<pdfrwt beam="2">  1       -1 0.13492346E-01 0.10514381E+03</pdfrwt>
<totfact> 0.30246546E+02</totfact>
</mgrwt>
</event>
<event>
 7    1  0.3113151E-004  0.5935634E+02  0.7546771E-02  0.1413115E+00
          2   -1    0    0  503    0  0.00000000000E+00  0.00000000000E+00  0.24832659384E+04  0.24832659384E+04  0.00000000000E+00 0.  1.
          2   -1    0    0  502    0 -0.00000000000E+00 -0.00000000000E+00 -0.10226548909E+04  0.10226548909E+04  0.00000000000E+00 0. -1.
         25    2    1    2    0    0  0.10414544786E+02  0.57687518586E+02  0.76779774290E+02  0.15797722589E+03  0.12500143046E+03 0.  0.
          4    1    3    3  501    0 -0.53583407663E+02  0.17021736325E+02  0.55960963649E+02  0.79335763921E+02  0.12700000000E+01 0. -1.
         -4    1    3    3    0  501  0.63997952449E+02  0.40665782260E+02  0.20818810641E+02  0.78641461972E+02  0.12700000000E+01 0. -1.
          2    1    1    2  502    0  0.41301431612E+02 -0.42896652445E+02 -0.98084735463E+03  0.98265327767E+03  0.00000000000E+00 0. -1.
          2    1    1    2  503    0 -0.51715976398E+02 -0.14790866141E+02  0.23646786279E+04  0.23652903257E+04  0.00000000000E+00 0.  1.
<mgrwt>
<rscale>  0 0.56504414E+02</rscale>
<asrwt>0</asrwt>
<pdfrwt beam="1">  1        2 0.38204091E+00 0.53789515E+02</pdfrwt>
<pdfrwt beam="2">  1        2 0.15733152E+00 0.59356341E+02</pdfrwt>
<totfact> 0.21860950E+01</totfact>
</mgrwt>
</event>
<event>
 7    1  0.3113151E-004  0.6318603E+02  0.7546771E-02  0.1415253E+00
         -1   -1    0    0    0  501 -0.00000000000E+00  0.00000000000E+00  0.10883041445E+03  0.10883041445E+03  0.00000000000E+00 0.  1.
          3   -1    0    0  503    0  0.00000000000E+00 -0.00000000000E+00 -0.13625495639E+04  0.13625495639E+04  0.00000000000E+00 0. -1.
         25    2    1    2    0    0 -0.85495253004E+02  0.69272674285E+02 -0.10793463825E+04  0.10921178921E+04  0.12499894021E+03 0.  0.
          4    1    3    3  502    0  0.23976154072E+01 -0.23023297495E+02 -0.52489347484E+02  0.57380879102E+02  0.12700000000E+01 0.  1.
         -4    1    3    3    0  502 -0.87892868412E+02  0.92295971781E+02 -0.10268570350E+04  0.10347370130E+04  0.12700000000E+01 0.  1.
          3    1    1    2  503    0  0.30271764325E+02 -0.39415119423E+02 -0.26466476320E+03  0.26929049043E+03  0.00000000000E+00 0. -1.
         -1    1    1    2    0  501  0.55223488679E+02 -0.29857554862E+02  0.90291996317E+02  0.10997159580E+03  0.00000000000E+00 0.  1.
<mgrwt>
<rscale>  0 0.56037888E+02</rscale>
<asrwt>0</asrwt>
<pdfrwt beam="2">  1        3 0.20962301E+00 0.49698404E+02</pdfrwt>
<pdfrwt beam="1">  1       -1 0.16743140E-01 0.63186032E+02</pdfrwt>
<totfact> 0.17075412E+01</totfact>
</mgrwt>
</event>
<event>
 7    1  0.3113151E-004  0.9708809E+02  0.7546771E-02  0.1320298E+00
          2   -1    0    0  502    0  0.00000000000E+00  0.00000000000E+00  0.15287071607E+04  0.15287071607E+04  0.00000000000E+00 0. -1.
          1   -1    0    0  503    0 -0.00000000000E+00 -0.00000000000E+00 -0.49291115532E+03  0.49291115532E+03  0.00000000000E+00 0. -1.
         25    2    1    2    0    0 -0.37833087760E+02  0.15394772173E+03 -0.10084040964E+03  0.22566495984E+03  0.12499856930E+03 0.  0.
          4    1    3    3  501    0  0.30596332052E+02  0.11037158013E+03 -0.31132819426E+02  0.11869661571E+03  0.12700000000E+01 0. -1.
         -4    1    3    3    0  501 -0.68429419812E+02  0.43576141605E+02 -0.69707590214E+02  0.10696834413E+03  0.12700000000E+01 0. -1.
          2    1    1    2  502    0 -0.42391296241E+01 -0.96456659643E+02  0.14608337278E+04  0.14640208460E+04  0.00000000000E+00 0. -1.
          1    1    1    2  503    0  0.42072217384E+02 -0.57491062091E+02 -0.32419731276E+03  0.33193251015E+03  0.00000000000E+00 0. -1.
<mgrwt>
<rscale>  0 0.83166472E+02</rscale>
<asrwt>0</asrwt>
<pdfrwt beam="1">  1        2 0.23518571E+00 0.97088092E+02</pdfrwt>
<pdfrwt beam="2">  1        1 0.75832486E-01 0.71241096E+02</pdfrwt>
<totfact> 0.93139344E+01</totfact>
</mgrwt>
</event>
<event>
 7    1  0.3113151E-004  0.1224781E+03  0.7546771E-02  0.1422976E+00
          1   -1    0    0  503    0  0.00000000000E+00  0.00000000000E+00  0.29726103290E+03  0.29726103290E+03  0.00000000000E+00 0. -1.
         -1   -1    0    0    0  501 -0.00000000000E+00 -0.00000000000E+00 -0.20122659872E+03  0.20122659872E+03  0.00000000000E+00 0. -1.
         25    2    1    2    0    0  0.11009939697E+03 -0.81557586544E+02  0.20911441974E+03  0.27949972709E+03  0.12497095568E+03 0.  0.
          4    1    3    3  502    0  0.10805051236E+03 -0.61415542171E+01  0.14177745702E+03  0.17836785621E+03  0.12700000000E+01 0. -1.
         -4    1    3    3    0  502  0.20488846152E+01 -0.75416032327E+02  0.67336962718E+02  0.10113187088E+03  0.12700000000E+01 0. -1.
          1    1    1    2  503    0 -0.34424687541E+01  0.23912468008E+02  0.25319262160E+02  0.34996024827E+02  0.00000000000E+00 0. -1.
         -1    1    1    2    0  501 -0.10665692822E+03  0.57645118537E+02 -0.13839924772E+03  0.18399187971E+03  0.00000000000E+00 0. -1.
<mgrwt>
<rscale>  0 0.54396193E+02</rscale>
<asrwt>0</asrwt>
<pdfrwt beam="1">  1        1 0.45732467E-01 0.24158988E+02</pdfrwt>
<pdfrwt beam="2">  1       -1 0.30957938E-01 0.12247805E+03</pdfrwt>
<totfact> 0.84743691E+02</totfact>
</mgrwt>
</event>
<event>
 7    1  0.3113151E-004  0.6911069E+02  0.7546771E-02  0.1383903E+00
          2   -1    0    0  502    0  0.00000000000E+00  0.00000000000E+00  0.98858479870E+03  0.98858479870E+03  0.00000000000E+00 0. -1.
          2   -1    0    0  503    0 -0.00000000000E+00 -0.00000000000E+00 -0.28503029786E+04  0.28503029786E+04  0.00000000000E+00 0. -1.
         25    2    1    2    0    0  0.10364037130E+03 -0.36584515260E+02  0.21023463612E+03  0.26814697197E+03  0.12499777211E+03 0.  0.
          4    1    3    3  501    0  0.52672637281E+02  0.24049236892E+02  0.16938951547E+03  0.17901729907E+03  0.12700000000E+01 0. -1.
         -4    1    3    3    0  501  0.50967734016E+02 -0.60633752152E+02  0.40845120644E+02  0.89129672899E+02  0.12700000000E+01 0. -1.
          2    1    1    2  502    0 -0.66980432537E+02 -0.86835130216E+01  0.74757073044E+03  0.75061559986E+03  0.00000000000E+00 0. -1.
          2    1    1    2  503    0 -0.36659938760E+02  0.45268028282E+02 -0.28195235464E+04  0.28201252055E+04  0.00000000000E+00 0. -1.
<mgrwt>
<rscale>  0 0.63448772E+02</rscale>
<asrwt>0</asrwt>
<pdfrwt beam="1">  1        2 0.15208997E+00 0.69110686E+02</pdfrwt>
<pdfrwt beam="2">  1        2 0.43850814E+00 0.58250712E+02</pdfrwt>
<totfact> 0.14364416E+01</totfact>
</mgrwt>
</event>
<event>
 7    1  0.3113151E-004  0.7919484E+02  0.7546771E-02  0.1392083E+00
         -1   -1    0    0    0  501 -0.00000000000E+00  0.00000000000E+00  0.75006425213E+03  0.75006425213E+03  0.00000000000E+00 0.  1.
          3   -1    0    0  503    0  0.00000000000E+00 -0.00000000000E+00 -0.11807366542E+03  0.11807366542E+03  0.00000000000E+00 0. -1.
         25    2    1    2    0    0 -0.31562170026E+02  0.15777812636E+02  0.25449776346E+02  0.13235320239E+03  0.12499827646E+03 0.  0.
          4    1    3    3  502    0 -0.46965205558E+02  0.51291017840E+02  0.50740046564E+02  0.86096830775E+02  0.12700000000E+01 0. -1.
         -4    1    3    3    0  502  0.15403035532E+02 -0.35513205203E+02 -0.25290270218E+02  0.46256371617E+02  0.12700000000E+01 0. -1.
          3    1    1    2  503    0 -0.47484908596E+02  0.31703465254E+01 -0.53012985657E+02  0.71240748801E+02  0.00000000000E+00 0. -1.
         -1    1    1    2    0  501  0.79047078622E+02 -0.18948159162E+02  0.65955379602E+03  0.66454396635E+03  0.00000000000E+00 0.  1.
<mgrwt>
<rscale>  0 0.61391628E+02</rscale>
<asrwt>0</asrwt>
<pdfrwt beam="2">  1        3 0.18165180E-01 0.47590626E+02</pdfrwt>
<pdfrwt beam="1">  1       -1 0.11539450E+00 0.79194841E+02</pdfrwt>
<totfact> 0.81660399E+01</totfact>
</mgrwt>
</event>
<event>
 7    1  0.3113151E-004  0.8753015E+02  0.7546771E-02  0.1350680E+00
          3   -1    0    0  503    0 -0.00000000000E+00  0.00000000000E+00  0.43383147341E+03  0.43383147341E+03  0.00000000000E+00 0. -1.
          2   -1    0    0  502    0  0.00000000000E+00 -0.00000000000E+00 -0.63519786339E+03  0.63519786339E+03  0.00000000000E+00 0. -1.
         25    2    1    2    0    0  0.47568655993E+02 -0.61726840024E+02 -0.11372332537E+03  0.18609644883E+03  0.12500365482E+03 0.  0.
          4    1    3    3  501    0 -0.18987545043E+02 -0.71886811453E+01 -0.96131273550E+02  0.98260056268E+02  0.12700000000E+01 0.  1.
         -4    1    3    3    0  501  0.66556201036E+02 -0.54538158879E+02 -0.17592051823E+02  0.87836392558E+02  0.12700000000E+01 0.  1.
          2    1    1    2  502    0 -0.54526121106E+02 -0.26494224984E+02 -0.47842786120E+03  0.48225331540E+03  0.00000000000E+00 0. -1.
          3    1    1    2  503    0  0.69574651134E+01  0.88221065008E+02  0.39078479659E+03  0.40067957258E+03  0.00000000000E+00 0. -1.
<mgrwt>
<rscale>  0 0.72844102E+02</rscale>
<asrwt>0</asrwt>
<pdfrwt beam="2">  1        2 0.97722748E-01 0.60622123E+02</pdfrwt>
<pdfrwt beam="1">  1        3 0.66743304E-01 0.87530145E+02</pdfrwt>
<totfact> 0.64901643E+01</totfact>
</mgrwt>
</event>
<event>
 7    1  0.3113151E-004  0.5999127E+02  0.7546771E-02  0.1480313E+00
         -1   -1    0    0    0  501 -0.00000000000E+00  0.00000000000E+00  0.50348840860E+01  0.50348840860E+01  0.00000000000E+00 0.  1.
          2   -1    0    0  503    0  0.00000000000E+00 -0.00000000000E+00 -0.31654964899E+04  0.31654964899E+04  0.00000000000E+00 0. -1.
         25    2    1    2    0    0 -0.50247675861E+02 -0.52758905769E+02 -0.18704733520E+04  0.18760602978E+04  0.12499339763E+03 0.  0.
          4    1    3    3  502    0  0.17639047583E+00 -0.79507218573E+02 -0.76699655191E+03  0.77110748438E+03  0.12700000000E+01 0.  1.
         -4    1    3    3    0  502 -0.50424066337E+02  0.26748312804E+02 -0.11034768001E+04  0.11049528134E+04  0.12700000000E+01 0.  1.
          2    1    1    2  503    0  0.17977739269E+02  0.55112939694E+02 -0.11156923503E+04  0.11171974113E+04  0.00000000000E+00 0. -1.
         -1    1    1    2    0  501  0.32269936592E+02 -0.23540339250E+01 -0.17429590352E+03  0.17727366490E+03  0.00000000000E+00 0.  1.
<mgrwt>
<rscale>  0 0.44057446E+02</rscale>
<asrwt>0</asrwt>
<pdfrwt beam="2">  1        2 0.48700006E+00 0.59991270E+02</pdfrwt>
<pdfrwt beam="1">  1       -1 0.77459659E-03 0.32355684E+02</pdfrwt>
<totfact> 0.45596802E+03</totfact>
</mgrwt>
</event>
<event>
 7    1  0.5123910E-004  0.4301669E+03  0.7546771E-02  0.1033807E+00
          2   -1    0    0  503    0  0.00000000000E+00  0.00000000000E+00  0.65801137736E+03  0.65801137736E+03  0.00000000000E+00 0. -1.
         -1   -1    0    0    0  501 -0.00000000000E+00 -0.00000000000E+00 -0.70304077739E+02  0.70304077739E+02  0.00000000000E+00 0.  1.
         25    2    1    2    0    0 -0.17175355296E+03  0.66341731974E+02  0.24270181210E+03  0.32928590577E+03  0.12499811912E+03 0.  0.
          4    1    3    3  502    0  0.19751454337E+02 -0.93096094348E-01  0.23507868518E+02  0.30730463673E+02  0.12700000000E+01 0.  1.
         -4    1    3    3    0  502 -0.19150500730E+03  0.66434828068E+02  0.21919394358E+03  0.29855544209E+03  0.12700000000E+01 0.  1.
          2    1    1    2  503    0  0.12783851602E+03 -0.49133985247E+02  0.31404648426E+03  0.34261060836E+03  0.00000000000E+00 0. -1.
         -1    1    1    2    0  501  0.43915036940E+02 -0.17207746727E+02  0.30959003254E+02  0.56418940963E+02  0.00000000000E+00 0.  1.
<mgrwt>
<rscale>  0 0.43016687E+03</rscale>
<asrwt>0</asrwt>
<pdfrwt beam="1">  1        2 0.10123252E+00 0.43016687E+03</pdfrwt>
<pdfrwt beam="2">  1       -1 0.10816012E-01 0.43016687E+03</pdfrwt>
<totfact> 0.27891877E+03</totfact>
</mgrwt>
</event>
<event>
 7    1  0.3113151E-004  0.3355972E+02  0.7546771E-02  0.1595388E+00
          2   -1    0    0  503    0  0.00000000000E+00  0.00000000000E+00  0.23026539259E+03  0.23026539259E+03  0.00000000000E+00 0. -1.
         -1   -1    0    0    0  501 -0.00000000000E+00 -0.00000000000E+00 -0.49984866597E+02  0.49984866597E+02  0.00000000000E+00 0.  1.
         25    2    1    2    0    0  0.87317991593E+01 -0.61879313290E+01  0.13168168012E+03  0.18187776884E+03  0.12499969243E+03 0.  0.
          4    1    3    3  502    0 -0.36611290844E+02  0.37044584321E+02  0.24159033667E+02  0.57427864774E+02  0.12700000000E+01 0.  1.
         -4    1    3    3    0  502  0.45343090003E+02 -0.43232515650E+02  0.10752264646E+03  0.12444990406E+03  0.12700000000E+01 0.  1.
          2    1    1    2  503    0  0.27028699866E+02  0.35358289719E+01  0.55521052569E+02  0.61851758111E+02  0.00000000000E+00 0. -1.
         -1    1    1    2    0  501 -0.35760499025E+02  0.26521023571E+01 -0.69222067029E+01  0.36520732236E+02  0.00000000000E+00 0.  1.
<mgrwt>
<rscale>  0 0.30245728E+02</rscale>
<asrwt>0</asrwt>
<pdfrwt beam="1">  1        2 0.35425444E-01 0.27258993E+02</pdfrwt>
<pdfrwt beam="2">  1       -1 0.76899796E-02 0.33559717E+02</pdfrwt>
<totfact> 0.12231268E+04</totfact>
</mgrwt>
</event>
<event>
 7    1  0.3113151E-004  0.3068260E+03  0.7546771E-02  0.1239765E+00
          1   -1    0    0  503    0 -0.00000000000E+00  0.00000000000E+00  0.65401352608E+03  0.65401352608E+03  0.00000000000E+00 0. -1.
          2   -1    0    0  502    0  0.00000000000E+00 -0.00000000000E+00 -0.13979846465E+04  0.13979846465E+04  0.00000000000E+00 0. -1.
         25    2    1    2    0    0 -0.18168718083E+03  0.25893354755E+03 -0.44353400087E+03  0.55892868108E+03  0.12498818695E+03 0.  0.
          4    1    3    3  501    0 -0.96357432891E+02  0.49154620547E+02 -0.99093919058E+02  0.14670429199E+03  0.12700000000E+01 0.  1.
         -4    1    3    3    0  501 -0.85329747943E+02  0.20977892700E+03 -0.34444008181E+03  0.41222438908E+03  0.12700000000E+01 0.  1.
          2    1    1    2  502    0  0.13495290368E+03 -0.27206254361E+03 -0.86997888365E+03  0.92146273492E+03  0.00000000000E+00 0. -1.
          1    1    1    2  503    0  0.46734277150E+02  0.13128996061E+02  0.56954176407E+03  0.57160675662E+03  0.00000000000E+00 0. -1.
<mgrwt>
<rscale>  0 0.12204253E+03</rscale>
<asrwt>0</asrwt>
<pdfrwt beam="2">  1        2 0.21507456E+00 0.30682595E+03</pdfrwt>
<pdfrwt beam="1">  1        1 0.10061747E+00 0.48543416E+02</pdfrwt>
<totfact> 0.70180688E+01</totfact>
</mgrwt>
</event>
<event>
 7    1  0.3113151E-004  0.1696410E+03  0.7546771E-02  0.1347988E+00
          1   -1    0    0  503    0  0.00000000000E+00  0.00000000000E+00  0.78528433817E+03  0.78528433817E+03  0.00000000000E+00 0. -1.
         -2   -1    0    0    0  501 -0.00000000000E+00 -0.00000000000E+00 -0.12225442489E+03  0.12225442489E+03  0.00000000000E+00 0.  1.
         25    2    1    2    0    0 -0.85304838196E+02 -0.17552823781E+03  0.22290089679E+02  0.23282796494E+03  0.12499974187E+03 0.  0.
          4    1    3    3  502    0  0.76524415630E+00  0.90685500976E+01  0.27588757587E+02  0.29078800606E+02  0.12700000000E+01 0.  1.
         -4    1    3    3    0  502 -0.86070082352E+02 -0.18459678791E+03 -0.52986679078E+01  0.20374916433E+03  0.12700000000E+01 0.  1.
          1    1    1    2  503    0  0.60153295262E+02  0.15573318254E+03  0.60060582773E+03  0.62337677482E+03  0.00000000000E+00 0. -1.
         -2    1    1    2    0  501  0.25151542934E+02  0.19795055273E+02  0.40133995863E+02  0.51334023310E+02  0.00000000000E+00 0.  1.
<mgrwt>
<rscale>  0 0.73686436E+02</rscale>
<asrwt>0</asrwt>
<pdfrwt beam="1">  1        1 0.12081297E+00 0.16964104E+03</pdfrwt>
<pdfrwt beam="2">  1       -2 0.18808374E-01 0.32006942E+02</pdfrwt>
<totfact> 0.45593971E+02</totfact>
</mgrwt>
</event>
<event>
 7    1  0.3113151E-004  0.1124235E+03  0.7546771E-02  0.1347982E+00
          1   -1    0    0  503    0  0.00000000000E+00  0.00000000000E+00  0.10170448830E+04  0.10170448830E+04  0.00000000000E+00 0. -1.
         -1   -1    0    0    0  501 -0.00000000000E+00 -0.00000000000E+00 -0.47791987659E+03  0.47791987659E+03  0.00000000000E+00 0.  1.
         25    2    1    2    0    0  0.11756348157E+03  0.85441286284E+02 -0.25797622980E+03  0.32140015826E+03  0.12499976393E+03 0.  0.
          4    1    3    3  502    0  0.58406814269E+02  0.11043148545E+03 -0.14461118589E+03  0.19110331477E+03  0.12700000000E+01 0.  1.
         -4    1    3    3    0  502  0.59156667301E+02 -0.24990199170E+02 -0.11336504391E+03  0.13029684348E+03  0.12700000000E+01 0.  1.
          1    1    1    2  503    0 -0.69338184029E+02 -0.88108203773E+02  0.97898131627E+03  0.98538076749E+03  0.00000000000E+00 0. -1.
         -1    1    1    2    0  501 -0.48225297541E+02  0.26669174890E+01 -0.18188008010E+03  0.18818383381E+03  0.00000000000E+00 0.  1.
<mgrwt>
<rscale>  0 0.73688134E+02</rscale>
<asrwt>0</asrwt>
<pdfrwt beam="1">  1        1 0.15646844E+00 0.11242351E+03</pdfrwt>
<pdfrwt beam="2">  1       -1 0.73526135E-01 0.48298983E+02</pdfrwt>
<totfact> 0.33842992E+01</totfact>
</mgrwt>
</event>
<event>
 7    1  0.3113151E-004  0.9732565E+02  0.7546771E-02  0.1320196E+00
          2   -1    0    0  502    0  0.00000000000E+00  0.00000000000E+00  0.26809935126E+04  0.26809935126E+04  0.00000000000E+00 0. -1.
          1   -1    0    0  503    0 -0.00000000000E+00 -0.00000000000E+00 -0.85959951569E+03  0.85959951569E+03  0.00000000000E+00 0. -1.
         25    2    1    2    0    0 -0.20251664241E+02 -0.95724017949E+02  0.25502014291E+03  0.30038877099E+03  0.12499969174E+03 0.  0.
          4    1    3    3  501    0 -0.41810366597E+02  0.15097581716E+02  0.55294416658E+02  0.70958643886E+02  0.12700000000E+01 0.  1.
         -4    1    3    3    0  501  0.21558702356E+02 -0.11082159966E+03  0.19972572625E+03  0.22943012711E+03  0.12700000000E+01 0.  1.
          2    1    1    2  502    0 -0.59326556658E+02  0.39244908800E+02  0.23999157494E+04  0.24009696807E+04  0.00000000000E+00 0. -1.
          1    1    1    2  503    0  0.79578220899E+02  0.56479109149E+02 -0.83354189547E+03  0.83923457657E+03  0.00000000000E+00 0. -1.
<mgrwt>
<rscale>  0 0.83204549E+02</rscale>
<asrwt>0</asrwt>
<pdfrwt beam="1">  1        2 0.41246054E+00 0.71132294E+02</pdfrwt>
<pdfrwt beam="2">  1        1 0.13224608E+00 0.97325655E+02</pdfrwt>
<totfact> 0.11480418E+01</totfact>
</mgrwt>
</event>
<event>
 7    1  0.3113151E-004  0.8592591E+02  0.7546771E-02  0.1451297E+00
          2   -1    0    0  503    0  0.00000000000E+00  0.00000000000E+00  0.16999260534E+03  0.16999260534E+03  0.00000000000E+00 0. -1.
          2   -1    0    0  502    0 -0.00000000000E+00 -0.00000000000E+00 -0.69290660907E+03  0.69290660907E+03  0.00000000000E+00 0. -1.
         25    2    1    2    0    0  0.53025674214E+02  0.94913210741E+02 -0.12013719940E+03  0.20464242755E+03  0.12500134709E+03 0.  0.
          4    1    3    3  501    0 -0.30040192793E+02  0.73843270209E+02 -0.52503010856E+02  0.95464238263E+02  0.12700000000E+01 0.  1.
         -4    1    3    3    0  501  0.83065867007E+02  0.21069940532E+02 -0.67634188545E+02  0.10917818929E+03  0.12700000000E+01 0.  1.
          2    1    1    2  502    0 -0.50771359854E+02 -0.67161582756E+02 -0.52560854912E+03  0.53230889161E+03  0.00000000000E+00 0. -1.
          2    1    1    2  503    0 -0.22543143606E+01 -0.27751627984E+02  0.12283174479E+03  0.12594789525E+03  0.00000000000E+00 0. -1.
<mgrwt>
<rscale>  0 0.48912557E+02</rscale>
<asrwt>0</asrwt>
<pdfrwt beam="1">  1        2 0.26152709E-01 0.27843038E+02</pdfrwt>
<pdfrwt beam="2">  1        2 0.10660101E+00 0.85925905E+02</pdfrwt>
<totfact> 0.12973687E+03</totfact>
</mgrwt>
</event>
<event>
 7    1  0.3113151E-004  0.1126920E+03  0.7546771E-02  0.1345003E+00
          2   -1    0    0  502    0  0.00000000000E+00  0.00000000000E+00  0.45979599506E+03  0.45979599506E+03  0.00000000000E+00 0.  1.
          1   -1    0    0  503    0 -0.00000000000E+00 -0.00000000000E+00 -0.16682725968E+04  0.16682725968E+04  0.00000000000E+00 0. -1.
         25    2    1    2    0    0 -0.39035023946E+02  0.65153227267E+02 -0.34308549594E+03  0.37296658804E+03  0.12501096813E+03 0.  0.
          4    1    3    3  501    0 -0.67494697486E+02  0.78931695367E+02 -0.31106966089E+03  0.32795074866E+03  0.12700000000E+01 0.  1.
         -4    1    3    3    0  501  0.28459673540E+02 -0.13778468100E+02 -0.32015835055E+02  0.45015839384E+02  0.12700000000E+01 0.  1.
          2    1    1    2  502    0 -0.45192889995E+02  0.20025347146E+02  0.44073291366E+03  0.44349623789E+03  0.00000000000E+00 0.  1.
          1    1    1    2  503    0  0.84227913941E+02 -0.85178574413E+02 -0.13061240195E+04  0.13116057660E+04  0.00000000000E+00 0. -1.
<mgrwt>
<rscale>  0 0.74635557E+02</rscale>
<asrwt>0</asrwt>
<pdfrwt beam="1">  1        2 0.70737845E-01 0.49430879E+02</pdfrwt>
<pdfrwt beam="2">  1        1 0.25665732E+00 0.11269203E+03</pdfrwt>
<totfact> 0.57799980E+01</totfact>
</mgrwt>
</event>
<event>
 7    1  0.3113151E-004  0.1638536E+03  0.7546771E-02  0.1280722E+00
          2   -1    0    0  503    0  0.00000000000E+00  0.00000000000E+00  0.19642544626E+04  0.19642544626E+04  0.00000000000E+00 0. -1.
         -2   -1    0    0    0  501 -0.00000000000E+00 -0.00000000000E+00 -0.82965785408E+02  0.82965785408E+02  0.00000000000E+00 0.  1.
         25    2    1    2    0    0 -0.23045564151E+02  0.13654652303E+03  0.98095759039E+03  0.99853811111E+03  0.12499805688E+03 0.  0.
          4    1    3    3  502    0  0.19820649947E+02  0.64124468475E+02  0.74500362471E+03  0.74802193775E+03  0.12700000000E+01 0.  1.
         -4    1    3    3    0  502 -0.42866214098E+02  0.72422054558E+02  0.23595396568E+03  0.25051617336E+03  0.12700000000E+01 0.  1.
          2    1    1    2  503    0  0.62845701527E+02 -0.18248732173E+03  0.95048220776E+03  0.96988021531E+03  0.00000000000E+00 0. -1.
         -2    1    1    2    0  501 -0.39800137376E+02  0.45940798702E+02 -0.50151120920E+02  0.78801921614E+02  0.00000000000E+00 0.  1.
<mgrwt>
<rscale>  0 0.99797606E+02</rscale>
<asrwt>0</asrwt>
<pdfrwt beam="1">  1        2 0.30219296E+00 0.16385363E+03</pdfrwt>
<pdfrwt beam="2">  1       -2 0.12763968E-01 0.60783287E+02</pdfrwt>
<totfact> 0.33788248E+02</totfact>
</mgrwt>
</event>
<event>
 7    1  0.3113151E-004  0.4512051E+02  0.7546771E-02  0.1562862E+00
         -2   -1    0    0    0  501 -0.00000000000E+00  0.00000000000E+00  0.11370126697E+03  0.11370126697E+03  0.00000000000E+00 0.  1.
          2   -1    0    0  503    0  0.00000000000E+00 -0.00000000000E+00 -0.23869884288E+04  0.23869884288E+04  0.00000000000E+00 0. -1.
         25    2    1    2    0    0 -0.61734255552E+02 -0.19223144423E+02 -0.15479120392E+04  0.15542961439E+04  0.12499669600E+03 0.  0.
          4    1    3    3  502    0  0.35078156574E+02 -0.25384230530E+02 -0.42567852554E+03  0.42787691716E+03  0.12700000000E+01 0. -1.
         -4    1    3    3    0  502 -0.96812412126E+02  0.61610861071E+01 -0.11222335137E+04  0.11264192267E+04  0.12700000000E+01 0. -1.
          2    1    1    2  503    0  0.16672687734E+02  0.18346152632E+02 -0.83109646586E+03  0.83146611200E+03  0.00000000000E+00 0. -1.
         -2    1    1    2    0  501  0.45061567819E+02  0.87699179104E+00  0.10572134330E+03  0.11492743988E+03  0.00000000000E+00 0.  1.
<mgrwt>
<rscale>  0 0.33444757E+02</rscale>
<asrwt>0</asrwt>
<pdfrwt beam="2">  1        2 0.36722899E+00 0.24790317E+02</pdfrwt>
<pdfrwt beam="1">  1       -2 0.17492502E-01 0.45120511E+02</pdfrwt>
<totfact> 0.15664144E+02</totfact>
</mgrwt>
</event>
<event>
 7    1  0.3113151E-004  0.5540965E+02  0.7546771E-02  0.1448850E+00
          2   -1    0    0  503    0  0.00000000000E+00  0.00000000000E+00  0.83334947979E+03  0.83334947979E+03  0.00000000000E+00 0. -1.
         -1   -1    0    0    0  501 -0.00000000000E+00 -0.00000000000E+00 -0.21872111929E+02  0.21872111929E+02  0.00000000000E+00 0.  1.
         25    2    1    2    0    0  0.54485976743E+02 -0.66081937159E+02  0.41383971271E+03  0.44069875641E+03  0.12496616344E+03 0.  0.
          4    1    3    3  502    0  0.15660799564E+02 -0.95246045807E+02  0.32972667486E+03  0.34356711556E+03  0.12700000000E+01 0. -1.
         -4    1    3    3    0  502  0.38825177180E+02  0.29164108648E+02  0.84113037850E+02  0.97131640842E+02  0.12700000000E+01 0. -1.
          2    1    1    2  503    0 -0.10212625121E+02  0.42759831688E+02  0.31396844897E+03  0.31703136732E+03  0.00000000000E+00 0. -1.
         -1    1    1    2    0  501 -0.44273351622E+02  0.23322105471E+02  0.83669206189E+02  0.97491467995E+02  0.00000000000E+00 0.  1.
<mgrwt>
<rscale>  0 0.49355306E+02</rscale>
<asrwt>0</asrwt>
<pdfrwt beam="1">  1        2 0.12820759E+00 0.43962494E+02</pdfrwt>
<pdfrwt beam="2">  1       -1 0.33649409E-02 0.55409645E+02</pdfrwt>
<totfact> 0.11030484E+04</totfact>
</mgrwt>
</event>
<event>
 7    1  0.3113151E-004  0.1532327E+03  0.7546771E-02  0.1354719E+00
          2   -1    0    0  503    0  0.00000000000E+00  0.00000000000E+00  0.30576175631E+04  0.30576175631E+04  0.00000000000E+00 0. -1.
          2   -1    0    0  502    0 -0.00000000000E+00 -0.00000000000E+00 -0.23504446620E+02  0.23504446620E+02  0.00000000000E+00 0. -1.
         25    2    1    2    0    0  0.12360996626E+03 -0.12568631389E+03  0.14025954383E+04  0.14191464180E+04  0.12500447545E+03 0.  0.
          4    1    3    3  501    0  0.72055753893E+02 -0.77778020820E+02  0.39153325770E+03  0.40563697684E+03  0.12700000000E+01 0. -1.
         -4    1    3    3    0  501  0.51554212371E+02 -0.47908293067E+02  0.10110621806E+04  0.10135094412E+04  0.12700000000E+01 0. -1.
          2    1    1    2  502    0 -0.29081433048E+02  0.16549436746E+02  0.11270126996E+02  0.35307638936E+02  0.00000000000E+00 0. -1.
          2    1    1    2  503    0 -0.94528533216E+02  0.10913687714E+03  0.16202475512E+04  0.16266679528E+04  0.00000000000E+00 0. -1.
<mgrwt>
<rscale>  0 0.71604911E+02</rscale>
<asrwt>0</asrwt>
<pdfrwt beam="1">  1        2 0.47040239E+00 0.15323273E+03</pdfrwt>
<pdfrwt beam="2">  1        2 0.36160711E-02 0.33460628E+02</pdfrwt>
<totfact> 0.63061499E+02</totfact>
</mgrwt>
</event>
<event>
 7    1  0.3113151E-004  0.7397266E+02  0.7546771E-02  0.1360581E+00
          3   -1    0    0  503    0 -0.00000000000E+00  0.00000000000E+00  0.22128569619E+03  0.22128569619E+03  0.00000000000E+00 0. -1.
          2   -1    0    0  502    0  0.00000000000E+00 -0.00000000000E+00 -0.15155654966E+04  0.15155654966E+04  0.00000000000E+00 0. -1.
         25    2    1    2    0    0 -0.76854835695E+02 -0.11110569569E+02 -0.66184201425E+02  0.16135966657E+03  0.12500593167E+03 0.  0.
          4    1    3    3  501    0 -0.44931264371E+02  0.48132023963E+02 -0.67136155156E+02  0.94044598345E+02  0.12700000000E+01 0. -1.
         -4    1    3    3    0  501 -0.31923571324E+02 -0.59242593531E+02  0.95195373088E+00  0.67315068226E+02  0.12700000000E+01 0. -1.
          2    1    1    2  502    0  0.38075961309E+02 -0.53872130340E+02 -0.13927334783E+04  0.13942949928E+04  0.00000000000E+00 0. -1.
          3    1    1    2  503    0  0.38778874386E+02  0.64982699909E+02  0.16463787939E+03  0.18119653340E+03  0.00000000000E+00 0. -1.
<mgrwt>
<rscale>  0 0.69856603E+02</rscale>
<asrwt>0</asrwt>
<pdfrwt beam="2">  1        2 0.23316392E+00 0.65969578E+02</pdfrwt>
<pdfrwt beam="1">  1        3 0.34043954E-01 0.73972657E+02</pdfrwt>
<totfact> 0.73831739E+01</totfact>
</mgrwt>
</event>
<event>
 7    1  0.3113151E-004  0.1330452E+03  0.7546771E-02  0.1372440E+00
          1   -1    0    0  503    0  0.00000000000E+00  0.00000000000E+00  0.10712318320E+03  0.10712318320E+03  0.00000000000E+00 0. -1.
         -3   -1    0    0    0  501 -0.00000000000E+00 -0.00000000000E+00 -0.55059742831E+03  0.55059742831E+03  0.00000000000E+00 0.  1.
         25    2    1    2    0    0  0.34257454760E+02  0.15681643281E+03 -0.61520000388E+02  0.21254605519E+03  0.12500459321E+03 0.  0.
          4    1    3    3  502    0 -0.28787352573E+02  0.96637477648E+02 -0.73190222781E+02  0.12460311138E+03  0.12700000000E+01 0. -1.
         -4    1    3    3    0  502  0.63044807333E+02  0.60178955163E+02  0.11670222392E+02  0.87942943815E+02  0.12700000000E+01 0. -1.
          1    1    1    2  503    0 -0.16757112147E+02 -0.28697984992E+02  0.81338672580E+01  0.34213081514E+02  0.00000000000E+00 0. -1.
         -3    1    1    2    0  501 -0.17500342612E+02 -0.12811844782E+03 -0.39008811199E+03  0.41096147481E+03  0.00000000000E+00 0.  1.
<mgrwt>
<rscale>  0 0.66493427E+02</rscale>
<asrwt>0</asrwt>
<pdfrwt beam="1">  1        1 0.16480490E-01 0.33232140E+02</pdfrwt>
<pdfrwt beam="2">  1       -3 0.84707295E-01 0.13304517E+03</pdfrwt>
<totfact> 0.21032814E+02</totfact>
</mgrwt>
</event>
<event>
 7    1  0.3113151E-004  0.1386351E+03  0.7546771E-02  0.1240414E+00
         -1   -1    0    0    0  501  0.00000000000E+00  0.00000000000E+00  0.26938092517E+04  0.26938092517E+04  0.00000000000E+00 0.  1.
         -1   -1    0    0    0  502 -0.00000000000E+00 -0.00000000000E+00 -0.23401674785E+02  0.23401674785E+02  0.00000000000E+00 0.  1.
         25    2    1    2    0    0 -0.77308006781E+02 -0.28070547003E+02  0.11835315437E+04  0.11929533916E+04  0.12500558386E+03 0.  0.
          4    1    3    3  503    0 -0.38242686075E+02 -0.13374169670E+02  0.90942504853E+02  0.99566678872E+02  0.12700000000E+01 0. -1.
         -4    1    3    3    0  503 -0.39065320706E+02 -0.14696377333E+02  0.10925890389E+04  0.10933867127E+04  0.12700000000E+01 0. -1.
         -1    1    1    2    0  501 -0.79533280818E+02  0.71174408935E+02  0.10918508421E+04  0.10970549670E+04  0.00000000000E+00 0.  1.
         -1    1    1    2    0  502  0.15684128760E+03 -0.43103861932E+02  0.39502519106E+03  0.42720256785E+03  0.00000000000E+00 0.  1.
<mgrwt>
<rscale>  0 0.12164108E+03</rscale>
<asrwt>0</asrwt>
<pdfrwt beam="1">  1       -1 0.41443195E+00 0.10673022E+03</pdfrwt>
<pdfrwt beam="2">  1       -1 0.36002598E-02 0.13863507E+03</pdfrwt>
<totfact> 0.18530420E+01</totfact>
</mgrwt>
</event>
<event>
 7    1  0.3113151E-004  0.3639427E+02  0.7546771E-02  0.1611824E+00
         -2   -1    0    0    0  501 -0.00000000000E+00  0.00000000000E+00  0.22898814602E+02  0.22898814602E+02  0.00000000000E+00 0.  1.
          1   -1    0    0  503    0  0.00000000000E+00 -0.00000000000E+00 -0.60805468338E+03  0.60805468338E+03  0.00000000000E+00 0. -1.
         25    2    1    2    0    0 -0.39399449991E+02  0.39364308015E+02 -0.32522755703E+03  0.35284523938E+03  0.12499973479E+03 0.  0.
          4    1    3    3  502    0 -0.57675853281E+02  0.14497562118E+02 -0.31461078726E+03  0.32018470250E+03  0.12700000000E+01 0.  1.
         -4    1    3    3    0  502  0.18276403290E+02  0.24866745897E+02 -0.10616769772E+02  0.32660536878E+02  0.12700000000E+01 0.  1.
          1    1    1    2  503    0  0.29153655224E+02 -0.19018802884E+02 -0.25137823051E+03  0.25377680203E+03  0.00000000000E+00 0. -1.
         -2    1    1    2    0  501  0.10245794767E+02 -0.20345505131E+02 -0.85500812374E+01  0.24331456566E+02  0.00000000000E+00 0.  1.
<mgrwt>
<rscale>  0 0.28793256E+02</rscale>
<asrwt>0</asrwt>
<pdfrwt beam="2">  1        1 0.93546868E-01 0.36394275E+02</pdfrwt>
<pdfrwt beam="1">  1       -2 0.35228948E-02 0.22779725E+02</pdfrwt>
<totfact> 0.80166767E+03</totfact>
</mgrwt>
</event>
<event>
 7    1  0.3113151E-004  0.1251030E+03  0.7546771E-02  0.1254552E+00
          1   -1    0    0  503    0  0.00000000000E+00  0.00000000000E+00  0.12324237243E+03  0.12324237243E+03  0.00000000000E+00 0. -1.
          1   -1    0    0  502    0 -0.00000000000E+00 -0.00000000000E+00 -0.13642152315E+04  0.13642152315E+04  0.00000000000E+00 0. -1.
         25    2    1    2    0    0  0.54634399185E+02 -0.19876203487E+02 -0.30789677331E+03  0.33735175465E+03  0.12500320922E+03 0.  0.
          4    1    3    3  501    0  0.38225072685E+02  0.30588319059E+02 -0.26390618463E+03  0.26841178929E+03  0.12700000000E+01 0.  1.
         -4    1    3    3    0  501  0.16409326500E+02 -0.50464522547E+02 -0.43990588678E+02  0.68939965363E+02  0.12700000000E+01 0.  1.
          1    1    1    2  502    0  0.54158381397E+01 -0.10249416467E+03 -0.99507769204E+03  0.10003569354E+04  0.00000000000E+00 0. -1.
          1    1    1    2  503    0 -0.60050237325E+02  0.12237036815E+03  0.62001606303E+02  0.14974891382E+03  0.00000000000E+00 0. -1.
<mgrwt>
<rscale>  0 0.11331467E+03</rscale>
<asrwt>0</asrwt>
<pdfrwt beam="1">  1        1 0.18960364E-01 0.12510299E+03</pdfrwt>
<pdfrwt beam="2">  1        1 0.20987927E+00 0.10263715E+03</pdfrwt>
<totfact> 0.30616384E+02</totfact>
</mgrwt>
</event>
<event>
 7    1  0.3113151E-004  0.5908298E+02  0.7546771E-02  0.1480063E+00
          2   -1    0    0  503    0  0.00000000000E+00  0.00000000000E+00  0.17288643382E+03  0.17288643382E+03  0.00000000000E+00 0. -1.
         -1   -1    0    0    0  501 -0.00000000000E+00 -0.00000000000E+00 -0.10193456987E+03  0.10193456987E+03  0.00000000000E+00 0.  1.
         25    2    1    2    0    0 -0.73713652142E+02 -0.33211765745E+02  0.56112149645E+02  0.15913200184E+03  0.12505077680E+03 0.  0.
          4    1    3    3  502    0 -0.10628556830E+03 -0.74705203139E+01  0.32735317195E+02  0.11147037541E+03  0.12700000000E+01 0.  1.
         -4    1    3    3    0  502  0.32571916160E+02 -0.25741245431E+02  0.23376832450E+02  0.47661626431E+02  0.12700000000E+01 0.  1.
          2    1    1    2  503    0  0.17909510599E+02  0.27611376180E+02  0.42012679713E+02  0.53368566789E+02  0.00000000000E+00 0. -1.
         -1    1    1    2    0  501  0.55804141544E+02  0.56003895650E+01 -0.27172965404E+02  0.62320435056E+02  0.00000000000E+00 0.  1.
<mgrwt>
<rscale>  0 0.44096308E+02</rscale>
<asrwt>0</asrwt>
<pdfrwt beam="1">  1        2 0.26597913E-01 0.32911072E+02</pdfrwt>
<pdfrwt beam="2">  1       -1 0.15682242E-01 0.59082984E+02</pdfrwt>
<totfact> 0.59846143E+03</totfact>
</mgrwt>
</event>
<event>
 7    1  0.3113151E-004  0.5380142E+02  0.7546771E-02  0.1460489E+00
          2   -1    0    0  503    0  0.00000000000E+00  0.00000000000E+00  0.58540825626E+03  0.58540825626E+03  0.00000000000E+00 0. -1.
         -1   -1    0    0    0  501 -0.00000000000E+00 -0.00000000000E+00 -0.25554650723E+03  0.25554650723E+03  0.00000000000E+00 0. -1.
         25    2    1    2    0    0 -0.25647723825E+02 -0.29019204501E+02  0.30349600600E+03  0.33050713923E+03  0.12500089381E+03 0.  0.
          4    1    3    3  502    0  0.36574180324E+02  0.28211396342E+02  0.11369092202E+03  0.12272241931E+03  0.12700000000E+01 0.  1.
         -4    1    3    3    0  502 -0.62221904149E+02 -0.57230600843E+02  0.18980508398E+03  0.20778471992E+03  0.12700000000E+01 0.  1.
          2    1    1    2  503    0 -0.22552194268E+01  0.59845883888E+02  0.26323246552E+03  0.26995915753E+03  0.00000000000E+00 0. -1.
         -1    1    1    2    0  501  0.27902943252E+02 -0.30826679387E+02 -0.23686672249E+03  0.24048846673E+03  0.00000000000E+00 0. -1.
<mgrwt>
<rscale>  0 0.47297341E+02</rscale>
<asrwt>0</asrwt>
<pdfrwt beam="1">  1        2 0.90062808E-01 0.53801420E+02</pdfrwt>
<pdfrwt beam="2">  1       -1 0.39314847E-01 0.41579543E+02</pdfrwt>
<totfact> 0.38860544E+02</totfact>
</mgrwt>
</event>
<event>
 7    1  0.3113151E-004  0.4116711E+02  0.7546771E-02  0.1555595E+00
         -1   -1    0    0    0  501 -0.00000000000E+00  0.00000000000E+00  0.10221636117E+04  0.10221636117E+04  0.00000000000E+00 0.  1.
          2   -1    0    0  503    0  0.00000000000E+00 -0.00000000000E+00 -0.12424636603E+02  0.12424636603E+02  0.00000000000E+00 0. -1.
         25    2    1    2    0    0 -0.22092254727E+02  0.25355040285E+02  0.76358359739E+03  0.77447735970E+03  0.12499729875E+03 0.  0.
          4    1    3    3  502    0  0.96017162313E+01  0.42209384966E+02  0.89391927774E+02  0.99329526249E+02  0.12700000000E+01 0. -1.
         -4    1    3    3    0  502 -0.31693970958E+02 -0.16854344680E+02  0.67419166962E+03  0.67514783345E+03  0.12700000000E+01 0. -1.
          2    1    1    2  503    0 -0.42842847272E+00 -0.42744522244E+02  0.72689654196E+02  0.84327122327E+02  0.00000000000E+00 0. -1.
         -1    1    1    2    0  501  0.22520683200E+02  0.17389481958E+02  0.17346572356E+03  0.17578376633E+03  0.00000000000E+00 0.  1.
<mgrwt>
<rscale>  0 0.34224686E+02</rscale>
<asrwt>0</asrwt>
<pdfrwt beam="2">  1        2 0.19114834E-02 0.41167106E+02</pdfrwt>
<pdfrwt beam="1">  1       -1 0.15725587E+00 0.28453036E+02</pdfrwt>
<totfact> 0.20356362E+03</totfact>
</mgrwt>
</event>
<event>
 7    1  0.3113151E-004  0.1290187E+03  0.7546771E-02  0.1314172E+00
          2   -1    0    0  502    0  0.00000000000E+00  0.00000000000E+00  0.13470484698E+03  0.13470484698E+03  0.00000000000E+00 0. -1.
          2   -1    0    0  503    0 -0.00000000000E+00 -0.00000000000E+00 -0.53260851155E+03  0.53260851155E+03  0.00000000000E+00 0. -1.
         25    2    1    2    0    0 -0.69507479466E+02 -0.73637801813E+02 -0.25446875325E+02  0.16287856042E+03  0.12501226510E+03 0.  0.
          4    1    3    3  501    0 -0.96454423925E+02 -0.87617334596E+02 -0.17598433603E+02  0.13149741816E+03  0.12700000000E+01 0. -1.
         -4    1    3    3    0  501  0.26946944459E+02  0.13979532783E+02 -0.78484417220E+01  0.31381142267E+02  0.12700000000E+01 0. -1.
          2    1    1    2  502    0  0.10921891068E+03  0.11402324515E+03 -0.34310033736E+02  0.16157737867E+03  0.00000000000E+00 0. -1.
          2    1    1    2  503    0 -0.39711431212E+02 -0.40385443337E+02 -0.33814675551E+03  0.34285741944E+03  0.00000000000E+00 0. -1.
<mgrwt>
<rscale>  0 0.85483904E+02</rscale>
<asrwt>0</asrwt>
<pdfrwt beam="1">  1        2 0.20723823E-01 0.12901872E+03</pdfrwt>
<pdfrwt beam="2">  1        2 0.81939769E-01 0.56639048E+02</pdfrwt>
<totfact> 0.23894873E+03</totfact>
</mgrwt>
</event>
<event>
 7    1  0.3113151E-004  0.5537861E+02  0.7546771E-02  0.1475463E+00
         -3   -1    0    0    0  501 -0.00000000000E+00  0.00000000000E+00  0.54251517628E+03  0.54251517628E+03  0.00000000000E+00 0.  1.
          1   -1    0    0  503    0  0.00000000000E+00 -0.00000000000E+00 -0.47043586904E+03  0.47043586904E+03  0.00000000000E+00 0. -1.
         25    2    1    2    0    0  0.33780274523E+02 -0.90718671357E+01  0.16541780665E+03  0.21026542766E+03  0.12500037437E+03 0.  0.
          4    1    3    3  502    0  0.34786665969E+02  0.52885239469E+02  0.11100140152E+03  0.12778843735E+03  0.12700000000E+01 0.  1.
         -4    1    3    3    0  502 -0.10063914457E+01 -0.61957106605E+02  0.54416405131E+02  0.82476990306E+02  0.12700000000E+01 0.  1.
          1    1    1    2  503    0  0.20616485071E+02  0.29848122071E+02 -0.44487881276E+03  0.44635536055E+03  0.00000000000E+00 0. -1.
         -3    1    1    2    0  501 -0.54396759595E+02 -0.20776254935E+02  0.35154031335E+03  0.35633025711E+03  0.00000000000E+00 0.  1.
<mgrwt>
<rscale>  0 0.44820931E+02</rscale>
<asrwt>0</asrwt>
<pdfrwt beam="2">  1        1 0.72374749E-01 0.36276023E+02</pdfrwt>
<pdfrwt beam="1">  1       -3 0.83463874E-01 0.55378613E+02</pdfrwt>
<totfact> 0.36314585E+01</totfact>
</mgrwt>
</event>
<event>
 7    1  0.3113151E-004  0.2894393E+03  0.7546771E-02  0.1161658E+00
         -1   -1    0    0    0  501 -0.00000000000E+00  0.00000000000E+00  0.76681526142E+03  0.76681526142E+03  0.00000000000E+00 0.  1.
          1   -1    0    0  503    0  0.00000000000E+00 -0.00000000000E+00 -0.19476273085E+04  0.19476273085E+04  0.00000000000E+00 0. -1.
         25    2    1    2    0    0  0.18640041677E+03  0.41708633943E+01 -0.88400358795E+03  0.91205803201E+03  0.12499999509E+03 0.  0.
          4    1    3    3  502    0  0.11682890302E+03 -0.68534048246E+01 -0.27331471743E+03  0.29731886823E+03  0.12700000000E+01 0. -1.
         -4    1    3    3    0  502  0.69571513749E+02  0.11024268219E+02 -0.61068887052E+03  0.61473916379E+03  0.12700000000E+01 0. -1.
          1    1    1    2  503    0  0.99626039297E+02 -0.67196547619E+02 -0.10174374776E+04  0.10245095141E+04  0.00000000000E+00 0. -1.
         -1    1    1    2    0  501 -0.28602645606E+03  0.63025684225E+02  0.72062901844E+03  0.77787502381E+03  0.00000000000E+00 0.  1.
<mgrwt>
<rscale>  0 0.18649879E+03</rscale>
<asrwt>0</asrwt>
<pdfrwt beam="2">  1        1 0.29963497E+00 0.12016956E+03</pdfrwt>
<pdfrwt beam="1">  1       -1 0.11797158E+00 0.28943934E+03</pdfrwt>
<totfact> 0.28004620E+00</totfact>
</mgrwt>
</event>
<event>
 7    1  0.3113151E-004  0.8721731E+02  0.7546771E-02  0.1318270E+00
          1   -1    0    0  503    0 -0.00000000000E+00  0.00000000000E+00  0.40300819171E+04  0.40300819171E+04  0.00000000000E+00 0. -1.
          2   -1    0    0  502    0  0.00000000000E+00 -0.00000000000E+00 -0.13269302538E+04  0.13269302538E+04  0.00000000000E+00 0. -1.
         25    2    1    2    0    0 -0.34666579281E+01 -0.15658324241E+03 -0.57680811613E+02  0.20852286129E+03  0.12499751250E+03 0.  0.
          4    1    3    3  501    0 -0.18344119117E+02 -0.15859591013E+03 -0.82328399949E+02  0.17963504044E+03  0.12700000000E+01 0.  1.
         -4    1    3    3    0  501  0.14877461189E+02  0.20126677196E+01  0.24647588336E+02  0.28887820852E+02  0.12700000000E+01 0.  1.
          2    1    1    2  502    0  0.31679584139E+02  0.74282587605E+02 -0.11919835258E+04  0.11947159598E+04  0.00000000000E+00 0. -1.
          1    1    1    2  503    0 -0.28212926211E+02  0.82300654800E+02  0.39528160006E+04  0.39537733498E+04  0.00000000000E+00 0. -1.
<mgrwt>
<rscale>  0 0.83924393E+02</rscale>
<asrwt>0</asrwt>
<pdfrwt beam="2">  1        2 0.20414312E+00 0.80755798E+02</pdfrwt>
<pdfrwt beam="1">  1        1 0.62001260E+00 0.87217313E+02</pdfrwt>
<totfact> 0.38203013E-01</totfact>
</mgrwt>
</event>
<event>
 7    1  0.3113151E-004  0.7518123E+02  0.7546771E-02  0.1440874E+00
          2   -1    0    0  503    0  0.00000000000E+00  0.00000000000E+00  0.15909656762E+04  0.15909656762E+04  0.00000000000E+00 0. -1.
         -3   -1    0    0    0  501 -0.00000000000E+00 -0.00000000000E+00 -0.63944636240E+02  0.63944636240E+02  0.00000000000E+00 0.  1.
         25    2    1    2    0    0 -0.70392296893E+01 -0.76353806185E+02  0.12182502982E+04  0.12270444522E+04  0.12499937625E+03 0.  0.
          4    1    3    3  502    0  0.47934419251E+02  0.45572422864E+01  0.45797251843E+03  0.46049855325E+03  0.12700000000E+01 0.  1.
         -4    1    3    3    0  502 -0.54973648940E+02 -0.80911048472E+02  0.76027777977E+03  0.76654589892E+03  0.12700000000E+01 0.  1.
          2    1    1    2  503    0 -0.32186884236E+02  0.12073675322E+02  0.34330452193E+03  0.34502139634E+03  0.00000000000E+00 0. -1.
         -3    1    1    2    0  501  0.39226113925E+02  0.64280130863E+02 -0.34533780145E+02  0.82844463958E+02  0.00000000000E+00 0.  1.
<mgrwt>
<rscale>  0 0.50837932E+02</rscale>
<asrwt>0</asrwt>
<pdfrwt beam="1">  1        2 0.24476392E+00 0.34376869E+02</pdfrwt>
<pdfrwt beam="2">  1       -3 0.98376375E-02 0.75181230E+02</pdfrwt>
<totfact> 0.61460110E+02</totfact>
</mgrwt>
</event>
<event>
 7    1  0.3113151E-004  0.5087611E+02  0.7546771E-02  0.1570077E+00
         -1   -1    0    0    0  501 -0.00000000000E+00  0.00000000000E+00  0.21968860894E+03  0.21968860894E+03  0.00000000000E+00 0.  1.
          2   -1    0    0  503    0  0.00000000000E+00 -0.00000000000E+00 -0.84405501900E+03  0.84405501900E+03  0.00000000000E+00 0. -1.
         25    2    1    2    0    0  0.28949322392E+02  0.11136475442E+02 -0.25913087012E+03  0.28936992451E+03  0.12499624398E+03 0.  0.
          4    1    3    3  502    0 -0.21081354117E+01  0.23439147190E+02  0.41882637463E+01  0.23937257761E+02  0.12700000000E+01 0.  1.
         -4    1    3    3    0  502  0.31057457804E+02 -0.12302671748E+02 -0.26331913387E+03  0.26543266675E+03  0.12700000000E+01 0.  1.
          2    1    1    2  503    0  0.21008369182E+02 -0.33634952366E+00 -0.56641421399E+03  0.56680378132E+03  0.00000000000E+00 0. -1.
         -1    1    1    2    0  501 -0.49957691574E+02 -0.10800125918E+02  0.20117867406E+03  0.20756992210E+03  0.00000000000E+00 0.  1.
<mgrwt>
<rscale>  0 0.32694971E+02</rscale>
<asrwt>0</asrwt>
<pdfrwt beam="2">  1        2 0.12985462E+00 0.21011062E+02</pdfrwt>
<pdfrwt beam="1">  1       -1 0.33798247E-01 0.50876114E+02</pdfrwt>
<totfact> 0.34385079E+02</totfact>
</mgrwt>
</event>
<event>
 7    1  0.3113151E-004  0.1176794E+03  0.7546771E-02  0.1263618E+00
         -1   -1    0    0    0  501  0.00000000000E+00  0.00000000000E+00  0.23270700532E+03  0.23270700532E+03  0.00000000000E+00 0.  1.
         -1   -1    0    0    0  502 -0.00000000000E+00 -0.00000000000E+00 -0.47565145929E+03  0.47565145929E+03  0.00000000000E+00 0.  1.
         25    2    1    2    0    0 -0.77786750678E+02 -0.58279081634E+02 -0.32369083796E+03  0.36034497415E+03  0.12500204750E+03 0.  0.
          4    1    3    3  503    0  0.75993999690E+01  0.22438821335E+02 -0.10705409479E+02  0.26028259160E+02  0.12700000000E+01 0. -1.
         -4    1    3    3    0  503 -0.85386150647E+02 -0.80717902968E+02 -0.31298542848E+03  0.33431671499E+03  0.12700000000E+01 0. -1.
         -1    1    1    2    0  501  0.77274040754E-01  0.12089557627E+03  0.17370092230E+03  0.21163118093E+03  0.00000000000E+00 0.  1.
         -1    1    1    2    0  502  0.77709476638E+02 -0.62616494634E+02 -0.92954538321E+02  0.13638230953E+03  0.00000000000E+00 0.  1.
<mgrwt>
<rscale>  0 0.10837038E+03</rscale>
<asrwt>0</asrwt>
<pdfrwt beam="1">  1       -1 0.35801078E-01 0.11767941E+03</pdfrwt>
<pdfrwt beam="2">  1       -1 0.73177147E-01 0.99797736E+02</pdfrwt>
<totfact> 0.12783616E+02</totfact>
</mgrwt>
</event>
<event>
 7    1  0.3113151E-004  0.5402048E+02  0.7546771E-02  0.1567765E+00
          1   -1    0    0  503    0  0.00000000000E+00  0.00000000000E+00  0.11443697968E+04  0.11443697968E+04  0.00000000000E+00 0. -1.
         -1   -1    0    0    0  501 -0.00000000000E+00 -0.00000000000E+00 -0.48500544065E+02  0.48500544065E+02  0.00000000000E+00 0.  1.
         25    2    1    2    0    0  0.36811416118E+02 -0.59769944910E+02  0.74243075770E+03  0.75614507430E+03  0.12499766688E+03 0.  0.
          4    1    3    3  502    0  0.71506205758E+02 -0.14504421581E+02  0.25034720054E+03  0.26076589007E+03  0.12700000000E+01 0. -1.
         -4    1    3    3    0  502 -0.34694789640E+02 -0.45265523329E+02  0.49208355716E+03  0.49537918422E+03  0.12700000000E+01 0. -1.
          1    1    1    2  503    0 -0.27890791548E+02  0.41783871779E+02  0.39095768520E+03  0.39417217026E+03  0.00000000000E+00 0. -1.
         -1    1    1    2    0  501 -0.89206245704E+01  0.17986073131E+02 -0.37519190199E+02  0.42553096275E+02  0.00000000000E+00 0.  1.
<mgrwt>
<rscale>  0 0.32932603E+02</rscale>
<asrwt>0</asrwt>
<pdfrwt beam="1">  1        1 0.17605687E+00 0.54020480E+02</pdfrwt>
<pdfrwt beam="2">  1       -1 0.74616230E-02 0.20076762E+02</pdfrwt>
<totfact> 0.10776934E+03</totfact>
</mgrwt>
</event>
<event>
 7    1  0.3113151E-004  0.1300396E+03  0.7546771E-02  0.1325922E+00
          2   -1    0    0  503    0  0.00000000000E+00  0.00000000000E+00  0.46556551854E+03  0.46556551854E+03  0.00000000000E+00 0. -1.
          2   -1    0    0  502    0 -0.00000000000E+00 -0.00000000000E+00 -0.14240636366E+03  0.14240636366E+03  0.00000000000E+00 0. -1.
         25    2    1    2    0    0  0.42532394362E+01 -0.13780139418E+02 -0.38391735459E+02  0.13155413992E+03  0.12499833635E+03 0.  0.
          4    1    3    3  501    0  0.51921424568E+02 -0.14515178442E+02 -0.58707581110E+02  0.79716483328E+02  0.12700000000E+01 0.  1.
         -4    1    3    3    0  501 -0.47668185132E+02  0.73503902404E+00  0.20315845651E+02  0.51837656589E+02  0.12700000000E+01 0.  1.
          2    1    1    2  502    0 -0.22385630356E+02  0.14254934413E+03  0.76988258159E+02  0.16355006528E+03  0.00000000000E+00 0. -1.
          2    1    1    2  503    0  0.18132390920E+02 -0.12876920471E+03  0.28456263218E+03  0.31286767701E+03  0.00000000000E+00 0. -1.
<mgrwt>
<rscale>  0 0.81113068E+02</rscale>
<asrwt>0</asrwt>
<pdfrwt beam="1">  1        2 0.71625463E-01 0.13003958E+03</pdfrwt>
<pdfrwt beam="2">  1        2 0.21908672E-01 0.50594827E+02</pdfrwt>
<totfact> 0.24820872E+03</totfact>
</mgrwt>
</event>
<event>
 7    1  0.3113151E-004  0.6880448E+02  0.7546771E-02  0.1366297E+00
         -2   -1    0    0    0  501 -0.00000000000E+00  0.00000000000E+00  0.23144757363E+04  0.23144757363E+04  0.00000000000E+00 0. -1.
          3   -1    0    0  503    0  0.00000000000E+00 -0.00000000000E+00 -0.30718492404E+02  0.30718492404E+02  0.00000000000E+00 0. -1.
         25    2    1    2    0    0 -0.67930064415E+02  0.48972237278E+02  0.52660066532E+03  0.54767432634E+03  0.12500453329E+03 0.  0.
          4    1    3    3  502    0 -0.82398963362E+01 -0.32423272112E+01  0.38709068123E+03  0.38719403013E+03  0.12700000000E+01 0.  1.
         -4    1    3    3    0  502 -0.59690168078E+02  0.52214564489E+02  0.13950998409E+03  0.16048029621E+03  0.12700000000E+01 0.  1.
          3    1    1    2  503    0  0.37461192307E+01 -0.70240188657E+02  0.43869382452E+02  0.82898976041E+02  0.00000000000E+00 0. -1.
         -2    1    1    2    0  501  0.64183945184E+02  0.21267951379E+02  0.17132871962E+04  0.17146209264E+04  0.00000000000E+00 0. -1.
<mgrwt>
<rscale>  0 0.68207582E+02</rscale>
<asrwt>0</asrwt>
<pdfrwt beam="2">  1        3 0.47259237E-02 0.68804481E+02</pdfrwt>
<pdfrwt beam="1">  1       -2 0.35607305E+00 0.67615860E+02</pdfrwt>
<totfact> 0.17628691E+01</totfact>
</mgrwt>
</event>
<event>
 7    1  0.3113151E-004  0.8361719E+02  0.7546771E-02  0.1419717E+00
          1   -1    0    0  503    0  0.00000000000E+00  0.00000000000E+00  0.17745393452E+04  0.17745393452E+04  0.00000000000E+00 0. -1.
         -1   -1    0    0    0  501 -0.00000000000E+00 -0.00000000000E+00 -0.55753408745E+02  0.55753408745E+02  0.00000000000E+00 0.  1.
         25    2    1    2    0    0 -0.62006872259E+02 -0.88271829967E+02  0.88022679503E+03  0.89557872014E+03  0.12500106040E+03 0.  0.
          4    1    3    3  502    0 -0.29873511176E+02 -0.59048493841E+02  0.14872993171E+03  0.16279237323E+03  0.12700000000E+01 0. -1.
         -4    1    3    3    0  502 -0.32133361083E+02 -0.29223336126E+02  0.73149686332E+03  0.73278634691E+03  0.12700000000E+01 0. -1.
          1    1    1    2  503    0  0.58797446866E+02  0.52130764360E+02  0.87777647910E+03  0.88128673178E+03  0.00000000000E+00 0. -1.
         -1    1    1    2    0  501  0.32094253933E+01  0.36141065607E+02 -0.39217337637E+02  0.53427302065E+02  0.00000000000E+00 0.  1.
<mgrwt>
<rscale>  0 0.55080910E+02</rscale>
<asrwt>0</asrwt>
<pdfrwt beam="1">  1        1 0.27300601E+00 0.83617190E+02</pdfrwt>
<pdfrwt beam="2">  1       -1 0.85774489E-02 0.36283289E+02</pdfrwt>
<totfact> 0.35808444E+02</totfact>
</mgrwt>
</event>
<event>
 7    1  0.3113151E-004  0.4216225E+02  0.7546771E-02  0.1556610E+00
          1   -1    0    0  503    0  0.00000000000E+00  0.00000000000E+00  0.68107668902E+03  0.68107668902E+03  0.00000000000E+00 0. -1.
         -2   -1    0    0    0  501 -0.00000000000E+00 -0.00000000000E+00 -0.15252355576E+03  0.15252355576E+03  0.00000000000E+00 0.  1.
         25    2    1    2    0    0  0.45201948059E+02  0.25243263381E+02  0.32945361460E+03  0.35615966697E+03  0.12501834166E+03 0.  0.
          4    1    3    3  502    0 -0.35506344092E+02  0.34292685617E+01  0.34719663078E+02  0.49794861762E+02  0.12700000000E+01 0.  1.
         -4    1    3    3    0  502  0.80708292151E+02  0.21813994819E+02  0.29473395152E+03  0.30636480521E+03  0.12700000000E+01 0.  1.
          1    1    1    2  503    0 -0.41864361181E+02  0.21565810758E+01  0.33558442581E+03  0.33819252273E+03  0.00000000000E+00 0. -1.
         -2    1    1    2    0  501 -0.33375868776E+01 -0.27399844457E+02 -0.13648490715E+03  0.13924805508E+03  0.00000000000E+00 0.  1.
<mgrwt>
<rscale>  0 0.34114191E+02</rscale>
<asrwt>0</asrwt>
<pdfrwt beam="1">  1        1 0.10478103E+00 0.42162246E+02</pdfrwt>
<pdfrwt beam="2">  1       -2 0.23465163E-01 0.27602372E+02</pdfrwt>
<totfact> 0.40995116E+02</totfact>
</mgrwt>
</event>
<event>
 7    1  0.3113151E-004  0.6118896E+02  0.7546771E-02  0.1406917E+00
          3   -1    0    0  503    0 -0.00000000000E+00  0.00000000000E+00  0.29245418604E+03  0.29245418604E+03  0.00000000000E+00 0. -1.
          2   -1    0    0  502    0  0.00000000000E+00 -0.00000000000E+00 -0.10557191417E+04  0.10557191417E+04  0.00000000000E+00 0. -1.
         25    2    1    2    0    0  0.50737417643E+02 -0.10390924847E+03  0.18456901128E+03  0.25112076463E+03  0.12499800413E+03 0.  0.
          4    1    3    3  501    0  0.90085743584E+02 -0.54132603573E+02  0.13184571661E+03  0.16861401441E+03  0.12700000000E+01 0.  1.
         -4    1    3    3    0  501 -0.39348325941E+02 -0.49776644892E+02  0.52723294673E+02  0.82506750222E+02  0.12700000000E+01 0.  1.
          2    1    1    2  502    0 -0.24692797198E+02  0.55734884157E+02 -0.10113510183E+04  0.10131865542E+04  0.00000000000E+00 0. -1.
          3    1    1    2  503    0 -0.26044620445E+02  0.48174364309E+02  0.63517051340E+02  0.83866008857E+02  0.00000000000E+00 0. -1.
<mgrwt>
<rscale>  0 0.57887391E+02</rscale>
<asrwt>0</asrwt>
<pdfrwt beam="2">  1        2 0.16241833E+00 0.61188961E+02</pdfrwt>
<pdfrwt beam="1">  1        3 0.44992951E-01 0.54763963E+02</pdfrwt>
<totfact> 0.74714353E+01</totfact>
</mgrwt>
</event>
<event>
 7    1  0.3113151E-004  0.3464089E+02  0.7546771E-02  0.1599083E+00
          1   -1    0    0  503    0 -0.00000000000E+00  0.00000000000E+00  0.22650308022E+03  0.22650308022E+03  0.00000000000E+00 0. -1.
          2   -1    0    0  502    0  0.00000000000E+00 -0.00000000000E+00 -0.14681904119E+04  0.14681904119E+04  0.00000000000E+00 0.  1.
         25    2    1    2    0    0 -0.19496771553E+02  0.30078095187E+02  0.58897446399E+02  0.14275133381E+03  0.12499687277E+03 0.  0.
          4    1    3    3  501    0  0.13344699830E+02  0.72920694197E+02  0.45939815365E+02  0.87221489276E+02  0.12700000000E+01 0. -1.
         -4    1    3    3    0  501 -0.32841471383E+02 -0.42842599010E+02  0.12957631033E+02  0.55529844539E+02  0.12700000000E+01 0. -1.
          2    1    1    2  502    0 -0.14503680692E+02 -0.21368332574E+02 -0.14236935975E+04  0.14239278148E+04  0.00000000000E+00 0.  1.
          1    1    1    2  503    0  0.34000452244E+02 -0.87097626128E+01  0.12310881940E+03  0.12801434346E+03  0.00000000000E+00 0. -1.
<mgrwt>
<rscale>  0 0.29910239E+02</rscale>
<asrwt>0</asrwt>
<pdfrwt beam="2">  1        2 0.22587544E+00 0.25825615E+02</pdfrwt>
<pdfrwt beam="1">  1        1 0.34846628E-01 0.34640894E+02</pdfrwt>
<totfact> 0.28615380E+02</totfact>
</mgrwt>
</event>
<event>
 7    1  0.3113151E-004  0.3452651E+02  0.7546771E-02  0.1616413E+00
          1   -1    0    0  503    0  0.00000000000E+00  0.00000000000E+00  0.19139289841E+03  0.19139289841E+03  0.00000000000E+00 0. -1.
         -2   -1    0    0    0  501 -0.00000000000E+00 -0.00000000000E+00 -0.70645160150E+02  0.70645160150E+02  0.00000000000E+00 0.  1.
         25    2    1    2    0    0 -0.48299845776E+02  0.20655428489E+02  0.58929137937E+02  0.14783517951E+03  0.12499230047E+03 0.  0.
          4    1    3    3  502    0 -0.51273451862E+02 -0.19707524820E+02  0.83879404023E+02  0.10027323032E+03  0.12700000000E+01 0. -1.
         -4    1    3    3    0  502  0.29736060857E+01  0.40362953309E+02 -0.24950266086E+02  0.47561949190E+02  0.12700000000E+01 0. -1.
          1    1    1    2  503    0  0.15640187161E+02 -0.17364550426E+02  0.75205635330E+02  0.78752972334E+02  0.00000000000E+00 0. -1.
         -2    1    1    2    0  501  0.32659658615E+02 -0.32908780629E+01 -0.13387035011E+02  0.35449906709E+02  0.00000000000E+00 0.  1.
<mgrwt>
<rscale>  0 0.28405535E+02</rscale>
<asrwt>0</asrwt>
<pdfrwt beam="1">  1        1 0.29445061E-01 0.23369704E+02</pdfrwt>
<pdfrwt beam="2">  1       -2 0.10868486E-01 0.34526513E+02</pdfrwt>
<totfact> 0.64970947E+03</totfact>
</mgrwt>
</event>
<event>
 7    1  0.3113151E-004  0.1242637E+03  0.7546771E-02  0.1320155E+00
         -2   -1    0    0    0  501 -0.00000000000E+00  0.00000000000E+00  0.40764771828E+03  0.40764771828E+03  0.00000000000E+00 0.  1.
          1   -1    0    0  503    0  0.00000000000E+00 -0.00000000000E+00 -0.99658208083E+03  0.99658208083E+03  0.00000000000E+00 0. -1.
         25    2    1    2    0    0 -0.84743943153E+02  0.13585532337E+02  0.35976552504E+03  0.39041352701E+03  0.12500154587E+03 0.  0.
          4    1    3    3  502    0  0.17433473999E+02 -0.33338892376E+02  0.67893815913E+02  0.77631120691E+02  0.12700000000E+01 0. -1.
         -4    1    3    3    0  502 -0.10217741715E+03  0.46924424713E+02  0.29187170913E+03  0.31278240631E+03  0.12700000000E+01 0. -1.
          1    1    1    2  503    0  0.12149509954E+03  0.28312862880E+02 -0.94991384312E+03  0.95807044979E+03  0.00000000000E+00 0. -1.
         -2    1    1    2    0  501 -0.36751156386E+02 -0.41898395218E+02  0.12139555264E+01  0.55745822315E+02  0.00000000000E+00 0.  1.
<mgrwt>
<rscale>  0 0.83219824E+02</rscale>
<asrwt>0</asrwt>
<pdfrwt beam="2">  1        1 0.15332032E+00 0.12426369E+03</pdfrwt>
<pdfrwt beam="1">  1       -2 0.62715034E-01 0.55732603E+02</pdfrwt>
<totfact> 0.36821751E+01</totfact>
</mgrwt>
</event>
<event>
 7    1  0.3113151E-004  0.1266961E+03  0.7546771E-02  0.1320854E+00
         -3   -1    0    0    0  501 -0.00000000000E+00  0.00000000000E+00  0.43782397872E+03  0.43782397872E+03  0.00000000000E+00 0.  1.
          2   -1    0    0  503    0  0.00000000000E+00 -0.00000000000E+00 -0.36755758177E+03  0.36755758177E+03  0.00000000000E+00 0. -1.
         25    2    1    2    0    0 -0.15805631376E+03 -0.53123672345E+02 -0.48570308590E+02  0.21398115672E+03  0.12499975068E+03 0.  0.
          4    1    3    3  502    0 -0.11050390593E+02 -0.52243858861E+02 -0.39973443076E+02  0.66715972392E+02  0.12700000000E+01 0.  1.
         -4    1    3    3    0  502 -0.14700592317E+03 -0.87981348450E+00 -0.85968655141E+01  0.14726518433E+03  0.12700000000E+01 0.  1.
          2    1    1    2  503    0  0.11870861850E+03  0.15671135689E+02 -0.21880042061E+03  0.24942121934E+03  0.00000000000E+00 0. -1.
         -3    1    1    2    0  501  0.39347695262E+02  0.37452536656E+02  0.33763712615E+03  0.34197918442E+03  0.00000000000E+00 0.  1.
<mgrwt>
<rscale>  0 0.82960527E+02</rscale>
<asrwt>0</asrwt>
<pdfrwt beam="2">  1        2 0.56547320E-01 0.12669611E+03</pdfrwt>
<pdfrwt beam="1">  1       -3 0.67357535E-01 0.54322496E+02</pdfrwt>
<totfact> 0.11119905E+02</totfact>
</mgrwt>
</event>
<event>
 7    1  0.3113151E-004  0.6415602E+02  0.7546771E-02  0.1485896E+00
          2   -1    0    0  502    0  0.00000000000E+00  0.00000000000E+00  0.17392538573E+03  0.17392538573E+03  0.00000000000E+00 0.  1.
          1   -1    0    0  503    0 -0.00000000000E+00 -0.00000000000E+00 -0.12255077699E+04  0.12255077699E+04  0.00000000000E+00 0. -1.
         25    2    1    2    0    0  0.77123537790E+02  0.31099449819E+01 -0.57227968908E+01  0.14701147763E+03  0.12498764863E+03 0.  0.
          4    1    3    3  501    0  0.93073597615E+02 -0.30644632402E+02 -0.29969667393E+02  0.10247722640E+03  0.12700000000E+01 0. -1.
         -4    1    3    3    0  501 -0.15950059825E+02  0.33754577383E+02  0.24246870502E+02  0.44534251222E+02  0.12700000000E+01 0. -1.
          2    1    1    2  502    0 -0.16544061341E+02 -0.23927883913E+02  0.10032045102E+03  0.10445306356E+03  0.00000000000E+00 0.  1.
          1    1    1    2  503    0 -0.60579476449E+02  0.20817938931E+02 -0.11461800383E+04  0.11479686145E+04  0.00000000000E+00 0. -1.
<mgrwt>
<rscale>  0 0.43200953E+02</rscale>
<asrwt>0</asrwt>
<pdfrwt beam="1">  1        2 0.26757752E-01 0.29090369E+02</pdfrwt>
<pdfrwt beam="2">  1        1 0.18853966E+00 0.64156022E+02</pdfrwt>
<totfact> 0.31316609E+02</totfact>
</mgrwt>
</event>
<event>
 7    1  0.3113151E-004  0.2497262E+03  0.7546771E-02  0.1247757E+00
          2   -1    0    0  502    0  0.00000000000E+00  0.00000000000E+00  0.14135352603E+04  0.14135352603E+04  0.00000000000E+00 0. -1.
          2   -1    0    0  503    0 -0.00000000000E+00 -0.00000000000E+00 -0.81433470188E+03  0.81433470188E+03  0.00000000000E+00 0. -1.
         25    2    1    2    0    0  0.22016788893E+03 -0.29879042282E+02 -0.26709971381E+02  0.25632608235E+03  0.12499192548E+03 0.  0.
          4    1    3    3  501    0  0.15305509026E+03 -0.67643052664E+01 -0.74884098466E+02  0.17053110445E+03  0.12700000000E+01 0. -1.
         -4    1    3    3    0  501  0.67112798667E+02 -0.23114737015E+02  0.48174127085E+02  0.85794977899E+02  0.12700000000E+01 0. -1.
          2    1    1    2  502    0 -0.23889670792E+03  0.81614364194E+02  0.12853023264E+04  0.13098605314E+04  0.00000000000E+00 0. -1.
          2    1    1    2  503    0  0.18728818986E+02 -0.51735321912E+02 -0.65939179659E+03  0.66168334844E+03  0.00000000000E+00 0. -1.
<mgrwt>
<rscale>  0 0.11721855E+03</rscale>
<asrwt>0</asrwt>
<pdfrwt beam="1">  1        2 0.21746696E+00 0.24972620E+03</pdfrwt>
<pdfrwt beam="2">  1        2 0.12528226E+00 0.55021016E+02</pdfrwt>
<totfact> 0.88184795E+01</totfact>
</mgrwt>
</event>
<event>
 7    1  0.3113151E-004  0.6744160E+02  0.7546771E-02  0.1384875E+00
          2   -1    0    0  503    0  0.00000000000E+00  0.00000000000E+00  0.39190216637E+03  0.39190216637E+03  0.00000000000E+00 0. -1.
         -1   -1    0    0    0  501 -0.00000000000E+00 -0.00000000000E+00 -0.12158869429E+03  0.12158869429E+03  0.00000000000E+00 0.  1.
         25    2    1    2    0    0  0.12839146315E+02 -0.85468654334E+01  0.18037038955E+03  0.21999197211E+03  0.12500039111E+03 0.  0.
          4    1    3    3  502    0  0.27155729465E+02  0.52451938415E+02  0.11585969490E+03  0.13005276348E+03  0.12700000000E+01 0.  1.
         -4    1    3    3    0  502 -0.14316583150E+02 -0.60998803848E+02  0.64510694655E+02  0.89939208630E+02  0.12700000000E+01 0.  1.
          2    1    1    2  503    0 -0.32038648585E+02  0.73197842230E+02  0.17058608084E+03  0.18837199921E+03  0.00000000000E+00 0. -1.
         -1    1    1    2    0  501  0.19199502270E+02 -0.64650976796E+02 -0.80642998307E+02  0.10512688935E+03  0.00000000000E+00 0.  1.
<mgrwt>
<rscale>  0 0.63199520E+02</rscale>
<asrwt>0</asrwt>
<pdfrwt beam="1">  1        2 0.60292641E-01 0.59224265E+02</pdfrwt>
<pdfrwt beam="2">  1       -1 0.18705953E-01 0.67441602E+02</pdfrwt>
<totfact> 0.20018668E+03</totfact>
</mgrwt>
</event>
<event>
 7    1  0.3113151E-004  0.9422221E+02  0.7546771E-02  0.1380779E+00
         -2   -1    0    0    0  501 -0.00000000000E+00  0.00000000000E+00  0.22030691093E+03  0.22030691093E+03  0.00000000000E+00 0.  1.
          2   -1    0    0  503    0  0.00000000000E+00 -0.00000000000E+00 -0.27004309935E+03  0.27004309935E+03  0.00000000000E+00 0. -1.
         25    2    1    2    0    0 -0.85629357583E+02 -0.28454183053E+02  0.52351009174E+02  0.16281138299E+03  0.12499956342E+03 0.  0.
          4    1    3    3  502    0 -0.83923957904E+02  0.34795226629E+02  0.29565947563E+02  0.95549446161E+02  0.12700000000E+01 0.  1.
         -4    1    3    3    0  502 -0.17053996788E+01 -0.63249409682E+02  0.22785061611E+02  0.67261936828E+02  0.12700000000E+01 0.  1.
          2    1    1    2  503    0  0.15611898625E+02 -0.40949703054E+02 -0.19027977112E+03  0.19526136549E+03  0.00000000000E+00 0. -1.
         -2    1    1    2    0  501  0.70017458958E+02  0.69403886107E+02  0.88192573522E+02  0.13227726180E+03  0.00000000000E+00 0.  1.
<mgrwt>
<rscale>  0 0.64259363E+02</rscale>
<asrwt>0</asrwt>
<pdfrwt beam="2">  1        2 0.41545092E-01 0.43824760E+02</pdfrwt>
<pdfrwt beam="1">  1       -2 0.33893371E-01 0.94222210E+02</pdfrwt>
<totfact> 0.97038380E+02</totfact>
</mgrwt>
</event>
<event>
 7    1  0.3113151E-004  0.1085965E+03  0.7546771E-02  0.1334231E+00
          2   -1    0    0  503    0  0.00000000000E+00  0.00000000000E+00  0.12577905813E+04  0.12577905813E+04  0.00000000000E+00 0. -1.
         -3   -1    0    0    0  501 -0.00000000000E+00 -0.00000000000E+00 -0.10039771227E+03  0.10039771227E+03  0.00000000000E+00 0.  1.
         25    2    1    2    0    0 -0.95721781178E+00  0.15663994852E+03  0.38863373880E+03  0.43726263037E+03  0.12500174097E+03 0.  0.
          4    1    3    3  502    0  0.21326899150E+02  0.34012130762E+02  0.23975464351E+03  0.24309579110E+03  0.12700000000E+01 0.  1.
         -4    1    3    3    0  502 -0.22284116962E+02  0.12262781776E+03  0.14887909529E+03  0.19416683927E+03  0.12700000000E+01 0.  1.
          2    1    1    2  503    0 -0.11884118893E+02 -0.10180835957E+03  0.83082213283E+03  0.83712101321E+03  0.00000000000E+00 0. -1.
         -3    1    1    2    0  501  0.12841336705E+02 -0.54831588950E+02 -0.62063002574E+02  0.83804650013E+02  0.00000000000E+00 0.  1.
<mgrwt>
<rscale>  0 0.78202510E+02</rscale>
<asrwt>0</asrwt>
<pdfrwt beam="1">  1        2 0.19350623E+00 0.10859646E+03</pdfrwt>
<pdfrwt beam="2">  1       -3 0.15445803E-01 0.56315212E+02</pdfrwt>
<totfact> 0.37801365E+02</totfact>
</mgrwt>
</event>
<event>
 7    1  0.3113151E-004  0.4180191E+02  0.7546771E-02  0.1547123E+00
          2   -1    0    0  502    0  0.00000000000E+00  0.00000000000E+00  0.28257840575E+02  0.28257840575E+02  0.00000000000E+00 0. -1.
          1   -1    0    0  503    0 -0.00000000000E+00 -0.00000000000E+00 -0.98618223072E+03  0.98618223072E+03  0.00000000000E+00 0. -1.
         25    2    1    2    0    0  0.18875008412E+02 -0.59490158424E+01 -0.29801784254E+03  0.32377559409E+03  0.12499737647E+03 0.  0.
          4    1    3    3  501    0  0.58381570530E+01 -0.61893166429E+02 -0.20701533833E+03  0.21615228736E+03  0.12700000000E+01 0.  1.
         -4    1    3    3    0  501  0.13036851359E+02  0.55944150587E+02 -0.91002504207E+02  0.10762330672E+03  0.12700000000E+01 0.  1.
          2    1    1    2  502    0  0.22103381529E+02  0.19665222585E+02 -0.24207292903E+00  0.29586129413E+02  0.00000000000E+00 0. -1.
          1    1    1    2  503    0 -0.40978389940E+02 -0.13716206742E+02 -0.65966447468E+03  0.66107834780E+03  0.00000000000E+00 0. -1.
<mgrwt>
<rscale>  0 0.35166962E+02</rscale>
<asrwt>0</asrwt>
<pdfrwt beam="1">  1        2 0.43473602E-02 0.29585139E+02</pdfrwt>
<pdfrwt beam="2">  1        1 0.15172034E+00 0.41801906E+02</pdfrwt>
<totfact> 0.37919113E+03</totfact>
</mgrwt>
</event>
<event>
 7    1  0.3113151E-004  0.3471592E+03  0.7546771E-02  0.1220851E+00
         -3   -1    0    0    0  501 -0.00000000000E+00  0.00000000000E+00  0.34103631612E+03  0.34103631612E+03  0.00000000000E+00 0.  1.
          1   -1    0    0  503    0  0.00000000000E+00 -0.00000000000E+00 -0.15153972235E+04  0.15153972235E+04  0.00000000000E+00 0. -1.
         25    2    1    2    0    0  0.45027367870E+02 -0.30984407845E+03 -0.86984587350E+03  0.93289107856E+03  0.12499241574E+03 0.  0.
          4    1    3    3  502    0  0.70144976814E+02 -0.28310197660E+03 -0.82438083296E+03  0.87445549776E+03  0.12700000000E+01 0.  1.
         -4    1    3    3    0  502 -0.25117608944E+02 -0.26742101855E+02 -0.45465040548E+02  0.58435580794E+02  0.12700000000E+01 0.  1.
          1    1    1    2  503    0 -0.32175411402E+02 -0.41042135852E+02 -0.51269792866E+03  0.51534345835E+03  0.00000000000E+00 0. -1.
         -3    1    1    2    0  501 -0.12851956468E+02  0.35088621430E+03  0.20818289475E+03  0.40819900275E+03  0.00000000000E+00 0.  1.
<mgrwt>
<rscale>  0 0.13455355E+03</rscale>
<asrwt>0</asrwt>
<pdfrwt beam="2">  1        1 0.23313804E+00 0.52150877E+02</pdfrwt>
<pdfrwt beam="1">  1       -3 0.52467125E-01 0.34715924E+03</pdfrwt>
<totfact> 0.16395603E+01</totfact>
</mgrwt>
</event>
<event>
 7    1  0.3113151E-004  0.1840168E+03  0.7546771E-02  0.1354385E+00
          2   -1    0    0  503    0  0.00000000000E+00  0.00000000000E+00  0.11030449822E+04  0.11030449822E+04  0.00000000000E+00 0. -1.
         -2   -1    0    0    0  501 -0.00000000000E+00 -0.00000000000E+00 -0.58781650392E+03  0.58781650392E+03  0.00000000000E+00 0.  1.
         25    2    1    2    0    0 -0.99337221734E+02  0.14481658097E+03 -0.18311369169E+01  0.21556735431E+03  0.12500482166E+03 0.  0.
          4    1    3    3  502    0 -0.80742374156E+02  0.79828047660E+02  0.55992400964E+02  0.12660414702E+03  0.12700000000E+01 0. -1.
         -4    1    3    3    0  502 -0.18594847578E+02  0.64988533308E+02 -0.57823537881E+02  0.88963207288E+02  0.12700000000E+01 0. -1.
          2    1    1    2  503    0  0.81164902592E+02 -0.16604219147E+03  0.98718627226E+03  0.10043378350E+04  0.00000000000E+00 0. -1.
         -2    1    1    2    0  501  0.18172319142E+02  0.21225610503E+02 -0.47012665709E+03  0.47095629674E+03  0.00000000000E+00 0.  1.
<mgrwt>
<rscale>  0 0.71706437E+02</rscale>
<asrwt>0</asrwt>
<pdfrwt beam="1">  1        2 0.16969923E+00 0.18401685E+03</pdfrwt>
<pdfrwt beam="2">  1       -2 0.90433309E-01 0.27942078E+02</pdfrwt>
<totfact> 0.26812025E+01</totfact>
</mgrwt>
</event>
<event>
 7    1  0.3113151E-004  0.6149633E+02  0.7546771E-02  0.1469655E+00
          1   -1    0    0  503    0  0.00000000000E+00  0.00000000000E+00  0.56804787751E+03  0.56804787751E+03  0.00000000000E+00 0. -1.
          1   -1    0    0  502    0 -0.00000000000E+00 -0.00000000000E+00 -0.10419589699E+03  0.10419589699E+03  0.00000000000E+00 0. -1.
         25    2    1    2    0    0 -0.67642781485E+02 -0.33847531290E+02  0.31113210220E+03  0.34373206926E+03  0.12500939629E+03 0.  0.
          4    1    3    3  501    0 -0.27588659667E+02 -0.19465017516E+01  0.28479271380E+03  0.28613532767E+03  0.12700000000E+01 0.  1.
         -4    1    3    3    0  501 -0.40054121818E+02 -0.31901029538E+02  0.26339388400E+02  0.57596741588E+02  0.12700000000E+01 0.  1.
          1    1    1    2  502    0  0.31302720640E+02 -0.13398851110E+02 -0.80706545340E+02  0.87595296627E+02  0.00000000000E+00 0. -1.
          1    1    1    2  503    0  0.36340060845E+02  0.47246382400E+02  0.23342642367E+03  0.24091640861E+03  0.00000000000E+00 0. -1.
<mgrwt>
<rscale>  0 0.45759571E+02</rscale>
<asrwt>0</asrwt>
<pdfrwt beam="1">  1        1 0.87391979E-01 0.61496331E+02</pdfrwt>
<pdfrwt beam="2">  1        1 0.16030138E-01 0.34049810E+02</pdfrwt>
<totfact> 0.14688980E+03</totfact>
</mgrwt>
</event>
<event>
 7    1  0.3113151E-004  0.6003463E+02  0.7546771E-02  0.1442536E+00
          3   -1    0    0  503    0 -0.00000000000E+00  0.00000000000E+00  0.28257742031E+03  0.28257742031E+03  0.00000000000E+00 0. -1.
          2   -1    0    0  502    0  0.00000000000E+00 -0.00000000000E+00 -0.12739930638E+04  0.12739930638E+04  0.00000000000E+00 0. -1.
         25    2    1    2    0    0 -0.64296984811E+02 -0.61246114002E+02  0.10720537365E+03  0.18708924218E+03  0.12499681462E+03 0.  0.
          4    1    3    3  501    0 -0.50107935337E+02 -0.58985952004E+02 -0.15099944276E+01  0.77421190257E+02  0.12700000000E+01 0.  1.
         -4    1    3    3    0  501 -0.14189049474E+02 -0.22601619982E+01  0.10871536807E+03  0.10966805192E+03  0.12700000000E+01 0.  1.
          2    1    1    2  502    0  0.56701870664E+02  0.19409996794E+02 -0.12299659975E+04  0.12314252739E+04  0.00000000000E+00 0. -1.
          3    1    1    2  503    0  0.75951141472E+01  0.41836117208E+02  0.13134498035E+03  0.13805596809E+03  0.00000000000E+00 0. -1.
<mgrwt>
<rscale>  0 0.50523953E+02</rscale>
<asrwt>0</asrwt>
<pdfrwt beam="2">  1        2 0.19599894E+00 0.60034634E+02</pdfrwt>
<pdfrwt beam="1">  1        3 0.43473449E-01 0.42519954E+02</pdfrwt>
<totfact> 0.59708124E+01</totfact>
</mgrwt>
</event>
<event>
 7    1  0.3113151E-004  0.9105090E+02  0.7546771E-02  0.1347797E+00
          1   -1    0    0  503    0 -0.00000000000E+00  0.00000000000E+00  0.10610742368E+04  0.10610742368E+04  0.00000000000E+00 0. -1.
          2   -1    0    0  502    0  0.00000000000E+00 -0.00000000000E+00 -0.73292698176E+02  0.73292698176E+02  0.00000000000E+00 0. -1.
         25    2    1    2    0    0 -0.57520531155E+02 -0.28144401043E+02  0.28942187010E+02  0.14339416585E+03  0.12499407104E+03 0.  0.
          4    1    3    3  501    0  0.31238326999E+01 -0.67735756981E+02  0.17706343953E+02  0.70092928464E+02  0.12700000000E+01 0.  1.
         -4    1    3    3    0  501 -0.60644363855E+02  0.39591355938E+02  0.11235843056E+02  0.73301237381E+02  0.12700000000E+01 0.  1.
          2    1    1    2  502    0  0.19487061770E+02 -0.56462887309E+02  0.51393112668E+02  0.78797558651E+02  0.00000000000E+00 0. -1.
          1    1    1    2  503    0  0.38033469384E+02  0.84607288351E+02  0.90744623895E+03  0.91217521048E+03  0.00000000000E+00 0. -1.
<mgrwt>
<rscale>  0 0.73746657E+02</rscale>
<asrwt>0</asrwt>
<pdfrwt beam="2">  1        2 0.11275801E-01 0.59731091E+02</pdfrwt>
<pdfrwt beam="1">  1        1 0.16324218E+00 0.91050898E+02</pdfrwt>
<totfact> 0.10668808E+03</totfact>
</mgrwt>
</event>
<event>
 7    1  0.3113151E-004  0.5465910E+02  0.7546771E-02  0.1531762E+00
          1   -1    0    0  502    0  0.00000000000E+00  0.00000000000E+00  0.96299693218E+03  0.96299693218E+03  0.00000000000E+00 0. -1.
          1   -1    0    0  503    0 -0.00000000000E+00 -0.00000000000E+00 -0.14181538031E+03  0.14181538031E+03  0.00000000000E+00 0. -1.
         25    2    1    2    0    0 -0.59672467929E+02 -0.13884853120E+02  0.12787075444E+03  0.18902198456E+03  0.12499915292E+03 0.  0.
          4    1    3    3  501    0 -0.30314038605E+01 -0.56894588577E+02  0.94725497031E+02  0.11054734871E+03  0.12700000000E+01 0. -1.
         -4    1    3    3    0  501 -0.56641064069E+02  0.43009735457E+02  0.33145257411E+02  0.78474635850E+02  0.12700000000E+01 0. -1.
          1    1    1    2  502    0  0.16158008337E+02 -0.19085997932E+02  0.79764422859E+03  0.79803613449E+03  0.00000000000E+00 0. -1.
          1    1    1    2  503    0  0.43514459592E+02  0.32970851052E+02 -0.10433343116E+03  0.11775419343E+03  0.00000000000E+00 0. -1.
<mgrwt>
<rscale>  0 0.36971166E+02</rscale>
<asrwt>0</asrwt>
<pdfrwt beam="1">  1        1 0.14815337E+00 0.25007130E+02</pdfrwt>
<pdfrwt beam="2">  1        1 0.21817751E-01 0.54659095E+02</pdfrwt>
<totfact> 0.51576052E+02</totfact>
</mgrwt>
</event>
<event>
 7    1  0.3113151E-004  0.1783776E+03  0.7546771E-02  0.1199708E+00
          1   -1    0    0  502    0  0.00000000000E+00  0.00000000000E+00  0.69947573598E+03  0.69947573598E+03  0.00000000000E+00 0. -1.
          3   -1    0    0  503    0 -0.00000000000E+00 -0.00000000000E+00 -0.10838810625E+03  0.10838810625E+03  0.00000000000E+00 0. -1.
         25    2    1    2    0    0 -0.15939626499E+03  0.67361260382E+02  0.30760357835E+03  0.37441975534E+03  0.12500193231E+03 0.  0.
          4    1    3    3  501    0 -0.68581793330E+02  0.32790767327E+00  0.22311403975E+03  0.23342034516E+03  0.12700000000E+01 0. -1.
         -4    1    3    3    0  501 -0.90814471662E+02  0.67033352709E+02  0.84489538594E+02  0.14099941018E+03  0.12700000000E+01 0. -1.
          1    1    1    2  502    0 -0.31904744444E+02 -0.12312308805E+03  0.90956340786E+02  0.15636580016E+03  0.00000000000E+00 0. -1.
          3    1    1    2  503    0  0.19130100944E+03  0.55761827669E+02  0.19252771060E+03  0.27707828674E+03  0.00000000000E+00 0. -1.
<mgrwt>
<rscale>  0 0.15062464E+03</rscale>
<asrwt>0</asrwt>
<pdfrwt beam="1">  1        1 0.10761165E+00 0.12718965E+03</pdfrwt>
<pdfrwt beam="2">  1        3 0.16675094E-01 0.17837757E+03</pdfrwt>
<totfact> 0.48359078E+02</totfact>
</mgrwt>
</event>
<event>
 7    1  0.3113151E-004  0.9051351E+02  0.7546771E-02  0.1429509E+00
          2   -1    0    0  502    0  0.00000000000E+00  0.00000000000E+00  0.72998021747E+03  0.72998021747E+03  0.00000000000E+00 0. -1.
          1   -1    0    0  503    0 -0.00000000000E+00 -0.00000000000E+00 -0.11016054405E+04  0.11016054405E+04  0.00000000000E+00 0. -1.
         25    2    1    2    0    0 -0.47997860552E+02  0.42800857089E+02  0.20713948646E+02  0.14209084799E+03  0.12500013371E+03 0.  0.
          4    1    3    3  501    0 -0.80522411112E+02  0.32168017115E+01 -0.11716151374E+02  0.81443769605E+02  0.12700000000E+01 0. -1.
         -4    1    3    3    0  501  0.32524550560E+02  0.39584055377E+02  0.32430100020E+02  0.60647078384E+02  0.12700000000E+01 0. -1.
          2    1    1    2  502    0  0.78736408163E+02 -0.47546795055E+02  0.64508255027E+03  0.65160694928E+03  0.00000000000E+00 0. -1.
          1    1    1    2  503    0 -0.30738547611E+02  0.47459379665E+01 -0.10374217220E+04  0.10378878607E+04  0.00000000000E+00 0. -1.
<mgrwt>
<rscale>  0 0.53058655E+02</rscale>
<asrwt>0</asrwt>
<pdfrwt beam="1">  1        2 0.11230465E+00 0.90513514E+02</pdfrwt>
<pdfrwt beam="2">  1        1 0.16947776E+00 0.31102769E+02</pdfrwt>
<totfact> 0.89187473E+01</totfact>
</mgrwt>
</event>
<event>
 7    1  0.3113151E-004  0.3572227E+02  0.7546771E-02  0.1562962E+00
          2   -1    0    0  502    0  0.00000000000E+00  0.00000000000E+00  0.52257164116E+02  0.52257164116E+02  0.00000000000E+00 0.  1.
          3   -1    0    0  503    0 -0.00000000000E+00 -0.00000000000E+00 -0.34572527821E+03  0.34572527821E+03  0.00000000000E+00 0. -1.
         25    2    1    2    0    0  0.51745070839E+01  0.36731984074E+02 -0.13884033327E+03  0.19046995860E+03  0.12500461114E+03 0.  0.
          4    1    3    3  501    0  0.58061081073E+02  0.43995012194E+02 -0.10298256999E+03  0.12614940688E+03  0.12700000000E+01 0. -1.
         -4    1    3    3    0  501 -0.52886573989E+02 -0.72630281204E+01 -0.35857763285E+02  0.64320551720E+02  0.12700000000E+01 0. -1.
          2    1    1    2  502    0 -0.29763763326E+02 -0.96616325319E+01  0.14490792345E+02  0.34484950533E+02  0.00000000000E+00 0.  1.
          3    1    1    2  503    0  0.24589256242E+02 -0.27070351542E+02 -0.16911857316E+03  0.17302753320E+03  0.00000000000E+00 0. -1.
<mgrwt>
<rscale>  0 0.33434172E+02</rscale>
<asrwt>0</asrwt>
<pdfrwt beam="1">  1        2 0.80395637E-02 0.31292631E+02</pdfrwt>
<pdfrwt beam="2">  1        3 0.53188504E-01 0.35722272E+02</pdfrwt>
<totfact> 0.14102910E+03</totfact>
</mgrwt>
</event>
<event>
 7    1  0.3113151E-004  0.3340071E+02  0.7546771E-02  0.1567496E+00
         -1   -1    0    0    0  501 -0.00000000000E+00  0.00000000000E+00  0.15307963866E+02  0.15307963866E+02  0.00000000000E+00 0.  1.
          2   -1    0    0  503    0  0.00000000000E+00 -0.00000000000E+00 -0.14099211486E+04  0.14099211486E+04  0.00000000000E+00 0. -1.
         25    2    1    2    0    0 -0.27898575224E+02  0.28521438353E+02 -0.12462375413E+04  0.12531262003E+04  0.12500184628E+03 0.  0.
          4    1    3    3  502    0 -0.74471147961E+01  0.75437987146E+02 -0.89080872978E+03  0.89402916920E+03  0.12700000000E+01 0. -1.
         -4    1    3    3    0  502 -0.20451460428E+02 -0.46916548793E+02 -0.35542881147E+03  0.35909703105E+03  0.12700000000E+01 0. -1.
          2    1    1    2  503    0  0.32170181120E+02  0.47973949035E+01 -0.12960211926E+03  0.13362127401E+03  0.00000000000E+00 0. -1.
         -1    1    1    2    0  501 -0.42716058965E+01 -0.33318833256E+02 -0.18773524193E+02  0.38481638181E+02  0.00000000000E+00 0.  1.
<mgrwt>
<rscale>  0 0.32960415E+02</rscale>
<asrwt>0</asrwt>
<pdfrwt beam="2">  1        2 0.21691092E+00 0.32525921E+02</pdfrwt>
<pdfrwt beam="1">  1       -1 0.23550716E-02 0.33400712E+02</pdfrwt>
<totfact> 0.84244477E+03</totfact>
</mgrwt>
</event>
<event>
 7    1  0.3113151E-004  0.7530672E+02  0.7546771E-02  0.1381464E+00
          1   -1    0    0  503    0  0.00000000000E+00  0.00000000000E+00  0.10825410964E+04  0.10825410964E+04  0.00000000000E+00 0. -1.
          1   -1    0    0  502    0 -0.00000000000E+00 -0.00000000000E+00 -0.20924588330E+03  0.20924588330E+03  0.00000000000E+00 0. -1.
         25    2    1    2    0    0 -0.61926239734E+01  0.24871913496E+02  0.22484365029E+02  0.12956911143E+03  0.12500258915E+03 0.  0.
          4    1    3    3  501    0 -0.26352229235E+02 -0.42882414271E+02 -0.10691575819E+02  0.51471002835E+02  0.12700000000E+01 0.  1.
         -4    1    3    3    0  501  0.20159605261E+02  0.67754327767E+02  0.33175940848E+02  0.78098108598E+02  0.12700000000E+01 0.  1.
          1    1    1    2  502    0  0.20551119364E+02  0.50507010628E+02 -0.14941448915E+03  0.15905343818E+03  0.00000000000E+00 0. -1.
          1    1    1    2  503    0 -0.14358495391E+02 -0.75378924124E+02  0.10002253372E+04  0.10031644301E+04  0.00000000000E+00 0. -1.
<mgrwt>
<rscale>  0 0.64080632E+02</rscale>
<asrwt>0</asrwt>
<pdfrwt beam="1">  1        1 0.16654478E+00 0.75306718E+02</pdfrwt>
<pdfrwt beam="2">  1        1 0.32191675E-01 0.54528035E+02</pdfrwt>
<totfact> 0.24610307E+02</totfact>
</mgrwt>
</event>
<event>
 7    1  0.3113151E-004  0.4416062E+03  0.7546771E-02  0.1030255E+00
         -2   -1    0    0    0  501 -0.00000000000E+00  0.00000000000E+00  0.83476167916E+02  0.83476167916E+02  0.00000000000E+00 0.  1.
          1   -1    0    0  503    0  0.00000000000E+00 -0.00000000000E+00 -0.58404700246E+03  0.58404700246E+03  0.00000000000E+00 0. -1.
         25    2    1    2    0    0  0.83065776546E+02  0.13338973666E+03 -0.43970420326E+03  0.48338021535E+03  0.12499560450E+03 0.  0.
          4    1    3    3  502    0 -0.31268770389E+02  0.16939984618E+02 -0.10781176309E+03  0.11353276285E+03  0.12700000000E+01 0.  1.
         -4    1    3    3    0  502  0.11433454693E+03  0.11644975205E+03 -0.33189244018E+03  0.36984745250E+03  0.12700000000E+01 0.  1.
          1    1    1    2  503    0 -0.43645602539E+02 -0.44555378766E+02 -0.60588672861E+02  0.86954629992E+02  0.00000000000E+00 0. -1.
         -2    1    1    2    0  501 -0.39420174007E+02 -0.88834357898E+02 -0.27795841794E+00  0.97188325033E+02  0.00000000000E+00 0.  1.
<mgrwt>
<rscale>  0 0.44160618E+03</rscale>
<asrwt>0</asrwt>
<pdfrwt beam="2">  1        1 0.89853387E-01 0.44160618E+03</pdfrwt>
<pdfrwt beam="1">  1       -2 0.12842487E-01 0.44160618E+03</pdfrwt>
<totfact> 0.14245917E+03</totfact>
</mgrwt>
</event>
<event>
 7    1  0.3113151E-004  0.4821726E+02  0.7546771E-02  0.1458112E+00
          1   -1    0    0  503    0 -0.00000000000E+00  0.00000000000E+00  0.62941288423E+02  0.62941288423E+02  0.00000000000E+00 0. -1.
          2   -1    0    0  502    0  0.00000000000E+00 -0.00000000000E+00 -0.48285970345E+03  0.48285970345E+03  0.00000000000E+00 0. -1.
         25    2    1    2    0    0 -0.22445375333E+02 -0.73382821005E+01 -0.16607812724E+03  0.20920190140E+03  0.12500338372E+03 0.  0.
          4    1    3    3  501    0  0.11661606943E+02  0.46561575293E+02 -0.12348742003E+03  0.13249426092E+03  0.12700000000E+01 0.  1.
         -4    1    3    3    0  501 -0.34106982276E+02 -0.53899857393E+02 -0.42590707212E+02  0.76707640479E+02  0.12700000000E+01 0.  1.
          2    1    1    2  502    0  0.32449876786E+02 -0.39829648267E+02 -0.27797235318E+03  0.28268007450E+03  0.00000000000E+00 0. -1.
          1    1    1    2  503    0 -0.10004501453E+02  0.47167930368E+02  0.24132065393E+02  0.53919015984E+02  0.00000000000E+00 0. -1.
<mgrwt>
<rscale>  0 0.47707847E+02</rscale>
<asrwt>0</asrwt>
<pdfrwt beam="2">  1        2 0.74286110E-01 0.47203821E+02</pdfrwt>
<pdfrwt beam="1">  1        1 0.96832749E-02 0.48217255E+02</pdfrwt>
<totfact> 0.53709078E+03</totfact>
</mgrwt>
</event>
<event>
 7    1  0.3113151E-004  0.7370624E+02  0.7546771E-02  0.1505574E+00
          2   -1    0    0  502    0  0.00000000000E+00  0.00000000000E+00  0.35739494753E+03  0.35739494753E+03  0.00000000000E+00 0. -1.
          1   -1    0    0  503    0 -0.00000000000E+00 -0.00000000000E+00 -0.14198802353E+03  0.14198802353E+03  0.00000000000E+00 0. -1.
         25    2    1    2    0    0  0.45482168880E+02  0.34863124252E+02  0.18805585994E+03  0.23296738587E+03  0.12499892520E+03 0.  0.
          4    1    3    3  501    0 -0.35995382571E+02 -0.12780899134E+02  0.28861541777E+02  0.47891757567E+02  0.12700000000E+01 0. -1.
         -4    1    3    3    0  501  0.81477551451E+02  0.47644023386E+02  0.15919431817E+03  0.18507562830E+03  0.12700000000E+01 0. -1.
          2    1    1    2  502    0  0.21933680244E+02 -0.27144988251E+01  0.13422354369E+03  0.13603093220E+03  0.00000000000E+00 0. -1.
          1    1    1    2  503    0 -0.67415849124E+02 -0.32148625427E+02 -0.10687247964E+03  0.13038465299E+03  0.00000000000E+00 0. -1.
<mgrwt>
<rscale>  0 0.40360657E+02</rscale>
<asrwt>0</asrwt>
<pdfrwt beam="1">  1        2 0.54983838E-01 0.22101014E+02</pdfrwt>
<pdfrwt beam="2">  1        1 0.21844311E-01 0.73706238E+02</pdfrwt>
<totfact> 0.26668062E+03</totfact>
</mgrwt>
</event>
<event>
 7    1  0.3113151E-004  0.4155532E+02  0.7546771E-02  0.1549938E+00
         -1   -1    0    0    0  501 -0.00000000000E+00  0.00000000000E+00  0.54311351685E+02  0.54311351685E+02  0.00000000000E+00 0.  1.
          2   -1    0    0  503    0  0.00000000000E+00 -0.00000000000E+00 -0.37011257052E+03  0.37011257052E+03  0.00000000000E+00 0. -1.
         25    2    1    2    0    0  0.29965684913E+02  0.32320130940E+01 -0.38315548222E+02  0.13416831739E+03  0.12499867190E+03 0.  0.
          4    1    3    3  502    0 -0.17656386349E+02 -0.50340316575E+02 -0.10528946514E+01  0.53372436134E+02  0.12700000000E+01 0.  1.
         -4    1    3    3    0  502  0.47622071262E+02  0.53572329669E+02 -0.37262653571E+02  0.80795881260E+02  0.12700000000E+01 0.  1.
          2    1    1    2  503    0 -0.18403330652E+02  0.37258050930E+02 -0.16482581615E+03  0.16998351276E+03  0.00000000000E+00 0. -1.
         -1    1    1    2    0  501 -0.11562354261E+02 -0.40490064024E+02 -0.11265985446E+03  0.12027209206E+03  0.00000000000E+00 0.  1.
<mgrwt>
<rscale>  0 0.34849828E+02</rscale>
<asrwt>0</asrwt>
<pdfrwt beam="2">  1        2 0.56940395E-01 0.41555324E+02</pdfrwt>
<pdfrwt beam="1">  1       -1 0.83555926E-02 0.29226351E+02</pdfrwt>
<totfact> 0.66816637E+03</totfact>
</mgrwt>
</event>
<event>
 7    1  0.3113151E-004  0.1706946E+03  0.7546771E-02  0.1371701E+00
          2   -1    0    0  502    0  0.00000000000E+00  0.00000000000E+00  0.47605241161E+03  0.47605241161E+03  0.00000000000E+00 0. -1.
          2   -1    0    0  503    0 -0.00000000000E+00 -0.00000000000E+00 -0.11651680887E+04  0.11651680887E+04  0.00000000000E+00 0. -1.
         25    2    1    2    0    0 -0.18716749209E+03 -0.15449637518E+02  0.29846731077E+03  0.37416452783E+03  0.12508395939E+03 0.  0.
          4    1    3    3  501    0 -0.13189879414E+03 -0.51575153930E+02  0.26419005659E+03  0.29975871514E+03  0.12700000000E+01 0.  1.
         -4    1    3    3    0  501 -0.55268697946E+02  0.36125516412E+02  0.34277254172E+02  0.74405812692E+02  0.12700000000E+01 0.  1.
          2    1    1    2  502    0  0.19871609017E+02 -0.16860616763E+02  0.13201712547E+03  0.13456478982E+03  0.00000000000E+00 0. -1.
          2    1    1    2  503    0  0.16729588307E+03  0.32310254281E+02 -0.11196001133E+04  0.11324911827E+04  0.00000000000E+00 0. -1.
<mgrwt>
<rscale>  0 0.66696511E+02</rscale>
<asrwt>0</asrwt>
<pdfrwt beam="1">  1        2 0.73238834E-01 0.26060722E+02</pdfrwt>
<pdfrwt beam="2">  1        2 0.17925662E+00 0.17069460E+03</pdfrwt>
<totfact> 0.22613924E+02</totfact>
</mgrwt>
</event>
<event>
 7    1  0.3113151E-004  0.4000773E+03  0.7546771E-02  0.1200098E+00
          2   -1    0    0  502    0  0.00000000000E+00  0.00000000000E+00  0.51899074917E+03  0.51899074917E+03  0.00000000000E+00 0. -1.
          2   -1    0    0  503    0 -0.00000000000E+00 -0.00000000000E+00 -0.34941534918E+04  0.34941534918E+04  0.00000000000E+00 0. -1.
         25    2    1    2    0    0 -0.31644011435E+03  0.18124955627E+03 -0.10313878462E+04  0.11010786904E+04  0.12501058221E+03 0.  0.
          4    1    3    3  501    0 -0.19233036485E+03  0.16442158033E+03 -0.78346400716E+03  0.82331214539E+03  0.12700000000E+01 0.  1.
         -4    1    3    3    0  501 -0.12410974950E+03  0.16827975940E+02 -0.24792383901E+03  0.27776654504E+03  0.12700000000E+01 0.  1.
          2    1    1    2  502    0 -0.37384678915E+02  0.42320860311E+02  0.46438466988E+03  0.46780529182E+03  0.00000000000E+00 0. -1.
          2    1    1    2  503    0  0.35382479326E+03 -0.22357041658E+03 -0.24081595663E+04  0.24442602587E+04  0.00000000000E+00 0. -1.
<mgrwt>
<rscale>  0 0.15030531E+03</rscale>
<asrwt>0</asrwt>
<pdfrwt beam="1">  1        2 0.79844728E-01 0.56468305E+02</pdfrwt>
<pdfrwt beam="2">  1        2 0.53756209E+00 0.40007731E+03</pdfrwt>
<totfact> 0.91840490E+00</totfact>
</mgrwt>
</event>
<event>
 7    1  0.3113151E-004  0.1008793E+03  0.7546771E-02  0.1314889E+00
         -1   -1    0    0    0  501 -0.00000000000E+00  0.00000000000E+00  0.83072497065E+03  0.83072497065E+03  0.00000000000E+00 0.  1.
          1   -1    0    0  503    0  0.00000000000E+00 -0.00000000000E+00 -0.35298524265E+03  0.35298524265E+03  0.00000000000E+00 0. -1.
         25    2    1    2    0    0  0.15884341409E+03 -0.50521175689E+02  0.64460956637E+02  0.21809359413E+03  0.12500392585E+03 0.  0.
          4    1    3    3  502    0  0.14391886140E+02 -0.38045961430E+02 -0.24960821742E+02  0.47741775101E+02  0.12700000000E+01 0.  1.
         -4    1    3    3    0  502  0.14445152795E+03 -0.12475214259E+02  0.89421778379E+02  0.17035181903E+03  0.12700000000E+01 0.  1.
          1    1    1    2  503    0 -0.95629263949E+02  0.16113259896E+02 -0.26569450427E+03  0.28283946484E+03  0.00000000000E+00 0. -1.
         -1    1    1    2    0  501 -0.63214150143E+02  0.34407915793E+02  0.67897327564E+03  0.68277715433E+03  0.00000000000E+00 0.  1.
<mgrwt>
<rscale>  0 0.85208324E+02</rscale>
<asrwt>0</asrwt>
<pdfrwt beam="2">  1        1 0.54305422E-01 0.10087928E+03</pdfrwt>
<pdfrwt beam="1">  1       -1 0.12780384E+00 0.71971755E+02</pdfrwt>
<totfact> 0.44409417E+01</totfact>
</mgrwt>
</event>
<event>
 7    1  0.3113151E-004  0.1226564E+03  0.7546771E-02  0.1340147E+00
          1   -1    0    0  503    0 -0.00000000000E+00  0.00000000000E+00  0.13256932851E+04  0.13256932851E+04  0.00000000000E+00 0. -1.
          2   -1    0    0  502    0  0.00000000000E+00 -0.00000000000E+00 -0.22632430624E+04  0.22632430624E+04  0.00000000000E+00 0. -1.
         25    2    1    2    0    0 -0.91518471042E+02 -0.72411919397E+02 -0.15092115884E+03  0.22808179453E+03  0.12499996880E+03 0.  0.
          4    1    3    3  501    0 -0.86930385127E+02  0.10628050739E+02 -0.71292576905E+02  0.11293401499E+03  0.12700000000E+01 0.  1.
         -4    1    3    3    0  501 -0.45880859152E+01 -0.83039970137E+02 -0.79628581931E+02  0.11514777954E+03  0.12700000000E+01 0.  1.
          2    1    1    2  502    0  0.60007011279E+02  0.10776519776E+03 -0.20714708007E+04  0.20751398646E+04  0.00000000000E+00 0. -1.
          1    1    1    2  503    0  0.31511459763E+02 -0.35353278360E+02  0.12848421823E+04  0.12857146884E+04  0.00000000000E+00 0. -1.
<mgrwt>
<rscale>  0 0.76215622E+02</rscale>
<asrwt>0</asrwt>
<pdfrwt beam="2">  1        2 0.34819124E+00 0.12265639E+03</pdfrwt>
<pdfrwt beam="1">  1        1 0.20395281E+00 0.47358488E+02</pdfrwt>
<totfact> 0.88533610E+00</totfact>
</mgrwt>
</event>
<event>
 7    1  0.3113151E-004  0.1760694E+03  0.7546771E-02  0.1267746E+00
          1   -1    0    0  503    0  0.00000000000E+00  0.00000000000E+00  0.19017013412E+04  0.19017013412E+04  0.00000000000E+00 0. -1.
          1   -1    0    0  502    0 -0.00000000000E+00 -0.00000000000E+00 -0.85483680205E+03  0.85483680205E+03  0.00000000000E+00 0. -1.
         25    2    1    2    0    0  0.12264045670E+03 -0.58807324574E+02  0.96052973934E+03  0.97813162940E+03  0.12500048495E+03 0.  0.
          4    1    3    3  501    0  0.34025800907E+02  0.39646345707E+02  0.27190046505E+03  0.27687734406E+03  0.12700000000E+01 0. -1.
         -4    1    3    3    0  501  0.88614655795E+02 -0.98453670281E+02  0.68862927428E+03  0.70125428535E+03  0.12700000000E+01 0. -1.
          1    1    1    2  502    0 -0.12685592353E+03  0.12274196595E+03 -0.83570488908E+03  0.85414324160E+03  0.00000000000E+00 0. -1.
          1    1    1    2  503    0  0.42154668236E+01 -0.63934641375E+02  0.92203968885E+03  0.92426327220E+03  0.00000000000E+00 0. -1.
<mgrwt>
<rscale>  0 0.10621383E+03</rscale>
<asrwt>0</asrwt>
<pdfrwt beam="1">  1        1 0.29256944E+00 0.64073462E+02</pdfrwt>
<pdfrwt beam="2">  1        1 0.13151335E+00 0.17606941E+03</pdfrwt>
<totfact> 0.11855396E+01</totfact>
</mgrwt>
</event>
<event>
 7    1  0.3113151E-004  0.8075898E+02  0.7546771E-02  0.1405910E+00
          1   -1    0    0  503    0 -0.00000000000E+00  0.00000000000E+00  0.73513447737E+03  0.73513447737E+03  0.00000000000E+00 0. -1.
          2   -1    0    0  502    0  0.00000000000E+00 -0.00000000000E+00 -0.24953208587E+03  0.24953208587E+03  0.00000000000E+00 0. -1.
         25    2    1    2    0    0 -0.70062424456E+01 -0.91024775863E+02  0.33210580475E+03  0.36640685666E+03  0.12500048722E+03 0.  0.
          4    1    3    3  501    0 -0.33941405615E+02 -0.39084666068E+02  0.32491432563E+02  0.61130485249E+02  0.12700000000E+01 0.  1.
         -4    1    3    3    0  501  0.26935163170E+02 -0.51940109794E+02  0.29961437219E+03  0.30527637141E+03  0.12700000000E+01 0.  1.
          2    1    1    2  502    0  0.38133864037E+02  0.17173595641E+02 -0.22628333108E+03  0.23011577499E+03  0.00000000000E+00 0. -1.
          1    1    1    2  503    0 -0.31127621591E+02  0.73851180221E+02  0.37977991783E+03  0.38814393159E+03  0.00000000000E+00 0. -1.
<mgrwt>
<rscale>  0 0.58116647E+02</rscale>
<asrwt>0</asrwt>
<pdfrwt beam="2">  1        2 0.38389552E-01 0.41822529E+02</pdfrwt>
<pdfrwt beam="1">  1        1 0.11309761E+00 0.80758977E+02</pdfrwt>
<totfact> 0.49085702E+02</totfact>
</mgrwt>
</event>
<event>
 7    1  0.3113151E-004  0.5014856E+02  0.7546771E-02  0.1575085E+00
          2   -1    0    0  502    0  0.00000000000E+00  0.00000000000E+00  0.60637125418E+03  0.60637125418E+03  0.00000000000E+00 0. -1.
          1   -1    0    0  503    0 -0.00000000000E+00 -0.00000000000E+00 -0.10241305223E+04  0.10241305223E+04  0.00000000000E+00 0. -1.
         25    2    1    2    0    0  0.21016147219E+02  0.26390919204E+02 -0.30230016364E+03  0.32885798905E+03  0.12499611580E+03 0.  0.
          4    1    3    3  501    0  0.28698532944E+02 -0.13330248626E+02 -0.92028321943E+01  0.32978877209E+02  0.12700000000E+01 0.  1.
         -4    1    3    3    0  501 -0.76823857251E+01  0.39721167830E+02 -0.29309733145E+03  0.29587911184E+03  0.12700000000E+01 0.  1.
          2    1    1    2  502    0 -0.41605572216E+02 -0.28105596573E+02  0.59187860430E+03  0.59400440270E+03  0.00000000000E+00 0. -1.
          1    1    1    2  503    0  0.20589424998E+02  0.17146773689E+01 -0.70733770879E+03  0.70763938473E+03  0.00000000000E+00 0. -1.
<mgrwt>
<rscale>  0 0.32188576E+02</rscale>
<asrwt>0</asrwt>
<pdfrwt beam="1">  1        2 0.93287884E-01 0.50148563E+02</pdfrwt>
<pdfrwt beam="2">  1        1 0.15755854E+00 0.20660700E+02</pdfrwt>
<totfact> 0.12990565E+02</totfact>
</mgrwt>
</event>
<event>
 7    1  0.3113151E-004  0.1382093E+03  0.7546771E-02  0.1310359E+00
          1   -1    0    0  502    0  0.00000000000E+00  0.00000000000E+00  0.63062023504E+03  0.63062023504E+03  0.00000000000E+00 0. -1.
          1   -1    0    0  503    0 -0.00000000000E+00 -0.00000000000E+00 -0.16504318972E+04  0.16504318972E+04  0.00000000000E+00 0. -1.
         25    2    1    2    0    0  0.42453288886E+02 -0.91896499004E+02  0.46392261898E+01  0.16091539320E+03  0.12499997233E+03 0.  0.
          4    1    3    3  501    0  0.26653600124E+02 -0.89323897293E+02  0.54874656112E+02  0.10817584671E+03  0.12700000000E+01 0. -1.
         -4    1    3    3    0  501  0.15799688762E+02 -0.25726017109E+01 -0.50235429922E+02  0.52739546490E+02  0.12700000000E+01 0. -1.
          1    1    1    2  502    0 -0.27815691534E+02 -0.47131208516E+02  0.54335825339E+03  0.54610736585E+03  0.00000000000E+00 0. -1.
          1    1    1    2  503    0 -0.14637597351E+02  0.13902770752E+03 -0.15678091417E+04  0.15740293732E+04  0.00000000000E+00 0. -1.
<mgrwt>
<rscale>  0 0.86970148E+02</rscale>
<asrwt>0</asrwt>
<pdfrwt beam="1">  1        1 0.97018500E-01 0.54727173E+02</pdfrwt>
<pdfrwt beam="2">  1        1 0.25391259E+00 0.13820934E+03</pdfrwt>
<totfact> 0.25524484E+01</totfact>
</mgrwt>
</event>
<event>
 7    1  0.3113151E-004  0.6871638E+02  0.7546771E-02  0.1509927E+00
          1   -1    0    0  502    0  0.00000000000E+00  0.00000000000E+00  0.48556099971E+03  0.48556099971E+03  0.00000000000E+00 0. -1.
          1   -1    0    0  503    0 -0.00000000000E+00 -0.00000000000E+00 -0.21770641141E+03  0.21770641141E+03  0.00000000000E+00 0. -1.
         25    2    1    2    0    0 -0.44245325868E+02 -0.17676089240E+02 -0.51794102742E+02  0.14344890847E+03  0.12499946908E+03 0.  0.
          4    1    3    3  501    0  0.32785745199E+02  0.28801477438E+02 -0.20000300224E+02  0.48021402519E+02  0.12700000000E+01 0. -1.
         -4    1    3    3    0  501 -0.77031071067E+02 -0.46477566678E+02 -0.31793802518E+02  0.95427505954E+02  0.12700000000E+01 0. -1.
          1    1    1    2  502    0  0.60332814342E+02  0.34134108211E+02  0.43586625081E+03  0.44134405448E+03  0.00000000000E+00 0. -1.
          1    1    1    2  503    0 -0.16087488474E+02 -0.16458018971E+02 -0.11621755976E+03  0.11847444817E+03  0.00000000000E+00 0. -1.
<mgrwt>
<rscale>  0 0.39767861E+02</rscale>
<asrwt>0</asrwt>
<pdfrwt beam="1">  1        1 0.74701692E-01 0.68716380E+02</pdfrwt>
<pdfrwt beam="2">  1        1 0.33493294E-01 0.23014640E+02</pdfrwt>
<totfact> 0.73084416E+02</totfact>
</mgrwt>
</event>
<event>
 7    1  0.3113151E-004  0.6599012E+02  0.7546771E-02  0.1386910E+00
         -1   -1    0    0    0  501 -0.00000000000E+00  0.00000000000E+00  0.12550765458E+03  0.12550765458E+03  0.00000000000E+00 0. -1.
          3   -1    0    0  503    0  0.00000000000E+00 -0.00000000000E+00 -0.14217379684E+04  0.14217379684E+04  0.00000000000E+00 0. -1.
         25    2    1    2    0    0  0.52530934798E+01  0.62726033666E+02 -0.33141053638E+03  0.35974464154E+03  0.12498445184E+03 0.  0.
          4    1    3    3  502    0  0.38457572996E+02  0.87280047332E+02 -0.19276439962E+03  0.21507328575E+03  0.12700000000E+01 0. -1.
         -4    1    3    3    0  502 -0.33204479517E+02 -0.24554013665E+02 -0.13864613677E+03  0.14467135579E+03  0.12700000000E+01 0. -1.
          3    1    1    2  503    0  0.52216606486E+02 -0.28606803786E+02 -0.10652238285E+04  0.10668864644E+04  0.00000000000E+00 0. -1.
         -1    1    1    2    0  501 -0.57469699966E+02 -0.34119229881E+02  0.10040405101E+03  0.12061451704E+03  0.00000000000E+00 0. -1.
<mgrwt>
<rscale>  0 0.62681756E+02</rscale>
<asrwt>0</asrwt>
<pdfrwt beam="2">  1        3 0.21872892E+00 0.59539258E+02</pdfrwt>
<pdfrwt beam="1">  1       -1 0.19308870E-01 0.65990117E+02</pdfrwt>
<totfact> 0.12127337E+01</totfact>
</mgrwt>
</event>
<event>
 7    1  0.3113151E-004  0.9486547E+02  0.7546771E-02  0.1396583E+00
          2   -1    0    0  502    0  0.00000000000E+00  0.00000000000E+00  0.18452147601E+04  0.18452147601E+04  0.00000000000E+00 0. -1.
          1   -1    0    0  503    0 -0.00000000000E+00 -0.00000000000E+00 -0.29631872439E+03  0.29631872439E+03  0.00000000000E+00 0. -1.
         25    2    1    2    0    0  0.11281464938E+03  0.51673667713E+02 -0.27173577683E+02  0.17821748032E+03  0.12500301564E+03 0.  0.
          4    1    3    3  501    0  0.18513556366E+02  0.33110274364E+02 -0.64717013570E+02  0.75026307275E+02  0.12700000000E+01 0. -1.
         -4    1    3    3    0  501  0.94301093018E+02  0.18563393349E+02  0.37543435888E+02  0.10319117305E+03  0.12700000000E+01 0. -1.
          2    1    1    2  502    0 -0.92591179695E+02 -0.19116483727E+02  0.17665195803E+04  0.17690477647E+04  0.00000000000E+00 0. -1.
          1    1    1    2  503    0 -0.20223469689E+02 -0.32557183986E+02 -0.19044996688E+03  0.19426823940E+03  0.00000000000E+00 0. -1.
<mgrwt>
<rscale>  0 0.60298497E+02</rscale>
<asrwt>0</asrwt>
<pdfrwt beam="1">  1        2 0.28387919E+00 0.94865467E+02</pdfrwt>
<pdfrwt beam="2">  1        1 0.45587497E-01 0.38327000E+02</pdfrwt>
<totfact> 0.12045792E+02</totfact>
</mgrwt>
</event>
<event>
 7    1  0.3113151E-004  0.3084216E+02  0.7546771E-02  0.1631362E+00
          2   -1    0    0  503    0  0.00000000000E+00  0.00000000000E+00  0.14970076416E+04  0.14970076416E+04  0.00000000000E+00 0. -1.
         -3   -1    0    0    0  501 -0.00000000000E+00 -0.00000000000E+00 -0.22617856562E+03  0.22617856562E+03  0.00000000000E+00 0.  1.
         25    2    1    2    0    0  0.22195808631E+02 -0.26669263334E+02  0.60421498661E+03  0.61798559065E+03  0.12500614656E+03 0.  0.
          4    1    3    3  502    0 -0.47007875842E+02 -0.27688095379E+02  0.36137427693E+03  0.36547141057E+03  0.12700000000E+01 0.  1.
         -4    1    3    3    0  502  0.69203684473E+02  0.10188320445E+01  0.24284070968E+03  0.25251418008E+03  0.12700000000E+01 0.  1.
          2    1    1    2  503    0  0.83682138933E+01  0.22468083113E+02  0.88465904395E+03  0.88498387884E+03  0.00000000000E+00 0. -1.
         -3    1    1    2    0  501 -0.30564022524E+02  0.42011802215E+01 -0.21804495454E+03  0.22021673776E+03  0.00000000000E+00 0.  1.
<mgrwt>
<rscale>  0 0.27193146E+02</rscale>
<asrwt>0</asrwt>
<pdfrwt beam="1">  1        2 0.23030886E+00 0.23975858E+02</pdfrwt>
<pdfrwt beam="2">  1       -3 0.34796703E-01 0.30842158E+02</pdfrwt>
<totfact> 0.73005909E+01</totfact>
</mgrwt>
</event>
<event>
 7    1  0.3113151E-004  0.3923239E+02  0.7546771E-02  0.1598446E+00
          2   -1    0    0  502    0  0.00000000000E+00  0.00000000000E+00  0.59957758520E+03  0.59957758520E+03  0.00000000000E+00 0. -1.
          1   -1    0    0  503    0 -0.00000000000E+00 -0.00000000000E+00 -0.10817760624E+03  0.10817760624E+03  0.00000000000E+00 0. -1.
         25    2    1    2    0    0 -0.39345628759E+02  0.35340399893E+02  0.22892284918E+03  0.26612855302E+03  0.12498685328E+03 0.  0.
          4    1    3    3  501    0 -0.78428222628E+02  0.18072652033E+02  0.19690047987E+03  0.21271816737E+03  0.12700000000E+01 0.  1.
         -4    1    3    3    0  501  0.39082593869E+02  0.17267747860E+02  0.32022369309E+02  0.53410385655E+02  0.12700000000E+01 0.  1.
          2    1    1    2  502    0  0.16457380491E+02 -0.34994807633E+02  0.34950536226E+03  0.35163828032E+03  0.00000000000E+00 0. -1.
          1    1    1    2  503    0  0.22888248268E+02 -0.34559225934E+00 -0.87028232485E+02  0.89988358092E+02  0.00000000000E+00 0. -1.
<mgrwt>
<rscale>  0 0.29967701E+02</rscale>
<asrwt>0</asrwt>
<pdfrwt beam="1">  1        2 0.92242703E-01 0.39232392E+02</pdfrwt>
<pdfrwt beam="2">  1        1 0.16642709E-01 0.22890857E+02</pdfrwt>
<totfact> 0.20657132E+03</totfact>
</mgrwt>
</event>
<event>
 7    1  0.3113151E-004  0.7064153E+02  0.7546771E-02  0.1368643E+00
          1   -1    0    0  503    0 -0.00000000000E+00  0.00000000000E+00  0.87228117955E+03  0.87228117955E+03  0.00000000000E+00 0. -1.
          2   -1    0    0  502    0  0.00000000000E+00 -0.00000000000E+00 -0.12191148341E+04  0.12191148341E+04  0.00000000000E+00 0. -1.
         25    2    1    2    0    0  0.81059068838E+01 -0.26874122350E+02 -0.27988058149E+03  0.30780590483E+03  0.12499364374E+03 0.  0.
          4    1    3    3  501    0 -0.68898076172E+01 -0.39031329766E+02 -0.28503852872E+03  0.28778375546E+03  0.12700000000E+01 0. -1.
         -4    1    3    3    0  501  0.14995714501E+02  0.12157207416E+02  0.51579472343E+01  0.20022149366E+02  0.12700000000E+01 0. -1.
          2    1    1    2  502    0 -0.72660899549E+02  0.24874433578E+02 -0.92245857341E+03  0.92565013014E+03  0.00000000000E+00 0. -1.
          1    1    1    2  503    0  0.64554992665E+02  0.19996887720E+01  0.85550550037E+03  0.85793997866E+03  0.00000000000E+00 0. -1.
<mgrwt>
<rscale>  0 0.67545916E+02</rscale>
<asrwt>0</asrwt>
<pdfrwt beam="2">  1        2 0.18755613E+00 0.70641530E+02</pdfrwt>
<pdfrwt beam="1">  1        1 0.13419710E+00 0.64585957E+02</pdfrwt>
<totfact> 0.63429566E+01</totfact>
</mgrwt>
</event>
<event>
 7    1  0.3113151E-004  0.6131147E+02  0.7546771E-02  0.1438538E+00
          2   -1    0    0  502    0  0.00000000000E+00  0.00000000000E+00  0.16440253626E+02  0.16440253626E+02  0.00000000000E+00 0. -1.
          1   -1    0    0  503    0 -0.00000000000E+00 -0.00000000000E+00 -0.19192013964E+04  0.19192013964E+04  0.00000000000E+00 0. -1.
         25    2    1    2    0    0 -0.13530499292E+02 -0.24361136955E+02 -0.65885961451E+03  0.67119027634E+03  0.12499542400E+03 0.  0.
          4    1    3    3  501    0  0.15926729325E+01 -0.67948729754E+02 -0.52945415004E+03  0.53380040874E+03  0.12700000000E+01 0.  1.
         -4    1    3    3    0  501 -0.15123172224E+02  0.43587592799E+02 -0.12940546447E+03  0.13738986760E+03  0.12700000000E+01 0.  1.
          2    1    1    2  502    0  0.82322127231E+01  0.66928659415E+02 -0.10529438862E+03  0.12503648688E+03  0.00000000000E+00 0. -1.
          1    1    1    2  503    0  0.52982865687E+01 -0.42567522461E+02 -0.11386071396E+04  0.11394148868E+04  0.00000000000E+00 0. -1.
<mgrwt>
<rscale>  0 0.51283681E+02</rscale>
<asrwt>0</asrwt>
<pdfrwt beam="1">  1        2 0.25292709E-02 0.61311467E+02</pdfrwt>
<pdfrwt beam="2">  1        1 0.29526162E+00 0.42895988E+02</pdfrwt>
<totfact> 0.21545666E+03</totfact>
</mgrwt>
</event>
<event>
 7    1  0.3113151E-004  0.3480872E+02  0.7546771E-02  0.1581426E+00
          1   -1    0    0  503    0  0.00000000000E+00  0.00000000000E+00  0.10343600401E+03  0.10343600401E+03  0.00000000000E+00 0. -1.
         -2   -1    0    0    0  501 -0.00000000000E+00 -0.00000000000E+00 -0.12250161534E+03  0.12250161534E+03  0.00000000000E+00 0.  1.
         25    2    1    2    0    0  0.76531661461E+01  0.60063282357E+01  0.32155013675E+02  0.12944895692E+03  0.12501376169E+03 0.  0.
          4    1    3    3  502    0  0.16537066175E+02  0.54330465815E+02 -0.17640947574E+02  0.59481846009E+02  0.12700000000E+01 0. -1.
         -4    1    3    3    0  502 -0.88839000294E+01 -0.48324137579E+02  0.49795961250E+02  0.69967110911E+02  0.12700000000E+01 0. -1.
          1    1    1    2  503    0  0.28596519772E+02 -0.11626836405E+01  0.53598143005E+01  0.29117698838E+02  0.00000000000E+00 0. -1.
         -2    1    1    2    0  501 -0.36249685918E+02 -0.48436445952E+01 -0.56580439308E+02  0.67370963585E+02  0.00000000000E+00 0.  1.
<mgrwt>
<rscale>  0 0.31563122E+02</rscale>
<asrwt>0</asrwt>
<pdfrwt beam="1">  1        1 0.15913231E-01 0.28620146E+02</pdfrwt>
<pdfrwt beam="2">  1       -2 0.18846402E-01 0.34808720E+02</pdfrwt>
<totfact> 0.57739767E+03</totfact>
</mgrwt>
</event>
<event>
 7    1  0.3113151E-004  0.7612846E+02  0.7546771E-02  0.1386110E+00
          1   -1    0    0  503    0  0.00000000000E+00  0.00000000000E+00  0.18556082831E+03  0.18556082831E+03  0.00000000000E+00 0. -1.
         -2   -1    0    0    0  501 -0.00000000000E+00 -0.00000000000E+00 -0.51719594057E+03  0.51719594057E+03  0.00000000000E+00 0.  1.
         25    2    1    2    0    0  0.25908239053E+02 -0.46525226512E+02 -0.21739029760E+03  0.25632067483E+03  0.12492362989E+03 0.  0.
          4    1    3    3  502    0  0.42530969257E+02 -0.68552701412E+02 -0.21373239453E+03  0.22845460290E+03  0.12700000000E+01 0.  1.
         -4    1    3    3    0  502 -0.16622730204E+02  0.22027474899E+02 -0.36579030670E+01  0.27866071928E+02  0.12700000000E+01 0.  1.
          1    1    1    2  503    0 -0.73300759794E+02  0.25259620295E+02  0.15442273280E+03  0.17279302709E+03  0.00000000000E+00 0. -1.
         -2    1    1    2    0  501  0.47392520742E+02  0.21265606217E+02 -0.26866754747E+03  0.27364306695E+03  0.00000000000E+00 0.  1.
<mgrwt>
<rscale>  0 0.62884723E+02</rscale>
<asrwt>0</asrwt>
<pdfrwt beam="1">  1        1 0.28547820E-01 0.76128458E+02</pdfrwt>
<pdfrwt beam="2">  1       -2 0.79568605E-01 0.51944942E+02</pdfrwt>
<totfact> 0.20730247E+02</totfact>
</mgrwt>
</event>
<event>
 7    1  0.3113151E-004  0.1737069E+03  0.7546771E-02  0.1269175E+00
         -2   -1    0    0    0  501 -0.00000000000E+00  0.00000000000E+00  0.45720072230E+03  0.45720072230E+03  0.00000000000E+00 0.  1.
          2   -1    0    0  503    0  0.00000000000E+00 -0.00000000000E+00 -0.12101482835E+04  0.12101482835E+04  0.00000000000E+00 0.  1.
         25    2    1    2    0    0  0.14543518354E+03  0.44944557924E+02 -0.12068399714E+03  0.23100166637E+03  0.12500294718E+03 0.  0.
          4    1    3    3  502    0 -0.17926619864E+02  0.25933127078E+02 -0.28176212817E+02  0.42301331522E+02  0.12700000000E+01 0.  1.
         -4    1    3    3    0  502  0.16336180340E+03  0.19011430846E+02 -0.92507784327E+02  0.18870033485E+03  0.12700000000E+01 0.  1.
          2    1    1    2  503    0  0.31324166237E+02 -0.55869320670E+02 -0.10137431082E+04  0.10157645760E+04  0.00000000000E+00 0.  1.
         -2    1    1    2    0  501 -0.17675934977E+03  0.10924762746E+02  0.38147954423E+03  0.42058276336E+03  0.00000000000E+00 0.  1.
<mgrwt>
<rscale>  0 0.10548068E+03</rscale>
<asrwt>0</asrwt>
<pdfrwt beam="2">  1        2 0.18617666E+00 0.64051420E+02</pdfrwt>
<pdfrwt beam="1">  1       -2 0.70338574E-01 0.17370691E+03</pdfrwt>
<totfact> 0.41704585E+01</totfact>
</mgrwt>
</event>
<event>
 7    1  0.3113151E-004  0.1015803E+03  0.7546771E-02  0.1337719E+00
          1   -1    0    0  502    0  0.00000000000E+00  0.00000000000E+00  0.52925981640E+03  0.52925981640E+03  0.00000000000E+00 0. -1.
          1   -1    0    0  503    0 -0.00000000000E+00 -0.00000000000E+00 -0.72280147067E+03  0.72280147067E+03  0.00000000000E+00 0. -1.
         25    2    1    2    0    0  0.83402134276E+02  0.71548298392E+02 -0.52664164254E+03  0.55231614521E+03  0.12500651821E+03 0.  0.
          4    1    3    3  501    0  0.34028414846E+02  0.10240222313E+03 -0.32629786159E+03  0.34368016483E+03  0.12700000000E+01 0.  1.
         -4    1    3    3    0  501  0.49373719429E+02 -0.30853924743E+02 -0.20034378096E+03  0.20863598038E+03  0.12700000000E+01 0.  1.
          1    1    1    2  502    0  0.16306917037E+02 -0.56079608460E+02  0.50071134182E+03  0.50410582803E+03  0.00000000000E+00 0. -1.
          1    1    1    2  503    0 -0.99709051312E+02 -0.15468689932E+02 -0.16761135353E+03  0.19563931383E+03  0.00000000000E+00 0. -1.
<mgrwt>
<rscale>  0 0.77022918E+02</rscale>
<asrwt>0</asrwt>
<pdfrwt beam="1">  1        1 0.81424587E-01 0.58402380E+02</pdfrwt>
<pdfrwt beam="2">  1        1 0.11120023E+00 0.10158028E+03</pdfrwt>
<totfact> 0.14701894E+02</totfact>
</mgrwt>
</event>
<event>
 7    1  0.3113151E-004  0.1272401E+03  0.7546771E-02  0.1300351E+00
          2   -1    0    0  503    0  0.00000000000E+00  0.00000000000E+00  0.29147957102E+03  0.29147957102E+03  0.00000000000E+00 0. -1.
         -1   -1    0    0    0  501 -0.00000000000E+00 -0.00000000000E+00 -0.80154317297E+03  0.80154317297E+03  0.00000000000E+00 0.  1.
         25    2    1    2    0    0 -0.13075832013E+03 -0.13124625783E+03 -0.36804015308E+03  0.43058750636E+03  0.12501491062E+03 0.  0.
          4    1    3    3  502    0 -0.30291011692E+02 -0.11815317584E+03 -0.19208613350E+03  0.22754431202E+03  0.12700000000E+01 0.  1.
         -4    1    3    3    0  502 -0.10046730843E+03 -0.13093081986E+02 -0.17595401958E+03  0.20304319433E+03  0.12700000000E+01 0.  1.
          2    1    1    2  503    0  0.72601958889E+02  0.10190340240E+03  0.24226359772E+03  0.27266646041E+03  0.00000000000E+00 0. -1.
         -1    1    1    2    0  501  0.58156361236E+02  0.29342855435E+02 -0.38428704659E+03  0.38976877722E+03  0.00000000000E+00 0.  1.
<mgrwt>
<rscale>  0 0.91040484E+02</rscale>
<asrwt>0</asrwt>
<pdfrwt beam="1">  1        2 0.44843011E-01 0.12724014E+03</pdfrwt>
<pdfrwt beam="2">  1       -1 0.12331433E+00 0.65139585E+02</pdfrwt>
<totfact> 0.86364336E+01</totfact>
</mgrwt>
</event>
<event>
 7    1  0.3113151E-004  0.6448258E+02  0.7546771E-02  0.1395229E+00
         -1   -1    0    0    0  501 -0.00000000000E+00  0.00000000000E+00  0.47011542427E+03  0.47011542427E+03  0.00000000000E+00 0.  1.
          2   -1    0    0  503    0  0.00000000000E+00 -0.00000000000E+00 -0.31783220061E+03  0.31783220061E+03  0.00000000000E+00 0. -1.
         25    2    1    2    0    0  0.70481422951E+02  0.98024639593E+02  0.24602952603E+03  0.30121921118E+03  0.12500409815E+03 0.  0.
          4    1    3    3  502    0  0.21859965259E+02  0.46178217866E+02  0.66870596078E+01  0.51542366580E+02  0.12700000000E+01 0. -1.
         -4    1    3    3    0  502  0.48621457692E+02  0.51846421727E+02  0.23934246643E+03  0.24967684460E+03  0.12700000000E+01 0. -1.
          2    1    1    2  503    0 -0.38037897713E+02 -0.51161476225E+02 -0.28247537612E+03  0.28958024178E+03  0.00000000000E+00 0. -1.
         -1    1    1    2    0  501 -0.32443525238E+02 -0.46863163368E+02  0.18872907375E+03  0.19714817192E+03  0.00000000000E+00 0.  1.
<mgrwt>
<rscale>  0 0.60624738E+02</rscale>
<asrwt>0</asrwt>
<pdfrwt beam="2">  1        2 0.48897261E-01 0.64482575E+02</pdfrwt>
<pdfrwt beam="1">  1       -1 0.72325450E-01 0.56997705E+02</pdfrwt>
<totfact> 0.24468963E+02</totfact>
</mgrwt>
</event>
<event>
 7    1  0.3113151E-004  0.6743407E+02  0.7546771E-02  0.1451021E+00
          2   -1    0    0  502    0  0.00000000000E+00  0.00000000000E+00  0.36494772182E+03  0.36494772182E+03  0.00000000000E+00 0. -1.
          2   -1    0    0  503    0 -0.00000000000E+00 -0.00000000000E+00 -0.65785157193E+03  0.65785157193E+03  0.00000000000E+00 0. -1.
         25    2    1    2    0    0 -0.89798322245E+02  0.47821025780E+02 -0.39660740148E+02  0.16597745582E+03  0.12499980938E+03 0.  0.
          4    1    3    3  501    0 -0.29539002621E+02  0.54066181729E+02  0.34171689367E+02  0.70462911782E+02  0.12700000000E+01 0. -1.
         -4    1    3    3    0  501 -0.60259319624E+02 -0.62451559486E+01 -0.73832429515E+02  0.95514544036E+02  0.12700000000E+01 0. -1.
          2    1    1    2  502    0  0.59018092175E+02 -0.30033413382E+02  0.29757682301E+03  0.30485587860E+03  0.00000000000E+00 0. -1.
          2    1    1    2  503    0  0.30780230070E+02 -0.17787612398E+02 -0.55081993296E+03  0.55196595934E+03  0.00000000000E+00 0. -1.
<mgrwt>
<rscale>  0 0.48962225E+02</rscale>
<asrwt>0</asrwt>
<pdfrwt beam="1">  1        2 0.56145803E-01 0.67434071E+02</pdfrwt>
<pdfrwt beam="2">  1        2 0.10120793E+00 0.35550270E+02</pdfrwt>
<totfact> 0.65588481E+02</totfact>
</mgrwt>
</event>
<event>
 7    1  0.3113151E-004  0.6038521E+02  0.7546771E-02  0.1414379E+00
         -1   -1    0    0    0  501 -0.00000000000E+00  0.00000000000E+00  0.11152555312E+04  0.11152555312E+04  0.00000000000E+00 0.  1.
          1   -1    0    0  503    0  0.00000000000E+00 -0.00000000000E+00 -0.38988541290E+02  0.38988541290E+02  0.00000000000E+00 0. -1.
         25    2    1    2    0    0  0.83605385259E+02 -0.65365171011E+02  0.45205714443E+03  0.48087607275E+03  0.12499467782E+03 0.  0.
          4    1    3    3  502    0  0.10494291148E+03 -0.50971692571E+02  0.23577212337E+03  0.26306127646E+03  0.12700000000E+01 0.  1.
         -4    1    3    3    0  502 -0.21337526220E+02 -0.14393478439E+02  0.21628502107E+03  0.21781479629E+03  0.12700000000E+01 0.  1.
          1    1    1    2  503    0 -0.32697217572E+02  0.40891860659E+02  0.61324171688E+01  0.52714882580E+02  0.00000000000E+00 0. -1.
         -1    1    1    2    0  501 -0.50908167687E+02  0.24473310351E+02  0.61807742833E+03  0.62065311719E+03  0.00000000000E+00 0.  1.
<mgrwt>
<rscale>  0 0.56227986E+02</rscale>
<asrwt>0</asrwt>
<pdfrwt beam="2">  1        1 0.59982380E-02 0.52356970E+02</pdfrwt>
<pdfrwt beam="1">  1       -1 0.17157775E+00 0.60385206E+02</pdfrwt>
<totfact> 0.33232892E+02</totfact>
</mgrwt>
</event>
<event>
 7    1  0.3113151E-004  0.5166629E+02  0.7546771E-02  0.1534600E+00
         -2   -1    0    0    0  501 -0.00000000000E+00  0.00000000000E+00  0.39453620295E+02  0.39453620295E+02  0.00000000000E+00 0.  1.
          1   -1    0    0  503    0  0.00000000000E+00 -0.00000000000E+00 -0.33891738463E+03  0.33891738463E+03  0.00000000000E+00 0. -1.
         25    2    1    2    0    0  0.11177199751E+02  0.46993635395E+02 -0.14902515667E+03  0.20041321159E+03  0.12499450587E+03 0.  0.
          4    1    3    3  502    0  0.47718678247E+02  0.14351381427E+02 -0.14249982572E+03  0.15096637915E+03  0.12700000000E+01 0. -1.
         -4    1    3    3    0  502 -0.36541478496E+02  0.32642253967E+02 -0.65253309480E+01  0.49446832444E+02  0.12700000000E+01 0. -1.
          1    1    1    2  503    0 -0.35985429960E+02 -0.39323018437E+02 -0.14029514590E+03  0.15007990842E+03  0.00000000000E+00 0. -1.
         -2    1    1    2    0  501  0.24808230209E+02 -0.76706169574E+01 -0.10143461767E+02  0.27877884913E+02  0.00000000000E+00 0.  1.
<mgrwt>
<rscale>  0 0.36628132E+02</rscale>
<asrwt>0</asrwt>
<pdfrwt beam="2">  1        1 0.52141137E-01 0.51666288E+02</pdfrwt>
<pdfrwt beam="1">  1       -2 0.60697877E-02 0.25967030E+02</pdfrwt>
<totfact> 0.77135377E+03</totfact>
</mgrwt>
</event>
<event>
 7    1  0.3113151E-004  0.6972754E+02  0.7546771E-02  0.1444776E+00
          2   -1    0    0  503    0  0.00000000000E+00  0.00000000000E+00  0.18832693927E+03  0.18832693927E+03  0.00000000000E+00 0. -1.
         -2   -1    0    0    0  501 -0.00000000000E+00 -0.00000000000E+00 -0.22076900678E+03  0.22076900678E+03  0.00000000000E+00 0.  1.
         25    2    1    2    0    0 -0.22659035384E+02 -0.40036431332E+02 -0.30346157225E+02  0.13661946013E+03  0.12501055919E+03 0.  0.
          4    1    3    3  502    0 -0.11353817349E+02 -0.85264896386E+02 -0.25524358386E+02  0.89733591788E+02  0.12700000000E+01 0. -1.
         -4    1    3    3    0  502 -0.11305218035E+02  0.45228465054E+02 -0.48217988389E+01  0.46885868340E+02  0.12700000000E+01 0. -1.
          2    1    1    2  503    0  0.73908130420E+01  0.72643461244E+02  0.12259425732E+03  0.14269214591E+03  0.00000000000E+00 0. -1.
         -2    1    1    2    0  501  0.15268222342E+02 -0.32607029913E+02 -0.12469016760E+03  0.12978434000E+03  0.00000000000E+00 0.  1.
<mgrwt>
<rscale>  0 0.50105068E+02</rscale>
<asrwt>0</asrwt>
<pdfrwt beam="1">  1        2 0.28973375E-01 0.69727541E+02</pdfrwt>
<pdfrwt beam="2">  1       -2 0.33964463E-01 0.36004680E+02</pdfrwt>
<totfact> 0.13889963E+03</totfact>
</mgrwt>
</event>
<event>
 7    1  0.3113151E-004  0.1698703E+03  0.7546771E-02  0.1181520E+00
          2   -1    0    0  502    0  0.00000000000E+00  0.00000000000E+00  0.15663394278E+04  0.15663394278E+04  0.00000000000E+00 0. -1.
          2   -1    0    0  503    0 -0.00000000000E+00 -0.00000000000E+00 -0.30477206862E+03  0.30477206862E+03  0.00000000000E+00 0. -1.
         25    2    1    2    0    0  0.12272380192E+02  0.53371716224E+02  0.11783463936E+03  0.18030151325E+03  0.12499792814E+03 0.  0.
          4    1    3    3  501    0  0.60695146534E+00  0.72318213850E+02  0.13433591657E+03  0.15257143843E+03  0.12700000000E+01 0. -1.
         -4    1    3    3    0  501  0.11665428727E+02 -0.18946497626E+02 -0.16501277215E+02  0.27730074818E+02  0.12700000000E+01 0. -1.
          2    1    1    2  502    0 -0.18203265944E+03 -0.59485491237E+02  0.13836520445E+04  0.13968419355E+04  0.00000000000E+00 0. -1.
          2    1    1    2  503    0  0.16976027925E+03  0.61137750136E+01 -0.23991932466E+03  0.29396804759E+03  0.00000000000E+00 0. -1.
<mgrwt>
<rscale>  0 0.16652617E+03</rscale>
<asrwt>0</asrwt>
<pdfrwt beam="1">  1        2 0.24097529E+00 0.16324785E+03</pdfrwt>
<pdfrwt beam="2">  1        2 0.46888011E-01 0.16987033E+03</pdfrwt>
<totfact> 0.21872601E+02</totfact>
</mgrwt>
</event>
<event>
 7    1  0.3113151E-004  0.5348445E+02  0.7546771E-02  0.1469927E+00
         -1   -1    0    0    0  501 -0.00000000000E+00  0.00000000000E+00  0.10447379607E+04  0.10447379607E+04  0.00000000000E+00 0.  1.
          2   -1    0    0  503    0  0.00000000000E+00 -0.00000000000E+00 -0.17949268080E+02  0.17949268080E+02  0.00000000000E+00 0. -1.
         25    2    1    2    0    0  0.63321291785E+02  0.13445839346E+02  0.33620715432E+03  0.36448397622E+03  0.12499176659E+03 0.  0.
          4    1    3    3  502    0  0.38062219092E+02  0.18640580783E+02  0.33599941456E+03  0.33866417475E+03  0.12700000000E+01 0. -1.
         -4    1    3    3    0  502  0.25259072693E+02 -0.51947414367E+01  0.20773975560E+00  0.25819801465E+02  0.12700000000E+01 0. -1.
          2    1    1    2  503    0 -0.14830994050E+02 -0.36149965990E+02  0.15107097946E+03  0.15604236367E+03  0.00000000000E+00 0. -1.
         -1    1    1    2    0  501 -0.48490297734E+02  0.22704126644E+02  0.53951055885E+03  0.54216088890E+03  0.00000000000E+00 0.  1.
<mgrwt>
<rscale>  0 0.45714899E+02</rscale>
<asrwt>0</asrwt>
<pdfrwt beam="2">  1        2 0.27614267E-02 0.39074012E+02</pdfrwt>
<pdfrwt beam="1">  1       -1 0.16072887E+00 0.53484449E+02</pdfrwt>
<totfact> 0.11282357E+03</totfact>
</mgrwt>
</event>
<event>
 7    1  0.3113151E-004  0.3159994E+02  0.7546771E-02  0.1638525E+00
          1   -1    0    0  502    0  0.00000000000E+00  0.00000000000E+00  0.20137129816E+04  0.20137129816E+04  0.00000000000E+00 0. -1.
          1   -1    0    0  503    0 -0.00000000000E+00 -0.00000000000E+00 -0.12258313134E+02  0.12258313134E+02  0.00000000000E+00 0. -1.
         25    2    1    2    0    0  0.20497948905E+02  0.37578215938E+01  0.66195559510E+03  0.67397643627E+03  0.12499895851E+03 0.  0.
          4    1    3    3  501    0 -0.45246369799E+02 -0.24748137404E+02  0.20266929441E+03  0.20913192029E+03  0.12700000000E+01 0. -1.
         -4    1    3    3    0  501  0.65744318704E+02  0.28505958998E+02  0.45928630069E+03  0.46484451598E+03  0.12700000000E+01 0. -1.
          1    1    1    2  502    0  0.70159536450E+01 -0.21331917450E+02  0.13023301091E+04  0.13025236993E+04  0.00000000000E+00 0. -1.
          1    1    1    2  503    0 -0.27513902550E+02  0.17574095857E+02  0.37168964245E+02  0.49471159091E+02  0.00000000000E+00 0. -1.
<mgrwt>
<rscale>  0 0.26638506E+02</rscale>
<asrwt>0</asrwt>
<pdfrwt beam="1">  1        1 0.30980173E+00 0.22456053E+02</pdfrwt>
<pdfrwt beam="2">  1        1 0.18858959E-02 0.31599944E+02</pdfrwt>
<totfact> 0.26650194E+03</totfact>
</mgrwt>
</event>
<event>
 7    1  0.3113151E-004  0.2111003E+03  0.7546771E-02  0.1158260E+00
          1   -1    0    0  503    0 -0.00000000000E+00  0.00000000000E+00  0.65461816712E+03  0.65461816712E+03  0.00000000000E+00 0. -1.
          2   -1    0    0  502    0  0.00000000000E+00 -0.00000000000E+00 -0.24969692198E+04  0.24969692198E+04  0.00000000000E+00 0. -1.
         25    2    1    2    0    0 -0.75131301485E+02 -0.11094845151E+03 -0.62067664934E+03  0.64716241924E+03  0.12500168994E+03 0.  0.
          4    1    3    3  501    0 -0.35181606822E+02 -0.12059393110E+03 -0.32149374323E+03  0.34516732394E+03  0.12700000000E+01 0. -1.
         -4    1    3    3    0  501 -0.39949694663E+02  0.96454795951E+01 -0.29918290611E+03  0.30199509530E+03  0.12700000000E+01 0. -1.
          2    1    1    2  502    0  0.24406193275E+03  0.14000280699E+03 -0.18407128033E+04  0.18620930796E+04  0.00000000000E+00 0. -1.
          1    1    1    2  503    0 -0.16893063126E+03 -0.29054355484E+02  0.61903839997E+03  0.64233188804E+03  0.00000000000E+00 0. -1.
<mgrwt>
<rscale>  0 0.19022328E+03</rscale>
<asrwt>0</asrwt>
<pdfrwt beam="2">  1        2 0.38414911E+00 0.21110026E+03</pdfrwt>
<pdfrwt beam="1">  1        1 0.10071049E+00 0.17141095E+03</pdfrwt>
<totfact> 0.18069504E+01</totfact>
</mgrwt>
</event>
<event>
 7    1  0.3113151E-004  0.6019631E+02  0.7546771E-02  0.1460053E+00
          2   -1    0    0  503    0  0.00000000000E+00  0.00000000000E+00  0.18187751652E+04  0.18187751652E+04  0.00000000000E+00 0. -1.
         -1   -1    0    0    0  501 -0.00000000000E+00 -0.00000000000E+00 -0.10659868708E+02  0.10659868708E+02  0.00000000000E+00 0.  1.
         25    2    1    2    0    0  0.38130101413E+01  0.32507062978E+02  0.47688008706E+03  0.49407542016E+03  0.12499862073E+03 0.  0.
          4    1    3    3  502    0  0.28266651504E+02  0.38179147885E+02  0.60474017067E+02  0.76911446227E+02  0.12700000000E+01 0.  1.
         -4    1    3    3    0  502 -0.24453641363E+02 -0.56720849068E+01  0.41640606999E+03  0.41716397394E+03  0.12700000000E+01 0.  1.
          2    1    1    2  503    0  0.21122192593E+02 -0.60220868214E+02  0.99971480952E+03  0.10017496695E+04  0.00000000000E+00 0. -1.
         -1    1    1    2    0  501 -0.24935202734E+02  0.27713805236E+02  0.33152039989E+03  0.33360994422E+03  0.00000000000E+00 0.  1.
<mgrwt>
<rscale>  0 0.47372305E+02</rscale>
<asrwt>0</asrwt>
<pdfrwt beam="1">  1        2 0.27981132E+00 0.60196308E+02</pdfrwt>
<pdfrwt beam="2">  1       -1 0.16399812E-02 0.37280281E+02</pdfrwt>
<totfact> 0.84414347E+03</totfact>
</mgrwt>
</event>
<event>
 7    1  0.3113151E-004  0.1089688E+03  0.7546771E-02  0.1274660E+00
          2   -1    0    0  503    0  0.00000000000E+00  0.00000000000E+00  0.64966107947E+03  0.64966107947E+03  0.00000000000E+00 0.  1.
         -1   -1    0    0    0  501 -0.00000000000E+00 -0.00000000000E+00 -0.85475581539E+02  0.85475581539E+02  0.00000000000E+00 0.  1.
         25    2    1    2    0    0  0.30946865704E+02 -0.17794560211E+02  0.10966483271E+03  0.17007152116E+03  0.12499436750E+03 0.  0.
          4    1    3    3  502    0 -0.24994840940E+02  0.21429644959E+02  0.94493473554E+02  0.10007297938E+03  0.12700000000E+01 0.  1.
         -4    1    3    3    0  502  0.55941706644E+02 -0.39224205171E+02  0.15171359156E+02  0.69998541786E+02  0.12700000000E+01 0.  1.
          2    1    1    2  503    0  0.97075098729E+02 -0.49503700344E+02  0.39311240479E+03  0.40793572280E+03  0.00000000000E+00 0.  1.
         -1    1    1    2    0  501 -0.12802196443E+03  0.67298260555E+02  0.61408260431E+02  0.15712941704E+03  0.00000000000E+00 0.  1.
<mgrwt>
<rscale>  0 0.10272864E+03</rscale>
<asrwt>0</asrwt>
<pdfrwt beam="1">  1        2 0.99947855E-01 0.10896876E+03</pdfrwt>
<pdfrwt beam="2">  1       -1 0.13150090E-01 0.96845862E+02</pdfrwt>
<totfact> 0.20208253E+03</totfact>
</mgrwt>
</event>
<event>
 7    1  0.3113151E-004  0.1559304E+03  0.7546771E-02  0.1248827E+00
          2   -1    0    0  502    0  0.00000000000E+00  0.00000000000E+00  0.12340830844E+04  0.12340830844E+04  0.00000000000E+00 0. -1.
          1   -1    0    0  503    0 -0.00000000000E+00 -0.00000000000E+00 -0.54370487767E+03  0.54370487767E+03  0.00000000000E+00 0. -1.
         25    2    1    2    0    0 -0.81563451748E+01  0.15978693644E+03  0.26752902787E+03  0.33584971731E+03  0.12499944335E+03 0.  0.
          4    1    3    3  501    0 -0.31875551519E+02 -0.33296499322E+01  0.79903843982E+02  0.86100955491E+02  0.12700000000E+01 0.  1.
         -4    1    3    3    0  501  0.23719206344E+02  0.16311658637E+03  0.18762518389E+03  0.24974876182E+03  0.12700000000E+01 0.  1.
          2    1    1    2  502    0  0.90424588653E+02 -0.13094197663E+03  0.92179702246E+03  0.93543153575E+03  0.00000000000E+00 0. -1.
          1    1    1    2  503    0 -0.82268243479E+02 -0.28844959815E+02 -0.49894784362E+03  0.50650670898E+03  0.00000000000E+00 0. -1.
<mgrwt>
<rscale>  0 0.11659237E+03</rscale>
<asrwt>0</asrwt>
<pdfrwt beam="1">  1        2 0.18985894E+00 0.15593037E+03</pdfrwt>
<pdfrwt beam="2">  1        1 0.83646904E-01 0.87178527E+02</pdfrwt>
<totfact> 0.11299023E+02</totfact>
</mgrwt>
</event>
<event>
 7    1  0.3113151E-004  0.3252068E+03  0.7546771E-02  0.1142049E+00
          2   -1    0    0  502    0  0.00000000000E+00  0.00000000000E+00  0.22526522209E+04  0.22526522209E+04  0.00000000000E+00 0. -1.
          2   -1    0    0  503    0 -0.00000000000E+00 -0.00000000000E+00 -0.25488028520E+03  0.25488028520E+03  0.00000000000E+00 0. -1.
         25    2    1    2    0    0  0.16333180674E+03  0.14191321111E+03  0.55094560084E+03  0.60496459454E+03  0.12499786792E+03 0.  0.
          4    1    3    3  501    0  0.17083719567E+03  0.90990212080E+02  0.47776320252E+03  0.51548409936E+03  0.12700000000E+01 0. -1.
         -4    1    3    3    0  501 -0.75053889271E+01  0.50922999031E+02  0.73182398324E+02  0.89480495180E+02  0.12700000000E+01 0. -1.
          2    1    1    2  502    0  0.10740823472E+03  0.81487921205E+02  0.15347926615E+04  0.15407028668E+04  0.00000000000E+00 0. -1.
          2    1    1    2  503    0 -0.27074004147E+03 -0.22340113232E+03 -0.87966326598E+02  0.36186504472E+03  0.00000000000E+00 0. -1.
<mgrwt>
<rscale>  0 0.20939157E+03</rscale>
<asrwt>0</asrwt>
<pdfrwt beam="1">  1        2 0.34656187E+00 0.13482140E+03</pdfrwt>
<pdfrwt beam="2">  1        2 0.39212353E-01 0.32520676E+03</pdfrwt>
<totfact> 0.12007327E+02</totfact>
</mgrwt>
</event>
<event>
 7    1  0.3113151E-004  0.1194627E+03  0.7546771E-02  0.1433551E+00
          2   -1    0    0  503    0  0.00000000000E+00  0.00000000000E+00  0.10248932227E+04  0.10248932227E+04  0.00000000000E+00 0. -1.
          2   -1    0    0  502    0 -0.00000000000E+00 -0.00000000000E+00 -0.11743317265E+04  0.11743317265E+04  0.00000000000E+00 0. -1.
         25    2    1    2    0    0 -0.11188349504E+03  0.55886713793E+02  0.27596115182E+03  0.32775142110E+03  0.12500078190E+03 0.  0.
          4    1    3    3  501    0 -0.19199542967E+02 -0.25407760453E+01 -0.97721391669E+01  0.21729831959E+02  0.12700000000E+01 0.  1.
         -4    1    3    3    0  501 -0.92683952076E+02  0.58427489838E+02  0.28573329099E+03  0.30602158914E+03  0.12700000000E+01 0.  1.
          2    1    1    2  502    0  0.11471651610E+03 -0.33206848973E+02 -0.11451499140E+04  0.11513604559E+04  0.00000000000E+00 0. -1.
          2    1    1    2  503    0 -0.28330210552E+01 -0.22679864820E+02  0.71975025835E+03  0.72011307214E+03  0.00000000000E+00 0. -1.
<mgrwt>
<rscale>  0 0.52253755E+02</rscale>
<asrwt>0</asrwt>
<pdfrwt beam="1">  1        2 0.15767588E+00 0.22856121E+02</pdfrwt>
<pdfrwt beam="2">  1        2 0.18066642E+00 0.11946274E+03</pdfrwt>
<totfact> 0.98297051E+01</totfact>
</mgrwt>
</event>
<event>
 7    1  0.3113151E-004  0.3955784E+02  0.7546771E-02  0.1595672E+00
         -1   -1    0    0    0  501  0.00000000000E+00  0.00000000000E+00  0.27555806946E+03  0.27555806946E+03  0.00000000000E+00 0.  1.
         -1   -1    0    0    0  502 -0.00000000000E+00 -0.00000000000E+00 -0.83969860953E+02  0.83969860953E+02  0.00000000000E+00 0.  1.
         25    2    1    2    0    0 -0.19523646806E+02 -0.22033871585E+02  0.50122253646E+02  0.13785930490E+03  0.12500513332E+03 0.  0.
          4    1    3    3  503    0 -0.53709296323E+02 -0.31578642401E+02 -0.14624983844E+02  0.64010953905E+02  0.12700000000E+01 0. -1.
         -4    1    3    3    0  503  0.34185649516E+02  0.95447708163E+01  0.64747237490E+02  0.73848351000E+02  0.12700000000E+01 0. -1.
         -1    1    1    2    0  502 -0.19601736090E+02  0.12195735778E+02 -0.34292559265E+02  0.41339371668E+02  0.00000000000E+00 0.  1.
         -1    1    1    2    0  501  0.39125382897E+02  0.98381358067E+01  0.17575851412E+03  0.18032925384E+03  0.00000000000E+00 0.  1.
<mgrwt>
<rscale>  0 0.30219743E+02</rscale>
<asrwt>0</asrwt>
<pdfrwt beam="1">  1       -1 0.42393549E-01 0.39557843E+02</pdfrwt>
<pdfrwt beam="2">  1       -1 0.12918440E-01 0.23086014E+02</pdfrwt>
<totfact> 0.16305832E+03</totfact>
</mgrwt>
</event>
<event>
 7    1  0.3113151E-004  0.7538120E+02  0.7546771E-02  0.1391472E+00
          2   -1    0    0  502    0  0.00000000000E+00  0.00000000000E+00  0.28420982131E+04  0.28420982131E+04  0.00000000000E+00 0.  1.
          1   -1    0    0  503    0 -0.00000000000E+00 -0.00000000000E+00 -0.36334874320E+02  0.36334874320E+02  0.00000000000E+00 0.  1.
         25    2    1    2    0    0 -0.22685263514E+01  0.12322029395E+03  0.11126429944E+04  0.11264047240E+04  0.12499912819E+03 0.  0.
          4    1    3    3  501    0 -0.16496655779E+02  0.11650869739E+03  0.10997418991E+04  0.11060200151E+04  0.12700000000E+01 0.  1.
         -4    1    3    3    0  501  0.14228129427E+02  0.67115965651E+01  0.12901095335E+02  0.20384708884E+02  0.12700000000E+01 0.  1.
          2    1    1    2  502    0  0.58838916222E+01 -0.49898085173E+02  0.16758629179E+04  0.16766159247E+04  0.00000000000E+00 0.  1.
          1    1    1    2  503    0 -0.36153652707E+01 -0.73322208777E+02  0.17257426459E+02  0.75412438855E+02  0.00000000000E+00 0.  1.
<mgrwt>
<rscale>  0 0.61542162E+02</rscale>
<asrwt>0</asrwt>
<pdfrwt beam="1">  1        2 0.43724570E+00 0.50243796E+02</pdfrwt>
<pdfrwt beam="2">  1        1 0.55899829E-02 0.75381201E+02</pdfrwt>
<totfact> 0.57971091E+02</totfact>
</mgrwt>
</event>
<event>
 7    1  0.3113151E-004  0.2334443E+03  0.7546771E-02  0.1347016E+00
         -1   -1    0    0    0  501 -0.00000000000E+00  0.00000000000E+00  0.28448433113E+03  0.28448433113E+03  0.00000000000E+00 0.  1.
          2   -1    0    0  503    0  0.00000000000E+00 -0.00000000000E+00 -0.15412553439E+04  0.15412553439E+04  0.00000000000E+00 0. -1.
         25    2    1    2    0    0  0.72401918983E+02 -0.23356503080E+03 -0.45640134170E+03  0.53265713403E+03  0.12500710478E+03 0.  0.
          4    1    3    3  502    0  0.87973993963E+02 -0.85059771768E+02 -0.24464379905E+03  0.27354485866E+03  0.12700000000E+01 0.  1.
         -4    1    3    3    0  502 -0.15572074979E+02 -0.14850525903E+03 -0.21175754265E+03  0.25911227537E+03  0.12700000000E+01 0.  1.
          2    1    1    2  503    0 -0.84884744439E+02  0.21370949356E+03 -0.10335014454E+04  0.10587740104E+04  0.00000000000E+00 0. -1.
         -1    1    1    2    0  501  0.12482825456E+02  0.19855537235E+02  0.23313177435E+03  0.23430853057E+03  0.00000000000E+00 0.  1.
<mgrwt>
<rscale>  0 0.73993709E+02</rscale>
<asrwt>0</asrwt>
<pdfrwt beam="2">  1        2 0.23711621E+00 0.23344430E+03</pdfrwt>
<pdfrwt beam="1">  1       -1 0.43766820E-01 0.23453428E+02</pdfrwt>
<totfact> 0.78860278E+01</totfact>
</mgrwt>
</event>
<event>
 7    1  0.3113151E-004  0.5760677E+02  0.7546771E-02  0.1418119E+00
          1   -1    0    0  503    0  0.00000000000E+00  0.00000000000E+00  0.23649928099E+03  0.23649928099E+03  0.00000000000E+00 0. -1.
          1   -1    0    0  502    0 -0.00000000000E+00 -0.00000000000E+00 -0.10185002222E+04  0.10185002222E+04  0.00000000000E+00 0. -1.
         25    2    1    2    0    0  0.43704582857E+02  0.41429502180E+02 -0.12547478627E+03  0.18707773331E+03  0.12501064793E+03 0.  0.
          4    1    3    3  501    0  0.61807070771E+02 -0.27309020211E+02 -0.64373573681E+02  0.93335237025E+02  0.12700000000E+01 0.  1.
         -4    1    3    3    0  501 -0.18102487914E+02  0.68738522391E+02 -0.61101212588E+02  0.93742496281E+02  0.12700000000E+01 0.  1.
          1    1    1    2  502    0  0.13574833248E+02 -0.51561027126E+02 -0.85726678477E+03  0.85892325378E+03  0.00000000000E+00 0. -1.
          1    1    1    2  503    0 -0.57279416105E+02  0.10131524946E+02  0.20074062978E+03  0.20899851614E+03  0.00000000000E+00 0. -1.
<mgrwt>
<rscale>  0 0.55420945E+02</rscale>
<asrwt>0</asrwt>
<pdfrwt beam="1">  1        1 0.36384505E-01 0.57606767E+02</pdfrwt>
<pdfrwt beam="2">  1        1 0.15669234E+00 0.53318061E+02</pdfrwt>
<totfact> 0.24133913E+02</totfact>
</mgrwt>
</event>
<event>
 7    1  0.3113151E-004  0.5605491E+02  0.7546771E-02  0.1440620E+00
         -1   -1    0    0    0  501 -0.00000000000E+00  0.00000000000E+00  0.98530987572E+02  0.98530987572E+02  0.00000000000E+00 0.  1.
          2   -1    0    0  503    0  0.00000000000E+00 -0.00000000000E+00 -0.76544436306E+03  0.76544436306E+03  0.00000000000E+00 0. -1.
         25    2    1    2    0    0  0.89861195502E+01  0.15566925078E+02  0.31171338980E+02  0.13007766532E+03  0.12500186855E+03 0.  0.
          4    1    3    3  502    0  0.61599938376E+02  0.26500537094E+02  0.35977065432E+02  0.76110400152E+02  0.12700000000E+01 0. -1.
         -4    1    3    3    0  502 -0.52613818826E+02 -0.10933612016E+02 -0.48057264520E+01  0.53967265169E+02  0.12700000000E+01 0. -1.
          2    1    1    2  503    0 -0.55121591164E+02 -0.13246414385E+02 -0.68293374409E+03  0.68528268336E+03  0.00000000000E+00 0. -1.
         -1    1    1    2    0  501  0.46135471613E+02 -0.23205106925E+01 -0.15150970382E+02  0.48615001948E+02  0.00000000000E+00 0.  1.
<mgrwt>
<rscale>  0 0.50886040E+02</rscale>
<asrwt>0</asrwt>
<pdfrwt beam="2">  1        2 0.11776066E+00 0.56054914E+02</pdfrwt>
<pdfrwt beam="1">  1       -1 0.15158614E-01 0.46193793E+02</pdfrwt>
<totfact> 0.13138853E+03</totfact>
</mgrwt>
</event>
<event>
 7    1  0.3113151E-004  0.5747058E+02  0.7546771E-02  0.1469692E+00
          1   -1    0    0  503    0 -0.00000000000E+00  0.00000000000E+00  0.78430557000E+03  0.78430557000E+03  0.00000000000E+00 0. -1.
          2   -1    0    0  502    0  0.00000000000E+00 -0.00000000000E+00 -0.67869161482E+03  0.67869161482E+03  0.00000000000E+00 0.  1.
         25    2    1    2    0    0 -0.31144864283E+02  0.77192629267E+02  0.30433713281E+03  0.33937269106E+03  0.12499611372E+03 0.  0.
          4    1    3    3  501    0 -0.79323935474E+02  0.40491931242E+02  0.19487965584E+03  0.21426986815E+03  0.12700000000E+01 0.  1.
         -4    1    3    3    0  501  0.48179071191E+02  0.36700698025E+02  0.10945747697E+03  0.12510282291E+03  0.12700000000E+01 0.  1.
          2    1    1    2  502    0  0.39414600869E+02 -0.41718473109E+02 -0.65920778221E+03  0.66170147490E+03  0.00000000000E+00 0.  1.
          1    1    1    2  503    0 -0.82697365860E+01 -0.35474156158E+02  0.46048460459E+03  0.46192301887E+03  0.00000000000E+00 0. -1.
<mgrwt>
<rscale>  0 0.45753521E+02</rscale>
<asrwt>0</asrwt>
<pdfrwt beam="2">  1        2 0.10441409E+00 0.57470583E+02</pdfrwt>
<pdfrwt beam="1">  1        1 0.12066240E+00 0.36425325E+02</pdfrwt>
<totfact> 0.16349483E+02</totfact>
</mgrwt>
</event>
<event>
 7    1  0.3113151E-004  0.9008745E+02  0.7546771E-02  0.1354850E+00
          3   -1    0    0  503    0 -0.00000000000E+00  0.00000000000E+00  0.11258365429E+03  0.11258365429E+03  0.00000000000E+00 0. -1.
          2   -1    0    0  502    0  0.00000000000E+00 -0.00000000000E+00 -0.60085796044E+03  0.60085796044E+03  0.00000000000E+00 0. -1.
         25    2    1    2    0    0 -0.12289747703E+03  0.13407648287E+02 -0.81783225429E+02  0.19389753884E+03  0.12499681882E+03 0.  0.
          4    1    3    3  501    0 -0.13647836897E+03  0.12841954074E+02 -0.29981832088E+02  0.14032741762E+03  0.12700000000E+01 0.  1.
         -4    1    3    3    0  501  0.13580891937E+02  0.56569421355E+00 -0.51801393342E+02  0.53570121223E+02  0.12700000000E+01 0.  1.
          2    1    1    2  502    0  0.75796142265E+02 -0.45243821575E+02 -0.44317766394E+03  0.45188328182E+03  0.00000000000E+00 0. -1.
          3    1    1    2  503    0  0.47101334766E+02  0.31836173287E+02  0.36686583221E+02  0.67660794074E+02  0.00000000000E+00 0. -1.
<mgrwt>
<rscale>  0 0.71565317E+02</rscale>
<asrwt>0</asrwt>
<pdfrwt beam="2">  1        2 0.92439687E-01 0.90087453E+02</pdfrwt>
<pdfrwt beam="1">  1        3 0.17320562E-01 0.56851365E+02</pdfrwt>
<totfact> 0.81657938E+02</totfact>
</mgrwt>
</event>
<event>
 7    1  0.3113151E-004  0.1010493E+03  0.7546771E-02  0.1369592E+00
          2   -1    0    0  503    0  0.00000000000E+00  0.00000000000E+00  0.19660398936E+04  0.19660398936E+04  0.00000000000E+00 0. -1.
         -2   -1    0    0    0  501 -0.00000000000E+00 -0.00000000000E+00 -0.19717875599E+03  0.19717875599E+03  0.00000000000E+00 0. -1.
         25    2    1    2    0    0 -0.97089499846E+02 -0.10037224880E+03  0.69301056557E+03  0.71790641507E+03  0.12500007001E+03 0.  0.
          4    1    3    3  502    0 -0.93775713637E+02 -0.34923210619E+02  0.23778183086E+03  0.25798319149E+03  0.12700000000E+01 0.  1.
         -4    1    3    3    0  502 -0.33137862085E+01 -0.65449038184E+02  0.45522873471E+03  0.45992322358E+03  0.12700000000E+01 0.  1.
          2    1    1    2  503    0  0.70643213609E+02  0.64214790015E+02  0.12560272679E+04  0.12596501500E+04  0.00000000000E+00 0. -1.
         -2    1    1    2    0  501  0.26446286237E+02  0.36157458789E+02 -0.18017669584E+03  0.18566208446E+03  0.00000000000E+00 0. -1.
<mgrwt>
<rscale>  0 0.67280777E+02</rscale>
<asrwt>0</asrwt>
<pdfrwt beam="1">  1        2 0.30246766E+00 0.10104933E+03</pdfrwt>
<pdfrwt beam="2">  1       -2 0.30335195E-01 0.44796963E+02</pdfrwt>
<totfact> 0.83477547E+01</totfact>
</mgrwt>
</event>
<event>
 7    1  0.3113151E-004  0.1060572E+03  0.7546771E-02  0.1392324E+00
          2   -1    0    0  502    0  0.00000000000E+00  0.00000000000E+00  0.11703139903E+04  0.11703139903E+04  0.00000000000E+00 0.  1.
          1   -1    0    0  503    0 -0.00000000000E+00 -0.00000000000E+00 -0.20376006522E+03  0.20376006522E+03  0.00000000000E+00 0. -1.
         25    2    1    2    0    0  0.69195037137E+02 -0.52399270660E+02 -0.63732742360E+02  0.16498532916E+03  0.12499863863E+03 0.  0.
          4    1    3    3  501    0  0.10020545441E+03 -0.11553803850E+02 -0.41854345368E+02  0.10921548701E+03  0.12700000000E+01 0. -1.
         -4    1    3    3    0  501 -0.31010417271E+02 -0.40845466810E+02 -0.21878396992E+02  0.55769842148E+02  0.12700000000E+01 0. -1.
          2    1    1    2  502    0  0.31157504912E+02 -0.16946970412E+02  0.10776507502E+04  0.10782342645E+04  0.00000000000E+00 0.  1.
          1    1    1    2  503    0 -0.10035254205E+03  0.69346241072E+02 -0.47364082719E+02  0.13085446182E+03  0.00000000000E+00 0. -1.
<mgrwt>
<rscale>  0 0.61332321E+02</rscale>
<asrwt>0</asrwt>
<pdfrwt beam="1">  1        2 0.18004830E+00 0.35468154E+02</pdfrwt>
<pdfrwt beam="2">  1        1 0.31347703E-01 0.10605721E+03</pdfrwt>
<totfact> 0.45489971E+02</totfact>
</mgrwt>
</event>
<event>
 7    1  0.6205577E-004  0.8334082E+02  0.7546771E-02  0.1363573E+00
          2   -1    0    0  503    0  0.00000000000E+00  0.00000000000E+00  0.45433240806E+03  0.45433240806E+03  0.00000000000E+00 0. -1.
         -1   -1    0    0    0  501 -0.00000000000E+00 -0.00000000000E+00 -0.51211217308E+02  0.51211217308E+02  0.00000000000E+00 0.  1.
         25    2    1    2    0    0 -0.27041769095E+02 -0.10796341409E+03  0.20664342199E+03  0.26592120618E+03  0.12500091195E+03 0.  0.
          4    1    3    3  502    0 -0.60297016159E+02 -0.58096074361E+02  0.48445768867E+02  0.96744454285E+02  0.12700000000E+01 0.  1.
         -4    1    3    3    0  502  0.33255247064E+02 -0.49867339725E+02  0.15819765312E+03  0.16917675189E+03  0.12700000000E+01 0.  1.
          2    1    1    2  503    0  0.52108111400E+02  0.56654321721E+02  0.13717180466E+03  0.15729294783E+03  0.00000000000E+00 0. -1.
         -1    1    1    2    0  501 -0.25066342304E+02  0.51309092365E+02  0.59305964102E+02  0.82329471357E+02  0.00000000000E+00 0.  1.
<mgrwt>
<rscale>  0 0.68986600E+02</rscale>
<asrwt>0</asrwt>
<pdfrwt beam="1">  1        2 0.69897291E-01 0.83340822E+02</pdfrwt>
<pdfrwt beam="2">  1       -1 0.78786491E-02 0.57104680E+02</pdfrwt>
<totfact> 0.62634339E+03</totfact>
</mgrwt>
</event>
<event>
 7    1  0.3113151E-004  0.3825096E+02  0.7546771E-02  0.1521816E+00
         -1   -1    0    0    0  501 -0.00000000000E+00  0.00000000000E+00  0.15739928310E+03  0.15739928310E+03  0.00000000000E+00 0.  1.
          2   -1    0    0  503    0  0.00000000000E+00 -0.00000000000E+00 -0.95427055380E+02  0.95427055380E+02  0.00000000000E+00 0. -1.
         25    2    1    2    0    0  0.31902635581E+01 -0.32395964635E+01  0.10410891705E+03  0.16273563930E+03  0.12499419556E+03 0.  0.
          4    1    3    3  502    0 -0.58381488540E+02 -0.13043420247E+02  0.68391052282E+02  0.90870666048E+02  0.12700000000E+01 0.  1.
         -4    1    3    3    0  502  0.61571752098E+02  0.98038237839E+01  0.35717864769E+02  0.71864973254E+02  0.12700000000E+01 0.  1.
          2    1    1    2  503    0 -0.41319946782E+02  0.15216096195E+01 -0.24305717736E+02  0.47962706477E+02  0.00000000000E+00 0. -1.
         -1    1    1    2    0  501  0.38129683224E+02  0.17179868440E+01 -0.17830971589E+02  0.42127992705E+02  0.00000000000E+00 0.  1.
<mgrwt>
<rscale>  0 0.38209641E+02</rscale>
<asrwt>0</asrwt>
<pdfrwt beam="2">  1        2 0.14681085E-01 0.38250959E+02</pdfrwt>
<pdfrwt beam="1">  1       -1 0.24215274E-01 0.38168367E+02</pdfrwt>
<totfact> 0.57142121E+03</totfact>
</mgrwt>
</event>
<event>
 7    1  0.3113151E-004  0.2213872E+03  0.7546771E-02  0.1181003E+00
          2   -1    0    0  502    0  0.00000000000E+00  0.00000000000E+00  0.41390856771E+03  0.41390856771E+03  0.00000000000E+00 0. -1.
          3   -1    0    0  503    0 -0.00000000000E+00 -0.00000000000E+00 -0.17471480801E+04  0.17471480801E+04  0.00000000000E+00 0. -1.
         25    2    1    2    0    0 -0.54471707783E+02  0.97593152165E+02 -0.79809466080E+03  0.81551969661E+03  0.12500279059E+03 0.  0.
          4    1    3    3  501    0 -0.46498327578E+02  0.58816688018E+02 -0.74756489391E+03  0.75131643185E+03  0.12700000000E+01 0.  1.
         -4    1    3    3    0  501 -0.79733802057E+01  0.38776464147E+02 -0.50529766890E+02  0.64203264758E+02  0.12700000000E+01 0.  1.
          2    1    1    2  502    0  0.16910061477E+03 -0.14987134030E+03  0.36898383436E+03  0.43267251656E+03  0.00000000000E+00 0. -1.
          3    1    1    2  503    0 -0.11462890699E+03  0.52278188137E+02 -0.90412868598E+03  0.91286443467E+03  0.00000000000E+00 0. -1.
<mgrwt>
<rscale>  0 0.16700888E+03</rscale>
<asrwt>0</asrwt>
<pdfrwt beam="1">  1        2 0.63678241E-01 0.22138716E+03</pdfrwt>
<pdfrwt beam="2">  1        3 0.26879201E+00 0.12598728E+03</pdfrwt>
<totfact> 0.32331360E+00</totfact>
</mgrwt>
</event>
<event>
 7    1  0.3113151E-004  0.4608463E+02  0.7546771E-02  0.1537813E+00
         -2   -1    0    0    0  501 -0.00000000000E+00  0.00000000000E+00  0.16485202088E+02  0.16485202088E+02  0.00000000000E+00 0.  1.
          2   -1    0    0  503    0  0.00000000000E+00 -0.00000000000E+00 -0.94052025343E+03  0.94052025343E+03  0.00000000000E+00 0. -1.
         25    2    1    2    0    0 -0.66500460368E+01 -0.19151587028E+02 -0.29358014455E+03  0.31972631381E+03  0.12499843228E+03 0.  0.
          4    1    3    3  502    0  0.32840371587E+02  0.21881608088E+02 -0.23395891869E+03  0.23726711385E+03  0.12700000000E+01 0.  1.
         -4    1    3    3    0  502 -0.39490417624E+02 -0.41033195116E+02 -0.59621225854E+02  0.82459199959E+02  0.12700000000E+01 0.  1.
          2    1    1    2  503    0  0.23805210100E+02  0.41918411698E+02 -0.54638938235E+03  0.54851180334E+03  0.00000000000E+00 0. -1.
         -2    1    1    2    0  501 -0.17155164063E+02 -0.22766824670E+02 -0.84065524448E+02  0.88767338364E+02  0.00000000000E+00 0.  1.
<mgrwt>
<rscale>  0 0.36245240E+02</rscale>
<asrwt>0</asrwt>
<pdfrwt beam="2">  1        2 0.14469540E+00 0.46084628E+02</pdfrwt>
<pdfrwt beam="1">  1       -2 0.25361854E-02 0.28506630E+02</pdfrwt>
<totfact> 0.12622488E+04</totfact>
</mgrwt>
</event>
<event>
 7    1  0.3113151E-004  0.5962576E+02  0.7546771E-02  0.1497136E+00
          2   -1    0    0  503    0  0.00000000000E+00  0.00000000000E+00  0.66371581628E+03  0.66371581628E+03  0.00000000000E+00 0. -1.
         -1   -1    0    0    0  501 -0.00000000000E+00 -0.00000000000E+00 -0.26226759247E+02  0.26226759247E+02  0.00000000000E+00 0.  1.
         25    2    1    2    0    0  0.31643125986E+02 -0.53364279621E+02  0.49873385574E+03  0.51788898424E+03  0.12499802945E+03 0.  0.
          4    1    3    3  502    0 -0.44583142046E+02 -0.15766261478E+02  0.26474666032E+03  0.26893984199E+03  0.12700000000E+01 0.  1.
         -4    1    3    3    0  502  0.76226268032E+02 -0.37598018143E+02  0.23398719542E+03  0.24894914225E+03  0.12700000000E+01 0.  1.
          2    1    1    2  503    0 -0.34758299467E+01  0.60040892632E+02  0.48472582171E+02  0.77243649605E+02  0.00000000000E+00 0. -1.
         -1    1    1    2    0  501 -0.28167296039E+02 -0.66766130109E+01  0.90282619115E+02  0.94809941682E+02  0.00000000000E+00 0.  1.
<mgrwt>
<rscale>  0 0.41545553E+02</rscale>
<asrwt>0</asrwt>
<pdfrwt beam="1">  1        2 0.10211011E+00 0.59625755E+02</pdfrwt>
<pdfrwt beam="2">  1       -1 0.40348865E-02 0.28947776E+02</pdfrwt>
<totfact> 0.10071201E+04</totfact>
</mgrwt>
</event>
<event>
 7    1  0.3113151E-004  0.3747233E+02  0.7546771E-02  0.1602069E+00
          1   -1    0    0  503    0 -0.00000000000E+00  0.00000000000E+00  0.85351522589E+03  0.85351522589E+03  0.00000000000E+00 0. -1.
          2   -1    0    0  502    0  0.00000000000E+00 -0.00000000000E+00 -0.54663470115E+02  0.54663470115E+02  0.00000000000E+00 0. -1.
         25    2    1    2    0    0  0.54702872087E+02 -0.20060268691E+02  0.96219948403E+02  0.16816025844E+03  0.12499910182E+03 0.  0.
          4    1    3    3  501    0  0.76868579838E+02 -0.30638042882E+02  0.11176200844E+03  0.13906770893E+03  0.12700000000E+01 0.  1.
         -4    1    3    3    0  501 -0.22165707751E+02  0.10577774191E+02 -0.15542060034E+02  0.29092549511E+02  0.12700000000E+01 0.  1.
          2    1    1    2  502    0 -0.32232575761E+02  0.13354943776E+02 -0.20468554288E+01  0.34949722182E+02  0.00000000000E+00 0. -1.
          1    1    1    2  503    0 -0.22470296326E+02  0.67053249148E+01  0.70467866280E+03  0.70506871538E+03  0.00000000000E+00 0. -1.
<mgrwt>
<rscale>  0 0.29642951E+02</rscale>
<asrwt>0</asrwt>
<pdfrwt beam="2">  1        2 0.84097652E-02 0.37472326E+02</pdfrwt>
<pdfrwt beam="1">  1        1 0.13131003E+00 0.23449426E+02</pdfrwt>
<totfact> 0.22367901E+03</totfact>
</mgrwt>
</event>
<event>
 7    1  0.3113151E-004  0.1130101E+03  0.7546771E-02  0.1306829E+00
          1   -1    0    0  503    0  0.00000000000E+00  0.00000000000E+00  0.51934818285E+03  0.51934818285E+03  0.00000000000E+00 0. -1.
          1   -1    0    0  502    0 -0.00000000000E+00 -0.00000000000E+00 -0.14918952905E+03  0.14918952905E+03  0.00000000000E+00 0.  1.
         25    2    1    2    0    0  0.15626070482E+03  0.98490803732E+01  0.10757404112E+03  0.22740099691E+03  0.12499850726E+03 0.  0.
          4    1    3    3  501    0  0.15913822930E+03  0.42383126868E+02  0.74024978606E+02  0.18056194457E+03  0.12700000000E+01 0. -1.
         -4    1    3    3    0  501 -0.28775244860E+01 -0.32534046494E+02  0.33549062516E+02  0.46839052341E+02  0.12700000000E+01 0. -1.
          1    1    1    2  502    0 -0.10116190291E+03  0.31875008220E+02 -0.52650655603E+02  0.11841384330E+03  0.00000000000E+00 0.  1.
          1    1    1    2  503    0 -0.55098801905E+02 -0.41724088593E+02  0.31523526829E+03  0.32272287169E+03  0.00000000000E+00 0. -1.
<mgrwt>
<rscale>  0 0.88377655E+02</rscale>
<asrwt>0</asrwt>
<pdfrwt beam="1">  1        1 0.79899719E-01 0.69114235E+02</pdfrwt>
<pdfrwt beam="2">  1        1 0.22952236E-01 0.11301015E+03</pdfrwt>
<totfact> 0.11075757E+03</totfact>
</mgrwt>
</event>
<event>
 7    1  0.3113151E-004  0.8354925E+02  0.7546771E-02  0.1363347E+00
          1   -1    0    0  503    0  0.00000000000E+00  0.00000000000E+00  0.49835434175E+03  0.49835434175E+03  0.00000000000E+00 0. -1.
          1   -1    0    0  502    0 -0.00000000000E+00 -0.00000000000E+00 -0.67104303230E+03  0.67104303230E+03  0.00000000000E+00 0. -1.
         25    2    1    2    0    0  0.47175927631E+02 -0.12743451426E+03 -0.14556248964E+03  0.23509815941E+03  0.12497032685E+03 0.  0.
          4    1    3    3  501    0 -0.13330280972E+02 -0.53537806398E+02  0.64553889700E+01  0.55563279705E+02  0.12700000000E+01 0. -1.
         -4    1    3    3    0  501  0.60506208603E+02 -0.73896707866E+02 -0.15201787861E+03  0.17953487970E+03  0.12700000000E+01 0. -1.
          1    1    1    2  502    0 -0.20313713426E+02  0.77081511502E+02 -0.47558729020E+03  0.48222139829E+03  0.00000000000E+00 0. -1.
          1    1    1    2  503    0 -0.26862214204E+02  0.50353002762E+02  0.44846108929E+03  0.45207781636E+03  0.00000000000E+00 0. -1.
<mgrwt>
<rscale>  0 0.69051933E+02</rscale>
<asrwt>0</asrwt>
<pdfrwt beam="1">  1        1 0.76669900E-01 0.57070162E+02</pdfrwt>
<pdfrwt beam="2">  1        1 0.10323739E+00 0.83549252E+02</pdfrwt>
<totfact> 0.17764770E+02</totfact>
</mgrwt>
</event>
<event>
 7    1  0.3113151E-004  0.2963023E+03  0.7546771E-02  0.1234634E+00
          2   -1    0    0  503    0  0.00000000000E+00  0.00000000000E+00  0.14217318973E+04  0.14217318973E+04  0.00000000000E+00 0.  1.
          2   -1    0    0  502    0 -0.00000000000E+00 -0.00000000000E+00 -0.15790800574E+04  0.15790800574E+04  0.00000000000E+00 0.  1.
         25    2    1    2    0    0 -0.23754265389E+03  0.75586454359E+02 -0.17006929784E+03  0.32663245995E+03  0.12500149330E+03 0.  0.
          4    1    3    3  501    0 -0.22231227207E+02  0.54789511294E+02 -0.58709966756E+02  0.83334213307E+02  0.12700000000E+01 0.  1.
         -4    1    3    3    0  501 -0.21531142669E+03  0.20796943064E+02 -0.11135933108E+03  0.24329824665E+03  0.12700000000E+01 0.  1.
          2    1    1    2  502    0 -0.41709059566E+02  0.32650682506E+02 -0.13134972462E+04  0.13145648438E+04  0.00000000000E+00 0.  1.
          2    1    1    2  503    0  0.27925171346E+03 -0.10823713686E+03  0.13262183839E+04  0.13596146510E+04  0.00000000000E+00 0.  1.
<mgrwt>
<rscale>  0 0.12527902E+03</rscale>
<asrwt>0</asrwt>
<pdfrwt beam="1">  1        2 0.21872799E+00 0.29630234E+03</pdfrwt>
<pdfrwt beam="2">  1        2 0.24293539E+00 0.52968979E+02</pdfrwt>
<totfact> 0.33364792E+01</totfact>
</mgrwt>
</event>
<event>
 7    1  0.3113151E-004  0.5969063E+02  0.7546771E-02  0.1498469E+00
          1   -1    0    0  503    0 -0.00000000000E+00  0.00000000000E+00  0.21191487279E+04  0.21191487279E+04  0.00000000000E+00 0. -1.
          2   -1    0    0  502    0  0.00000000000E+00 -0.00000000000E+00 -0.12902009718E+04  0.12902009718E+04  0.00000000000E+00 0. -1.
         25    2    1    2    0    0  0.89228004233E+01 -0.41295719395E+02 -0.30557718254E+03  0.33284692758E+03  0.12499883960E+03 0.  0.
          4    1    3    3  501    0  0.63836939921E+02 -0.38261800235E+02 -0.20672769912E+03  0.21972044679E+03  0.12700000000E+01 0.  1.
         -4    1    3    3    0  501 -0.54914139497E+02 -0.30339191598E+01 -0.98849483423E+02  0.11312648079E+03  0.12700000000E+01 0.  1.
          2    1    1    2  502    0 -0.36489907921E+02  0.49105307816E+02 -0.96992763262E+03  0.97185516264E+03  0.00000000000E+00 0. -1.
          1    1    1    2  503    0  0.27567107497E+02 -0.78095884210E+01  0.21044525713E+04  0.21046476094E+04  0.00000000000E+00 0. -1.
<mgrwt>
<rscale>  0 0.41355216E+02</rscale>
<asrwt>0</asrwt>
<pdfrwt beam="2">  1        2 0.19849246E+00 0.59690631E+02</pdfrwt>
<pdfrwt beam="1">  1        1 0.32602288E+00 0.28651965E+02</pdfrwt>
<totfact> 0.10323566E+01</totfact>
</mgrwt>
</event>
<event>
 7    1  0.3113151E-004  0.6732387E+02  0.7546771E-02  0.1469341E+00
         -1   -1    0    0    0  501  0.00000000000E+00  0.00000000000E+00  0.20108811386E+03  0.20108811386E+03  0.00000000000E+00 0.  1.
         -1   -1    0    0    0  502 -0.00000000000E+00 -0.00000000000E+00 -0.10542141099E+03  0.10542141099E+03  0.00000000000E+00 0.  1.
         25    2    1    2    0    0  0.93114777045E+02  0.64831598834E+01  0.47036684653E+02  0.16293712937E+03  0.12499466132E+03 0.  0.
          4    1    3    3  503    0 -0.23131465814E+02 -0.25911663301E+00  0.40063630804E+02  0.46280009349E+02  0.12700000000E+01 0.  1.
         -4    1    3    3    0  503  0.11624624286E+03  0.67422765164E+01  0.69730538488E+01  0.11665712002E+03  0.12700000000E+01 0.  1.
         -1    1    1    2    0  501 -0.62444751498E+02 -0.90892063805E+00  0.78559266783E+02  0.10035801674E+03  0.00000000000E+00 0.  1.
         -1    1    1    2    0  502 -0.30670025547E+02 -0.55742392454E+01 -0.29929248561E+02  0.43214378737E+02  0.00000000000E+00 0.  1.
<mgrwt>
<rscale>  0 0.45811036E+02</rscale>
<asrwt>0</asrwt>
<pdfrwt beam="1">  1       -1 0.30936633E-01 0.67323869E+02</pdfrwt>
<pdfrwt beam="2">  1       -1 0.16218679E-01 0.31172466E+02</pdfrwt>
<totfact> 0.20377565E+03</totfact>
</mgrwt>
</event>
<event>
 7    1  0.3113151E-004  0.1059393E+03  0.7546771E-02  0.1338606E+00
         -2   -1    0    0    0  501 -0.00000000000E+00  0.00000000000E+00  0.62720563596E+02  0.62720563596E+02  0.00000000000E+00 0.  1.
          1   -1    0    0  503    0  0.00000000000E+00 -0.00000000000E+00 -0.51645867629E+03  0.51645867629E+03  0.00000000000E+00 0. -1.
         25    2    1    2    0    0 -0.14620581691E+03  0.17834639418E+02 -0.24129851116E+03  0.30908012580E+03  0.12494533770E+03 0.  0.
          4    1    3    3  502    0 -0.11698260544E+03  0.65685210541E+02 -0.14431122838E+03  0.19704522424E+03  0.12700000000E+01 0.  1.
         -4    1    3    3    0  502 -0.29223211472E+02 -0.47850571123E+02 -0.96987282781E+02  0.11203490156E+03  0.12700000000E+01 0.  1.
          1    1    1    2  503    0  0.90673506450E+02 -0.19868308409E+02 -0.18743927844E+03  0.20916480955E+03  0.00000000000E+00 0. -1.
         -2    1    1    2    0  501  0.55532310464E+02  0.20336689918E+01 -0.25000323094E+02  0.60934304540E+02  0.00000000000E+00 0.  1.
<mgrwt>
<rscale>  0 0.76726761E+02</rscale>
<asrwt>0</asrwt>
<pdfrwt beam="2">  1        1 0.79455176E-01 0.10593927E+03</pdfrwt>
<pdfrwt beam="1">  1       -2 0.96493180E-02 0.55569536E+02</pdfrwt>
<totfact> 0.24591526E+03</totfact>
</mgrwt>
</event>
<event>
 7    1  0.3113151E-004  0.1296787E+03  0.7546771E-02  0.1351759E+00
          1   -1    0    0  503    0 -0.00000000000E+00  0.00000000000E+00  0.29908197065E+03  0.29908197065E+03  0.00000000000E+00 0. -1.
          2   -1    0    0  502    0  0.00000000000E+00 -0.00000000000E+00 -0.17239206478E+04  0.17239206478E+04  0.00000000000E+00 0. -1.
         25    2    1    2    0    0 -0.25268728377E+02 -0.11905851235E+03  0.71783321954E+01  0.17461510861E+03  0.12500187881E+03 0.  0.
          4    1    3    3  501    0 -0.57696215147E+02 -0.45384344529E+02 -0.37609266125E+02  0.82490373797E+02  0.12700000000E+01 0. -1.
         -4    1    3    3    0  501  0.32427486770E+02 -0.73674167818E+02  0.44787598321E+02  0.92124734818E+02  0.12700000000E+01 0. -1.
          2    1    1    2  502    0 -0.13955289914E+02  0.12932171748E+03 -0.16356215162E+04  0.16407853610E+04  0.00000000000E+00 0. -1.
          1    1    1    2  503    0  0.39224018290E+02 -0.10263205131E+02  0.20360450684E+03  0.20760214882E+03  0.00000000000E+00 0. -1.
<mgrwt>
<rscale>  0 0.72510393E+02</rscale>
<asrwt>0</asrwt>
<pdfrwt beam="2">  1        2 0.26521855E+00 0.12967866E+03</pdfrwt>
<pdfrwt beam="1">  1        1 0.46012612E-01 0.40544506E+02</pdfrwt>
<totfact> 0.13324076E+02</totfact>
</mgrwt>
</event>
<event>
 7    1  0.3113151E-004  0.1179143E+03  0.7546771E-02  0.1353250E+00
          1   -1    0    0  502    0  0.00000000000E+00  0.00000000000E+00  0.13501070132E+04  0.13501070132E+04  0.00000000000E+00 0. -1.
          3   -1    0    0  503    0 -0.00000000000E+00 -0.00000000000E+00 -0.50654936946E+03  0.50654936946E+03  0.00000000000E+00 0. -1.
         25    2    1    2    0    0  0.29987729714E+02  0.10785173582E+03  0.50066615469E+03  0.52803865170E+03  0.12500783329E+03 0.  0.
          4    1    3    3  501    0  0.29095561971E+02  0.13451588756E+03  0.45243226458E+03  0.47290341791E+03  0.12700000000E+01 0. -1.
         -4    1    3    3    0  501  0.89216774333E+00 -0.26664151731E+02  0.48233890108E+02  0.55135233796E+02  0.12700000000E+01 0. -1.
          1    1    1    2  502    0  0.41736483357E+02 -0.14018609952E+02  0.82808589270E+03  0.82925551017E+03  0.00000000000E+00 0. -1.
          3    1    1    2  503    0 -0.71724213071E+02 -0.93833125873E+02 -0.48519440362E+03  0.49936222080E+03  0.00000000000E+00 0. -1.
<mgrwt>
<rscale>  0 0.72052190E+02</rscale>
<asrwt>0</asrwt>
<pdfrwt beam="1">  1        1 0.20770877E+00 0.44027894E+02</pdfrwt>
<pdfrwt beam="2">  1        3 0.77930673E-01 0.11791429E+03</pdfrwt>
<totfact> 0.89867198E+00</totfact>
</mgrwt>
</event>
<event>
 7    1  0.3113151E-004  0.7655902E+02  0.7546771E-02  0.1458138E+00
         -1   -1    0    0    0  501 -0.00000000000E+00  0.00000000000E+00  0.86062554617E+02  0.86062554617E+02  0.00000000000E+00 0.  1.
          2   -1    0    0  503    0  0.00000000000E+00 -0.00000000000E+00 -0.24911840107E+03  0.24911840107E+03  0.00000000000E+00 0. -1.
         25    2    1    2    0    0 -0.31863546739E+02  0.96170760011E+02 -0.11995306500E+03  0.20069590738E+03  0.12500403491E+03 0.  0.
          4    1    3    3  502    0 -0.72886922369E+02  0.23769681211E+02 -0.46370482226E+02  0.89606560692E+02  0.12700000000E+01 0.  1.
         -4    1    3    3    0  502  0.41023375629E+02  0.72401078800E+02 -0.73582582777E+02  0.11108934669E+03  0.12700000000E+01 0.  1.
          2    1    1    2  503    0  0.12255993148E+02 -0.27079175184E+02 -0.54197601138E+02  0.61813194917E+02  0.00000000000E+00 0. -1.
         -1    1    1    2    0  501  0.19607553592E+02 -0.69091584828E+02  0.11094819685E+02  0.72671853394E+02  0.00000000000E+00 0.  1.
<mgrwt>
<rscale>  0 0.47703333E+02</rscale>
<asrwt>0</asrwt>
<pdfrwt beam="2">  1        2 0.38325907E-01 0.29723578E+02</pdfrwt>
<pdfrwt beam="1">  1       -1 0.13240393E-01 0.76559019E+02</pdfrwt>
<totfact> 0.54018331E+03</totfact>
</mgrwt>
</event>
<event>
 7    1  0.3113151E-004  0.1075209E+03  0.7546771E-02  0.1289072E+00
         -1   -1    0    0    0  501 -0.00000000000E+00  0.00000000000E+00  0.18433770388E+04  0.18433770388E+04  0.00000000000E+00 0.  1.
          3   -1    0    0  503    0  0.00000000000E+00 -0.00000000000E+00 -0.64887498424E+02  0.64887498424E+02  0.00000000000E+00 0. -1.
         25    2    1    2    0    0 -0.58025825740E+02 -0.16831604128E+03  0.86430786582E+03  0.89125116136E+03  0.12491300775E+03 0.  0.
          4    1    3    3  502    0 -0.18398189772E+02 -0.45250906012E+02  0.63768149906E+02  0.80337585999E+02  0.12700000000E+01 0.  1.
         -4    1    3    3    0  502 -0.39627635969E+02 -0.12306513526E+03  0.80053971592E+03  0.81091357536E+03  0.12700000000E+01 0.  1.
          3    1    1    2  503    0  0.62310967981E+02  0.82816322888E+02  0.49472534515E+01  0.10375777264E+03  0.00000000000E+00 0. -1.
         -1    1    1    2    0  501 -0.42851422402E+01  0.85499718387E+02  0.90923442107E+03  0.91325560319E+03  0.00000000000E+00 0.  1.
<mgrwt>
<rscale>  0 0.95940307E+02</rscale>
<asrwt>0</asrwt>
<pdfrwt beam="2">  1        3 0.99826935E-02 0.10752087E+03</pdfrwt>
<pdfrwt beam="1">  1       -1 0.28359643E+00 0.85607034E+02</pdfrwt>
<totfact> 0.17734703E+01</totfact>
</mgrwt>
</event>
<event>
 7    1  0.3113151E-004  0.5277683E+02  0.7546771E-02  0.1441756E+00
         -3   -1    0    0    0  502 -0.00000000000E+00  0.00000000000E+00  0.18739479476E+03  0.18739479476E+03  0.00000000000E+00 0.  1.
         -1   -1    0    0    0  501  0.00000000000E+00 -0.00000000000E+00 -0.16217258297E+03  0.16217258297E+03  0.00000000000E+00 0.  1.
         25    2    1    2    0    0  0.54687734125E+01  0.14030435415E+02 -0.96337430220E+01  0.12626938474E+03  0.12499755165E+03 0.  0.
          4    1    3    3  503    0  0.18454878268E+02 -0.24930280854E+02  0.46984292952E+02  0.56313747163E+02  0.12700000000E+01 0.  1.
         -4    1    3    3    0  503 -0.12986104855E+02  0.38960716269E+02 -0.56618035974E+02  0.69955637579E+02  0.12700000000E+01 0.  1.
         -1    1    1    2    0  501  0.48453587274E+02  0.43554074741E+01 -0.80832270678E+02  0.94342862353E+02  0.00000000000E+00 0.  1.
         -3    1    1    2    0  502 -0.53922360686E+02 -0.18385842889E+02  0.11568822549E+03  0.12895513063E+03  0.00000000000E+00 0.  1.
<mgrwt>
<rscale>  0 0.50670870E+02</rscale>
<asrwt>0</asrwt>
<pdfrwt beam="2">  1       -1 0.24949628E-01 0.48648943E+02</pdfrwt>
<pdfrwt beam="1">  1       -3 0.28829968E-01 0.52776832E+02</pdfrwt>
<totfact> 0.63386082E+02</totfact>
</mgrwt>
</event>
<event>
 7    1  0.3113151E-004  0.9523826E+02  0.7546771E-02  0.1315339E+00
          2   -1    0    0  503    0  0.00000000000E+00  0.00000000000E+00  0.15470309569E+04  0.15470309569E+04  0.00000000000E+00 0. -1.
          2   -1    0    0  502    0 -0.00000000000E+00 -0.00000000000E+00 -0.40071546762E+03  0.40071546762E+03  0.00000000000E+00 0. -1.
         25    2    1    2    0    0  0.10965297516E+03 -0.73858392719E+02 -0.88807810203E+01  0.18215902363E+03  0.12499681788E+03 0.  0.
          4    1    3    3  501    0  0.89756656996E+02 -0.56164524139E+01  0.37314361863E+02  0.97374414063E+02  0.12700000000E+01 0. -1.
         -4    1    3    3    0  501  0.19896318167E+02 -0.68241940305E+02 -0.46195142883E+02  0.84784609566E+02  0.12700000000E+01 0. -1.
          2    1    1    2  502    0 -0.14650251699E+02  0.74499173169E+02 -0.29889911627E+03  0.30839169636E+03  0.00000000000E+00 0. -1.
          2    1    1    2  503    0 -0.95002723463E+02 -0.64078044961E+00  0.14540953866E+04  0.14571957045E+04  0.00000000000E+00 0. -1.
<mgrwt>
<rscale>  0 0.85035638E+02</rscale>
<asrwt>0</asrwt>
<pdfrwt beam="1">  1        2 0.23800476E+00 0.95238262E+02</pdfrwt>
<pdfrwt beam="2">  1        2 0.61648534E-01 0.75925995E+02</pdfrwt>
<totfact> 0.17525640E+02</totfact>
</mgrwt>
</event>
<event>
 7    1  0.3113151E-004  0.7950029E+02  0.7546771E-02  0.1392805E+00
         -1   -1    0    0    0  502 -0.00000000000E+00  0.00000000000E+00  0.38901727501E+03  0.38901727501E+03  0.00000000000E+00 0.  1.
         -2   -1    0    0    0  501  0.00000000000E+00 -0.00000000000E+00 -0.84905292018E+02  0.84905292018E+02  0.00000000000E+00 0.  1.
         25    2    1    2    0    0 -0.55986332313E+02  0.22666904736E+02  0.20493852228E+03  0.24753481743E+03  0.12500171979E+03 0.  0.
          4    1    3    3  503    0  0.28224318581E+02  0.30950310636E+02  0.12218546491E+03  0.12917211241E+03  0.12700000000E+01 0.  1.
         -4    1    3    3    0  503 -0.84210650894E+02 -0.82834058999E+01  0.82753057367E+02  0.11836270503E+03  0.12700000000E+01 0.  1.
         -2    1    1    2    0  501  0.46633057636E+02 -0.68864117390E+02 -0.30367063460E+02  0.88538507280E+02  0.00000000000E+00 0.  1.
         -1    1    1    2    0  502  0.93532746775E+01  0.46197212653E+02  0.12954052417E+03  0.13784924231E+03  0.00000000000E+00 0.  1.
<mgrwt>
<rscale>  0 0.61214465E+02</rscale>
<asrwt>0</asrwt>
<pdfrwt beam="2">  1       -2 0.13062353E-01 0.79500289E+02</pdfrwt>
<pdfrwt beam="1">  1       -1 0.59848811E-01 0.47134554E+02</pdfrwt>
<totfact> 0.89683920E+02</totfact>
</mgrwt>
</event>
<event>
 7    1  0.3113151E-004  0.1570407E+03  0.7546771E-02  0.1406747E+00
          1   -1    0    0  503    0  0.00000000000E+00  0.00000000000E+00  0.17643729275E+04  0.17643729275E+04  0.00000000000E+00 0. -1.
         -1   -1    0    0    0  501 -0.00000000000E+00 -0.00000000000E+00 -0.57529132046E+02  0.57529132046E+02  0.00000000000E+00 0.  1.
         25    2    1    2    0    0 -0.96680643621E+02 -0.14591128057E+03  0.12697489991E+04  0.12878369785E+04  0.12499725530E+03 0.  0.
          4    1    3    3  502    0 -0.10364470365E+03 -0.44173183475E+02  0.70693053229E+03  0.71585325669E+03  0.12700000000E+01 0.  1.
         -4    1    3    3    0  502  0.69640600300E+01 -0.10173809710E+03  0.56281846681E+03  0.57198372181E+03  0.12700000000E+01 0.  1.
          1    1    1    2  503    0  0.17432588156E+02  0.12354806277E+02  0.36009013803E+03  0.36072350059E+03  0.00000000000E+00 0. -1.
         -1    1    1    2    0  501  0.79248055465E+02  0.13355647430E+03  0.77004658372E+02  0.17334158051E+03  0.00000000000E+00 0.  1.
<mgrwt>
<rscale>  0 0.57926190E+02</rscale>
<asrwt>0</asrwt>
<pdfrwt beam="1">  1        1 0.27144195E+00 0.21366712E+02</pdfrwt>
<pdfrwt beam="2">  1       -1 0.88506370E-02 0.15704071E+03</pdfrwt>
<totfact> 0.46011940E+02</totfact>
</mgrwt>
</event>
<event>
 7    1  0.3113151E-004  0.7975868E+02  0.7546771E-02  0.1329774E+00
          1   -1    0    0  503    0 -0.00000000000E+00  0.00000000000E+00  0.87220061312E+02  0.87220061312E+02  0.00000000000E+00 0. -1.
          2   -1    0    0  502    0  0.00000000000E+00 -0.00000000000E+00 -0.14626030404E+04  0.14626030404E+04  0.00000000000E+00 0. -1.
         25    2    1    2    0    0 -0.59927098262E+02  0.56408614995E+02 -0.33787279640E+02  0.15342565243E+03  0.12499864642E+03 0.  0.
          4    1    3    3  501    0 -0.27834270594E+02  0.42821004919E+02 -0.80371268909E+02  0.95234126487E+02  0.12700000000E+01 0. -1.
         -4    1    3    3    0  501 -0.32092827669E+02  0.13587610077E+02  0.46583989268E+02  0.58191525942E+02  0.12700000000E+01 0. -1.
          2    1    1    2  502    0  0.77596271874E+02  0.21368289820E+02 -0.13069719118E+04  0.13094477323E+04  0.00000000000E+00 0. -1.
          1    1    1    2  503    0 -0.17669173611E+02 -0.77776904816E+02 -0.34623787602E+02  0.86949717002E+02  0.00000000000E+00 0. -1.
<mgrwt>
<rscale>  0 0.79746032E+02</rscale>
<asrwt>0</asrwt>
<pdfrwt beam="2">  1        2 0.22501584E+00 0.79733389E+02</pdfrwt>
<pdfrwt beam="1">  1        1 0.13418472E-01 0.79758677E+02</pdfrwt>
<totfact> 0.87107350E+02</totfact>
</mgrwt>
</event>
<event>
 7    1  0.3113151E-004  0.7908449E+02  0.7546771E-02  0.1467152E+00
         -3   -1    0    0    0  501 -0.00000000000E+00  0.00000000000E+00  0.75795012647E+03  0.75795012647E+03  0.00000000000E+00 0.  1.
          2   -1    0    0  503    0  0.00000000000E+00 -0.00000000000E+00 -0.15526376870E+04  0.15526376870E+04  0.00000000000E+00 0. -1.
         25    2    1    2    0    0  0.95795471989E+02  0.38924233016E+01 -0.97287525376E+03  0.98554747632E+03  0.12500258111E+03 0.  0.
          4    1    3    3  502    0  0.21140252196E+02 -0.55592157378E+02 -0.46368054669E+03  0.46748118733E+03  0.12700000000E+01 0.  1.
         -4    1    3    3    0  502  0.74655219793E+02  0.59484580680E+02 -0.50919470707E+03  0.51806628899E+03  0.12700000000E+01 0.  1.
          2    1    1    2  503    0 -0.19889355077E+02  0.18196460037E+02 -0.57102872075E+03  0.57166467227E+03  0.00000000000E+00 0. -1.
         -3    1    1    2    0  501 -0.75906116912E+02 -0.22088883338E+02  0.74921641402E+03  0.75337566485E+03  0.00000000000E+00 0.  1.
<mgrwt>
<rscale>  0 0.46172574E+02</rscale>
<asrwt>0</asrwt>
<pdfrwt beam="2">  1        2 0.23886733E+00 0.26957329E+02</pdfrwt>
<pdfrwt beam="1">  1       -3 0.11660771E+00 0.79084487E+02</pdfrwt>
<totfact> 0.60960150E+00</totfact>
</mgrwt>
</event>
<event>
 7    1  0.3113151E-004  0.8815563E+02  0.7546771E-02  0.1473798E+00
          2   -1    0    0  503    0  0.00000000000E+00  0.00000000000E+00  0.15957039778E+03  0.15957039778E+03  0.00000000000E+00 0. -1.
         -1   -1    0    0    0  501 -0.00000000000E+00 -0.00000000000E+00 -0.12128389739E+03  0.12128389739E+03  0.00000000000E+00 0.  1.
         25    2    1    2    0    0  0.66558702867E+02 -0.52737527074E+02  0.61441883596E+02  0.16312846602E+03  0.12499793469E+03 0.  0.
          4    1    3    3  502    0 -0.21267018155E+02 -0.42080226397E+02  0.57762211215E+02  0.74572900301E+02  0.12700000000E+01 0. -1.
         -4    1    3    3    0  502  0.87825721022E+02 -0.10657300677E+02  0.36796723808E+01  0.88555565718E+02  0.12700000000E+01 0. -1.
          2    1    1    2  503    0  0.15719886933E+02  0.16871430818E+02  0.51198727572E+01  0.23621454657E+02  0.00000000000E+00 0. -1.
         -1    1    1    2    0  501 -0.82278589801E+02  0.35866096255E+02 -0.28275255961E+02  0.94104374499E+02  0.00000000000E+00 0.  1.
<mgrwt>
<rscale>  0 0.45087271E+02</rscale>
<asrwt>0</asrwt>
<pdfrwt beam="1">  1        2 0.24549292E-01 0.23059922E+02</pdfrwt>
<pdfrwt beam="2">  1       -1 0.18659061E-01 0.88155630E+02</pdfrwt>
<totfact> 0.49771864E+03</totfact>
</mgrwt>
</event>
<event>
 7    1  0.3113151E-004  0.6041798E+02  0.7546771E-02  0.1478794E+00
          1   -1    0    0  502    0  0.00000000000E+00  0.00000000000E+00  0.37918219685E+03  0.37918219685E+03  0.00000000000E+00 0. -1.
          1   -1    0    0  503    0 -0.00000000000E+00 -0.00000000000E+00 -0.11188194234E+03  0.11188194234E+03  0.00000000000E+00 0. -1.
         25    2    1    2    0    0 -0.84802425069E+02  0.26633490830E+02  0.90293258879E+02  0.17798603030E+03  0.12500144100E+03 0.  0.
          4    1    3    3  501    0 -0.40597436080E+02  0.64030238996E+02  0.93015754063E+02  0.12000652785E+03  0.12700000000E+01 0.  1.
         -4    1    3    3    0  501 -0.44204988989E+02 -0.37396748166E+02 -0.27224951838E+01  0.57979502455E+02  0.12700000000E+01 0.  1.
          1    1    1    2  502    0  0.27825351127E+02 -0.16742344782E+02  0.23141209778E+03  0.23367951402E+03  0.00000000000E+00 0. -1.
          1    1    1    2  503    0  0.56977073943E+02 -0.98911460485E+01 -0.54405102149E+02  0.79398594856E+02  0.00000000000E+00 0. -1.
<mgrwt>
<rscale>  0 0.44294574E+02</rscale>
<asrwt>0</asrwt>
<pdfrwt beam="1">  1        1 0.58335722E-01 0.32473932E+02</pdfrwt>
<pdfrwt beam="2">  1        1 0.17212607E-01 0.60417978E+02</pdfrwt>
<totfact> 0.23095701E+03</totfact>
</mgrwt>
</event>
<event>
 7    1  0.3113151E-004  0.2028420E+03  0.7546771E-02  0.1294004E+00
          2   -1    0    0  503    0  0.00000000000E+00  0.00000000000E+00  0.22586654651E+04  0.22586654651E+04  0.00000000000E+00 0. -1.
         -3   -1    0    0    0  501 -0.00000000000E+00 -0.00000000000E+00 -0.37845653576E+02  0.37845653576E+02  0.00000000000E+00 0.  1.
         25    2    1    2    0    0 -0.14859754046E+03  0.12422929662E+03  0.82119853725E+03  0.85293952360E+03  0.12499858467E+03 0.  0.
          4    1    3    3  502    0  0.14067763069E+02  0.18717371834E+02  0.28672465505E+02  0.37040047844E+02  0.12700000000E+01 0. -1.
         -4    1    3    3    0  502 -0.16266530352E+03  0.10551192479E+03  0.79252607174E+03  0.81589947575E+03  0.12700000000E+01 0. -1.
          2    1    1    2  503    0  0.17387075155E+02  0.39693463638E+02  0.90744045674E+03  0.90847458080E+03  0.00000000000E+00 0. -1.
         -3    1    1    2    0  501  0.13121046530E+03 -0.16392276026E+03  0.49218081755E+03  0.53509701428E+03  0.00000000000E+00 0.  1.
<mgrwt>
<rscale>  0 0.93755333E+02</rscale>
<asrwt>0</asrwt>
<pdfrwt beam="1">  1        2 0.34748689E+00 0.43334529E+02</pdfrwt>
<pdfrwt beam="2">  1       -3 0.58224100E-02 0.20284200E+03</pdfrwt>
<totfact> 0.75105158E+02</totfact>
</mgrwt>
</event>
<event>
 7    1  0.3301382E-004  0.1006087E+03  0.7546771E-02  0.1297835E+00
          2   -1    0    0  503    0  0.00000000000E+00  0.00000000000E+00  0.22971115272E+04  0.22971115272E+04  0.00000000000E+00 0. -1.
         -2   -1    0    0    0  501 -0.00000000000E+00 -0.00000000000E+00 -0.14762814508E+02  0.14762814508E+02  0.00000000000E+00 0.  1.
         25    2    1    2    0    0  0.14480908237E+03  0.33343502234E+02  0.12020607219E+04  0.12176440356E+04  0.12500223555E+03 0.  0.
          4    1    3    3  502    0  0.56505057533E+02  0.76914763498E+02  0.56028392636E+03  0.56835586863E+03  0.12700000000E+01 0.  1.
         -4    1    3    3    0  502  0.88304024838E+02 -0.43571261265E+02  0.64177679550E+03  0.64928816696E+03  0.12700000000E+01 0.  1.
          2    1    1    2  503    0 -0.80461608688E+02  0.25209936301E+02  0.62968654835E+03  0.63530682393E+03  0.00000000000E+00 0. -1.
         -2    1    1    2    0  501 -0.64347473683E+02 -0.58553438534E+02  0.45060144243E+03  0.45892348213E+03  0.00000000000E+00 0.  1.
<mgrwt>
<rscale>  0 0.92104160E+02</rscale>
<asrwt>0</asrwt>
<pdfrwt beam="1">  1        2 0.35340149E+00 0.84318511E+02</pdfrwt>
<pdfrwt beam="2">  1       -2 0.22712041E-02 0.10060871E+03</pdfrwt>
<totfact> 0.34005597E+03</totfact>
</mgrwt>
</event>
<event>
 7    1  0.3113151E-004  0.1407086E+03  0.7546771E-02  0.1429069E+00
          1   -1    0    0  503    0  0.00000000000E+00  0.00000000000E+00  0.90336382058E+03  0.90336382058E+03  0.00000000000E+00 0. -1.
         -1   -1    0    0    0  501 -0.00000000000E+00 -0.00000000000E+00 -0.23423541515E+03  0.23423541515E+03  0.00000000000E+00 0.  1.
         25    2    1    2    0    0  0.87761593161E+02 -0.11411815138E+03  0.11694664116E+03  0.22366795206E+03  0.12500314471E+03 0.  0.
          4    1    3    3  502    0 -0.23356364817E+02 -0.21471699751E+02 -0.77309487056E+01  0.32679261552E+02  0.12700000000E+01 0.  1.
         -4    1    3    3    0  502  0.11111795798E+03 -0.92646451632E+02  0.12467758987E+03  0.19098869050E+03  0.12700000000E+01 0.  1.
          1    1    1    2  503    0 -0.10023407387E+03  0.98388677071E+02  0.72574496675E+03  0.73921103759E+03  0.00000000000E+00 0. -1.
         -1    1    1    2    0  501  0.12472480706E+02  0.15729474312E+02 -0.17356320248E+03  0.17472024608E+03  0.00000000000E+00 0.  1.
<mgrwt>
<rscale>  0 0.53147270E+02</rscale>
<asrwt>0</asrwt>
<pdfrwt beam="1">  1        1 0.13897905E+00 0.14070860E+03</pdfrwt>
<pdfrwt beam="2">  1       -1 0.36036218E-01 0.20074340E+02</pdfrwt>
<totfact> 0.14264953E+02</totfact>
</mgrwt>
</event>
<event>
 7    1  0.3113151E-004  0.9946538E+02  0.7546771E-02  0.1319965E+00
         -1   -1    0    0    0  502 -0.00000000000E+00  0.00000000000E+00  0.76344788264E+03  0.76344788264E+03  0.00000000000E+00 0.  1.
         -2   -1    0    0    0  501  0.00000000000E+00 -0.00000000000E+00 -0.67836810585E+02  0.67836810585E+02  0.00000000000E+00 0.  1.
         25    2    1    2    0    0  0.32767984374E+01 -0.10438879084E+03  0.23394561048E+03  0.28506717075E+03  0.12499994447E+03 0.  0.
          4    1    3    3  503    0  0.52237470508E+02 -0.92193628367E+01  0.10369037087E+03  0.11647770554E+03  0.12700000000E+01 0. -1.
         -4    1    3    3    0  503 -0.48960672071E+02 -0.95169428002E+02  0.13025523961E+03  0.16858946521E+03  0.12700000000E+01 0. -1.
         -2    1    1    2    0  501 -0.65855416724E+02  0.22968634905E+02 -0.35177107388E+01  0.69834578756E+02  0.00000000000E+00 0.  1.
         -1    1    1    2    0  502  0.62578618286E+02  0.81420155934E+02  0.46518317231E+03  0.47638294371E+03  0.00000000000E+00 0.  1.
<mgrwt>
<rscale>  0 0.83290485E+02</rscale>
<asrwt>0</asrwt>
<pdfrwt beam="2">  1       -2 0.10436433E-01 0.69745925E+02</pdfrwt>
<pdfrwt beam="1">  1       -1 0.11745351E+00 0.99465379E+02</pdfrwt>
<totfact> 0.30964075E+02</totfact>
</mgrwt>
</event>
<event>
 7    1  0.3113151E-004  0.4417697E+02  0.7546771E-02  0.1556748E+00
         -1   -1    0    0    0  501 -0.00000000000E+00  0.00000000000E+00  0.57957512344E+02  0.57957512344E+02  0.00000000000E+00 0.  1.
          2   -1    0    0  503    0  0.00000000000E+00 -0.00000000000E+00 -0.24160756878E+03  0.24160756878E+03  0.00000000000E+00 0. -1.
         25    2    1    2    0    0  0.42973675015E+02  0.26225615720E+02 -0.14284592265E+03  0.19638117911E+03  0.12500436084E+03 0.  0.
          4    1    3    3  502    0 -0.10952822373E+02  0.56038128297E+02 -0.11571539849E+03  0.12904225079E+03  0.12700000000E+01 0. -1.
         -4    1    3    3    0  502  0.53926497389E+02 -0.29812512577E+02 -0.27130524153E+02  0.67338928323E+02  0.12700000000E+01 0. -1.
          2    1    1    2  503    0 -0.22806650320E+02  0.13138684238E+02 -0.51360543792E+02  0.57711989924E+02  0.00000000000E+00 0. -1.
         -1    1    1    2    0  501 -0.20167024696E+02 -0.39364299958E+02  0.10556410006E+02  0.45471912083E+02  0.00000000000E+00 0.  1.
<mgrwt>
<rscale>  0 0.34099260E+02</rscale>
<asrwt>0</asrwt>
<pdfrwt beam="2">  1        2 0.37170395E-01 0.26320492E+02</pdfrwt>
<pdfrwt beam="1">  1       -1 0.89165405E-02 0.44176967E+02</pdfrwt>
<totfact> 0.96403931E+03</totfact>
</mgrwt>
</event>
<event>
 7    1  0.3113151E-004  0.1548913E+03  0.7546771E-02  0.1323262E+00
         -1   -1    0    0    0  501 -0.00000000000E+00  0.00000000000E+00  0.16031928298E+03  0.16031928298E+03  0.00000000000E+00 0.  1.
          2   -1    0    0  503    0  0.00000000000E+00 -0.00000000000E+00 -0.15571950177E+04  0.15571950177E+04  0.00000000000E+00 0.  1.
         25    2    1    2    0    0  0.12277708083E+03 -0.39415354026E+02 -0.14338669110E+03  0.22980732265E+03  0.12499552252E+03 0.  0.
          4    1    3    3  502    0  0.10178610453E+03  0.17761527876E+02 -0.13232281622E+03  0.16788931931E+03  0.12700000000E+01 0. -1.
         -4    1    3    3    0  502  0.20990976297E+02 -0.57176881902E+02 -0.11063874878E+02  0.61918003337E+02  0.12700000000E+01 0. -1.
          2    1    1    2  503    0 -0.13562680528E+03  0.80965109213E+02 -0.13618314042E+04  0.13709612514E+04  0.00000000000E+00 0.  1.
         -1    1    1    2    0  501  0.12849724450E+02 -0.41549755187E+02  0.10834236064E+03  0.11674572662E+03  0.00000000000E+00 0.  1.
<mgrwt>
<rscale>  0 0.82075782E+02</rscale>
<asrwt>0</asrwt>
<pdfrwt beam="2">  1        2 0.23956846E+00 0.15489135E+03</pdfrwt>
<pdfrwt beam="1">  1       -1 0.24664505E-01 0.43491351E+02</pdfrwt>
<totfact> 0.20717978E+02</totfact>
</mgrwt>
</event>
<event>
 7    1  0.3113151E-004  0.9809972E+02  0.7546771E-02  0.1321399E+00
          1   -1    0    0  503    0  0.00000000000E+00  0.00000000000E+00  0.64285818914E+03  0.64285818914E+03  0.00000000000E+00 0. -1.
          1   -1    0    0  502    0 -0.00000000000E+00 -0.00000000000E+00 -0.18708978744E+04  0.18708978744E+04  0.00000000000E+00 0.  1.
         25    2    1    2    0    0  0.64784691878E+02 -0.58759276501E+02 -0.13758941074E+03  0.20543579963E+03  0.12499325160E+03 0.  0.
          4    1    3    3  501    0  0.15738107209E+02 -0.73369253254E+02 -0.20736078839E+02  0.77860986426E+02  0.12700000000E+01 0.  1.
         -4    1    3    3    0  501  0.49046584669E+02  0.14609976753E+02 -0.11685333190E+03  0.12757481320E+03  0.12700000000E+01 0.  1.
          1    1    1    2  502    0  0.34092872684E+02  0.60927528804E+02 -0.16946459148E+04  0.16960835075E+04  0.00000000000E+00 0.  1.
          1    1    1    2  503    0 -0.98877564563E+02 -0.21682523034E+01  0.60419564033E+03  0.61223675639E+03  0.00000000000E+00 0. -1.
<mgrwt>
<rscale>  0 0.82759169E+02</rscale>
<asrwt>0</asrwt>
<pdfrwt beam="1">  1        1 0.98901259E-01 0.98099716E+02</pdfrwt>
<pdfrwt beam="2">  1        1 0.28783044E+00 0.69817532E+02</pdfrwt>
<totfact> 0.19078464E+01</totfact>
</mgrwt>
</event>
<event>
 7    1  0.3113151E-004  0.8462978E+02  0.7546771E-02  0.1495587E+00
         -1   -1    0    0    0  501 -0.00000000000E+00  0.00000000000E+00  0.51054656986E+03  0.51054656986E+03  0.00000000000E+00 0.  1.
          2   -1    0    0  503    0  0.00000000000E+00 -0.00000000000E+00 -0.19968484293E+04  0.19968484293E+04  0.00000000000E+00 0.  1.
         25    2    1    2    0    0  0.65054088835E+02 -0.32555997063E+02  0.21752202641E+03  0.26121069415E+03  0.12499306918E+03 0.  0.
          4    1    3    3  502    0  0.27891421035E+01  0.36859058932E+02  0.18352578926E+02  0.41289218838E+02  0.12700000000E+01 0. -1.
         -4    1    3    3    0  502  0.62264946732E+02 -0.69415055995E+02  0.19916944749E+03  0.21992147531E+03  0.12700000000E+01 0. -1.
          2    1    1    2  503    0 -0.82060262036E+02  0.20904844990E+02 -0.19737031235E+04  0.19755188987E+04  0.00000000000E+00 0.  1.
         -1    1    1    2    0  501  0.17006173201E+02  0.11651152072E+02  0.26987923767E+03  0.27066540635E+03  0.00000000000E+00 0.  1.
<mgrwt>
<rscale>  0 0.41768457E+02</rscale>
<asrwt>0</asrwt>
<pdfrwt beam="2">  1        2 0.30720745E+00 0.84629780E+02</pdfrwt>
<pdfrwt beam="1">  1       -1 0.78545627E-01 0.20614540E+02</pdfrwt>
<totfact> 0.17730929E+01</totfact>
</mgrwt>
</event>
<event>
 7    1  0.3113151E-004  0.4717531E+02  0.7546771E-02  0.1585920E+00
          1   -1    0    0  502    0  0.00000000000E+00  0.00000000000E+00  0.15234065215E+03  0.15234065215E+03  0.00000000000E+00 0. -1.
          1   -1    0    0  503    0 -0.00000000000E+00 -0.00000000000E+00 -0.14437339517E+03  0.14437339517E+03  0.00000000000E+00 0. -1.
         25    2    1    2    0    0  0.35592677888E+02  0.53134381600E+02 -0.88704351381E+02  0.16611634099E+03  0.12504429440E+03 0.  0.
          4    1    3    3  501    0  0.67035844277E+02  0.37729805805E+02 -0.70435645034E+01  0.77256503707E+02  0.12700000000E+01 0. -1.
         -4    1    3    3    0  501 -0.31443166390E+02  0.15404575796E+02 -0.81660786877E+02  0.88859837280E+02  0.12700000000E+01 0. -1.
          1    1    1    2  502    0 -0.17697193322E+02 -0.43047377052E+02  0.99513107684E+02  0.10985957365E+03  0.00000000000E+00 0. -1.
          1    1    1    2  503    0 -0.17895484566E+02 -0.10087004549E+02 -0.28414993194E+01  0.20738132679E+02  0.00000000000E+00 0. -1.
<mgrwt>
<rscale>  0 0.31130382E+02</rscale>
<asrwt>0</asrwt>
<pdfrwt beam="1">  1        1 0.23437023E-01 0.47175306E+02</pdfrwt>
<pdfrwt beam="2">  1        1 0.22211292E-01 0.20542542E+02</pdfrwt>
<totfact> 0.47712191E+03</totfact>
</mgrwt>
</event>
<event>
 7    1  0.3113151E-004  0.4541094E+02  0.7546771E-02  0.1565655E+00
         -3   -1    0    0    0  501 -0.00000000000E+00  0.00000000000E+00  0.78988440317E+02  0.78988440317E+02  0.00000000000E+00 0.  1.
          2   -1    0    0  503    0  0.00000000000E+00 -0.00000000000E+00 -0.65965552077E+03  0.65965552077E+03  0.00000000000E+00 0. -1.
         25    2    1    2    0    0  0.55756155250E+02  0.32217697724E+02 -0.22790019509E+02  0.14244583816E+03  0.12499881169E+03 0.  0.
          4    1    3    3  502    0  0.27701744735E+02  0.42295779988E+02  0.45431572834E+02  0.67985001113E+02  0.12700000000E+01 0.  1.
         -4    1    3    3    0  502  0.28054410516E+02 -0.10078082264E+02 -0.68221592342E+02  0.74460837043E+02  0.12700000000E+01 0.  1.
          2    1    1    2  503    0 -0.19379051765E+02 -0.14497835330E+02 -0.55511309610E+03  0.55564042720E+03  0.00000000000E+00 0. -1.
         -3    1    1    2    0  501 -0.36377103485E+02 -0.17719862394E+02 -0.27639648428E+01  0.40557695730E+02  0.00000000000E+00 0.  1.
<mgrwt>
<rscale>  0 0.33151679E+02</rscale>
<asrwt>0</asrwt>
<pdfrwt beam="2">  1        2 0.10148546E+00 0.24201960E+02</pdfrwt>
<pdfrwt beam="1">  1       -3 0.12152068E-01 0.45410941E+02</pdfrwt>
<totfact> 0.13309779E+03</totfact>
</mgrwt>
</event>
<event>
 7    1  0.3113151E-004  0.1084418E+03  0.7546771E-02  0.1308561E+00
         -1   -1    0    0    0  501 -0.00000000000E+00  0.00000000000E+00  0.24688993010E+03  0.24688993010E+03  0.00000000000E+00 0.  1.
          1   -1    0    0  503    0  0.00000000000E+00 -0.00000000000E+00 -0.16503302342E+03  0.16503302342E+03  0.00000000000E+00 0.  1.
         25    2    1    2    0    0  0.39234599913E+02  0.57690065691E+02  0.35181288829E+02  0.14740727709E+03  0.12499473888E+03 0.  0.
          4    1    3    3  502    0  0.78767047095E+01 -0.32787421750E+02  0.38991564751E+02  0.51565613773E+02  0.12700000000E+01 0. -1.
         -4    1    3    3    0  502  0.31357895203E+02  0.90477487441E+02 -0.38102759219E+01  0.95841663320E+02  0.12700000000E+01 0. -1.
          1    1    1    2  503    0  0.68489737733E+02  0.18323565493E+02 -0.61591650799E+02  0.93915540116E+02  0.00000000000E+00 0.  1.
         -1    1    1    2    0  501 -0.10772433765E+03 -0.76013631184E+02  0.10826726866E+03  0.17060013631E+03  0.00000000000E+00 0.  1.
<mgrwt>
<rscale>  0 0.87683299E+02</rscale>
<asrwt>0</asrwt>
<pdfrwt beam="2">  1        1 0.25389696E-01 0.70898499E+02</pdfrwt>
<pdfrwt beam="1">  1       -1 0.37983066E-01 0.10844180E+03</pdfrwt>
<totfact> 0.12296994E+03</totfact>
</mgrwt>
</event>
<event>
 7    1  0.3113151E-004  0.6805389E+02  0.7546771E-02  0.1385018E+00
          3   -1    0    0  503    0 -0.00000000000E+00  0.00000000000E+00  0.82575837533E+03  0.82575837533E+03  0.00000000000E+00 0. -1.
          1   -1    0    0  502    0  0.00000000000E+00 -0.00000000000E+00 -0.83186245432E+03  0.83186245432E+03  0.00000000000E+00 0. -1.
         25    2    1    2    0    0  0.24872728669E+02  0.53062565268E+02  0.63346625530E+02  0.15190050968E+03  0.12500672546E+03 0.  0.
          4    1    3    3  501    0  0.45492123242E+02 -0.23751851912E+02  0.18704843413E+01  0.51369206321E+02  0.12700000000E+01 0. -1.
         -4    1    3    3    0  501 -0.20619394573E+02  0.76814417180E+02  0.61476141189E+02  0.10053130336E+03  0.12700000000E+01 0. -1.
          1    1    1    2  502    0  0.43124137450E+02 -0.39712142111E+02 -0.78481810314E+03  0.78700457462E+03  0.00000000000E+00 0. -1.
          3    1    1    2  503    0 -0.67996866119E+02 -0.13350423157E+02  0.71536739862E+03  0.71871574535E+03  0.00000000000E+00 0. -1.
<mgrwt>
<rscale>  0 0.63163083E+02</rscale>
<asrwt>0</asrwt>
<pdfrwt beam="2">  1        1 0.12797884E+00 0.58623762E+02</pdfrwt>
<pdfrwt beam="1">  1        3 0.12703975E+00 0.68053891E+02</pdfrwt>
<totfact> 0.65941632E+00</totfact>
</mgrwt>
</event>
<event>
 7    1  0.5093051E-004  0.1001168E+03  0.7546771E-02  0.1351202E+00
         -1   -1    0    0    0  501 -0.00000000000E+00  0.00000000000E+00  0.52630473165E+02  0.52630473165E+02  0.00000000000E+00 0.  1.
          2   -1    0    0  503    0  0.00000000000E+00 -0.00000000000E+00 -0.56258826459E+03  0.56258826459E+03  0.00000000000E+00 0. -1.
         25    2    1    2    0    0  0.13187841075E+03 -0.29316687024E+02 -0.23781092199E+03  0.30071726914E+03  0.12500183191E+03 0.  0.
          4    1    3    3  502    0  0.19911268564E+02  0.45079704391E+02 -0.56107353472E+02  0.74687926584E+02  0.12700000000E+01 0.  1.
         -4    1    3    3    0  502  0.11196714218E+03 -0.74396391414E+02 -0.18170356852E+03  0.22602934256E+03  0.12700000000E+01 0.  1.
          2    1    1    2  503    0 -0.52471656441E+02 -0.55615738414E+01 -0.18163756575E+03  0.18914653348E+03  0.00000000000E+00 0. -1.
         -1    1    1    2    0  501 -0.79406754306E+02  0.34878260865E+02 -0.90509303676E+02  0.12535493513E+03  0.00000000000E+00 0.  1.
<mgrwt>
<rscale>  0 0.72682319E+02</rscale>
<asrwt>0</asrwt>
<pdfrwt beam="2">  1        2 0.86552036E-01 0.52765574E+02</pdfrwt>
<pdfrwt beam="1">  1       -1 0.80969963E-02 0.10011678E+03</pdfrwt>
<totfact> 0.50394494E+03</totfact>
</mgrwt>
</event>
<event>
 7    1  0.3113151E-004  0.1064938E+03  0.7546771E-02  0.1386734E+00
          2   -1    0    0  503    0  0.00000000000E+00  0.00000000000E+00  0.21775983345E+04  0.21775983345E+04  0.00000000000E+00 0. -1.
         -1   -1    0    0    0  501 -0.00000000000E+00 -0.00000000000E+00 -0.14239350718E+03  0.14239350718E+03  0.00000000000E+00 0.  1.
         25    2    1    2    0    0 -0.82419026321E+02  0.59647915980E+02  0.28850168725E+03  0.33046814621E+03  0.12500080933E+03 0.  0.
          4    1    3    3  502    0 -0.94033344692E+02  0.25058145489E+02  0.10418522166E+03  0.14257052249E+03  0.12700000000E+01 0.  1.
         -4    1    3    3    0  502  0.11614318370E+02  0.34589770492E+02  0.18431646559E+03  0.18789762372E+03  0.12700000000E+01 0.  1.
          2    1    1    2  503    0  0.22456398735E+02  0.29338902444E+02  0.18441829813E+04  0.18445530433E+04  0.00000000000E+00 0. -1.
         -1    1    1    2    0  501  0.59962627586E+02 -0.88986818424E+02 -0.97479841195E+02  0.14497065220E+03  0.00000000000E+00 0.  1.
<mgrwt>
<rscale>  0 0.62726372E+02</rscale>
<asrwt>0</asrwt>
<pdfrwt beam="1">  1        2 0.33501510E+00 0.36946732E+02</pdfrwt>
<pdfrwt beam="2">  1       -1 0.21906695E-01 0.10649379E+03</pdfrwt>
<totfact> 0.14738242E+02</totfact>
</mgrwt>
</event>
<event>
 7    1  0.3113151E-004  0.7097963E+02  0.7546771E-02  0.1400364E+00
          1   -1    0    0  503    0  0.00000000000E+00  0.00000000000E+00  0.60234427490E+03  0.60234427490E+03  0.00000000000E+00 0. -1.
          1   -1    0    0  502    0 -0.00000000000E+00 -0.00000000000E+00 -0.45976879391E+03  0.45976879391E+03  0.00000000000E+00 0. -1.
         25    2    1    2    0    0  0.11687461954E+02 -0.78824445932E+01 -0.28211981370E+03  0.30889502780E+03  0.12500327684E+03 0.  0.
          4    1    3    3  501    0  0.29391064852E+02  0.53107929342E+01 -0.43062253981E+01  0.30202577570E+02  0.12700000000E+01 0.  1.
         -4    1    3    3    0  501 -0.17703602898E+02 -0.13193237527E+02 -0.27781358830E+03  0.27869245023E+03  0.12700000000E+01 0.  1.
          1    1    1    2  502    0 -0.47403752255E+01  0.78521286681E+02 -0.15254325087E+03  0.17163189390E+03  0.00000000000E+00 0. -1.
          1    1    1    2  503    0 -0.69470867282E+01 -0.70638842087E+02  0.57723854556E+03  0.58158614710E+03  0.00000000000E+00 0. -1.
<mgrwt>
<rscale>  0 0.59400651E+02</rscale>
<asrwt>0</asrwt>
<pdfrwt beam="1">  1        1 0.92668350E-01 0.70979631E+02</pdfrwt>
<pdfrwt beam="2">  1        1 0.70733660E-01 0.49710561E+02</pdfrwt>
<totfact> 0.22931183E+02</totfact>
</mgrwt>
</event>
<event>
 7    1  0.3113151E-004  0.4338391E+02  0.7546771E-02  0.1541106E+00
          1   -1    0    0  503    0  0.00000000000E+00  0.00000000000E+00  0.55791187633E+02  0.55791187633E+02  0.00000000000E+00 0. -1.
         -2   -1    0    0    0  501 -0.00000000000E+00 -0.00000000000E+00 -0.28269442765E+03  0.28269442765E+03  0.00000000000E+00 0.  1.
         25    2    1    2    0    0 -0.25543221029E+02 -0.61150839204E+02 -0.90531511849E+02  0.16796841407E+03  0.12500220882E+03 0.  0.
          4    1    3    3  502    0  0.12824262159E+02  0.27804206451E+02  0.59719069098E+01  0.31221982135E+02  0.12700000000E+01 0.  1.
         -4    1    3    3    0  502 -0.38367483188E+02 -0.88955045655E+02 -0.96503418759E+02  0.13674643193E+03  0.12700000000E+01 0.  1.
          1    1    1    2  503    0  0.61479835745E+01  0.38739529654E+02 -0.96749955239E+01  0.40399930671E+02  0.00000000000E+00 0. -1.
         -2    1    1    2    0  501  0.19395237454E+02  0.22411309550E+02 -0.12669673265E+03  0.13011727055E+03  0.00000000000E+00 0.  1.
<mgrwt>
<rscale>  0 0.35858540E+02</rscale>
<asrwt>0</asrwt>
<pdfrwt beam="1">  1        1 0.85832596E-02 0.43383906E+02</pdfrwt>
<pdfrwt beam="2">  1       -2 0.43491451E-01 0.29638523E+02</pdfrwt>
<totfact> 0.30318269E+03</totfact>
</mgrwt>
</event>
<event>
 7    1  0.3113151E-004  0.1565746E+03  0.7546771E-02  0.1290655E+00
          1   -1    0    0  503    0  0.00000000000E+00  0.00000000000E+00  0.10401166695E+04  0.10401166695E+04  0.00000000000E+00 0. -1.
         -1   -1    0    0    0  501 -0.00000000000E+00 -0.00000000000E+00 -0.81682796361E+03  0.81682796361E+03  0.00000000000E+00 0.  1.
         25    2    1    2    0    0 -0.55491077076E+02  0.15090615754E+03 -0.41346370064E+03  0.46089996564E+03  0.12499847425E+03 0.  0.
          4    1    3    3  502    0 -0.19500370159E+02 -0.20593348310E+02 -0.55013855196E+02  0.61907088402E+02  0.12700000000E+01 0.  1.
         -4    1    3    3    0  502 -0.35990706917E+02  0.17149950585E+03 -0.35844984544E+03  0.39899287724E+03  0.12700000000E+01 0.  1.
          1    1    1    2  503    0 -0.48377605936E+02 -0.31852234674E+02  0.99908530352E+03  0.10007629096E+04  0.00000000000E+00 0. -1.
         -1    1    1    2    0  501  0.10386868301E+03 -0.11905392286E+03 -0.36233289696E+03  0.39528175784E+03  0.00000000000E+00 0.  1.
<mgrwt>
<rscale>  0 0.95231880E+02</rscale>
<asrwt>0</asrwt>
<pdfrwt beam="1">  1        1 0.16001795E+00 0.57921996E+02</pdfrwt>
<pdfrwt beam="2">  1       -1 0.12566584E+00 0.15657456E+03</pdfrwt>
<totfact> 0.10261375E+01</totfact>
</mgrwt>
</event>
<event>
 7    1  0.3113151E-004  0.1521725E+03  0.7546771E-02  0.1331907E+00
          2   -1    0    0  503    0  0.00000000000E+00  0.00000000000E+00  0.38071087598E+03  0.38071087598E+03  0.00000000000E+00 0.  1.
         -2   -1    0    0    0  501 -0.00000000000E+00 -0.00000000000E+00 -0.22804147980E+04  0.22804147980E+04  0.00000000000E+00 0.  1.
         25    2    1    2    0    0  0.51572722355E+02 -0.10288303891E+03 -0.14591854741E+03  0.22394408618E+03  0.12495625582E+03 0.  0.
          4    1    3    3  502    0  0.61499814654E+02 -0.41515804252E+02 -0.14369416651E+03  0.16172636024E+03  0.12700000000E+01 0. -1.
         -4    1    3    3    0  502 -0.99270922987E+01 -0.61367234655E+02 -0.22243809000E+01  0.62217725940E+02  0.12700000000E+01 0. -1.
          2    1    1    2  503    0  0.27799759522E+02 -0.30156279068E+02  0.33759198235E+03  0.34007436590E+03  0.00000000000E+00 0.  1.
         -2    1    1    2    0  501 -0.79372481877E+02  0.13303931798E+03 -0.20913773569E+04  0.20971072219E+04  0.00000000000E+00 0.  1.
<mgrwt>
<rscale>  0 0.79002232E+02</rscale>
<asrwt>0</asrwt>
<pdfrwt beam="1">  1        2 0.58570903E-01 0.41014970E+02</pdfrwt>
<pdfrwt beam="2">  1       -2 0.35083305E+00 0.15217255E+03</pdfrwt>
<totfact> 0.16803359E+00</totfact>
</mgrwt>
</event>
<event>
 7    1  0.3113151E-004  0.6889485E+02  0.7546771E-02  0.1377991E+00
          2   -1    0    0  502    0  0.00000000000E+00  0.00000000000E+00  0.13859251207E+04  0.13859251207E+04  0.00000000000E+00 0. -1.
          1   -1    0    0  503    0 -0.00000000000E+00 -0.00000000000E+00 -0.13289410938E+03  0.13289410938E+03  0.00000000000E+00 0. -1.
         25    2    1    2    0    0 -0.37827329282E+02  0.11785053700E+03  0.29642104064E+03  0.34468752051E+03  0.12499759017E+03 0.  0.
          4    1    3    3  501    0 -0.72492378966E+02  0.24956691778E+02  0.13415092747E+03  0.15451881994E+03  0.12700000000E+01 0. -1.
         -4    1    3    3    0  501  0.34665049685E+02  0.92893845222E+02  0.16227011316E+03  0.19016870057E+03  0.12700000000E+01 0. -1.
          2    1    1    2  502    0  0.34478902258E+02 -0.50703391668E+02  0.10540043732E+04  0.10557863644E+04  0.00000000000E+00 0. -1.
          1    1    1    2  503    0  0.33484270233E+01 -0.67147145332E+02 -0.97394402474E+02  0.11834534517E+03  0.00000000000E+00 0. -1.
<mgrwt>
<rscale>  0 0.64994949E+02</rscale>
<asrwt>0</asrwt>
<pdfrwt beam="1">  1        2 0.21321924E+00 0.61315811E+02</pdfrwt>
<pdfrwt beam="2">  1        1 0.20445249E-01 0.68894847E+02</pdfrwt>
<totfact> 0.56811177E+02</totfact>
</mgrwt>
</event>
<event>
 7    1  0.3113151E-004  0.1343998E+03  0.7546771E-02  0.1311104E+00
          2   -1    0    0  502    0  0.00000000000E+00  0.00000000000E+00  0.13697468486E+04  0.13697468486E+04  0.00000000000E+00 0. -1.
          2   -1    0    0  503    0 -0.00000000000E+00 -0.00000000000E+00 -0.16405166767E+04  0.16405166767E+04  0.00000000000E+00 0. -1.
         25    2    1    2    0    0  0.18412534433E+03  0.43761752233E+02  0.86915818728E+02  0.24288914321E+03  0.12499417170E+03 0.  0.
          4    1    3    3  501    0  0.15345290456E+03  0.83331782416E+02  0.53322120395E+02  0.18258379255E+03  0.12700000000E+01 0.  1.
         -4    1    3    3    0  501  0.30672439769E+02 -0.39570030183E+02  0.33593698333E+02  0.60305350656E+02  0.12700000000E+01 0.  1.
          2    1    1    2  502    0 -0.54958697837E+02 -0.10213547036E+02  0.12013438009E+04  0.12026436309E+04  0.00000000000E+00 0. -1.
          2    1    1    2  503    0 -0.12916664649E+03 -0.33548205197E+02 -0.15590294478E+04  0.15647307512E+04  0.00000000000E+00 0. -1.
<mgrwt>
<rscale>  0 0.86677036E+02</rscale>
<asrwt>0</asrwt>
<pdfrwt beam="1">  1        2 0.21073029E+00 0.55899687E+02</pdfrwt>
<pdfrwt beam="2">  1        2 0.25238718E+00 0.13439983E+03</pdfrwt>
<totfact> 0.34430808E+01</totfact>
</mgrwt>
</event>
<event>
 7    1  0.3113151E-004  0.4418717E+02  0.7546771E-02  0.1485117E+00
         -2   -1    0    0    0  501 -0.00000000000E+00  0.00000000000E+00  0.18375944734E+03  0.18375944734E+03  0.00000000000E+00 0.  1.
          1   -1    0    0  503    0  0.00000000000E+00 -0.00000000000E+00 -0.70389127539E+02  0.70389127539E+02  0.00000000000E+00 0. -1.
         25    2    1    2    0    0 -0.46477237212E+02  0.21362921855E+01  0.80358405086E+02  0.15571516869E+03  0.12500017268E+03 0.  0.
          4    1    3    3  502    0  0.71285038119E+01 -0.69192309789E+01 -0.30573094483E+02  0.32171700767E+02  0.12700000000E+01 0.  1.
         -4    1    3    3    0  502 -0.53605741024E+02  0.90555231643E+01  0.11093149957E+03  0.12354346793E+03  0.12700000000E+01 0.  1.
          1    1    1    2  503    0  0.26098243581E+02 -0.39395229010E+02  0.49114712699E+01  0.47510261384E+02  0.00000000000E+00 0. -1.
         -2    1    1    2    0  501  0.20378993632E+02  0.37258936825E+02  0.28100443445E+02  0.50923144802E+02  0.00000000000E+00 0.  1.
<mgrwt>
<rscale>  0 0.43319061E+02</rscale>
<asrwt>0</asrwt>
<pdfrwt beam="2">  1        1 0.10829097E-01 0.44187169E+02</pdfrwt>
<pdfrwt beam="1">  1       -2 0.28270684E-01 0.42468009E+02</pdfrwt>
<totfact> 0.49288539E+03</totfact>
</mgrwt>
</event>
<event>
 7    1  0.3113151E-004  0.9911362E+02  0.7546771E-02  0.1351677E+00
          1   -1    0    0  502    0  0.00000000000E+00  0.00000000000E+00  0.77354232579E+02  0.77354232579E+02  0.00000000000E+00 0. -1.
          1   -1    0    0  503    0 -0.00000000000E+00 -0.00000000000E+00 -0.13940999188E+04  0.13940999188E+04  0.00000000000E+00 0. -1.
         25    2    1    2    0    0 -0.43298064731E+02 -0.36392162423E+02 -0.12886751342E+03  0.18824583748E+03  0.12502218770E+03 0.  0.
          4    1    3    3  501    0 -0.26960134519E+02 -0.68065817676E+02 -0.13352248112E+03  0.15228154929E+03  0.12700000000E+01 0.  1.
         -4    1    3    3    0  501 -0.16337930213E+02  0.31673655253E+02  0.46549676985E+01  0.35964288190E+02  0.12700000000E+01 0.  1.
          1    1    1    2  502    0 -0.75273074043E+01 -0.52548051534E+02  0.30036630749E+02  0.60993091933E+02  0.00000000000E+00 0. -1.
          1    1    1    2  503    0  0.50825372136E+02  0.88940213957E+02 -0.12179148035E+04  0.12222152219E+04  0.00000000000E+00 0. -1.
<mgrwt>
<rscale>  0 0.72535448E+02</rscale>
<asrwt>0</asrwt>
<pdfrwt beam="1">  1        1 0.11900651E-01 0.53084443E+02</pdfrwt>
<pdfrwt beam="2">  1        1 0.21447692E+00 0.99113618E+02</pdfrwt>
<totfact> 0.50974087E+02</totfact>
</mgrwt>
</event>
<event>
 7    1  0.3113151E-004  0.2897801E+03  0.7546771E-02  0.1134133E+00
          2   -1    0    0  502    0  0.00000000000E+00  0.00000000000E+00  0.12787343473E+04  0.12787343473E+04  0.00000000000E+00 0. -1.
          2   -1    0    0  503    0 -0.00000000000E+00 -0.00000000000E+00 -0.91604734717E+03  0.91604734717E+03  0.00000000000E+00 0. -1.
         25    2    1    2    0    0  0.20122418178E+03 -0.12386935450E+03 -0.91403072682E+02  0.28251670127E+03  0.12500550580E+03 0.  0.
          4    1    3    3  501    0  0.42749786887E+02 -0.40089098150E+01 -0.70717082141E+02  0.82741369601E+02  0.12700000000E+01 0. -1.
         -4    1    3    3    0  501  0.15847439490E+03 -0.11986044469E+03 -0.20685990541E+02  0.19977533167E+03  0.12700000000E+01 0. -1.
          2    1    1    2  502    0 -0.29879847883E+03 -0.11062403326E+02  0.11543673492E+04  0.11924625296E+04  0.00000000000E+00 0. -1.
          2    1    1    2  503    0  0.97574297045E+02  0.13493175783E+03 -0.70027727639E+03  0.71980246355E+03  0.00000000000E+00 0. -1.
<mgrwt>
<rscale>  0 0.21966522E+03</rscale>
<asrwt>0</asrwt>
<pdfrwt beam="1">  1        2 0.19672836E+00 0.28978014E+03</pdfrwt>
<pdfrwt beam="2">  1        2 0.14093036E+00 0.16651523E+03</pdfrwt>
<totfact> 0.85230692E+01</totfact>
</mgrwt>
</event>
<event>
 7    1  0.3113151E-004  0.6088833E+02  0.7546771E-02  0.1473560E+00
          3   -1    0    0  503    0  0.00000000000E+00  0.00000000000E+00  0.61808644894E+02  0.61808644894E+02  0.00000000000E+00 0. -1.
         -2   -1    0    0    0  501 -0.00000000000E+00 -0.00000000000E+00 -0.43751701798E+03  0.43751701798E+03  0.00000000000E+00 0.  1.
         25    2    1    2    0    0 -0.90220319146E+01  0.48826038015E+02 -0.11893482114E+03  0.17954128407E+03  0.12499680779E+03 0.  0.
          4    1    3    3  502    0 -0.39958186482E+02 -0.29134241361E+02 -0.33075905279E+02  0.59507050814E+02  0.12700000000E+01 0.  1.
         -4    1    3    3    0  502  0.30936154568E+02  0.77960279376E+02 -0.85858915858E+02  0.12003423325E+03  0.12700000000E+01 0.  1.
          3    1    1    2  503    0  0.42464698178E+02 -0.49013794217E+02 -0.41785678327E+01  0.64985098630E+02  0.00000000000E+00 0. -1.
         -2    1    1    2    0  501 -0.33442666263E+02  0.18775620201E+00 -0.25259498411E+03  0.25479928018E+03  0.00000000000E+00 0.  1.
<mgrwt>
<rscale>  0 0.45125383E+02</rscale>
<asrwt>0</asrwt>
<pdfrwt beam="1">  1        3 0.95090222E-02 0.60888329E+02</pdfrwt>
<pdfrwt beam="2">  1       -2 0.67310311E-01 0.33443193E+02</pdfrwt>
<totfact> 0.59208890E+02</totfact>
</mgrwt>
</event>
<event>
 7    1  0.3113151E-004  0.8280756E+02  0.7546771E-02  0.1482574E+00
          1   -1    0    0  502    0  0.00000000000E+00  0.00000000000E+00  0.56110249917E+03  0.56110249917E+03  0.00000000000E+00 0. -1.
          1   -1    0    0  503    0 -0.00000000000E+00 -0.00000000000E+00 -0.17237922832E+03  0.17237922832E+03  0.00000000000E+00 0. -1.
         25    2    1    2    0    0 -0.72196857096E+02  0.80827372015E-01 -0.46454521240E+02  0.15164488573E+03  0.12500302443E+03 0.  0.
          4    1    3    3  501    0 -0.17385497365E+02  0.34157282503E+02 -0.72514442060E+02  0.82030071766E+02  0.12700000000E+01 0. -1.
         -4    1    3    3    0  501 -0.54811359730E+02 -0.34076455131E+02  0.26059920820E+02  0.69614813961E+02  0.12700000000E+01 0. -1.
          1    1    1    2  502    0 -0.14814365945E+02 -0.17685049898E+02  0.48126140666E+03  0.48181403878E+03  0.00000000000E+00 0. -1.
          1    1    1    2  503    0  0.87011223040E+02  0.17604222526E+02 -0.46083614567E+02  0.10002280299E+03  0.00000000000E+00 0. -1.
<mgrwt>
<rscale>  0 0.43707816E+02</rscale>
<asrwt>0</asrwt>
<pdfrwt beam="1">  1        1 0.86323461E-01 0.23070033E+02</pdfrwt>
<pdfrwt beam="2">  1        1 0.26519882E-01 0.82807561E+02</pdfrwt>
<totfact> 0.85702406E+02</totfact>
</mgrwt>
</event>
<event>
 7    1  0.3113151E-004  0.2592085E+03  0.7546771E-02  0.1336830E+00
         -1   -1    0    0    0  501 -0.00000000000E+00  0.00000000000E+00  0.83278771926E+03  0.83278771926E+03  0.00000000000E+00 0.  1.
          2   -1    0    0  503    0  0.00000000000E+00 -0.00000000000E+00 -0.17668717332E+03  0.17668717332E+03  0.00000000000E+00 0. -1.
         25    2    1    2    0    0  0.15439325702E+03  0.19817504977E+03  0.53396957308E+02  0.28563410484E+03  0.12499991454E+03 0.  0.
          4    1    3    3  502    0  0.15898862067E+03  0.18722740503E+03  0.15742737956E+02  0.24613193494E+03  0.12700000000E+01 0. -1.
         -4    1    3    3    0  502 -0.45953636479E+01  0.10947644738E+02  0.37654219352E+02  0.39502169907E+02  0.12700000000E+01 0. -1.
          2    1    1    2  503    0  0.22300013339E+02 -0.58902298938E+01 -0.30884644021E+02  0.38546681302E+02  0.00000000000E+00 0. -1.
         -1    1    1    2    0  501 -0.17669327036E+03 -0.19228481987E+03  0.63358823266E+03  0.68529410643E+03  0.00000000000E+00 0.  1.
<mgrwt>
<rscale>  0 0.77321375E+02</rscale>
<asrwt>0</asrwt>
<pdfrwt beam="2">  1        2 0.27182642E-01 0.23064809E+02</pdfrwt>
<pdfrwt beam="1">  1       -1 0.12812119E+00 0.25920852E+03</pdfrwt>
<totfact> 0.11808642E+02</totfact>
</mgrwt>
</event>
<event>
 7    1  0.3113151E-004  0.6599007E+02  0.7546771E-02  0.1496228E+00
         -3   -1    0    0    0  501 -0.00000000000E+00  0.00000000000E+00  0.10130913188E+03  0.10130913188E+03  0.00000000000E+00 0.  1.
          1   -1    0    0  503    0  0.00000000000E+00 -0.00000000000E+00 -0.50331311066E+03  0.50331311066E+03  0.00000000000E+00 0. -1.
         25    2    1    2    0    0  0.46262287705E+02  0.41953961109E+02 -0.13911879806E+03  0.19717969865E+03  0.12500183786E+03 0.  0.
          4    1    3    3  502    0 -0.68645826753E+01 -0.40240581732E+02 -0.52204534436E+02  0.66282374951E+02  0.12700000000E+01 0. -1.
         -4    1    3    3    0  502  0.53126870380E+02  0.82194542841E+02 -0.86914263624E+02  0.13089732369E+03  0.12700000000E+01 0. -1.
          1    1    1    2  503    0 -0.18483577932E+02  0.18738263228E+02 -0.31909582466E+03  0.32017949728E+03  0.00000000000E+00 0. -1.
         -3    1    1    2    0  501 -0.27778709773E+02 -0.60692224336E+02  0.56210643944E+02  0.87263046613E+02  0.00000000000E+00 0.  1.
<mgrwt>
<rscale>  0 0.41675979E+02</rscale>
<asrwt>0</asrwt>
<pdfrwt beam="2">  1        1 0.77432787E-01 0.26320432E+02</pdfrwt>
<pdfrwt beam="1">  1       -3 0.15586020E-01 0.65990072E+02</pdfrwt>
<totfact> 0.79849904E+02</totfact>
</mgrwt>
</event>
<event>
 7    1  0.3113151E-004  0.5113049E+02  0.7546771E-02  0.1520193E+00
          1   -1    0    0  503    0 -0.00000000000E+00  0.00000000000E+00  0.19195475091E+04  0.19195475091E+04  0.00000000000E+00 0. -1.
          2   -1    0    0  502    0  0.00000000000E+00 -0.00000000000E+00 -0.45868157231E+02  0.45868157231E+02  0.00000000000E+00 0. -1.
         25    2    1    2    0    0 -0.68781468171E+01 -0.42233286451E+02  0.13949191884E+04  0.14011625286E+04  0.12500372005E+03 0.  0.
          4    1    3    3  501    0 -0.66178813681E+01  0.42502561493E+02  0.65359036872E+03  0.65500553209E+03  0.12700000000E+01 0.  1.
         -4    1    3    3    0  501 -0.26026544895E+00 -0.84735847944E+02  0.74132881969E+03  0.74615699653E+03  0.12700000000E+01 0.  1.
          2    1    1    2  502    0 -0.28727931213E+02 -0.28094763021E+01 -0.36088841624E+02  0.46212462374E+02  0.00000000000E+00 0. -1.
          1    1    1    2  503    0  0.35606078030E+02  0.45042762754E+02  0.51484900507E+03  0.51804067533E+03  0.00000000000E+00 0. -1.
<mgrwt>
<rscale>  0 0.38417191E+02</rscale>
<asrwt>0</asrwt>
<pdfrwt beam="2">  1        2 0.70566411E-02 0.28864982E+02</pdfrwt>
<pdfrwt beam="1">  1        1 0.29531494E+00 0.51130485E+02</pdfrwt>
<totfact> 0.52429760E+02</totfact>
</mgrwt>
</event>
<event>
 7    1  0.3113151E-004  0.4155360E+02  0.7546771E-02  0.1520127E+00
         -1   -1    0    0    0  501 -0.00000000000E+00  0.00000000000E+00  0.18992085358E+03  0.18992085358E+03  0.00000000000E+00 0.  1.
          2   -1    0    0  503    0  0.00000000000E+00 -0.00000000000E+00 -0.73130967139E+02  0.73130967139E+02  0.00000000000E+00 0. -1.
         25    2    1    2    0    0 -0.33631016563E+01  0.32961344175E+02  0.11996199830E+03  0.17639533123E+03  0.12500668455E+03 0.  0.
          4    1    3    3  502    0  0.54183753015E+02 -0.11720162620E+02  0.41097188712E+02  0.69020526821E+02  0.12700000000E+01 0.  1.
         -4    1    3    3    0  502 -0.57546854671E+02  0.44681506794E+02  0.78864809586E+02  0.10737480441E+03  0.12700000000E+01 0.  1.
          2    1    1    2  503    0  0.37312067405E+02 -0.22469532528E+02 -0.19293343630E+02  0.47637205780E+02  0.00000000000E+00 0. -1.
         -1    1    1    2    0  501 -0.33948965749E+02 -0.10491811647E+02  0.16121231777E+02  0.39019283708E+02  0.00000000000E+00 0.  1.
<mgrwt>
<rscale>  0 0.38425690E+02</rscale>
<asrwt>0</asrwt>
<pdfrwt beam="2">  1        2 0.11250918E-01 0.41553602E+02</pdfrwt>
<pdfrwt beam="1">  1       -1 0.29218593E-01 0.35533229E+02</pdfrwt>
<totfact> 0.57628043E+03</totfact>
</mgrwt>
</event>
<event>
 7    1  0.3113151E-004  0.9289838E+02  0.7546771E-02  0.1442466E+00
          1   -1    0    0  503    0 -0.00000000000E+00  0.00000000000E+00  0.65700042137E+03  0.65700042137E+03  0.00000000000E+00 0. -1.
          2   -1    0    0  502    0  0.00000000000E+00 -0.00000000000E+00 -0.23487451868E+03  0.23487451868E+03  0.00000000000E+00 0. -1.
         25    2    1    2    0    0 -0.94613164500E+02  0.38445368392E+02  0.31680313183E+03  0.35555516685E+03  0.12500222033E+03 0.  0.
          4    1    3    3  501    0 -0.11726708084E+03  0.41344960310E+02  0.30591488467E+03  0.33022190048E+03  0.12700000000E+01 0.  1.
         -4    1    3    3    0  501  0.22653916339E+02 -0.28995919182E+01  0.10888247159E+02  0.25333266370E+02  0.12700000000E+01 0.  1.
          2    1    1    2  502    0  0.22234015236E+02  0.16170237668E+02 -0.20816993342E+03  0.20997749689E+03  0.00000000000E+00 0. -1.
          1    1    1    2  503    0  0.72379149264E+02 -0.54615606060E+02  0.31349270427E+03  0.32634227631E+03  0.00000000000E+00 0. -1.
<mgrwt>
<rscale>  0 0.50537041E+02</rscale>
<asrwt>0</asrwt>
<pdfrwt beam="2">  1        2 0.36134542E-01 0.27492327E+02</pdfrwt>
<pdfrwt beam="1">  1        1 0.10107699E+00 0.92898379E+02</pdfrwt>
<totfact> 0.60094064E+02</totfact>
</mgrwt>
</event>
<event>
 7    1  0.3113151E-004  0.6296154E+02  0.7546771E-02  0.1403142E+00
          1   -1    0    0  503    0 -0.00000000000E+00  0.00000000000E+00  0.76832637408E+03  0.76832637408E+03  0.00000000000E+00 0. -1.
          2   -1    0    0  502    0  0.00000000000E+00 -0.00000000000E+00 -0.26075976898E+04  0.26075976898E+04  0.00000000000E+00 0. -1.
         25    2    1    2    0    0  0.84235769542E+01 -0.29043290879E+00  0.26627330520E+02  0.12808338397E+03  0.12500119007E+03 0.  0.
          4    1    3    3  501    0 -0.32162269636E+02 -0.34423748643E+02  0.51229668849E+02  0.69609610897E+02  0.12700000000E+01 0. -1.
         -4    1    3    3    0  501  0.40585846590E+02  0.34133315735E+02 -0.24602338329E+02  0.58473773076E+02  0.12700000000E+01 0. -1.
          2    1    1    2  502    0 -0.63220134684E+02 -0.14766166453E+01 -0.25553903563E+04  0.25561726935E+04  0.00000000000E+00 0. -1.
          1    1    1    2  503    0  0.54796557730E+02  0.17670495541E+01  0.68949171006E+03  0.69166798643E+03  0.00000000000E+00 0. -1.
<mgrwt>
<rscale>  0 0.58752611E+02</rscale>
<asrwt>0</asrwt>
<pdfrwt beam="2">  1        2 0.40116887E+00 0.62961545E+02</pdfrwt>
<pdfrwt beam="1">  1        1 0.11820406E+00 0.54825042E+02</pdfrwt>
<totfact> 0.15542801E+01</totfact>
</mgrwt>
</event>
<event>
 7    1  0.3113151E-004  0.9357402E+02  0.7546771E-02  0.1403826E+00
          1   -1    0    0  503    0 -0.00000000000E+00  0.00000000000E+00  0.12051170969E+04  0.12051170969E+04  0.00000000000E+00 0. -1.
          2   -1    0    0  502    0  0.00000000000E+00 -0.00000000000E+00 -0.29711012950E+04  0.29711012950E+04  0.00000000000E+00 0. -1.
         25    2    1    2    0    0 -0.66826754276E+02 -0.96248318583E+02 -0.62718491987E+03  0.65016606776E+03  0.12500175214E+03 0.  0.
          4    1    3    3  501    0 -0.79358495390E+02 -0.11906945285E+03 -0.48742503546E+03  0.50799614515E+03  0.12700000000E+01 0. -1.
         -4    1    3    3    0  501  0.12531741115E+02  0.22821134271E+02 -0.13975988441E+03  0.14216992261E+03  0.12700000000E+01 0. -1.
          2    1    1    2  502    0  0.31471432494E+02  0.86437990021E+02 -0.23312365193E+04  0.23330507252E+04  0.00000000000E+00 0. -1.
          1    1    1    2  503    0  0.35355321781E+02  0.98103285615E+01  0.11924372410E+04  0.11930015990E+04  0.00000000000E+00 0. -1.
<mgrwt>
<rscale>  0 0.58594705E+02</rscale>
<asrwt>0</asrwt>
<pdfrwt beam="2">  1        2 0.45709251E+00 0.93574020E+02</pdfrwt>
<pdfrwt beam="1">  1        1 0.18540263E+00 0.36691161E+02</pdfrwt>
<totfact> 0.46673605E+00</totfact>
</mgrwt>
</event>
<event>
 7    1  0.6265729E-004  0.1137114E+03  0.7546771E-02  0.1337057E+00
          2   -1    0    0  503    0  0.00000000000E+00  0.00000000000E+00  0.24362562289E+04  0.24362562289E+04  0.00000000000E+00 0. -1.
         -1   -1    0    0    0  501 -0.00000000000E+00 -0.00000000000E+00 -0.14731835033E+02  0.14731835033E+02  0.00000000000E+00 0.  1.
         25    2    1    2    0    0 -0.34570179992E+02 -0.13113161654E+03  0.18091102066E+04  0.18184830858E+04  0.12494156911E+03 0.  0.
          4    1    3    3  502    0 -0.18453066716E+00 -0.13229563240E+03  0.10095789588E+04  0.10182109091E+04  0.12700000000E+01 0. -1.
         -4    1    3    3    0  502 -0.34385649325E+02  0.11640158573E+01  0.79953124777E+03  0.80027217674E+03  0.12700000000E+01 0. -1.
          2    1    1    2  503    0  0.49682451107E+02  0.80881839634E+02  0.49323187492E+03  0.50228268969E+03  0.00000000000E+00 0. -1.
         -1    1    1    2    0  501 -0.15112271115E+02  0.50249776909E+02  0.11918231238E+03  0.13022228842E+03  0.00000000000E+00 0.  1.
<mgrwt>
<rscale>  0 0.77244947E+02</rscale>
<asrwt>0</asrwt>
<pdfrwt beam="1">  1        2 0.37480833E+00 0.11371136E+03</pdfrwt>
<pdfrwt beam="2">  1       -1 0.22664381E-02 0.52473048E+02</pdfrwt>
<totfact> 0.25711340E+03</totfact>
</mgrwt>
</event>
<event>
 7    1  0.3113151E-004  0.5230705E+02  0.7546771E-02  0.1503256E+00
         -1   -1    0    0    0  501 -0.00000000000E+00  0.00000000000E+00  0.12881211437E+03  0.12881211437E+03  0.00000000000E+00 0.  1.
          2   -1    0    0  503    0  0.00000000000E+00 -0.00000000000E+00 -0.30207119808E+03  0.30207119808E+03  0.00000000000E+00 0. -1.
         25    2    1    2    0    0  0.82676447510E+02  0.20157677652E+01  0.67606995312E+02  0.16442975742E+03  0.12500792382E+03 0.  0.
          4    1    3    3  502    0  0.25628345894E+02  0.60446441793E+02  0.45267603610E+02  0.79758092224E+02  0.12700000000E+01 0.  1.
         -4    1    3    3    0  502  0.57048101616E+02 -0.58430674028E+02  0.22339391702E+02  0.84671665196E+02  0.12700000000E+01 0.  1.
          2    1    1    2  503    0 -0.51243724026E+02 -0.56292096215E+01 -0.22542962502E+03  0.23124904992E+03  0.00000000000E+00 0. -1.
         -1    1    1    2    0  501 -0.31432723484E+02  0.36134418562E+01 -0.15436454002E+02  0.35204505107E+02  0.00000000000E+00 0.  1.
<mgrwt>
<rscale>  0 0.40681464E+02</rscale>
<asrwt>0</asrwt>
<pdfrwt beam="2">  1        2 0.46472492E-01 0.52307054E+02</pdfrwt>
<pdfrwt beam="1">  1       -1 0.19817248E-01 0.31639739E+02</pdfrwt>
<totfact> 0.23007283E+03</totfact>
</mgrwt>
</event>
<event>
 7    1  0.3113151E-004  0.7669555E+02  0.7546771E-02  0.1353716E+00
          3   -1    0    0  503    0 -0.00000000000E+00  0.00000000000E+00  0.15485257830E+04  0.15485257830E+04  0.00000000000E+00 0. -1.
          2   -1    0    0  502    0  0.00000000000E+00 -0.00000000000E+00 -0.94652365822E+03  0.94652365822E+03  0.00000000000E+00 0.  1.
         25    2    1    2    0    0 -0.68757909572E+02 -0.87138000100E+02 -0.21523219459E+02  0.16856352019E+03  0.12501891926E+03 0.  0.
          4    1    3    3  501    0 -0.20983401071E+02 -0.95509169274E+02  0.25427745910E+02  0.10104695789E+03  0.12700000000E+01 0. -1.
         -4    1    3    3    0  501 -0.47774508502E+02  0.83711691742E+01 -0.46950965369E+02  0.67516562301E+02  0.12700000000E+01 0. -1.
          2    1    1    2  502    0 -0.51701957757E+01  0.67224479310E+02 -0.84914959239E+03  0.85182210103E+03  0.00000000000E+00 0.  1.
          3    1    1    2  503    0  0.73928105348E+02  0.19913520790E+02  0.14726749366E+04  0.14746638200E+04  0.00000000000E+00 0. -1.
<mgrwt>
<rscale>  0 0.71909976E+02</rscale>
<asrwt>0</asrwt>
<pdfrwt beam="2">  1        2 0.14561902E+00 0.67423005E+02</pdfrwt>
<pdfrwt beam="1">  1        3 0.23823474E+00 0.76695554E+02</pdfrwt>
<totfact> 0.19108927E+00</totfact>
</mgrwt>
</event>
<event>
 7    1  0.3113151E-004  0.6983617E+02  0.7546771E-02  0.1437873E+00
          2   -1    0    0  503    0  0.00000000000E+00  0.00000000000E+00  0.26541851361E+03  0.26541851361E+03  0.00000000000E+00 0. -1.
         -1   -1    0    0    0  501 -0.00000000000E+00 -0.00000000000E+00 -0.63250080109E+02  0.63250080109E+02  0.00000000000E+00 0.  1.
         25    2    1    2    0    0 -0.39687951503E+02 -0.67227103431E+02  0.11688554971E+03  0.18809940863E+03  0.12499815545E+03 0.  0.
          4    1    3    3  502    0 -0.29813184408E+02 -0.23206971022E+02  0.13445515627E+03  0.13966814747E+03  0.12700000000E+01 0.  1.
         -4    1    3    3    0  502 -0.98747670950E+01 -0.44020132409E+02 -0.17569606567E+02  0.48431261159E+02  0.12700000000E+01 0.  1.
          2    1    1    2  503    0  0.18964962560E+01  0.69294592625E+02  0.73258471730E+02  0.10085703221E+03  0.00000000000E+00 0. -1.
         -1    1    1    2    0  501  0.37791455247E+02 -0.20674891942E+01  0.12024412061E+02  0.39712152884E+02  0.00000000000E+00 0.  1.
<mgrwt>
<rscale>  0 0.51411644E+02</rscale>
<asrwt>0</asrwt>
<pdfrwt beam="1">  1        2 0.40833617E-01 0.69836172E+02</pdfrwt>
<pdfrwt beam="2">  1       -1 0.97307817E-02 0.37847967E+02</pdfrwt>
<totfact> 0.77537482E+03</totfact>
</mgrwt>
</event>
<event>
 7    1  0.3113151E-004  0.1013889E+03  0.7546771E-02  0.1437583E+00
          2   -1    0    0  503    0  0.00000000000E+00  0.00000000000E+00  0.83764328196E+03  0.83764328196E+03  0.00000000000E+00 0.  1.
         -3   -1    0    0    0  501 -0.00000000000E+00 -0.00000000000E+00 -0.19100501513E+03  0.19100501513E+03  0.00000000000E+00 0.  1.
         25    2    1    2    0    0  0.51646852217E+02  0.10295036748E+03  0.55717463218E+03  0.58253060734E+03  0.12502864565E+03 0.  0.
          4    1    3    3  502    0  0.86561846381E+02  0.35208418951E+02  0.32447317397E+03  0.33766409276E+03  0.12700000000E+01 0.  1.
         -4    1    3    3    0  502 -0.34914994165E+02  0.67741948528E+02  0.23270145821E+03  0.24486651457E+03  0.12700000000E+01 0.  1.
          2    1    1    2  503    0  0.11077810573E+02 -0.23661288884E+02  0.25273374076E+03  0.25408053487E+03  0.00000000000E+00 0.  1.
         -3    1    1    2    0  501 -0.62724662790E+02 -0.79289078595E+02 -0.16327010611E+03  0.19203715489E+03  0.00000000000E+00 0.  1.
<mgrwt>
<rscale>  0 0.51467468E+02</rscale>
<asrwt>0</asrwt>
<pdfrwt beam="1">  1        2 0.12886819E+00 0.26126126E+02</pdfrwt>
<pdfrwt beam="2">  1       -3 0.29385387E-01 0.10138894E+03</pdfrwt>
<totfact> 0.24216936E+02</totfact>
</mgrwt>
</event>
<event>
 7    1  0.3113151E-004  0.8029415E+02  0.7546771E-02  0.1346522E+00
         -3   -1    0    0    0  501 -0.00000000000E+00  0.00000000000E+00  0.41346160471E+03  0.41346160471E+03  0.00000000000E+00 0.  1.
          1   -1    0    0  503    0  0.00000000000E+00 -0.00000000000E+00 -0.23732124518E+03  0.23732124518E+03  0.00000000000E+00 0. -1.
         25    2    1    2    0    0 -0.75887397476E+02 -0.78205296627E+01  0.22633081836E+02  0.14818008109E+03  0.12500008904E+03 0.  0.
          4    1    3    3  502    0 -0.48438208795E+02  0.51347104190E+02 -0.15960716335E+02  0.72381921402E+02  0.12700000000E+01 0.  1.
         -4    1    3    3    0  502 -0.27449188681E+02 -0.59167633852E+02  0.38593798171E+02  0.75798159689E+02  0.12700000000E+01 0.  1.
          1    1    1    2  503    0  0.30313783338E+02 -0.61401541597E+02 -0.16227215745E+03  0.17612872524E+03  0.00000000000E+00 0. -1.
         -3    1    1    2    0  501  0.45573614138E+02  0.69222071260E+02  0.31577943515E+03  0.32647404356E+03  0.00000000000E+00 0.  1.
<mgrwt>
<rscale>  0 0.74150443E+02</rscale>
<asrwt>0</asrwt>
<pdfrwt beam="2">  1        1 0.36510961E-01 0.68476819E+02</pdfrwt>
<pdfrwt beam="1">  1       -3 0.63609478E-01 0.80294153E+02</pdfrwt>
<totfact> 0.14853638E+02</totfact>
</mgrwt>
</event>
<event>
 7    1  0.3113151E-004  0.5585843E+02  0.7546771E-02  0.1428963E+00
          1   -1    0    0  503    0 -0.00000000000E+00  0.00000000000E+00  0.30903690865E+04  0.30903690865E+04  0.00000000000E+00 0. -1.
          2   -1    0    0  502    0  0.00000000000E+00 -0.00000000000E+00 -0.16795509870E+03  0.16795509870E+03  0.00000000000E+00 0. -1.
         25    2    1    2    0    0 -0.23049264722E+01 -0.12381914439E+02  0.85048105589E+03  0.85971084196E+03  0.12500432334E+03 0.  0.
          4    1    3    3  501    0  0.28992307051E+02 -0.11310894674E+02  0.79782903783E+03  0.79843677064E+03  0.12700000000E+01 0. -1.
         -4    1    3    3    0  501 -0.31297233523E+02 -0.10710197653E+01  0.52652018065E+02  0.61274071318E+02  0.12700000000E+01 0. -1.
          2    1    1    2  502    0 -0.42892988384E+02 -0.26859143211E+02 -0.15900906800E+03  0.16686852829E+03  0.00000000000E+00 0. -1.
          1    1    1    2  503    0  0.45197914856E+02  0.39241057650E+02  0.22309419999E+04  0.22317448149E+04  0.00000000000E+00 0. -1.
<mgrwt>
<rscale>  0 0.53168715E+02</rscale>
<asrwt>0</asrwt>
<pdfrwt beam="2">  1        2 0.25839248E-01 0.50608517E+02</pdfrwt>
<pdfrwt beam="1">  1        1 0.47544135E+00 0.55858430E+02</pdfrwt>
<totfact> 0.22178927E+01</totfact>
</mgrwt>
</event>
<event>
 7    1  0.3113151E-004  0.1110103E+03  0.7546771E-02  0.1275835E+00
         -1   -1    0    0    0  501  0.00000000000E+00  0.00000000000E+00  0.11758432592E+04  0.11758432592E+04  0.00000000000E+00 0.  1.
         -1   -1    0    0    0  502 -0.00000000000E+00 -0.00000000000E+00 -0.54311392999E+03  0.54311392999E+03  0.00000000000E+00 0.  1.
         25    2    1    2    0    0 -0.45423550458E+02  0.42369872913E+02 -0.96818850830E+02  0.16987791431E+03  0.12500444323E+03 0.  0.
          4    1    3    3  503    0 -0.33123014178E+02  0.13449887864E+02  0.25273352806E+02  0.43799415679E+02  0.12700000000E+01 0.  1.
         -4    1    3    3    0  503 -0.12300536281E+02  0.28919985049E+02 -0.12209220364E+03  0.12607849863E+03  0.12700000000E+01 0.  1.
         -1    1    1    2    0  502  0.80528411604E+01 -0.12862254903E+03 -0.39762755094E+03  0.41799076262E+03  0.00000000000E+00 0.  1.
         -1    1    1    2    0  501  0.37370709298E+02  0.86252676116E+02  0.11271757309E+04  0.11310885122E+04  0.00000000000E+00 0.  1.
<mgrwt>
<rscale>  0 0.10215196E+03</rscale>
<asrwt>0</asrwt>
<pdfrwt beam="1">  1       -1 0.18089896E+00 0.94000500E+02</pdfrwt>
<pdfrwt beam="2">  1       -1 0.83555990E-01 0.11101029E+03</pdfrwt>
<totfact> 0.32110019E+00</totfact>
</mgrwt>
</event>
<event>
 7    1  0.3113151E-004  0.1003208E+03  0.7546771E-02  0.1404705E+00
          2   -1    0    0  503    0  0.00000000000E+00  0.00000000000E+00  0.89750103796E+03  0.89750103796E+03  0.00000000000E+00 0. -1.
         -3   -1    0    0    0  501 -0.00000000000E+00 -0.00000000000E+00 -0.46208143295E+03  0.46208143295E+03  0.00000000000E+00 0.  1.
         25    2    1    2    0    0  0.63194219064E+01 -0.12667736984E+03 -0.25729249202E+02  0.17992821508E+03  0.12500030877E+03 0.  0.
          4    1    3    3  502    0 -0.44040875938E+02 -0.11837262001E+03 -0.10971842072E+02  0.12678197877E+03  0.12700000000E+01 0.  1.
         -4    1    3    3    0  502  0.50360297844E+02 -0.83047498343E+01 -0.14757407130E+02  0.53146236310E+02  0.12700000000E+01 0.  1.
          2    1    1    2  503    0 -0.17451598292E+02  0.29165003568E+02  0.81333680307E+03  0.81404662701E+03  0.00000000000E+00 0. -1.
         -3    1    1    2    0  501  0.11132176385E+02  0.97512366276E+02 -0.35218794886E+03  0.36560762882E+03  0.00000000000E+00 0.  1.
<mgrwt>
<rscale>  0 0.58392303E+02</rscale>
<asrwt>0</asrwt>
<pdfrwt beam="1">  1        2 0.13807708E+00 0.33987582E+02</pdfrwt>
<pdfrwt beam="2">  1       -3 0.71089451E-01 0.10032079E+03</pdfrwt>
<totfact> 0.39038284E+01</totfact>
</mgrwt>
</event>
<event>
 7    1  0.3113151E-004  0.5545385E+02  0.7546771E-02  0.1497312E+00
          3   -1    0    0  503    0  0.00000000000E+00  0.00000000000E+00  0.72767300046E+02  0.72767300046E+02  0.00000000000E+00 0. -1.
         -3   -1    0    0    0  501 -0.00000000000E+00 -0.00000000000E+00 -0.19939167119E+03  0.19939167119E+03  0.00000000000E+00 0.  1.
         25    2    1    2    0    0  0.41975853828E+02  0.16038537604E+02 -0.10151836143E+03  0.16717445320E+03  0.12498845188E+03 0.  0.
          4    1    3    3  502    0 -0.21674347060E+02  0.37172246469E+02  0.28123858783E+01  0.43140185933E+02  0.12700000000E+01 0.  1.
         -4    1    3    3    0  502  0.63650200888E+02 -0.21133708865E+02 -0.10433074731E+03  0.12403426727E+03  0.12700000000E+01 0.  1.
          3    1    1    2  503    0  0.21161766873E+02 -0.22773541136E+02  0.97112034106E+01  0.32569341792E+02  0.00000000000E+00 0. -1.
         -3    1    1    2    0  501 -0.63137620702E+02  0.67350035312E+01 -0.34817213130E+02  0.72415176245E+02  0.00000000000E+00 0.  1.
<mgrwt>
<rscale>  0 0.41520370E+02</rscale>
<asrwt>0</asrwt>
<pdfrwt beam="1">  1        3 0.11194969E-01 0.31087852E+02</pdfrwt>
<pdfrwt beam="2">  1       -3 0.30675641E-01 0.55453851E+02</pdfrwt>
<totfact> 0.11061688E+03</totfact>
</mgrwt>
</event>
<event>
 7    1  0.3113151E-004  0.1248604E+03  0.7546771E-02  0.1296288E+00
          1   -1    0    0  502    0  0.00000000000E+00  0.00000000000E+00  0.39206409057E+03  0.39206409057E+03  0.00000000000E+00 0. -1.
          1   -1    0    0  503    0 -0.00000000000E+00 -0.00000000000E+00 -0.13589258624E+03  0.13589258624E+03  0.00000000000E+00 0. -1.
         25    2    1    2    0    0 -0.84782152895E+02  0.13486101339E+03  0.97639313375E+02  0.22480040246E+03  0.12500511609E+03 0.  0.
          4    1    3    3  501    0 -0.49681079601E+01  0.11937398479E+03  0.43704441881E+02  0.12722626098E+03  0.12700000000E+01 0.  1.
         -4    1    3    3    0  501 -0.79814044935E+02  0.15487028600E+02  0.53934871493E+02  0.97574141486E+02  0.12700000000E+01 0.  1.
          1    1    1    2  502    0  0.18232625203E+02 -0.11693570249E+03  0.19276904492E+03  0.22619967245E+03  0.00000000000E+00 0. -1.
          1    1    1    2  503    0  0.66549527692E+02 -0.17925310901E+02 -0.34236853962E+02  0.76956601901E+02  0.00000000000E+00 0. -1.
<mgrwt>
<rscale>  0 0.92766105E+02</rscale>
<asrwt>0</asrwt>
<pdfrwt beam="1">  1        1 0.60317552E-01 0.12486039E+03</pdfrwt>
<pdfrwt beam="2">  1        1 0.20906552E-01 0.68921378E+02</pdfrwt>
<totfact> 0.17291552E+03</totfact>
</mgrwt>
</event>
<event>
 7    1  0.3113151E-004  0.7627306E+02  0.7546771E-02  0.1497704E+00
          2   -1    0    0  503    0  0.00000000000E+00  0.00000000000E+00  0.12979627556E+03  0.12979627556E+03  0.00000000000E+00 0. -1.
         -1   -1    0    0    0  501 -0.00000000000E+00 -0.00000000000E+00 -0.11989653913E+03  0.11989653913E+03  0.00000000000E+00 0.  1.
         25    2    1    2    0    0  0.55240208986E+02 -0.42617356747E+02  0.11003957257E+02  0.14357701698E+03  0.12500221176E+03 0.  0.
          4    1    3    3  502    0 -0.23597501554E+02  0.27570196315E+02 -0.55216025924E+01  0.36729535794E+02  0.12700000000E+01 0. -1.
         -4    1    3    3    0  502  0.78837710540E+02 -0.70187553062E+02  0.16525559849E+02  0.10684748119E+03  0.12700000000E+01 0. -1.
          2    1    1    2  503    0 -0.48837665902E+02  0.64230158560E+02  0.94242863362E+01  0.81236986973E+02  0.00000000000E+00 0. -1.
         -1    1    1    2    0  501 -0.64025430835E+01 -0.21612801813E+02 -0.10528507169E+02  0.24878810730E+02  0.00000000000E+00 0.  1.
<mgrwt>
<rscale>  0 0.41464279E+02</rscale>
<asrwt>0</asrwt>
<pdfrwt beam="1">  1        2 0.19968658E-01 0.76273060E+02</pdfrwt>
<pdfrwt beam="2">  1       -1 0.18445622E-01 0.22541201E+02</pdfrwt>
<totfact> 0.62021234E+03</totfact>
</mgrwt>
</event>
<event>
 7    1  0.3113151E-004  0.6829924E+02  0.7546771E-02  0.1424867E+00
          2   -1    0    0  503    0  0.00000000000E+00  0.00000000000E+00  0.16295152731E+04  0.16295152731E+04  0.00000000000E+00 0. -1.
         -3   -1    0    0    0  501 -0.00000000000E+00 -0.00000000000E+00 -0.54434325081E+02  0.54434325081E+02  0.00000000000E+00 0.  1.
         25    2    1    2    0    0  0.58146256568E+02 -0.67226722403E+02  0.26857991609E+03  0.30928837778E+03  0.12499483967E+03 0.  0.
          4    1    3    3  502    0  0.34555305466E+01  0.33622112487E+02  0.32994179721E+02  0.47250565445E+02  0.12700000000E+01 0. -1.
         -4    1    3    3    0  502  0.54690726022E+02 -0.10084883489E+03  0.23558573637E+03  0.26203781233E+03  0.12700000000E+01 0. -1.
          2    1    1    2  503    0  0.40616875861E+01  0.42507671589E+02  0.13070226105E+04  0.13077199639E+04  0.00000000000E+00 0. -1.
         -3    1    1    2    0  501 -0.62207944155E+02  0.24719050814E+02 -0.52157855468E+00  0.66941256586E+02  0.00000000000E+00 0.  1.
<mgrwt>
<rscale>  0 0.54004306E+02</rscale>
<asrwt>0</asrwt>
<pdfrwt beam="1">  1        2 0.25069462E+00 0.42701282E+02</pdfrwt>
<pdfrwt beam="2">  1       -3 0.83745128E-02 0.68299241E+02</pdfrwt>
<totfact> 0.73802817E+02</totfact>
</mgrwt>
</event>
<event>
 7    1  0.3113151E-004  0.1158486E+03  0.7546771E-02  0.1293020E+00
         -3   -1    0    0    0  501 -0.00000000000E+00  0.00000000000E+00  0.64305894533E+02  0.64305894533E+02  0.00000000000E+00 0.  1.
          2   -1    0    0  503    0  0.00000000000E+00 -0.00000000000E+00 -0.26946832088E+04  0.26946832088E+04  0.00000000000E+00 0. -1.
         25    2    1    2    0    0  0.64940568924E+02  0.91303457475E+02 -0.73283986460E+03  0.75181943679E+03  0.12499839820E+03 0.  0.
          4    1    3    3  502    0 -0.25343266388E+02 -0.12350780180E+02 -0.17685391185E+03  0.17909143463E+03  0.12700000000E+01 0. -1.
         -4    1    3    3    0  502  0.90283835312E+02  0.10365423766E+03 -0.55598595275E+03  0.57272800216E+03  0.12700000000E+01 0. -1.
          2    1    1    2  503    0  0.58237329614E+01 -0.12056033922E+03 -0.19227630574E+04  0.19265478157E+04  0.00000000000E+00 0. -1.
         -3    1    1    2    0  501 -0.70764301886E+02  0.29256881741E+02  0.25225607722E+02  0.80621850857E+02  0.00000000000E+00 0.  1.
<mgrwt>
<rscale>  0 0.94185831E+02</rscale>
<asrwt>0</asrwt>
<pdfrwt beam="2">  1        2 0.41456648E+00 0.11584860E+03</pdfrwt>
<pdfrwt beam="1">  1       -3 0.98932184E-02 0.76573831E+02</pdfrwt>
<totfact> 0.14677138E+02</totfact>
</mgrwt>
</event>
<event>
 7    1  0.3113151E-004  0.2060213E+03  0.7546771E-02  0.1364300E+00
          2   -1    0    0  503    0  0.00000000000E+00  0.00000000000E+00  0.38396914465E+04  0.38396914465E+04  0.00000000000E+00 0. -1.
         -1   -1    0    0    0  501 -0.00000000000E+00 -0.00000000000E+00 -0.17673120298E+02  0.17673120298E+02  0.00000000000E+00 0.  1.
         25    2    1    2    0    0  0.21236594381E+03  0.26290473618E+02  0.11966014293E+04  0.12219940051E+04  0.12499553874E+03 0.  0.
          4    1    3    3  502    0  0.20104485923E+03  0.61737354395E+02  0.99521366847E+03  0.10171933912E+04  0.12700000000E+01 0. -1.
         -4    1    3    3    0  502  0.11321084578E+02 -0.35446880777E+02  0.20138776084E+03  0.20480061384E+03  0.12700000000E+01 0. -1.
          2    1    1    2  503    0 -0.20356397016E+03 -0.50841995958E+01  0.24519325444E+04  0.24603734150E+04  0.00000000000E+00 0. -1.
         -1    1    1    2    0  501 -0.88019736524E+01 -0.21206274022E+02  0.17348435255E+03  0.17499714677E+03  0.00000000000E+00 0.  1.
<mgrwt>
<rscale>  0 0.68777433E+02</rscale>
<asrwt>0</asrwt>
<pdfrwt beam="1">  1        2 0.59072110E+00 0.20602131E+03</pdfrwt>
<pdfrwt beam="2">  1       -1 0.27189446E-02 0.22960418E+02</pdfrwt>
<totfact> 0.22418916E+02</totfact>
</mgrwt>
</event>
<event>
 7    1  0.3113151E-004  0.1039139E+03  0.7546771E-02  0.1429081E+00
         -1   -1    0    0    0  501 -0.00000000000E+00  0.00000000000E+00  0.24114710936E+02  0.24114710936E+02  0.00000000000E+00 0.  1.
          2   -1    0    0  503    0  0.00000000000E+00 -0.00000000000E+00 -0.15523022520E+04  0.15523022520E+04  0.00000000000E+00 0. -1.
         25    2    1    2    0    0  0.11526673681E+03 -0.55784150238E+02 -0.40056795058E+03  0.43872861807E+03  0.12501929948E+03 0.  0.
          4    1    3    3  502    0  0.67919753927E+02  0.32363814763E+02 -0.12942261336E+03  0.14970749890E+03  0.12700000000E+01 0.  1.
         -4    1    3    3    0  502  0.47346982885E+02 -0.88147965001E+02 -0.27114533723E+03  0.28902111917E+03  0.12700000000E+01 0.  1.
          2    1    1    2  503    0 -0.90539362260E+02  0.44501072393E+02 -0.10603039316E+04  0.10650925542E+04  0.00000000000E+00 0. -1.
         -1    1    1    2    0  501 -0.24727374552E+02  0.11283077845E+02 -0.67315658844E+02  0.72595790673E+02  0.00000000000E+00 0.  1.
<mgrwt>
<rscale>  0 0.53144868E+02</rscale>
<asrwt>0</asrwt>
<pdfrwt beam="2">  1        2 0.23881570E+00 0.10391390E+03</pdfrwt>
<pdfrwt beam="1">  1       -1 0.37099560E-02 0.27179972E+02</pdfrwt>
<totfact> 0.33373062E+03</totfact>
</mgrwt>
</event>
<event>
 7    1  0.3113151E-004  0.9237799E+02  0.7546771E-02  0.1345727E+00
          2   -1    0    0  502    0  0.00000000000E+00  0.00000000000E+00  0.26235910863E+03  0.26235910863E+03  0.00000000000E+00 0. -1.
          2   -1    0    0  503    0 -0.00000000000E+00 -0.00000000000E+00 -0.87589284974E+03  0.87589284974E+03  0.00000000000E+00 0. -1.
         25    2    1    2    0    0 -0.37507560883E+02 -0.49458178567E+02 -0.54304183131E+02  0.14975664960E+03  0.12500072497E+03 0.  0.
          4    1    3    3  501    0 -0.80698176012E+02 -0.52232665962E+02 -0.34430222602E+02  0.10211513176E+03  0.12700000000E+01 0.  1.
         -4    1    3    3    0  501  0.43190615129E+02  0.27744873944E+01 -0.19873960529E+02  0.47641517845E+02  0.12700000000E+01 0.  1.
          2    1    1    2  502    0  0.93057692468E+02  0.26975734350E+02  0.20246140784E+03  0.22445054252E+03  0.00000000000E+00 0. -1.
          2    1    1    2  503    0 -0.55550131585E+02  0.22482444217E+02 -0.76169096582E+03  0.76404476625E+03  0.00000000000E+00 0. -1.
<mgrwt>
<rscale>  0 0.74404034E+02</rscale>
<asrwt>0</asrwt>
<pdfrwt beam="1">  1        2 0.40362940E-01 0.92377986E+02</pdfrwt>
<pdfrwt beam="2">  1        2 0.13475275E+00 0.59927268E+02</pdfrwt>
<totfact> 0.65252345E+02</totfact>
</mgrwt>
</event>
<event>
 7    1  0.3113151E-004  0.1726701E+03  0.7546771E-02  0.1245770E+00
         -2   -1    0    0    0  501 -0.00000000000E+00  0.00000000000E+00  0.60599572857E+03  0.60599572857E+03  0.00000000000E+00 0.  1.
          2   -1    0    0  503    0  0.00000000000E+00 -0.00000000000E+00 -0.15256770866E+04  0.15256770866E+04  0.00000000000E+00 0.  1.
         25    2    1    2    0    0 -0.10709043891E+03 -0.19378115009E+03  0.36373448845E+03  0.44378756967E+03  0.12500053067E+03 0.  0.
          4    1    3    3  502    0  0.19094743509E+02 -0.79162203795E+02  0.90661232532E+02  0.12187015928E+03  0.12700000000E+01 0. -1.
         -4    1    3    3    0  502 -0.12618518242E+03 -0.11461894629E+03  0.27307325592E+03  0.32191741038E+03  0.12700000000E+01 0. -1.
          2    1    1    2  503    0  0.51609980506E+02  0.62660876467E+02 -0.14593236439E+04  0.14615797868E+04  0.00000000000E+00 0.  1.
         -2    1    1    2    0  501  0.55480458400E+02  0.13112027362E+03  0.17590779746E+03  0.22630545868E+03  0.00000000000E+00 0.  1.
<mgrwt>
<rscale>  0 0.11839394E+03</rscale>
<asrwt>0</asrwt>
<pdfrwt beam="2">  1        2 0.23471955E+00 0.81178664E+02</pdfrwt>
<pdfrwt beam="1">  1       -2 0.93230112E-01 0.17267006E+03</pdfrwt>
<totfact> 0.15132212E+01</totfact>
</mgrwt>
</event>
<event>
 7    1  0.3113151E-004  0.3617754E+03  0.7546771E-02  0.1067342E+00
          1   -1    0    0  503    0  0.00000000000E+00  0.00000000000E+00  0.91351482934E+03  0.91351482934E+03  0.00000000000E+00 0. -1.
          1   -1    0    0  502    0 -0.00000000000E+00 -0.00000000000E+00 -0.45782760114E+03  0.45782760114E+03  0.00000000000E+00 0. -1.
         25    2    1    2    0    0 -0.30466272592E+03  0.11133329291E+03  0.10434853063E+03  0.36294190498E+03  0.12499492738E+03 0.  0.
          4    1    3    3  501    0  0.37113713157E+01  0.13259744692E+02 -0.12751311010E+02  0.18809676734E+02  0.12700000000E+01 0.  1.
         -4    1    3    3    0  501 -0.30837409724E+03  0.98073548219E+02  0.11709984164E+03  0.34413222825E+03  0.12700000000E+01 0.  1.
          1    1    1    2  502    0  0.59610146037E+02 -0.37747355215E+03 -0.13231724061E+03  0.40441006942E+03  0.00000000000E+00 0. -1.
          1    1    1    2  503    0  0.24505257988E+03  0.26614025924E+03  0.48365593818E+03  0.60399045608E+03  0.00000000000E+00 0. -1.
<mgrwt>
<rscale>  0 0.33872186E+03</rscale>
<asrwt>0</asrwt>
<pdfrwt beam="1">  1        1 0.14054074E+00 0.36177535E+03</pdfrwt>
<pdfrwt beam="2">  1        1 0.70435016E-01 0.31713741E+03</pdfrwt>
<totfact> 0.11199515E+02</totfact>
</mgrwt>
</event>
<event>
 7    1  0.3113151E-004  0.9312055E+02  0.7546771E-02  0.1433890E+00
          1   -1    0    0  503    0 -0.00000000000E+00  0.00000000000E+00  0.90729073017E+03  0.90729073017E+03  0.00000000000E+00 0. -1.
          2   -1    0    0  502    0  0.00000000000E+00 -0.00000000000E+00 -0.38552510031E+02  0.38552510031E+02  0.00000000000E+00 0. -1.
         25    2    1    2    0    0  0.17824583132E+02  0.83485525906E+02  0.32567783463E+03  0.35913469146E+03  0.12499650331E+03 0.  0.
          4    1    3    3  501    0 -0.43025821250E+02 -0.50633919798E+01  0.79961302825E+02  0.90952086739E+02  0.12700000000E+01 0.  1.
         -4    1    3    3    0  501  0.60850404382E+02  0.88548917886E+02  0.24571653181E+03  0.26818260472E+03  0.12700000000E+01 0.  1.
          2    1    1    2  502    0  0.29246846791E+02 -0.18205839370E-02 -0.55678489545E+01  0.29772117703E+02  0.00000000000E+00 0. -1.
          1    1    1    2  503    0 -0.47071429923E+02 -0.83483705322E+02  0.54862823446E+03  0.55693643104E+03  0.00000000000E+00 0. -1.
<mgrwt>
<rscale>  0 0.52186994E+02</rscale>
<asrwt>0</asrwt>
<pdfrwt beam="2">  1        2 0.59311561E-02 0.29246847E+02</pdfrwt>
<pdfrwt beam="1">  1        1 0.13958317E+00 0.93120546E+02</pdfrwt>
<totfact> 0.27992306E+03</totfact>
</mgrwt>
</event>
<event>
 7    1  0.3113151E-004  0.5952789E+02  0.7546771E-02  0.1425143E+00
          2   -1    0    0  503    0  0.00000000000E+00  0.00000000000E+00  0.47111389576E+02  0.47111389576E+02  0.00000000000E+00 0. -1.
          2   -1    0    0  502    0 -0.00000000000E+00 -0.00000000000E+00 -0.11999616061E+04  0.11999616061E+04  0.00000000000E+00 0. -1.
         25    2    1    2    0    0  0.20925491778E+02 -0.71836507037E+02 -0.14002728403E+03  0.20206715769E+03  0.12500054399E+03 0.  0.
          4    1    3    3  501    0  0.40721850790E+02  0.16527303319E+02 -0.12599969693E+02  0.45736123830E+02  0.12700000000E+01 0. -1.
         -4    1    3    3    0  501 -0.19796359012E+02 -0.88363810356E+02 -0.12742731433E+03  0.15633103386E+03  0.12700000000E+01 0. -1.
          2    1    1    2  502    0 -0.45332087048E+02  0.18309820845E+02 -0.97239928314E+03  0.97362755379E+03  0.00000000000E+00 0. -1.
          2    1    1    2  503    0  0.24406595270E+02  0.53526686192E+02 -0.40423649378E+02  0.71378284207E+02  0.00000000000E+00 0. -1.
<mgrwt>
<rscale>  0 0.53947457E+02</rscale>
<asrwt>0</asrwt>
<pdfrwt beam="1">  1        2 0.72479073E-02 0.59527893E+02</pdfrwt>
<pdfrwt beam="2">  1        2 0.18460945E+00 0.48890159E+02</pdfrwt>
<totfact> 0.29734112E+03</totfact>
</mgrwt>
</event>
<event>
 7    1  0.3113151E-004  0.5743709E+02  0.7546771E-02  0.1531641E+00
          2   -1    0    0  502    0  0.00000000000E+00  0.00000000000E+00  0.29196821262E+02  0.29196821262E+02  0.00000000000E+00 0.  1.
          2   -1    0    0  503    0 -0.00000000000E+00 -0.00000000000E+00 -0.24617629456E+04  0.24617629456E+04  0.00000000000E+00 0. -1.
         25    2    1    2    0    0 -0.14888456446E+02  0.79182799340E+02 -0.21665039229E+04  0.21716025683E+04  0.12500753891E+03 0.  0.
          4    1    3    3  501    0 -0.61381453344E+02  0.36418922154E+02 -0.15989547153E+04  0.16005473486E+04  0.12700000000E+01 0.  1.
         -4    1    3    3    0  501  0.46492996898E+02  0.42763877186E+02 -0.56754920762E+03  0.57105521968E+03  0.12700000000E+01 0.  1.
          2    1    1    2  502    0  0.71578880392E+01 -0.56655697963E+02 -0.51252697485E+01  0.57335607286E+02  0.00000000000E+00 0.  1.
          2    1    1    2  503    0  0.77305684063E+01 -0.22527101377E+02 -0.26093693163E+03  0.26202159123E+03  0.00000000000E+00 0. -1.
<mgrwt>
<rscale>  0 0.36985917E+02</rscale>
<asrwt>0</asrwt>
<pdfrwt beam="1">  1        2 0.44918167E-02 0.57437091E+02</pdfrwt>
<pdfrwt beam="2">  1        2 0.37873292E+00 0.23816633E+02</pdfrwt>
<totfact> 0.14331553E+03</totfact>
</mgrwt>
</event>
<event>
 7    1  0.3261496E-004  0.7674645E+02  0.7546771E-02  0.1362518E+00
         -2   -1    0    0    0  501 -0.00000000000E+00  0.00000000000E+00  0.25913240924E+02  0.25913240924E+02  0.00000000000E+00 0.  1.
          1   -1    0    0  503    0  0.00000000000E+00 -0.00000000000E+00 -0.15850539329E+04  0.15850539329E+04  0.00000000000E+00 0. -1.
         25    2    1    2    0    0  0.75286890109E+02  0.10780927972E+03 -0.37161121880E+03  0.41353465981E+03  0.12500024124E+03 0.  0.
          4    1    3    3  502    0  0.70960849450E+02  0.10643713214E+03 -0.38160916342E+03  0.40248164152E+03  0.12700000000E+01 0.  1.
         -4    1    3    3    0  502  0.43260406588E+01  0.13721475750E+01  0.99979446196E+01  0.11053018292E+02  0.12700000000E+01 0.  1.
          1    1    1    2  503    0 -0.27081160378E+02 -0.67933088782E+02 -0.91024386564E+03  0.91317697558E+03  0.00000000000E+00 0. -1.
         -2    1    1    2    0  501 -0.48205729731E+02 -0.39876190934E+02 -0.27728560754E+03  0.28425553844E+03  0.00000000000E+00 0.  1.
<mgrwt>
<rscale>  0 0.69291773E+02</rscale>
<asrwt>0</asrwt>
<pdfrwt beam="2">  1        1 0.24385445E+00 0.76746454E+02</pdfrwt>
<pdfrwt beam="1">  1       -2 0.39866525E-02 0.62561194E+02</pdfrwt>
<totfact> 0.14941094E+03</totfact>
</mgrwt>
</event>
<event>
 7    1  0.3113151E-004  0.9922901E+02  0.7546771E-02  0.1437929E+00
          2   -1    0    0  502    0  0.00000000000E+00  0.00000000000E+00  0.24293399985E+04  0.24293399985E+04  0.00000000000E+00 0. -1.
          1   -1    0    0  503    0 -0.00000000000E+00 -0.00000000000E+00 -0.36888910794E+03  0.36888910794E+03  0.00000000000E+00 0. -1.
         25    2    1    2    0    0 -0.55068120131E+02  0.10932504872E+03  0.34292349620E+03  0.38497423802E+03  0.12499670221E+03 0.  0.
          4    1    3    3  501    0 -0.81097369950E+02  0.11446509229E+03  0.32175573065E+03  0.35100912221E+03  0.12700000000E+01 0. -1.
         -4    1    3    3    0  501  0.26029249818E+02 -0.51400435718E+01  0.21167765545E+02  0.33965115813E+02  0.12700000000E+01 0. -1.
          2    1    1    2  502    0  0.35427996876E+02 -0.91347509793E+02  0.20637177019E+04  0.20660421737E+04  0.00000000000E+00 0. -1.
          1    1    1    2  503    0  0.19640123255E+02 -0.17977538925E+02 -0.34619030752E+03  0.34721269471E+03  0.00000000000E+00 0. -1.
<mgrwt>
<rscale>  0 0.51400768E+02</rscale>
<asrwt>0</asrwt>
<pdfrwt beam="1">  1        2 0.37374460E+00 0.99229010E+02</pdfrwt>
<pdfrwt beam="2">  1        1 0.56752172E-01 0.26625671E+02</pdfrwt>
<totfact> 0.46637247E+01</totfact>
</mgrwt>
</event>
<event>
 7    1  0.3113151E-004  0.2284895E+03  0.7546771E-02  0.1283854E+00
          1   -1    0    0  503    0  0.00000000000E+00  0.00000000000E+00  0.86870325154E+03  0.86870325154E+03  0.00000000000E+00 0. -1.
         -3   -1    0    0    0  501 -0.00000000000E+00 -0.00000000000E+00 -0.22350402179E+03  0.22350402179E+03  0.00000000000E+00 0.  1.
         25    2    1    2    0    0  0.16730412553E+03 -0.18888610242E+03  0.10538050287E+03  0.30065859690E+03  0.12498764499E+03 0.  0.
          4    1    3    3  502    0  0.88447140901E+02 -0.13869141399E+03  0.12316302102E+03  0.20549683135E+03  0.12700000000E+01 0.  1.
         -4    1    3    3    0  502  0.78856984627E+02 -0.50194688430E+02 -0.17782518153E+02  0.95161765551E+02  0.12700000000E+01 0.  1.
          1    1    1    2  503    0 -0.16960857847E+03  0.14663530817E+03  0.64249697207E+03  0.68049345524E+03  0.00000000000E+00 0. -1.
         -3    1    1    2    0  501  0.23044529468E+01  0.42250794250E+02 -0.10267824519E+03  0.11105522119E+03  0.00000000000E+00 0.  1.
<mgrwt>
<rscale>  0 0.98327054E+02</rscale>
<asrwt>0</asrwt>
<pdfrwt beam="1">  1        1 0.13364665E+00 0.22848945E+03</pdfrwt>
<pdfrwt beam="2">  1       -3 0.34385235E-01 0.42313593E+02</pdfrwt>
<totfact> 0.82524658E+01</totfact>
</mgrwt>
</event>
<event>
 7    1  0.3113151E-004  0.9110782E+02  0.7546771E-02  0.1373423E+00
          1   -1    0    0  503    0 -0.00000000000E+00  0.00000000000E+00  0.35201643824E+03  0.35201643824E+03  0.00000000000E+00 0. -1.
          2   -1    0    0  502    0  0.00000000000E+00 -0.00000000000E+00 -0.95186142661E+03  0.95186142661E+03  0.00000000000E+00 0. -1.
         25    2    1    2    0    0 -0.47055354840E+02 -0.63414448845E+02 -0.26426251772E+03  0.30281240386E+03  0.12500029967E+03 0.  0.
          4    1    3    3  501    0 -0.57992521929E+02 -0.50546159713E+02 -0.59270166054E+02  0.97121636855E+02  0.12700000000E+01 0. -1.
         -4    1    3    3    0  501  0.10937167089E+02 -0.12868289132E+02 -0.20499235167E+03  0.20569076701E+03  0.12700000000E+01 0. -1.
          2    1    1    2  502    0 -0.38062433028E+02  0.29469808066E+02 -0.66112308522E+03  0.66287325501E+03  0.00000000000E+00 0. -1.
          1    1    1    2  503    0  0.85117787868E+02  0.33944640779E+02  0.32554061457E+03  0.33819220598E+03  0.00000000000E+00 0. -1.
<mgrwt>
<rscale>  0 0.66224635E+02</rscale>
<asrwt>0</asrwt>
<pdfrwt beam="2">  1        2 0.14644022E+00 0.48137495E+02</pdfrwt>
<pdfrwt beam="1">  1        1 0.54156375E-01 0.91107823E+02</pdfrwt>
<totfact> 0.30102908E+02</totfact>
</mgrwt>
</event>
<event>
 7    1  0.3113151E-004  0.1113037E+03  0.7546771E-02  0.1329273E+00
         -3   -1    0    0    0  502 -0.00000000000E+00  0.00000000000E+00  0.47450889238E+03  0.47450889238E+03  0.00000000000E+00 0.  1.
         -1   -1    0    0    0  501  0.00000000000E+00 -0.00000000000E+00 -0.11840760532E+04  0.11840760532E+04  0.00000000000E+00 0.  1.
         25    2    1    2    0    0 -0.14960570539E+03  0.12633031029E+01 -0.67035646437E+03  0.69812826077E+03  0.12498726392E+03 0.  0.
          4    1    3    3  503    0 -0.91389314521E+02 -0.13106061461E+02 -0.16378345221E+03  0.18801704118E+03  0.12700000000E+01 0. -1.
         -4    1    3    3    0  503 -0.58216390866E+02  0.14369364564E+02 -0.50657301216E+03  0.51011121959E+03  0.12700000000E+01 0. -1.
         -1    1    1    2    0  501  0.96132952958E+02 -0.22098283121E+02 -0.49314283417E+03  0.50291125823E+03  0.00000000000E+00 0.  1.
         -3    1    1    2    0  502  0.53472752429E+02  0.20834980018E+02  0.45393213777E+03  0.45754542654E+03  0.00000000000E+00 0.  1.
<mgrwt>
<rscale>  0 0.79922099E+02</rscale>
<asrwt>0</asrwt>
<pdfrwt beam="2">  1       -1 0.18216554E+00 0.11130366E+03</pdfrwt>
<pdfrwt beam="1">  1       -3 0.73001369E-01 0.57388428E+02</pdfrwt>
<totfact> 0.18938797E+00</totfact>
</mgrwt>
</event>
<event>
 7    1  0.3113151E-004  0.6639835E+02  0.7546771E-02  0.1392533E+00
          2   -1    0    0  502    0  0.00000000000E+00  0.00000000000E+00  0.95567005482E+03  0.95567005482E+03  0.00000000000E+00 0. -1.
          2   -1    0    0  503    0 -0.00000000000E+00 -0.00000000000E+00 -0.11470193161E+04  0.11470193161E+04  0.00000000000E+00 0. -1.
         25    2    1    2    0    0  0.57797759683E+01 -0.93109892054E+02  0.51723309510E+02  0.16432288066E+03  0.12499540213E+03 0.  0.
          4    1    3    3  501    0  0.29266316120E+02 -0.57745969529E+02  0.87457051283E+02  0.10881848637E+03  0.12700000000E+01 0.  1.
         -4    1    3    3    0  501 -0.23486540152E+02 -0.35363922525E+02 -0.35733741774E+02  0.55504394293E+02  0.12700000000E+01 0.  1.
          2    1    1    2  502    0  0.37200125672E+02  0.42602842085E+02  0.84569340737E+03  0.84758255691E+03  0.00000000000E+00 0. -1.
          2    1    1    2  503    0 -0.42979901640E+02  0.50507049969E+02 -0.10887659782E+04  0.10907839334E+04  0.00000000000E+00 0. -1.
<mgrwt>
<rscale>  0 0.61281186E+02</rscale>
<asrwt>0</asrwt>
<pdfrwt beam="1">  1        2 0.14702616E+00 0.56558390E+02</pdfrwt>
<pdfrwt beam="2">  1        2 0.17646451E+00 0.66398349E+02</pdfrwt>
<totfact> 0.10988697E+02</totfact>
</mgrwt>
</event>
<event>
 7    1  0.3113151E-004  0.8727901E+03  0.7546771E-02  0.1205439E+00
          1   -1    0    0  503    0 -0.00000000000E+00  0.00000000000E+00  0.75356413805E+03  0.75356413805E+03  0.00000000000E+00 0.  1.
          2   -1    0    0  502    0  0.00000000000E+00 -0.00000000000E+00 -0.21019107718E+04  0.21019107718E+04  0.00000000000E+00 0. -1.
         25    2    1    2    0    0 -0.85981278740E+03 -0.23968188474E+02 -0.93946700362E+03  0.12798728969E+04  0.12499551118E+03 0.  0.
          4    1    3    3  501    0 -0.54473381117E+03 -0.31221324540E+02 -0.50757052542E+03  0.74521080730E+03  0.12700000000E+01 0. -1.
         -4    1    3    3    0  501 -0.31507897623E+03  0.72531360652E+01 -0.43189647819E+03  0.53466208957E+03  0.12700000000E+01 0. -1.
          2    1    1    2  502    0 -0.15734868015E+02 -0.18691318451E+02 -0.66258844293E+03  0.66303875917E+03  0.00000000000E+00 0. -1.
          1    1    1    2  503    0  0.87554765541E+03  0.42659506925E+02  0.25370881283E+03  0.91256325377E+03  0.00000000000E+00 0.  1.
<mgrwt>
<rscale>  0 0.14602918E+03</rscale>
<asrwt>0</asrwt>
<pdfrwt beam="2">  1        2 0.32337089E+00 0.24432590E+02</pdfrwt>
<pdfrwt beam="1">  1        1 0.11593294E+00 0.87279005E+03</pdfrwt>
<totfact> 0.28882628E+01</totfact>
</mgrwt>
</event>
<event>
 7    1  0.3113151E-004  0.4941174E+02  0.7546771E-02  0.1502232E+00
         -1   -1    0    0    0  501 -0.00000000000E+00  0.00000000000E+00  0.42386477323E+02  0.42386477323E+02  0.00000000000E+00 0.  1.
          2   -1    0    0  503    0  0.00000000000E+00 -0.00000000000E+00 -0.13416702719E+04  0.13416702719E+04  0.00000000000E+00 0. -1.
         25    2    1    2    0    0 -0.51109149411E+02  0.86856110274E+01 -0.71732328020E+03  0.72997575463E+03  0.12499731612E+03 0.  0.
          4    1    3    3  502    0 -0.44366099851E+02 -0.17630292690E+02 -0.88491233175E+02  0.10055590129E+03  0.12700000000E+01 0. -1.
         -4    1    3    3    0  502 -0.67430495598E+01  0.26315903717E+02 -0.62883204702E+03  0.62941985333E+03  0.12700000000E+01 0. -1.
          2    1    1    2  503    0  0.77562396666E+01 -0.32825250875E+02 -0.60025017326E+03  0.60119707821E+03  0.00000000000E+00 0. -1.
         -1    1    1    2    0  501  0.43352909744E+02  0.24139639847E+02  0.18289658847E+02  0.52883916421E+02  0.00000000000E+00 0.  1.
<mgrwt>
<rscale>  0 0.40824217E+02</rscale>
<asrwt>0</asrwt>
<pdfrwt beam="2">  1        2 0.20641081E+00 0.33729162E+02</pdfrwt>
<pdfrwt beam="1">  1       -1 0.65209967E-02 0.49411744E+02</pdfrwt>
<totfact> 0.22585685E+03</totfact>
</mgrwt>
</event>
<event>
 7    1  0.3113151E-004  0.8404746E+02  0.7546771E-02  0.1411687E+00
          2   -1    0    0  502    0  0.00000000000E+00  0.00000000000E+00  0.26352596352E+04  0.26352596352E+04  0.00000000000E+00 0. -1.
          1   -1    0    0  503    0 -0.00000000000E+00 -0.00000000000E+00 -0.11068907269E+03  0.11068907269E+03  0.00000000000E+00 0. -1.
         25    2    1    2    0    0  0.90038557291E+02 -0.70226635638E+02  0.33148001216E+03  0.37221300349E+03  0.12499919742E+03 0.  0.
          4    1    3    3  501    0  0.71224907196E+02 -0.89035150304E+02  0.32553085384E+03  0.34492346267E+03  0.12700000000E+01 0.  1.
         -4    1    3    3    0  501  0.18813650095E+02  0.18808514666E+02  0.59491583180E+01  0.27289540826E+02  0.12700000000E+01 0.  1.
          2    1    1    2  502    0 -0.15234853011E+02  0.35261251894E+02  0.22643444154E+04  0.22646701941E+04  0.00000000000E+00 0. -1.
          1    1    1    2  503    0 -0.74803704280E+02  0.34965383744E+02 -0.71253865078E+02  0.10906551024E+03  0.00000000000E+00 0. -1.
<mgrwt>
<rscale>  0 0.56819043E+02</rscale>
<asrwt>0</asrwt>
<pdfrwt beam="1">  1        2 0.40542451E+00 0.38411673E+02</pdfrwt>
<pdfrwt beam="2">  1        1 0.17029090E-01 0.84047463E+02</pdfrwt>
<totfact> 0.18340136E+02</totfact>
</mgrwt>
</event>
<event>
 7    1  0.3113151E-004  0.9444078E+02  0.7546771E-02  0.1468359E+00
          1   -1    0    0  503    0 -0.00000000000E+00  0.00000000000E+00  0.23681275011E+03  0.23681275011E+03  0.00000000000E+00 0. -1.
          2   -1    0    0  502    0  0.00000000000E+00 -0.00000000000E+00 -0.30515934834E+03  0.30515934834E+03  0.00000000000E+00 0. -1.
         25    2    1    2    0    0 -0.93889898030E+02  0.66667531803E+02 -0.15421575105E+03  0.22949488965E+03  0.12500213501E+03 0.  0.
          4    1    3    3  501    0  0.13067362880E+02  0.26215607549E+02  0.85781044305E+01  0.30548499594E+02  0.12700000000E+01 0.  1.
         -4    1    3    3    0  501 -0.10695726091E+03  0.40451924254E+02 -0.16279385548E+03  0.19894639006E+03  0.12700000000E+01 0.  1.
          2    1    1    2  502    0  0.15502389112E+02 -0.16139838935E+02 -0.10109568165E+03  0.10354301191E+03  0.00000000000E+00 0. -1.
          1    1    1    2  503    0  0.78387508917E+02 -0.50527692868E+02  0.18696483447E+03  0.20893419688E+03  0.00000000000E+00 0. -1.
<mgrwt>
<rscale>  0 0.45972685E+02</rscale>
<asrwt>0</asrwt>
<pdfrwt beam="2">  1        2 0.46947592E-01 0.22378974E+02</pdfrwt>
<pdfrwt beam="1">  1        1 0.36432731E-01 0.94440781E+02</pdfrwt>
<totfact> 0.16702707E+03</totfact>
</mgrwt>
</event>
<event>
 7    1  0.3113151E-004  0.3915880E+02  0.7546771E-02  0.1518071E+00
         -1   -1    0    0    0  501 -0.00000000000E+00  0.00000000000E+00  0.29191182062E+03  0.29191182062E+03  0.00000000000E+00 0.  1.
          2   -1    0    0  503    0  0.00000000000E+00 -0.00000000000E+00 -0.54968880356E+03  0.54968880356E+03  0.00000000000E+00 0. -1.
         25    2    1    2    0    0  0.15315378782E+02 -0.15085679914E+02 -0.31060882365E+03  0.33549795143E+03  0.12497557969E+03 0.  0.
          4    1    3    3  502    0  0.55282103400E+02  0.18969870453E+02 -0.80602722806E+02  0.99570973506E+02  0.12700000000E+01 0. -1.
         -4    1    3    3    0  502 -0.39966724618E+02 -0.34055550366E+02 -0.23000610084E+03  0.23592697792E+03  0.12700000000E+01 0. -1.
          2    1    1    2  503    0  0.19817685556E+02  0.32690969689E+02 -0.22362385307E+03  0.22686795239E+03  0.00000000000E+00 0. -1.
         -1    1    1    2    0  501 -0.35133064338E+02 -0.17605289775E+02  0.27645569377E+03  0.27923472037E+03  0.00000000000E+00 0.  1.
<mgrwt>
<rscale>  0 0.38691000E+02</rscale>
<asrwt>0</asrwt>
<pdfrwt beam="2">  1        2 0.84567507E-01 0.38228787E+02</pdfrwt>
<pdfrwt beam="1">  1       -1 0.44909511E-01 0.39158801E+02</pdfrwt>
<totfact> 0.33301491E+02</totfact>
</mgrwt>
</event>
<event>
 7    1  0.3113151E-004  0.5191101E+02  0.7546771E-02  0.1522935E+00
         -2   -1    0    0    0  501  0.00000000000E+00  0.00000000000E+00  0.60115875834E+02  0.60115875834E+02  0.00000000000E+00 0.  1.
         -1   -1    0    0    0  502 -0.00000000000E+00 -0.00000000000E+00 -0.26573614828E+03  0.26573614828E+03  0.00000000000E+00 0.  1.
         25    2    1    2    0    0 -0.47879267516E+02 -0.15501675796E+01 -0.50110682639E+02  0.14293693431E+03  0.12500023759E+03 0.  0.
          4    1    3    3  503    0 -0.33995168445E+02  0.77672450553E+01  0.38959728424E+02  0.52301767774E+02  0.12700000000E+01 0. -1.
         -4    1    3    3    0  503 -0.13884099070E+02 -0.93174126349E+01 -0.89070411064E+02  0.90635166532E+02  0.12700000000E+01 0. -1.
         -2    1    1    2    0  501  0.18739508519E+01  0.27852633639E+02 -0.12850727508E+02  0.30731451152E+02  0.00000000000E+00 0.  1.
         -1    1    1    2    0  502  0.46005316664E+02 -0.26302466059E+02 -0.14265886230E+03  0.15218363866E+03  0.00000000000E+00 0.  1.
<mgrwt>
<rscale>  0 0.38067404E+02</rscale>
<asrwt>0</asrwt>
<pdfrwt beam="1">  1       -2 0.92485964E-02 0.27915603E+02</pdfrwt>
<pdfrwt beam="2">  1       -1 0.40882484E-01 0.51911013E+02</pdfrwt>
<totfact> 0.27583850E+03</totfact>
</mgrwt>
</event>
<event>
 7    1  0.3113151E-004  0.6601398E+02  0.7546771E-02  0.1415693E+00
          2   -1    0    0  503    0  0.00000000000E+00  0.00000000000E+00  0.65488989076E+03  0.65488989076E+03  0.00000000000E+00 0. -1.
         -1   -1    0    0    0  501 -0.00000000000E+00 -0.00000000000E+00 -0.30045688290E+02  0.30045688290E+02  0.00000000000E+00 0.  1.
         25    2    1    2    0    0  0.70151081819E+02 -0.32470362159E+02  0.21462967881E+03  0.26012334932E+03  0.12499103623E+03 0.  0.
          4    1    3    3  502    0  0.41511043419E+02 -0.53604599707E+02  0.33702320437E+02  0.75723702619E+02  0.12700000000E+01 0. -1.
         -4    1    3    3    0  502  0.28640038401E+02  0.21134237548E+02  0.18092735838E+03  0.18439964671E+03  0.12700000000E+01 0. -1.
          2    1    1    2  503    0 -0.41338640064E+02 -0.23208464923E+02  0.19244217932E+03  0.19819563161E+03  0.00000000000E+00 0. -1.
         -1    1    1    2    0  501 -0.28812441756E+02  0.55678827082E+02  0.21777234434E+03  0.22661659812E+03  0.00000000000E+00 0.  1.
<mgrwt>
<rscale>  0 0.55942731E+02</rscale>
<asrwt>0</asrwt>
<pdfrwt beam="1">  1        2 0.10075228E+00 0.47407974E+02</pdfrwt>
<pdfrwt beam="2">  1       -1 0.46224141E-02 0.66013982E+02</pdfrwt>
<totfact> 0.93967348E+03</totfact>
</mgrwt>
</event>
<event>
 7    1  0.3113151E-004  0.9840928E+02  0.7546771E-02  0.1476048E+00
          2   -1    0    0  503    0  0.00000000000E+00  0.00000000000E+00  0.12362672138E+04  0.12362672138E+04  0.00000000000E+00 0. -1.
         -1   -1    0    0    0  501 -0.00000000000E+00 -0.00000000000E+00 -0.28126488819E+02  0.28126488819E+02  0.00000000000E+00 0.  1.
         25    2    1    2    0    0 -0.20615517008E+02  0.10531702746E+03  0.26777500139E+03  0.31439279568E+03  0.12499081084E+03 0.  0.
          4    1    3    3  502    0  0.36420360431E+02  0.66826466710E+02  0.21375593071E+03  0.22690401081E+03  0.12700000000E+01 0. -1.
         -4    1    3    3    0  502 -0.57035877440E+02  0.38490560748E+02  0.54019070675E+02  0.87488784873E+02  0.12700000000E+01 0. -1.
          2    1    1    2  503    0  0.18311074467E+01 -0.97543955503E+02  0.89483739410E+03  0.90014006582E+03  0.00000000000E+00 0. -1.
         -1    1    1    2    0  501  0.18784409562E+02 -0.77730719550E+01  0.45528329451E+02  0.49860841076E+02  0.00000000000E+00 0.  1.
<mgrwt>
<rscale>  0 0.44727821E+02</rscale>
<asrwt>0</asrwt>
<pdfrwt beam="1">  1        2 0.19019491E+00 0.98409283E+02</pdfrwt>
<pdfrwt beam="2">  1       -1 0.43271531E-02 0.20329159E+02</pdfrwt>
<totfact> 0.37875154E+03</totfact>
</mgrwt>
</event>
<event>
 7    1  0.3113151E-004  0.1018702E+03  0.7546771E-02  0.1301072E+00
         -3   -1    0    0    0  502 -0.00000000000E+00  0.00000000000E+00  0.18884007500E+03  0.18884007500E+03  0.00000000000E+00 0.  1.
         -1   -1    0    0    0  501  0.00000000000E+00 -0.00000000000E+00 -0.33901943740E+03  0.33901943740E+03  0.00000000000E+00 0.  1.
         25    2    1    2    0    0  0.15484340320E+03  0.41520077559E+02  0.44922210657E+02  0.20819743958E+03  0.12501108942E+03 0.  0.
          4    1    3    3  503    0  0.12688008433E+03 -0.26553363930E+02  0.30960892225E+02  0.13328100646E+03  0.12700000000E+01 0. -1.
         -4    1    3    3    0  503  0.27963318878E+02  0.68073441489E+02  0.13961318432E+02  0.74916433119E+02  0.12700000000E+01 0. -1.
         -1    1    1    2    0  501 -0.74613223981E+02 -0.31070427584E+02 -0.22051223035E+03  0.23485771948E+03  0.00000000000E+00 0.  1.
         -3    1    1    2    0  502 -0.80230179223E+02 -0.10449649976E+02  0.25410657299E+02  0.84804353350E+02  0.00000000000E+00 0.  1.
<mgrwt>
<rscale>  0 0.90738896E+02</rscale>
<asrwt>0</asrwt>
<pdfrwt beam="2">  1       -1 0.52156836E-01 0.80823911E+02</pdfrwt>
<pdfrwt beam="1">  1       -3 0.29052320E-01 0.10187019E+03</pdfrwt>
<totfact> 0.19097858E+02</totfact>
</mgrwt>
</event>
<event>
 7    1  0.5242080E-004  0.6536184E+02  0.7546771E-02  0.1399887E+00
         -1   -1    0    0    0  501 -0.00000000000E+00  0.00000000000E+00  0.11981994572E+04  0.11981994572E+04  0.00000000000E+00 0.  1.
          2   -1    0    0  503    0  0.00000000000E+00 -0.00000000000E+00 -0.16642833236E+02  0.16642833236E+02  0.00000000000E+00 0. -1.
         25    2    1    2    0    0 -0.82687427993E+02  0.48482294500E+02  0.65526139457E+03  0.67392910351E+03  0.12500079086E+03 0.  0.
          4    1    3    3  502    0 -0.92594596067E+02  0.62120969312E+02  0.64407837624E+03  0.65365995876E+03  0.12700000000E+01 0. -1.
         -4    1    3    3    0  502  0.99071680744E+01 -0.13638674811E+02  0.11183018333E+02  0.20269144750E+02  0.12700000000E+01 0. -1.
          2    1    1    2  503    0  0.22485059611E+02 -0.49302191380E+02  0.14308404563E+03  0.15300107220E+03  0.00000000000E+00 0. -1.
         -1    1    1    2    0  501  0.60202368382E+02  0.81989688020E+00  0.38321118377E+03  0.38791211473E+03  0.00000000000E+00 0.  1.
<mgrwt>
<rscale>  0 0.59512972E+02</rscale>
<asrwt>0</asrwt>
<pdfrwt beam="2">  1        2 0.25604368E-02 0.54187489E+02</pdfrwt>
<pdfrwt beam="1">  1       -1 0.18433831E+00 0.65361838E+02</pdfrwt>
<totfact> 0.88409890E+02</totfact>
</mgrwt>
</event>
<event>
 7    1  0.3113151E-004  0.8401603E+02  0.7546771E-02  0.1348559E+00
          1   -1    0    0  503    0 -0.00000000000E+00  0.00000000000E+00  0.44801193108E+03  0.44801193108E+03  0.00000000000E+00 0. -1.
          2   -1    0    0  502    0  0.00000000000E+00 -0.00000000000E+00 -0.15800652787E+04  0.15800652787E+04  0.00000000000E+00 0. -1.
         25    2    1    2    0    0 -0.74681026175E+02 -0.56198724760E+02  0.26664781455E+03  0.30896888368E+03  0.12500064699E+03 0.  0.
          4    1    3    3  501    0 -0.80146931452E+02 -0.90410488152E+02  0.21777042499E+03  0.24904448978E+03  0.12700000000E+01 0. -1.
         -4    1    3    3    0  501  0.54659052772E+01  0.34211763392E+02  0.48877389558E+02  0.59924393905E+02  0.12700000000E+01 0. -1.
          2    1    1    2  502    0  0.57275066447E+02 -0.29249849725E+02 -0.15463198162E+04  0.15476566030E+04  0.00000000000E+00 0. -1.
          1    1    1    2  503    0  0.17405959728E+02  0.85448574485E+02  0.14761865404E+03  0.17145172305E+03  0.00000000000E+00 0. -1.
<mgrwt>
<rscale>  0 0.73506521E+02</rscale>
<asrwt>0</asrwt>
<pdfrwt beam="2">  1        2 0.24308697E+00 0.64311639E+02</pdfrwt>
<pdfrwt beam="1">  1        1 0.68924913E-01 0.84016031E+02</pdfrwt>
<totfact> 0.10223014E+02</totfact>
</mgrwt>
</event>
<event>
 7    1  0.3113151E-004  0.1092176E+03  0.7546771E-02  0.1444577E+00
          2   -1    0    0  503    0  0.00000000000E+00  0.00000000000E+00  0.28603195450E+03  0.28603195450E+03  0.00000000000E+00 0. -1.
          2   -1    0    0  502    0 -0.00000000000E+00 -0.00000000000E+00 -0.32203751466E+03  0.32203751466E+03  0.00000000000E+00 0. -1.
         25    2    1    2    0    0 -0.18578066226E+02  0.10833090585E+03  0.65019515682E+02  0.17869870093E+03  0.12499983434E+03 0.  0.
          4    1    3    3  501    0 -0.56572521718E+02  0.11022615825E+03  0.31173479448E+02  0.12776405949E+03  0.12700000000E+01 0. -1.
         -4    1    3    3    0  501  0.37994455492E+02 -0.18952523936E+01  0.33846036233E+02  0.50934641439E+02  0.12700000000E+01 0. -1.
          2    1    1    2  502    0  0.22990895803E+02  0.11642535078E+01 -0.24631463332E+03  0.24738802591E+03  0.00000000000E+00 0. -1.
          2    1    1    2  503    0 -0.44128295761E+01 -0.10949515936E+03  0.14528955749E+03  0.18198274232E+03  0.00000000000E+00 0. -1.
<mgrwt>
<rscale>  0 0.50142084E+02</rscale>
<asrwt>0</asrwt>
<pdfrwt beam="1">  1        2 0.44004916E-01 0.10921763E+03</pdfrwt>
<pdfrwt beam="2">  1        2 0.49544233E-01 0.23020356E+02</pdfrwt>
<totfact> 0.17610360E+03</totfact>
</mgrwt>
</event>
<event>
 7    1  0.3113151E-004  0.9996800E+02  0.7546771E-02  0.1342572E+00
          2   -1    0    0  503    0  0.00000000000E+00  0.00000000000E+00  0.15909807463E+03  0.15909807463E+03  0.00000000000E+00 0.  1.
          2   -1    0    0  502    0 -0.00000000000E+00 -0.00000000000E+00 -0.16682448384E+04  0.16682448384E+04  0.00000000000E+00 0. -1.
         25    2    1    2    0    0  0.13395509965E+03 -0.53987901125E+02 -0.34965497555E+03  0.39842425597E+03  0.12499849452E+03 0.  0.
          4    1    3    3  501    0  0.36875311475E+01 -0.49306597676E+02 -0.16597362419E+03  0.17318659095E+03  0.12700000000E+01 0. -1.
         -4    1    3    3    0  501  0.13026756850E+03 -0.46813034488E+01 -0.18368135136E+03  0.22523766502E+03  0.12700000000E+01 0. -1.
          2    1    1    2  502    0 -0.56555879833E+02 -0.62620863339E+01 -0.12756325293E+04  0.12769009872E+04  0.00000000000E+00 0. -1.
          2    1    1    2  503    0 -0.77399219819E+02  0.60249987459E+02  0.11614074107E+03  0.15201766988E+03  0.00000000000E+00 0.  1.
<mgrwt>
<rscale>  0 0.75421016E+02</rscale>
<asrwt>0</asrwt>
<pdfrwt beam="1">  1        2 0.24476626E-01 0.99968000E+02</pdfrwt>
<pdfrwt beam="2">  1        2 0.25665306E+00 0.56901505E+02</pdfrwt>
<totfact> 0.42502490E+02</totfact>
</mgrwt>
</event>
<event>
 7    1  0.3113151E-004  0.6766524E+02  0.7546771E-02  0.1387818E+00
          2   -1    0    0  502    0  0.00000000000E+00  0.00000000000E+00  0.10878313186E+04  0.10878313186E+04  0.00000000000E+00 0. -1.
          2   -1    0    0  503    0 -0.00000000000E+00 -0.00000000000E+00 -0.18610037867E+04  0.18610037867E+04  0.00000000000E+00 0. -1.
         25    2    1    2    0    0 -0.19078523642E+02  0.45486306505E+02  0.40629220021E+03  0.42793804307E+03  0.12499849046E+03 0.  0.
          4    1    3    3  501    0  0.32826778716E+01 -0.24227851492E+02  0.12676408977E+02  0.27569349040E+02  0.12700000000E+01 0.  1.
         -4    1    3    3    0  501 -0.22361201514E+02  0.69714157997E+02  0.39361579123E+03  0.40036869403E+03  0.12700000000E+01 0.  1.
          2    1    1    2  502    0  0.71253259582E+02 -0.20984570900E+02  0.66820884501E+03  0.67232465355E+03  0.00000000000E+00 0. -1.
          2    1    1    2  503    0 -0.52174735940E+02 -0.24501735606E+02 -0.18476735133E+04  0.18485724086E+04  0.00000000000E+00 0. -1.
<mgrwt>
<rscale>  0 0.62452569E+02</rscale>
<asrwt>0</asrwt>
<pdfrwt beam="1">  1        2 0.16735867E+00 0.67665241E+02</pdfrwt>
<pdfrwt beam="2">  1        2 0.28630827E+00 0.57641462E+02</pdfrwt>
<totfact> 0.40319167E+01</totfact>
</mgrwt>
</event>
<event>
 7    1  0.3113151E-004  0.7189605E+02  0.7546771E-02  0.1355352E+00
          2   -1    0    0  502    0  0.00000000000E+00  0.00000000000E+00  0.27693112603E+04  0.27693112603E+04  0.00000000000E+00 0. -1.
          1   -1    0    0  503    0 -0.00000000000E+00 -0.00000000000E+00 -0.19260802089E+02  0.19260802089E+02  0.00000000000E+00 0. -1.
         25    2    1    2    0    0 -0.63641427086E+02 -0.63644685899E+02  0.50128952989E+03  0.52441663461E+03  0.12498294522E+03 0.  0.
          4    1    3    3  501    0 -0.42275229778E+02  0.54220847096E+01  0.43360183046E+02  0.60813751974E+02  0.12700000000E+01 0. -1.
         -4    1    3    3    0  501 -0.21366197308E+02 -0.69066770609E+02  0.45792934684E+03  0.46360288264E+03  0.12700000000E+01 0. -1.
          2    1    1    2  502    0  0.71367680904E+02 -0.87003745138E+01  0.20687252394E+04  0.20699741927E+04  0.00000000000E+00 0. -1.
          1    1    1    2  503    0 -0.77262538185E+01  0.72345060413E+02  0.18003568896E+03  0.19418123510E+03  0.00000000000E+00 0. -1.
<mgrwt>
<rscale>  0 0.71413144E+02</rscale>
<asrwt>0</asrwt>
<pdfrwt beam="1">  1        2 0.42604757E+00 0.71896053E+02</pdfrwt>
<pdfrwt beam="2">  1        1 0.29632025E-02 0.70933478E+02</pdfrwt>
<totfact> 0.14007309E+03</totfact>
</mgrwt>
</event>
<event>
 7    1  0.3113151E-004  0.7997683E+02  0.7546771E-02  0.1455670E+00
          2   -1    0    0  503    0  0.00000000000E+00  0.00000000000E+00  0.59879440200E+03  0.59879440200E+03  0.00000000000E+00 0. -1.
         -1   -1    0    0    0  501 -0.00000000000E+00 -0.00000000000E+00 -0.12821629361E+04  0.12821629361E+04  0.00000000000E+00 0.  1.
         25    2    1    2    0    0  0.42460582226E+02 -0.32535877174E+02 -0.11610649916E+03  0.17879603242E+03  0.12500327082E+03 0.  0.
          4    1    3    3  502    0 -0.26133878155E+01  0.35558185951E+01  0.25475694680E+02  0.25886242701E+02  0.12700000000E+01 0. -1.
         -4    1    3    3    0  502  0.45073970041E+02 -0.36091695769E+02 -0.14158219384E+03  0.15290978972E+03  0.12700000000E+01 0. -1.
          2    1    1    2  503    0  0.15224237786E+02 -0.24647466871E+02  0.56562489573E+03  0.56636631054E+03  0.00000000000E+00 0. -1.
         -1    1    1    2    0  501 -0.57684820011E+02  0.57183344045E+02 -0.11328869307E+04  0.11357949951E+04  0.00000000000E+00 0.  1.
<mgrwt>
<rscale>  0 0.48134688E+02</rscale>
<asrwt>0</asrwt>
<pdfrwt beam="1">  1        2 0.92122216E-01 0.28970244E+02</pdfrwt>
<pdfrwt beam="2">  1       -1 0.19725584E+00 0.79976826E+02</pdfrwt>
<totfact> 0.11837887E+01</totfact>
</mgrwt>
</event>
<event>
 7    1  0.3113151E-004  0.6247635E+02  0.7546771E-02  0.1397713E+00
         -1   -1    0    0    0  501  0.00000000000E+00  0.00000000000E+00  0.33562741576E+03  0.33562741576E+03  0.00000000000E+00 0.  1.
         -3   -1    0    0    0  502 -0.00000000000E+00 -0.00000000000E+00 -0.91818667608E+03  0.91818667608E+03  0.00000000000E+00 0.  1.
         25    2    1    2    0    0  0.58442311034E+02  0.79848468475E+02  0.49007182331E+02  0.16678598478E+03  0.12499831664E+03 0.  0.
          4    1    3    3  503    0  0.95375132923E+02  0.52280349289E+02  0.15677535958E+02  0.10989562746E+03  0.12700000000E+01 0.  1.
         -4    1    3    3    0  503 -0.36932821890E+02  0.27568119186E+02  0.33329646374E+02  0.56890357317E+02  0.12700000000E+01 0.  1.
         -1    1    1    2    0  501 -0.54895547172E+02 -0.17691685536E+02  0.22292825737E+03  0.23026837553E+03  0.00000000000E+00 0.  1.
         -3    1    1    2    0  502 -0.35467638613E+01 -0.62156782939E+02 -0.85449470002E+03  0.85675973153E+03  0.00000000000E+00 0.  1.
<mgrwt>
<rscale>  0 0.60028189E+02</rscale>
<asrwt>0</asrwt>
<pdfrwt beam="1">  1       -1 0.51634987E-01 0.57675964E+02</pdfrwt>
<pdfrwt beam="2">  1       -3 0.14125949E+00 0.62476346E+02</pdfrwt>
<totfact> 0.71634836E+00</totfact>
</mgrwt>
</event>
<event>
 7    1  0.3113151E-004  0.6284779E+02  0.7546771E-02  0.1543030E+00
          2   -1    0    0  502    0  0.00000000000E+00  0.00000000000E+00  0.30145403812E+04  0.30145403812E+04  0.00000000000E+00 0. -1.
          1   -1    0    0  503    0 -0.00000000000E+00 -0.00000000000E+00 -0.88635108457E+02  0.88635108457E+02  0.00000000000E+00 0. -1.
         25    2    1    2    0    0  0.17797603077E+02 -0.55586578409E+02  0.27461837477E+02  0.14066708601E+03  0.12500581664E+03 0.  0.
          4    1    3    3  501    0 -0.93908499502E+01 -0.41618989185E+02 -0.44992832874E+02  0.62018515248E+02  0.12700000000E+01 0.  1.
         -4    1    3    3    0  501  0.27188453027E+02 -0.13967589223E+02  0.72454670351E+02  0.78648570758E+02  0.12700000000E+01 0.  1.
          2    1    1    2  502    0  0.10440756961E+01  0.62884169461E+02  0.29269178153E+04  0.29275934497E+04  0.00000000000E+00 0. -1.
          1    1    1    2  503    0 -0.18841678773E+02 -0.72975910518E+01 -0.28474380042E+02  0.34914954001E+02  0.00000000000E+00 0. -1.
<mgrwt>
<rscale>  0 0.35635281E+02</rscale>
<asrwt>0</asrwt>
<pdfrwt beam="1">  1        2 0.46377537E+00 0.62847789E+02</pdfrwt>
<pdfrwt beam="2">  1        1 0.13636173E-01 0.20205536E+02</pdfrwt>
<totfact> 0.12765957E+02</totfact>
</mgrwt>
</event>
<event>
 7    1  0.3113151E-004  0.6484322E+02  0.7546771E-02  0.1507149E+00
         -2   -1    0    0    0  501 -0.00000000000E+00  0.00000000000E+00  0.34654066051E+03  0.34654066051E+03  0.00000000000E+00 0.  1.
          2   -1    0    0  503    0  0.00000000000E+00 -0.00000000000E+00 -0.14383126113E+03  0.14383126113E+03  0.00000000000E+00 0.  1.
         25    2    1    2    0    0 -0.84324825667E+02 -0.21298008843E+02  0.44207025771E+02  0.15855859477E+03  0.12498914131E+03 0.  0.
          4    1    3    3  502    0 -0.74402522521E+02  0.39381327326E+02  0.48053515979E+02  0.96940072197E+02  0.12700000000E+01 0. -1.
         -4    1    3    3    0  502 -0.99223031455E+01 -0.60679336169E+02 -0.38464902076E+01  0.61618522577E+02  0.12700000000E+01 0. -1.
          2    1    1    2  503    0  0.61161433690E+02  0.12288826230E+02 -0.74681259486E+02  0.97308924254E+02  0.00000000000E+00 0.  1.
         -2    1    1    2    0  501  0.23163391976E+02  0.90091826125E+01  0.23318363309E+03  0.23450440261E+03  0.00000000000E+00 0.  1.
<mgrwt>
<rscale>  0 0.40144689E+02</rscale>
<asrwt>0</asrwt>
<pdfrwt beam="2">  1        2 0.22127886E-01 0.64843217E+02</pdfrwt>
<pdfrwt beam="1">  1       -2 0.53313948E-01 0.24853734E+02</pdfrwt>
<totfact> 0.79725238E+02</totfact>
</mgrwt>
</event>
<event>
 7    1  0.3113151E-004  0.6968624E+02  0.7546771E-02  0.1485709E+00
          1   -1    0    0  503    0  0.00000000000E+00  0.00000000000E+00  0.21215853481E+03  0.21215853481E+03  0.00000000000E+00 0. -1.
          1   -1    0    0  502    0 -0.00000000000E+00 -0.00000000000E+00 -0.10244857637E+04  0.10244857637E+04  0.00000000000E+00 0. -1.
         25    2    1    2    0    0  0.41618879880E+02 -0.85989329401E+02  0.15220415968E+03  0.21889862509E+03  0.12499682359E+03 0.  0.
          4    1    3    3  501    0  0.64204077851E+02 -0.33666261802E+02  0.20439850716E+02  0.75332471045E+02  0.12700000000E+01 0.  1.
         -4    1    3    3    0  501 -0.22585197972E+02 -0.52323067599E+02  0.13176430896E+03  0.14356615404E+03  0.12700000000E+01 0.  1.
          1    1    1    2  502    0 -0.35184042766E+02  0.59956054669E+02 -0.98282691392E+03  0.98528239002E+03  0.00000000000E+00 0. -1.
          1    1    1    2  503    0 -0.64348371136E+01  0.26033274732E+02  0.18295525344E+02  0.32463283407E+02  0.00000000000E+00 0. -1.
<mgrwt>
<rscale>  0 0.43229147E+02</rscale>
<asrwt>0</asrwt>
<pdfrwt beam="1">  1        1 0.32639775E-01 0.26816758E+02</pdfrwt>
<pdfrwt beam="2">  1        1 0.15761319E+00 0.69686243E+02</pdfrwt>
<totfact> 0.26257979E+02</totfact>
</mgrwt>
</event>
<event>
 7    1  0.3806821E-004  0.5057093E+03  0.7546771E-02  0.1012299E+00
         -1   -1    0    0    0  501 -0.00000000000E+00  0.00000000000E+00  0.32413807919E+03  0.32413807919E+03  0.00000000000E+00 0.  1.
          1   -1    0    0  503    0  0.00000000000E+00 -0.00000000000E+00 -0.19724767713E+03  0.19724767713E+03  0.00000000000E+00 0. -1.
         25    2    1    2    0    0  0.67891782705E+02 -0.19265051901E+03  0.17008769774E+03  0.29372988022E+03  0.12499560384E+03 0.  0.
          4    1    3    3  502    0  0.30679721608E+02 -0.36563935232E+02 -0.13771953514E+02  0.49693523533E+02  0.12700000000E+01 0. -1.
         -4    1    3    3    0  502  0.37212061097E+02 -0.15608658378E+03  0.18385965126E+03  0.24403635669E+03  0.12700000000E+01 0. -1.
          1    1    1    2  503    0  0.50646556269E+01  0.63976793746E+02 -0.47231032795E+02  0.79683444538E+02  0.00000000000E+00 0. -1.
         -1    1    1    2    0  501 -0.72956438332E+02  0.12867372526E+03  0.40337371102E+01  0.14797243156E+03  0.00000000000E+00 0.  1.
<mgrwt>
<rscale>  0 0.50570934E+03</rscale>
<asrwt>0</asrwt>
<pdfrwt beam="2">  1        1 0.30345796E-01 0.50570934E+03</pdfrwt>
<pdfrwt beam="1">  1       -1 0.49867397E-01 0.50570934E+03</pdfrwt>
<totfact> 0.61665290E+02</totfact>
</mgrwt>
</event>
<event>
 7    1  0.3113151E-004  0.1139947E+03  0.7546771E-02  0.1306581E+00
          1   -1    0    0  503    0  0.00000000000E+00  0.00000000000E+00  0.73985219947E+02  0.73985219947E+02  0.00000000000E+00 0. -1.
          1   -1    0    0  502    0 -0.00000000000E+00 -0.00000000000E+00 -0.13299119014E+04  0.13299119014E+04  0.00000000000E+00 0. -1.
         25    2    1    2    0    0 -0.10552289554E+03  0.57542364300E+02 -0.34208478407E+03  0.38352745147E+03  0.12500040545E+03 0.  0.
          4    1    3    3  501    0 -0.15794840821E+02  0.79487049604E+01 -0.23355118953E+03  0.23422303460E+03  0.12700000000E+01 0. -1.
         -4    1    3    3    0  501 -0.89728054722E+02  0.49593659340E+02 -0.10853359454E+03  0.14930441686E+03  0.12700000000E+01 0. -1.
          1    1    1    2  502    0  0.51708961736E+02  0.45189425325E+02 -0.90108393647E+03  0.90369694115E+03  0.00000000000E+00 0. -1.
          1    1    1    2  503    0  0.53813933807E+02 -0.10273178963E+03 -0.12757960957E+02  0.11667272877E+03  0.00000000000E+00 0. -1.
<mgrwt>
<rscale>  0 0.88477636E+02</rscale>
<asrwt>0</asrwt>
<pdfrwt beam="1">  1        1 0.11382342E-01 0.11399471E+03</pdfrwt>
<pdfrwt beam="2">  1        1 0.20460182E+00 0.68672417E+02</pdfrwt>
<totfact> 0.64265955E+02</totfact>
</mgrwt>
</event>
<event>
 7    1  0.3113151E-004  0.8802159E+02  0.7546771E-02  0.1461889E+00
          1   -1    0    0  503    0  0.00000000000E+00  0.00000000000E+00  0.83120266944E+03  0.83120266944E+03  0.00000000000E+00 0. -1.
         -3   -1    0    0    0  501 -0.00000000000E+00 -0.00000000000E+00 -0.56813326938E+03  0.56813326938E+03  0.00000000000E+00 0.  1.
         25    2    1    2    0    0  0.77601878394E+02  0.77902100504E+02  0.12682197031E+03  0.20928387187E+03  0.12500055232E+03 0.  0.
          4    1    3    3  502    0 -0.69220388799E+01 -0.29200294637E+02  0.23177170711E+02  0.37938976941E+02  0.12700000000E+01 0. -1.
         -4    1    3    3    0  502  0.84523917274E+02  0.10710239514E+03  0.10364479959E+03  0.17134489493E+03  0.12700000000E+01 0. -1.
          1    1    1    2  503    0 -0.55021877559E+02 -0.66808612990E+02  0.66002259337E+03  0.66567305905E+03  0.00000000000E+00 0. -1.
         -3    1    1    2    0  501 -0.22580000835E+02 -0.11093487514E+02 -0.52377516362E+03  0.52437900790E+03  0.00000000000E+00 0.  1.
<mgrwt>
<rscale>  0 0.47057856E+02</rscale>
<asrwt>0</asrwt>
<pdfrwt beam="1">  1        1 0.12787733E+00 0.88021592E+02</pdfrwt>
<pdfrwt beam="2">  1       -3 0.87405119E-01 0.25157939E+02</pdfrwt>
<totfact> 0.14257199E+01</totfact>
</mgrwt>
</event>
<event>
 7    1  0.3113151E-004  0.8889092E+02  0.7546771E-02  0.1414472E+00
          2   -1    0    0  502    0  0.00000000000E+00  0.00000000000E+00  0.10632439774E+04  0.10632439774E+04  0.00000000000E+00 0. -1.
          3   -1    0    0  503    0 -0.00000000000E+00 -0.00000000000E+00 -0.14833292974E+03  0.14833292974E+03  0.00000000000E+00 0. -1.
         25    2    1    2    0    0 -0.84294842649E+02  0.27150396135E+02  0.18282809173E+03  0.23849875180E+03  0.12495110636E+03 0.  0.
          4    1    3    3  501    0  0.26202559147E+02  0.28954148086E+02  0.27143809199E+02  0.47574321593E+02  0.12700000000E+01 0.  1.
         -4    1    3    3    0  501 -0.11049740180E+03 -0.18037519502E+01  0.15568428253E+03  0.19092443021E+03  0.12700000000E+01 0.  1.
          2    1    1    2  502    0  0.16676580818E+02  0.31386152819E+02  0.83555531998E+03  0.83631088219E+03  0.00000000000E+00 0. -1.
          3    1    1    2  503    0  0.67618261831E+02 -0.58536548955E+02 -0.10347236402E+03  0.13676727318E+03  0.00000000000E+00 0. -1.
<mgrwt>
<rscale>  0 0.56207806E+02</rscale>
<asrwt>0</asrwt>
<pdfrwt beam="1">  1        2 0.16357599E+00 0.35541510E+02</pdfrwt>
<pdfrwt beam="2">  1        3 0.22820451E-01 0.88890919E+02</pdfrwt>
<totfact> 0.27679137E+02</totfact>
</mgrwt>
</event>
<event>
 7    1  0.3113151E-004  0.5050816E+02  0.7546771E-02  0.1553385E+00
          1   -1    0    0  503    0  0.00000000000E+00  0.00000000000E+00  0.52486981825E+02  0.52486981825E+02  0.00000000000E+00 0. -1.
         -2   -1    0    0    0  501 -0.00000000000E+00 -0.00000000000E+00 -0.31467534276E+03  0.31467534276E+03  0.00000000000E+00 0.  1.
         25    2    1    2    0    0  0.44599410049E+02  0.51369634541E+02 -0.95847322332E+02  0.17158462379E+03  0.12500650861E+03 0.  0.
          4    1    3    3  502    0  0.17417592871E+02  0.90222670426E+02 -0.45972523146E+02  0.10275499299E+03  0.12700000000E+01 0. -1.
         -4    1    3    3    0  502  0.27181817177E+02 -0.38853035886E+02 -0.49874799186E+02  0.68829630803E+02  0.12700000000E+01 0. -1.
          1    1    1    2  503    0 -0.34083643619E+02 -0.30330781367E+02 -0.24475292490E+02  0.51775389937E+02  0.00000000000E+00 0. -1.
         -2    1    1    2    0  501 -0.10515766430E+02 -0.21038853174E+02 -0.14186574612E+03  0.14380231086E+03  0.00000000000E+00 0.  1.
<mgrwt>
<rscale>  0 0.34467057E+02</rscale>
<asrwt>0</asrwt>
<pdfrwt beam="1">  1        1 0.80749200E-02 0.50508162E+02</pdfrwt>
<pdfrwt beam="2">  1       -2 0.48411593E-01 0.23520516E+02</pdfrwt>
<totfact> 0.27061845E+03</totfact>
</mgrwt>
</event>
<event>
 7    1  0.3113151E-004  0.1025203E+03  0.7546771E-02  0.1340962E+00
          2   -1    0    0  503    0  0.00000000000E+00  0.00000000000E+00  0.54423392389E+03  0.54423392389E+03  0.00000000000E+00 0. -1.
          2   -1    0    0  502    0 -0.00000000000E+00 -0.00000000000E+00 -0.14497216850E+04  0.14497216850E+04  0.00000000000E+00 0.  1.
         25    2    1    2    0    0  0.11356207066E+03  0.51287706454E+02 -0.14621145863E+02  0.17709881030E+03  0.12499375175E+03 0.  0.
          4    1    3    3  501    0  0.89375431482E+02  0.62595051040E+02  0.40052680346E+02  0.11624086317E+03  0.12700000000E+01 0. -1.
         -4    1    3    3    0  501  0.24186639176E+02 -0.11307344586E+02 -0.54673826208E+02  0.60857947127E+02  0.12700000000E+01 0. -1.
          2    1    1    2  502    0 -0.49018264571E+02  0.27615732151E+02 -0.13476565276E+04  0.13488304323E+04  0.00000000000E+00 0.  1.
          2    1    1    2  503    0 -0.64543806087E+02 -0.78903438606E+02  0.45678991231E+03  0.46802636626E+03  0.00000000000E+00 0. -1.
<mgrwt>
<rscale>  0 0.75947362E+02</rscale>
<asrwt>0</asrwt>
<pdfrwt beam="1">  1        2 0.83728296E-01 0.10252028E+03</pdfrwt>
<pdfrwt beam="2">  1        2 0.22303411E+00 0.56262056E+02</pdfrwt>
<totfact> 0.14731140E+02</totfact>
</mgrwt>
</event>
<event>
 7    1  0.3113151E-004  0.8821495E+02  0.7546771E-02  0.1364774E+00
          1   -1    0    0  503    0  0.00000000000E+00  0.00000000000E+00  0.19927017550E+03  0.19927017550E+03  0.00000000000E+00 0. -1.
         -2   -1    0    0    0  501 -0.00000000000E+00 -0.00000000000E+00 -0.17100720533E+03  0.17100720533E+03  0.00000000000E+00 0.  1.
         25    2    1    2    0    0 -0.53542640213E+02 -0.12317293695E+03 -0.56360053028E+02  0.19193958366E+03  0.12500384586E+03 0.  0.
          4    1    3    3  502    0 -0.93941258679E+02 -0.75005753916E+02 -0.31093239526E+02  0.12417417464E+03  0.12700000000E+01 0.  1.
         -4    1    3    3    0  502  0.40398618466E+02 -0.48167183037E+02 -0.25266813503E+02  0.67765409025E+02  0.12700000000E+01 0.  1.
          1    1    1    2  503    0  0.41976372384E+02  0.71029087271E+02  0.92945572349E+02  0.12428204414E+03  0.00000000000E+00 0. -1.
         -2    1    1    2    0  501  0.11566267829E+02  0.52143849681E+02 -0.83225491505E+01  0.54055753028E+02  0.00000000000E+00 0.  1.
<mgrwt>
<rscale>  0 0.68641599E+02</rscale>
<asrwt>0</asrwt>
<pdfrwt beam="1">  1        1 0.30656950E-01 0.88214950E+02</pdfrwt>
<pdfrwt beam="2">  1       -2 0.26308801E-01 0.53411231E+02</pdfrwt>
<totfact> 0.15843398E+03</totfact>
</mgrwt>
</event>
<event>
 7    1  0.3113151E-004  0.1189300E+03  0.7546771E-02  0.1273127E+00
         -3   -1    0    0    0  502 -0.00000000000E+00  0.00000000000E+00  0.21770285377E+03  0.21770285377E+03  0.00000000000E+00 0.  1.
         -1   -1    0    0    0  501  0.00000000000E+00 -0.00000000000E+00 -0.37331561815E+03  0.37331561815E+03  0.00000000000E+00 0.  1.
         25    2    1    2    0    0  0.87020778074E+02  0.14884283308E+02 -0.12261236264E+02  0.15352377590E+03  0.12500021658E+03 0.  0.
          4    1    3    3  503    0 -0.28065606819E+02  0.17297652022E+02  0.13349144294E+02  0.35590723580E+02  0.12700000000E+01 0.  1.
         -4    1    3    3    0  503  0.11508638489E+03 -0.24133687138E+01 -0.25610380557E+02  0.11793305232E+03  0.12700000000E+01 0.  1.
         -1    1    1    2    0  501  0.33045765138E+02 -0.83768742341E+02 -0.24807933039E+03  0.26391775036E+03  0.00000000000E+00 0.  1.
         -3    1    1    2    0  502 -0.12006654321E+03  0.68884459033E+02  0.10472780228E+03  0.17357694566E+03  0.00000000000E+00 0.  1.
<mgrwt>
<rscale>  0 0.10348815E+03</rscale>
<asrwt>0</asrwt>
<pdfrwt beam="2">  1       -1 0.57433172E-01 0.90051234E+02</pdfrwt>
<pdfrwt beam="1">  1       -3 0.33492747E-01 0.11893004E+03</pdfrwt>
<totfact> 0.12415168E+02</totfact>
</mgrwt>
</event>
<event>
 7    1  0.3113151E-004  0.3675323E+02  0.7546771E-02  0.1548299E+00
         -2   -1    0    0    0  501 -0.00000000000E+00  0.00000000000E+00  0.11595891304E+02  0.11595891304E+02  0.00000000000E+00 0.  1.
          1   -1    0    0  503    0  0.00000000000E+00 -0.00000000000E+00 -0.10594136425E+04  0.10594136425E+04  0.00000000000E+00 0. -1.
         25    2    1    2    0    0  0.15285120724E+02  0.20306652378E+02 -0.78564337865E+03  0.79593228598E+03  0.12500676139E+03 0.  0.
          4    1    3    3  502    0  0.18531386116E+02  0.53068672513E+02 -0.16313084320E+03  0.17254848935E+03  0.12700000000E+01 0.  1.
         -4    1    3    3    0  502 -0.32462653919E+01 -0.32762020135E+02 -0.62251253545E+03  0.62338379663E+03  0.12700000000E+01 0.  1.
          1    1    1    2  503    0  0.16698196112E+02 -0.38413754544E+02 -0.18381233232E+03  0.18852432152E+03  0.00000000000E+00 0. -1.
         -2    1    1    2    0  501 -0.31983316836E+02  0.18107102166E+02 -0.78362040253E+02  0.86552926336E+02  0.00000000000E+00 0.  1.
<mgrwt>
<rscale>  0 0.35034020E+02</rscale>
<asrwt>0</asrwt>
<pdfrwt beam="2">  1        1 0.16298672E+00 0.33395233E+02</pdfrwt>
<pdfrwt beam="1">  1       -2 0.17839832E-02 0.36753227E+02</pdfrwt>
<totfact> 0.10174451E+04</totfact>
</mgrwt>
</event>
<event>
 7    1  0.3113151E-004  0.1569803E+03  0.7546771E-02  0.1375166E+00
          2   -1    0    0  502    0  0.00000000000E+00  0.00000000000E+00  0.11452450726E+04  0.11452450726E+04  0.00000000000E+00 0. -1.
          2   -1    0    0  503    0 -0.00000000000E+00 -0.00000000000E+00 -0.27296024057E+03  0.27296024057E+03  0.00000000000E+00 0. -1.
         25    2    1    2    0    0  0.98887698284E+02 -0.96134830488E+02  0.20712167176E+03  0.27847009063E+03  0.12500208781E+03 0.  0.
          4    1    3    3  501    0  0.75150687480E+02  0.33418535035E+01  0.47771545143E+02  0.89120857485E+02  0.12700000000E+01 0.  1.
         -4    1    3    3    0  501  0.23737010804E+02 -0.99476683991E+02  0.15935012661E+03  0.18934923314E+03  0.12700000000E+01 0.  1.
          2    1    1    2  502    0 -0.10343979877E+03  0.12329637075E+03  0.89444316705E+03  0.90880711160E+03  0.00000000000E+00 0. -1.
          2    1    1    2  503    0  0.45521004905E+01 -0.27161540264E+02 -0.22928000680E+03  0.23092811091E+03  0.00000000000E+00 0. -1.
<mgrwt>
<rscale>  0 0.65751755E+02</rscale>
<asrwt>0</asrwt>
<pdfrwt beam="1">  1        2 0.17619155E+00 0.15698033E+03</pdfrwt>
<pdfrwt beam="2">  1        2 0.41993884E-01 0.27540350E+02</pdfrwt>
<totfact> 0.40611899E+02</totfact>
</mgrwt>
</event>
<event>
 7    1  0.3113151E-004  0.1858208E+03  0.7546771E-02  0.1372312E+00
          2   -1    0    0  503    0  0.00000000000E+00  0.00000000000E+00  0.44293893110E+03  0.44293893110E+03  0.00000000000E+00 0. -1.
          2   -1    0    0  502    0 -0.00000000000E+00 -0.00000000000E+00 -0.79096200498E+03  0.79096200498E+03  0.00000000000E+00 0. -1.
         25    2    1    2    0    0 -0.16438221079E+03  0.70227390567E+01 -0.17551003778E+03  0.27110731732E+03  0.12499829621E+03 0.  0.
          4    1    3    3  501    0 -0.63511585609E+01 -0.13010299326E+02  0.16256639437E+02  0.21805878323E+02  0.12700000000E+01 0.  1.
         -4    1    3    3    0  501 -0.15803105223E+03  0.20033038383E+02 -0.19176667722E+03  0.24930143900E+03  0.12700000000E+01 0.  1.
          2    1    1    2  502    0 -0.23150910933E+02  0.56017825438E+01 -0.54502690436E+03  0.54554713006E+03  0.00000000000E+00 0. -1.
          2    1    1    2  503    0  0.18753312173E+03 -0.12624521600E+02  0.37251386826E+03  0.41724648870E+03  0.00000000000E+00 0. -1.
<mgrwt>
<rscale>  0 0.66528676E+02</rscale>
<asrwt>0</asrwt>
<pdfrwt beam="1">  1        2 0.68144451E-01 0.18582078E+03</pdfrwt>
<pdfrwt beam="2">  1        2 0.12168646E+00 0.23818998E+02</pdfrwt>
<totfact> 0.43826238E+02</totfact>
</mgrwt>
</event>
<event>
 7    1  0.3113151E-004  0.7681879E+02  0.7546771E-02  0.1504030E+00
         -1   -1    0    0    0  501 -0.00000000000E+00  0.00000000000E+00  0.13627761278E+03  0.13627761278E+03  0.00000000000E+00 0.  1.
          2   -1    0    0  503    0  0.00000000000E+00 -0.00000000000E+00 -0.12732507807E+03  0.12732507807E+03  0.00000000000E+00 0. -1.
         25    2    1    2    0    0  0.59735958748E+02  0.25229172111E+02  0.54656863233E+02  0.15105059549E+03  0.12499605517E+03 0.  0.
          4    1    3    3  502    0 -0.17224747793E+02 -0.26813514155E+02  0.48350699942E+02  0.57922875988E+02  0.12700000000E+01 0. -1.
         -4    1    3    3    0  502  0.76960706541E+02  0.52042686265E+02  0.63061632913E+01  0.93127719507E+02  0.12700000000E+01 0. -1.
          2    1    1    2  503    0 -0.65340282897E+02 -0.45913523385E+02 -0.43686940295E+02  0.91027209949E+02  0.00000000000E+00 0. -1.
         -1    1    1    2    0  501  0.56043241484E+01  0.20684351274E+02 -0.20173882245E+01  0.21524885413E+02  0.00000000000E+00 0.  1.
<mgrwt>
<rscale>  0 0.40573851E+02</rscale>
<asrwt>0</asrwt>
<pdfrwt beam="2">  1        2 0.19588474E-01 0.76818793E+02</pdfrwt>
<pdfrwt beam="1">  1       -1 0.20965787E-01 0.21430139E+02</pdfrwt>
<totfact> 0.52037479E+03</totfact>
</mgrwt>
</event>
<event>
 7    1  0.3113151E-004  0.5046066E+02  0.7546771E-02  0.1511041E+00
          1   -1    0    0  503    0 -0.00000000000E+00  0.00000000000E+00  0.16460526955E+03  0.16460526955E+03  0.00000000000E+00 0. -1.
          2   -1    0    0  502    0  0.00000000000E+00 -0.00000000000E+00 -0.18246323033E+04  0.18246323033E+04  0.00000000000E+00 0. -1.
         25    2    1    2    0    0  0.52524444146E+01  0.30102553126E+02 -0.54804448896E+02  0.13986803375E+03  0.12500314944E+03 0.  0.
          4    1    3    3  501    0 -0.73048551240E+01 -0.28187273837E+02  0.26257753551E+02  0.39229655062E+02  0.12700000000E+01 0. -1.
         -4    1    3    3    0  501  0.12557299539E+02  0.58289826963E+02 -0.81062202447E+02  0.10063837869E+03  0.12700000000E+01 0. -1.
          2    1    1    2  502    0 -0.35821051322E+02 -0.35855771155E+02 -0.17249363117E+04  0.17256807537E+04  0.00000000000E+00 0. -1.
          1    1    1    2  503    0  0.30568606907E+02  0.57532180289E+01  0.11971372686E+03  0.12368878545E+03  0.00000000000E+00 0. -1.
<mgrwt>
<rscale>  0 0.39618095E+02</rscale>
<asrwt>0</asrwt>
<pdfrwt beam="2">  1        2 0.28071268E+00 0.50460656E+02</pdfrwt>
<pdfrwt beam="1">  1        1 0.25323886E-01 0.31105293E+02</pdfrwt>
<totfact> 0.26234431E+02</totfact>
</mgrwt>
</event>
<event>
 7    1  0.3113151E-004  0.4364084E+02  0.7546771E-02  0.1501620E+00
          1   -1    0    0  502    0  0.00000000000E+00  0.00000000000E+00  0.14040595537E+03  0.14040595537E+03  0.00000000000E+00 0. -1.
          3   -1    0    0  503    0 -0.00000000000E+00 -0.00000000000E+00 -0.28202987654E+03  0.28202987654E+03  0.00000000000E+00 0. -1.
         25    2    1    2    0    0 -0.50339144173E+01 -0.47008843485E+01 -0.82194744289E+02  0.14975930593E+03  0.12499774044E+03 0.  0.
          4    1    3    3  501    0  0.40324243892E+02  0.36010145285E+02 -0.68508273206E+02  0.87279846509E+02  0.12700000000E+01 0.  1.
         -4    1    3    3    0  501 -0.45358158309E+02 -0.40711029634E+02 -0.13686471083E+02  0.62479459423E+02  0.12700000000E+01 0.  1.
          1    1    1    2  502    0  0.29635217311E+02  0.34120059857E+02  0.99448645404E+02  0.10923578929E+03  0.00000000000E+00 0. -1.
          3    1    1    2  503    0 -0.24601302894E+02 -0.29419175508E+02 -0.15887782229E+03  0.16344073668E+03  0.00000000000E+00 0. -1.
<mgrwt>
<rscale>  0 0.40909904E+02</rscale>
<asrwt>0</asrwt>
<pdfrwt beam="1">  1        1 0.21600916E-01 0.43640840E+02</pdfrwt>
<pdfrwt beam="2">  1        3 0.43389211E-01 0.38349863E+02</pdfrwt>
<totfact> 0.56079560E+02</totfact>
</mgrwt>
</event>
<event>
 7    1  0.3113151E-004  0.6906560E+02  0.7546771E-02  0.1517362E+00
         -2   -1    0    0    0  501 -0.00000000000E+00  0.00000000000E+00  0.80965439867E+03  0.80965439867E+03  0.00000000000E+00 0.  1.
          1   -1    0    0  503    0  0.00000000000E+00 -0.00000000000E+00 -0.26651119822E+02  0.26651119822E+02  0.00000000000E+00 0. -1.
         25    2    1    2    0    0 -0.53815888762E+02  0.31923898387E+02  0.65927072090E+03  0.67392823263E+03  0.12500437648E+03 0.  0.
          4    1    3    3  502    0 -0.29476990056E+02  0.65666573686E+02  0.19619990922E+03  0.20899045222E+03  0.12700000000E+01 0.  1.
         -4    1    3    3    0  502 -0.24338898706E+02 -0.33742675299E+02  0.46307081168E+03  0.46493778041E+03  0.12700000000E+01 0.  1.
          1    1    1    2  503    0  0.46435038610E+02 -0.52413420239E+02  0.51472939620E+02  0.86907093755E+02  0.00000000000E+00 0. -1.
         -2    1    1    2    0  501  0.73808501517E+01  0.20489521852E+02  0.72259618334E+02  0.75470192105E+02  0.00000000000E+00 0.  1.
<mgrwt>
<rscale>  0 0.38783196E+02</rscale>
<asrwt>0</asrwt>
<pdfrwt beam="2">  1        1 0.41001729E-02 0.69065602E+02</pdfrwt>
<pdfrwt beam="1">  1       -2 0.12456220E+00 0.21778371E+02</pdfrwt>
<totfact> 0.94126213E+02</totfact>
</mgrwt>
</event>
<event>
 7    1  0.3113151E-004  0.9709106E+02  0.7546771E-02  0.1354051E+00
          1   -1    0    0  503    0 -0.00000000000E+00  0.00000000000E+00  0.51775967216E+03  0.51775967216E+03  0.00000000000E+00 0. -1.
          2   -1    0    0  502    0  0.00000000000E+00 -0.00000000000E+00 -0.11399497381E+04  0.11399497381E+04  0.00000000000E+00 0. -1.
         25    2    1    2    0    0 -0.77116505907E+02 -0.46480068522E+02  0.98179188808E+02  0.18267781828E+03  0.12499871969E+03 0.  0.
          4    1    3    3  501    0 -0.51743232015E+02  0.35491583562E+02  0.65865797562E+02  0.90977638745E+02  0.12700000000E+01 0. -1.
         -4    1    3    3    0  501 -0.25373273892E+02 -0.81971652084E+02  0.32313391246E+02  0.91700179537E+02  0.12700000000E+01 0. -1.
          2    1    1    2  502    0  0.43173538192E+02  0.87326311114E+02 -0.10936558889E+04  0.10979859027E+04  0.00000000000E+00 0. -1.
          1    1    1    2  503    0  0.33942967715E+02 -0.40846242592E+02  0.37328663418E+03  0.37704568934E+03  0.00000000000E+00 0. -1.
<mgrwt>
<rscale>  0 0.71807981E+02</rscale>
<asrwt>0</asrwt>
<pdfrwt beam="2">  1        2 0.17537688E+00 0.97091062E+02</pdfrwt>
<pdfrwt beam="1">  1        1 0.79655336E-01 0.53108762E+02</pdfrwt>
<totfact> 0.14144876E+02</totfact>
</mgrwt>
</event>
<event>
 7    1  0.3113151E-004  0.2824970E+02  0.7546771E-02  0.1630798E+00
          2   -1    0    0  502    0  0.00000000000E+00  0.00000000000E+00  0.39712886228E+02  0.39712886228E+02  0.00000000000E+00 0. -1.
          2   -1    0    0  503    0 -0.00000000000E+00 -0.00000000000E+00 -0.14003798578E+04  0.14003798578E+04  0.00000000000E+00 0. -1.
         25    2    1    2    0    0  0.41870813932E+02  0.34373353573E+02 -0.83666564900E+03  0.84768480833E+03  0.12500173428E+03 0.  0.
          4    1    3    3  501    0  0.46889213522E+02 -0.47256375394E+01 -0.10665763525E+03  0.11661215225E+03  0.12700000000E+01 0. -1.
         -4    1    3    3    0  501 -0.50183995905E+01  0.39098991112E+02 -0.73000801375E+03  0.73107265608E+03  0.12700000000E+01 0. -1.
          2    1    1    2  502    0 -0.20312921291E+02 -0.19375520332E+02  0.28078262668E+02  0.39704085356E+02  0.00000000000E+00 0. -1.
          2    1    1    2  503    0 -0.21557892640E+02 -0.14997833241E+02 -0.55207958529E+03  0.55270385038E+03  0.00000000000E+00 0. -1.
<mgrwt>
<rscale>  0 0.27237577E+02</rscale>
<asrwt>0</asrwt>
<pdfrwt beam="1">  1        2 0.61096761E-02 0.28249700E+02</pdfrwt>
<pdfrwt beam="2">  1        2 0.21544301E+00 0.26261716E+02</pdfrwt>
<totfact> 0.28306285E+03</totfact>
</mgrwt>
</event>
<event>
 7    1  0.3113151E-004  0.1299136E+03  0.7546771E-02  0.1366501E+00
          1   -1    0    0  503    0 -0.00000000000E+00  0.00000000000E+00  0.30217090372E+03  0.30217090372E+03  0.00000000000E+00 0. -1.
          2   -1    0    0  502    0  0.00000000000E+00 -0.00000000000E+00 -0.75358597468E+03  0.75358597468E+03  0.00000000000E+00 0. -1.
         25    2    1    2    0    0  0.11516884830E+03  0.10733215698E+03  0.28067054037E+02  0.20296751125E+03  0.12499598218E+03 0.  0.
          4    1    3    3  501    0  0.42472564368E+02 -0.25297383746E+02  0.11829694621E+02  0.50847132891E+02  0.12700000000E+01 0.  1.
         -4    1    3    3    0  501  0.72696283928E+02  0.13262954073E+03  0.16237359416E+02  0.15212037836E+03  0.12700000000E+01 0.  1.
          2    1    1    2  502    0 -0.18181523713E+02 -0.30780980588E+02 -0.64513871146E+03  0.64612846524E+03  0.00000000000E+00 0. -1.
          1    1    1    2  503    0 -0.96987324583E+02 -0.76551176397E+02  0.16565658646E+03  0.20666090190E+03  0.00000000000E+00 0. -1.
<mgrwt>
<rscale>  0 0.68149563E+02</rscale>
<asrwt>0</asrwt>
<pdfrwt beam="2">  1        2 0.11593630E+00 0.35749637E+02</pdfrwt>
<pdfrwt beam="1">  1        1 0.46487831E-01 0.12991357E+03</pdfrwt>
<totfact> 0.48654319E+02</totfact>
</mgrwt>
</event>
<event>
 7    1  0.3113151E-004  0.6066579E+02  0.7546771E-02  0.1424908E+00
          2   -1    0    0  503    0  0.00000000000E+00  0.00000000000E+00  0.56314832559E+03  0.56314832559E+03  0.00000000000E+00 0. -1.
         -2   -1    0    0    0  501 -0.00000000000E+00 -0.00000000000E+00 -0.12074119257E+03  0.12074119257E+03  0.00000000000E+00 0.  1.
         25    2    1    2    0    0  0.76766659259E+01 -0.66526204386E+02  0.88482751734E+02  0.16714818289E+03  0.12499860247E+03 0.  0.
          4    1    3    3  502    0  0.43315239288E+02 -0.88434158480E+02  0.50706956199E+02  0.11076831067E+03  0.12700000000E+01 0. -1.
         -4    1    3    3    0  502 -0.35638573362E+02  0.21907954094E+02  0.37775795535E+02  0.56379872226E+02  0.12700000000E+01 0. -1.
          2    1    1    2  503    0 -0.44830854958E+02  0.17317299433E+02  0.42209483704E+03  0.42482201669E+03  0.00000000000E+00 0. -1.
         -2    1    1    2    0  501  0.37154189032E+02  0.49208904953E+02 -0.68170455756E+02  0.91919318575E+02  0.00000000000E+00 0.  1.
<mgrwt>
<rscale>  0 0.53995870E+02</rscale>
<asrwt>0</asrwt>
<pdfrwt beam="1">  1        2 0.86638203E-01 0.48059280E+02</pdfrwt>
<pdfrwt beam="2">  1       -2 0.18575568E-01 0.60665786E+02</pdfrwt>
<totfact> 0.12673933E+03</totfact>
</mgrwt>
</event>
<event>
 7    1  0.3113151E-004  0.5185674E+02  0.7546771E-02  0.1458598E+00
         -1   -1    0    0    0  501 -0.00000000000E+00  0.00000000000E+00  0.43106110437E+03  0.43106110437E+03  0.00000000000E+00 0.  1.
          2   -1    0    0  503    0  0.00000000000E+00 -0.00000000000E+00 -0.33183105393E+02  0.33183105393E+02  0.00000000000E+00 0. -1.
         25    2    1    2    0    0  0.26732705827E+02 -0.50460523635E+02  0.26161976104E+03  0.29551662781E+03  0.12499710371E+03 0.  0.
          4    1    3    3  502    0 -0.79739378458E+01 -0.49810654874E+01  0.22988830873E+03  0.23008398921E+03  0.12700000000E+01 0.  1.
         -4    1    3    3    0  502  0.34706643673E+02 -0.45479458148E+02  0.31731452310E+02  0.65432638600E+02  0.12700000000E+01 0.  1.
          2    1    1    2  503    0 -0.43680891640E+02 -0.21936471685E+01  0.68301260599E+02  0.81104220493E+02  0.00000000000E+00 0. -1.
         -1    1    1    2    0  501  0.16948185813E+02  0.52654170804E+02  0.67956977340E+02  0.87623361466E+02  0.00000000000E+00 0.  1.
<mgrwt>
<rscale>  0 0.47623556E+02</rscale>
<asrwt>0</asrwt>
<pdfrwt beam="2">  1        2 0.51050934E-02 0.43735939E+02</pdfrwt>
<pdfrwt beam="1">  1       -1 0.66317089E-01 0.51856736E+02</pdfrwt>
<totfact> 0.36548842E+03</totfact>
</mgrwt>
</event>
<event>
 7    1  0.3113151E-004  0.1452449E+03  0.7546771E-02  0.1249757E+00
          1   -1    0    0  503    0 -0.00000000000E+00  0.00000000000E+00  0.31157108019E+03  0.31157108019E+03  0.00000000000E+00 0. -1.
          2   -1    0    0  502    0  0.00000000000E+00 -0.00000000000E+00 -0.19391099489E+04  0.19391099489E+04  0.00000000000E+00 0. -1.
         25    2    1    2    0    0 -0.13108660625E+03  0.14084542805E+03 -0.14888818479E+03  0.27352370742E+03  0.12500557591E+03 0.  0.
          4    1    3    3  501    0 -0.53271401445E+02  0.12701437220E+03 -0.13575562156E+03  0.19339517741E+03  0.12700000000E+01 0.  1.
         -4    1    3    3    0  501 -0.77815204808E+02  0.13831055842E+02 -0.13132563228E+02  0.80128530013E+02  0.12700000000E+01 0.  1.
          2    1    1    2  502    0  0.92655726195E+02 -0.36043207871E+01 -0.17061687570E+04  0.17086866014E+04  0.00000000000E+00 0. -1.
          1    1    1    2  503    0  0.38430880059E+02 -0.13724110726E+03  0.22751807304E+03  0.26847072023E+03  0.00000000000E+00 0. -1.
<mgrwt>
<rscale>  0 0.11605149E+03</rscale>
<asrwt>0</asrwt>
<pdfrwt beam="2">  1        2 0.29832461E+00 0.92725804E+02</pdfrwt>
<pdfrwt beam="1">  1        1 0.47934012E-01 0.14524488E+03</pdfrwt>
<totfact> 0.10211650E+02</totfact>
</mgrwt>
</event>
<event>
 7    1  0.3113151E-004  0.3305067E+02  0.7546771E-02  0.1605169E+00
         -2   -1    0    0    0  501 -0.00000000000E+00  0.00000000000E+00  0.19514658503E+02  0.19514658503E+02  0.00000000000E+00 0.  1.
          1   -1    0    0  503    0  0.00000000000E+00 -0.00000000000E+00 -0.55542368733E+03  0.55542368733E+03  0.00000000000E+00 0. -1.
         25    2    1    2    0    0  0.10241469341E+02  0.37796195575E+01 -0.28782985943E+03  0.31399041610E+03  0.12499912082E+03 0.  0.
          4    1    3    3  502    0  0.33102453990E+02 -0.46821746242E+02 -0.21429480181E+03  0.22183760583E+03  0.12700000000E+01 0.  1.
         -4    1    3    3    0  502 -0.22860984649E+02  0.50601365800E+02 -0.73535057622E+02  0.92152810263E+02  0.12700000000E+01 0.  1.
          1    1    1    2  503    0 -0.35471711151E+02  0.28925542180E+01 -0.21900908204E+03  0.22188192171E+03  0.00000000000E+00 0. -1.
         -2    1    1    2    0  501  0.25230241810E+02 -0.66721737756E+01 -0.29070087358E+02  0.39066008033E+02  0.00000000000E+00 0.  1.
<mgrwt>
<rscale>  0 0.29369066E+02</rscale>
<asrwt>0</asrwt>
<pdfrwt beam="2">  1        1 0.85449783E-01 0.33050668E+02</pdfrwt>
<pdfrwt beam="1">  1       -2 0.30022557E-02 0.26097567E+02</pdfrwt>
<totfact> 0.11534001E+04</totfact>
</mgrwt>
</event>
<event>
 7    1  0.3113151E-004  0.7514788E+02  0.7546771E-02  0.1359582E+00
         -1   -1    0    0    0  501 -0.00000000000E+00  0.00000000000E+00  0.21199562977E+03  0.21199562977E+03  0.00000000000E+00 0.  1.
          1   -1    0    0  503    0  0.00000000000E+00 -0.00000000000E+00 -0.10545488326E+03  0.10545488326E+03  0.00000000000E+00 0. -1.
         25    2    1    2    0    0 -0.86081129641E+02 -0.14438313261E+02  0.34517426545E+02  0.15631007454E+03  0.12499184332E+03 0.  0.
          4    1    3    3  502    0 -0.46480631955E+02 -0.45642608433E+02  0.69242569709E+02  0.95078090071E+02  0.12700000000E+01 0. -1.
         -4    1    3    3    0  502 -0.39600497686E+02  0.31204295172E+02 -0.34725143164E+02  0.61231984468E+02  0.12700000000E+01 0. -1.
          1    1    1    2  503    0  0.43506365870E+02  0.64195158593E+02  0.48966383384E+02  0.91714387965E+02  0.00000000000E+00 0. -1.
         -1    1    1    2    0  501  0.42574763771E+02 -0.49756845332E+02  0.23056936573E+02  0.69426050526E+02  0.00000000000E+00 0.  1.
<mgrwt>
<rscale>  0 0.70150543E+02</rscale>
<asrwt>0</asrwt>
<pdfrwt beam="2">  1        1 0.16223828E-01 0.75147882E+02</pdfrwt>
<pdfrwt beam="1">  1       -1 0.32614712E-01 0.65485526E+02</pdfrwt>
<totfact> 0.27706821E+03</totfact>
</mgrwt>
</event>
<event>
 7    1  0.3113151E-004  0.1149634E+03  0.7546771E-02  0.1387707E+00
         -3   -1    0    0    0  501 -0.00000000000E+00  0.00000000000E+00  0.96272093009E+03  0.96272093009E+03  0.00000000000E+00 0.  1.
          3   -1    0    0  503    0  0.00000000000E+00 -0.00000000000E+00 -0.28609322126E+02  0.28609322126E+02  0.00000000000E+00 0. -1.
         25    2    1    2    0    0 -0.24522069313E+01  0.12465416656E+03  0.45867704608E+03  0.49148179083E+03  0.12500017425E+03 0.  0.
          4    1    3    3  502    0 -0.12675091685E+02  0.14893228808E+03  0.40428772773E+03  0.43103557171E+03  0.12700000000E+01 0. -1.
         -4    1    3    3    0  502  0.10222884754E+02 -0.24278121514E+02  0.54389318342E+02  0.60446219126E+02  0.12700000000E+01 0. -1.
          3    1    1    2  503    0 -0.29235345802E+02 -0.17273551954E+02  0.53944971007E+02  0.63742771655E+02  0.00000000000E+00 0. -1.
         -3    1    1    2    0  501  0.31687552733E+02 -0.10738061461E+03  0.42148959088E+03  0.43610568973E+03  0.00000000000E+00 0.  1.
<mgrwt>
<rscale>  0 0.62480527E+02</rscale>
<asrwt>0</asrwt>
<pdfrwt beam="2">  1        3 0.44014349E-02 0.33957047E+02</pdfrwt>
<pdfrwt beam="1">  1       -3 0.14811089E+00 0.11496336E+03</pdfrwt>
<totfact> 0.18236779E+02</totfact>
</mgrwt>
</event>
<event>
 7    1  0.3113151E-004  0.5770762E+02  0.7546771E-02  0.1492752E+00
          2   -1    0    0  502    0  0.00000000000E+00  0.00000000000E+00  0.70551733495E+02  0.70551733495E+02  0.00000000000E+00 0. -1.
          3   -1    0    0  503    0 -0.00000000000E+00 -0.00000000000E+00 -0.25904978121E+03  0.25904978121E+03  0.00000000000E+00 0. -1.
         25    2    1    2    0    0  0.97691409490E+01 -0.17209210899E+02 -0.16485551270E+03  0.20783003119E+03  0.12499755494E+03 0.  0.
          4    1    3    3  501    0  0.34553425351E+02  0.19028178492E+02 -0.23972486323E+01  0.39539480032E+02  0.12700000000E+01 0. -1.
         -4    1    3    3    0  501 -0.24784284402E+02 -0.36237389392E+02 -0.16245826407E+03  0.16829055116E+03  0.12700000000E+01 0. -1.
          2    1    1    2  502    0  0.41649816361E+02  0.43405777777E+02 -0.21600392556E+01  0.60194970860E+02  0.00000000000E+00 0. -1.
          3    1    1    2  503    0 -0.51418957310E+02 -0.26196566877E+02 -0.21482495754E+02  0.61576512655E+02  0.00000000000E+00 0. -1.
<mgrwt>
<rscale>  0 0.42180497E+02</rscale>
<asrwt>0</asrwt>
<pdfrwt beam="1">  1        2 0.10854113E-01 0.57707619E+02</pdfrwt>
<pdfrwt beam="2">  1        3 0.39853812E-01 0.30831186E+02</pdfrwt>
<totfact> 0.17710187E+03</totfact>
</mgrwt>
</event>
<event>
 7    1  0.3113151E-004  0.5024318E+02  0.7546771E-02  0.1449540E+00
          2   -1    0    0  503    0  0.00000000000E+00  0.00000000000E+00  0.20310191284E+03  0.20310191284E+03  0.00000000000E+00 0. -1.
          2   -1    0    0  502    0 -0.00000000000E+00 -0.00000000000E+00 -0.45264758258E+03  0.45264758258E+03  0.00000000000E+00 0. -1.
         25    2    1    2    0    0  0.91079655109E+01 -0.33761318603E+01 -0.18815192891E+03  0.22609807537E+03  0.12499935211E+03 0.  0.
          4    1    3    3  501    0  0.46464546655E+02  0.41795075362E+02 -0.67763251508E+02  0.92191396428E+02  0.12700000000E+01 0.  1.
         -4    1    3    3    0  501 -0.37356581144E+02 -0.45171207223E+02 -0.12038867741E+03  0.13390667894E+03  0.12700000000E+01 0.  1.
          2    1    1    2  502    0  0.25358728948E+02  0.41033463315E+02 -0.23953309387E+03  0.24434179607E+03  0.00000000000E+00 0. -1.
          2    1    1    2  503    0 -0.34466694459E+02 -0.37657331455E+02  0.17813935304E+03  0.18530962398E+03  0.00000000000E+00 0. -1.
<mgrwt>
<rscale>  0 0.49229880E+02</rscale>
<asrwt>0</asrwt>
<pdfrwt beam="1">  1        2 0.31246448E-01 0.50243175E+02</pdfrwt>
<pdfrwt beam="2">  1        2 0.69638090E-01 0.48237022E+02</pdfrwt>
<totfact> 0.17701510E+03</totfact>
</mgrwt>
</event>
<event>
 7    1  0.3113151E-004  0.1168919E+03  0.7546771E-02  0.1427604E+00
          2   -1    0    0  503    0  0.00000000000E+00  0.00000000000E+00  0.17136382579E+04  0.17136382579E+04  0.00000000000E+00 0. -1.
         -1   -1    0    0    0  501 -0.00000000000E+00 -0.00000000000E+00 -0.37905230955E+02  0.37905230955E+02  0.00000000000E+00 0.  1.
         25    2    1    2    0    0 -0.78734792795E+02  0.84279000586E+02  0.14551976633E+04  0.14651033296E+04  0.12500163836E+03 0.  0.
          4    1    3    3  502    0  0.17217156147E+02 -0.10889267586E+02  0.60034212532E+02  0.63409196405E+02  0.12700000000E+01 0. -1.
         -4    1    3    3    0  502 -0.95951948942E+02  0.95168268172E+02  0.13951634508E+04  0.14016941332E+04  0.12700000000E+01 0. -1.
          2    1    1    2  503    0  0.10007532368E+03 -0.72377313684E+02  0.22932870632E+03  0.26047111450E+03  0.00000000000E+00 0. -1.
         -1    1    1    2    0  501 -0.21340530888E+02 -0.11901686903E+02 -0.87933426808E+01  0.25969044750E+02  0.00000000000E+00 0.  1.
<mgrwt>
<rscale>  0 0.53443915E+02</rscale>
<asrwt>0</asrwt>
<pdfrwt beam="1">  1        2 0.26363660E+00 0.11689192E+03</pdfrwt>
<pdfrwt beam="2">  1       -1 0.58315753E-02 0.24434983E+02</pdfrwt>
<totfact> 0.14295434E+03</totfact>
</mgrwt>
</event>
<event>
 7    1  0.3113151E-004  0.2394429E+03  0.7546771E-02  0.1205426E+00
          1   -1    0    0  502    0  0.00000000000E+00  0.00000000000E+00  0.13560085486E+04  0.13560085486E+04  0.00000000000E+00 0. -1.
          3   -1    0    0  503    0 -0.00000000000E+00 -0.00000000000E+00 -0.84327331109E+02  0.84327331109E+02  0.00000000000E+00 0. -1.
         25    2    1    2    0    0 -0.15332632714E+03  0.13740899132E+03  0.19364603737E+03  0.30906072781E+03  0.12501820745E+03 0.  0.
          4    1    3    3  501    0 -0.50756609330E+02 -0.14609281661E+02  0.70752527903E+02  0.88301741806E+02  0.12700000000E+01 0. -1.
         -4    1    3    3    0  501 -0.10256971781E+03  0.15201827298E+03  0.12289350947E+03  0.22075898600E+03  0.12700000000E+01 0. -1.
          1    1    1    2  502    0  0.23351560504E+03 -0.98635039190E+02  0.82106757632E+03  0.85930807842E+03  0.00000000000E+00 0. -1.
          3    1    1    2  503    0 -0.80189277898E+02 -0.38773952128E+02  0.25696760380E+03  0.27196707348E+03  0.00000000000E+00 0. -1.
<mgrwt>
<rscale>  0 0.14603956E+03</rscale>
<asrwt>0</asrwt>
<pdfrwt beam="1">  1        1 0.20861668E+00 0.23944295E+03</pdfrwt>
<pdfrwt beam="2">  1        3 0.12973437E-01 0.89071542E+02</pdfrwt>
<totfact> 0.21613483E+02</totfact>
</mgrwt>
</event>
<event>
 7    1  0.3113151E-004  0.3034608E+02  0.7546771E-02  0.1631543E+00
          2   -1    0    0  502    0  0.00000000000E+00  0.00000000000E+00  0.11175067462E+03  0.11175067462E+03  0.00000000000E+00 0. -1.
          2   -1    0    0  503    0 -0.00000000000E+00 -0.00000000000E+00 -0.62706505617E+03  0.62706505617E+03  0.00000000000E+00 0. -1.
         25    2    1    2    0    0  0.16832850131E+02 -0.51099144334E+02 -0.53877303839E+03  0.55569477317E+03  0.12500330653E+03 0.  0.
          4    1    3    3  501    0 -0.46106515226E+02 -0.49029644188E+02 -0.35771921189E+03  0.36399775303E+03  0.12700000000E+01 0.  1.
         -4    1    3    3    0  501  0.62939365358E+02 -0.20695001455E+01 -0.18105382650E+03  0.19169702015E+03  0.12700000000E+01 0.  1.
          2    1    1    2  502    0 -0.13733785102E+02  0.26954825000E+02  0.99123379305E+02  0.10363698070E+03  0.00000000000E+00 0. -1.
          2    1    1    2  503    0 -0.30990650295E+01  0.24144319334E+02 -0.75664722469E+02  0.79483976917E+02  0.00000000000E+00 0. -1.
<mgrwt>
<rscale>  0 0.27178971E+02</rscale>
<asrwt>0</asrwt>
<pdfrwt beam="1">  1        2 0.17192411E-01 0.30346085E+02</pdfrwt>
<pdfrwt beam="2">  1        2 0.96471548E-01 0.24342398E+02</pdfrwt>
<totfact> 0.23502541E+03</totfact>
</mgrwt>
</event>
<event>
 7    1  0.3113151E-004  0.7191122E+02  0.7546771E-02  0.1470322E+00
          1   -1    0    0  503    0 -0.00000000000E+00  0.00000000000E+00  0.76768130544E+03  0.76768130544E+03  0.00000000000E+00 0. -1.
          2   -1    0    0  502    0  0.00000000000E+00 -0.00000000000E+00 -0.92283821500E+03  0.92283821500E+03  0.00000000000E+00 0. -1.
         25    2    1    2    0    0 -0.99821201707E+02  0.11388860387E+02  0.57667888007E+03  0.59856574845E+03  0.12501378341E+03 0.  0.
          4    1    3    3  501    0  0.14846742769E+02  0.24440917550E+02  0.25888460797E+03  0.26046235306E+03  0.12700000000E+01 0.  1.
         -4    1    3    3    0  501 -0.11466794448E+03 -0.13052057164E+02  0.31779427211E+03  0.33810339538E+03  0.12700000000E+01 0.  1.
          2    1    1    2  502    0  0.71711324335E+02 -0.43427641641E+01 -0.90930266899E+03  0.91213634807E+03  0.00000000000E+00 0. -1.
          1    1    1    2  503    0  0.28109877372E+02 -0.70460962225E+01  0.17746687936E+03  0.17981742392E+03  0.00000000000E+00 0. -1.
<mgrwt>
<rscale>  0 0.45650330E+02</rscale>
<asrwt>0</asrwt>
<pdfrwt beam="2">  1        2 0.14197511E+00 0.71911216E+02</pdfrwt>
<pdfrwt beam="1">  1        1 0.11810482E+00 0.28979522E+02</pdfrwt>
<totfact> 0.11687752E+02</totfact>
</mgrwt>
</event>
<event>
 7    1  0.3113151E-004  0.5240939E+02  0.7546771E-02  0.1440996E+00
          1   -1    0    0  503    0  0.00000000000E+00  0.00000000000E+00  0.95831952329E+03  0.95831952329E+03  0.00000000000E+00 0. -1.
         -2   -1    0    0    0  501 -0.00000000000E+00 -0.00000000000E+00 -0.24845091858E+02  0.24845091858E+02  0.00000000000E+00 0.  1.
         25    2    1    2    0    0  0.91643501720E+02  0.53780629127E+00  0.29482771818E+03  0.33308587636E+03  0.12499598787E+03 0.  0.
          4    1    3    3  502    0  0.73427393132E+02 -0.24527050678E+02  0.29183448523E+03  0.30193068401E+03  0.12700000000E+01 0. -1.
         -4    1    3    3    0  502  0.18216108587E+02  0.25064856969E+02  0.29932329446E+01  0.31155192350E+02  0.12700000000E+01 0. -1.
          1    1    1    2  503    0 -0.46483153761E+02  0.19158406751E+02  0.50747554632E+03  0.50995995749E+03  0.00000000000E+00 0. -1.
         -2    1    1    2    0  501 -0.45160347958E+02 -0.19696213043E+02  0.13117116694E+03  0.14011878130E+03  0.00000000000E+00 0.  1.
<mgrwt>
<rscale>  0 0.50814752E+02</rscale>
<asrwt>0</asrwt>
<pdfrwt beam="1">  1        1 0.14743374E+00 0.52409394E+02</pdfrwt>
<pdfrwt beam="2">  1       -2 0.38223226E-02 0.49268629E+02</pdfrwt>
<totfact> 0.41186225E+03</totfact>
</mgrwt>
</event>
<event>
 7    1  0.3113151E-004  0.5106763E+02  0.7546771E-02  0.1567805E+00
          2   -1    0    0  503    0  0.00000000000E+00  0.00000000000E+00  0.24759976539E+04  0.24759976539E+04  0.00000000000E+00 0. -1.
         -1   -1    0    0    0  501 -0.00000000000E+00 -0.00000000000E+00 -0.47150027371E+01  0.47150027371E+01  0.00000000000E+00 0.  1.
         25    2    1    2    0    0  0.59511318274E+01  0.39413157078E+02  0.13077748514E+04  0.13143396212E+04  0.12499906013E+03 0.  0.
          4    1    3    3  502    0  0.32278048879E+00 -0.43485220951E+02  0.62785810634E+03  0.62936355410E+03  0.12700000000E+01 0. -1.
         -4    1    3    3    0  502  0.56283513386E+01  0.82898378029E+02  0.67991674504E+03  0.68497606711E+03  0.12700000000E+01 0. -1.
          2    1    1    2  503    0  0.10384718014E+02 -0.52975989070E+02  0.10050887148E+04  0.10065374422E+04  0.00000000000E+00 0. -1.
         -1    1    1    2    0  501 -0.16335849842E+02  0.13562831992E+02  0.15841908495E+03  0.15983559328E+03  0.00000000000E+00 0.  1.
<mgrwt>
<rscale>  0 0.32928453E+02</rscale>
<asrwt>0</asrwt>
<pdfrwt beam="1">  1        2 0.38092168E+00 0.51067629E+02</pdfrwt>
<pdfrwt beam="2">  1       -1 0.72538702E-03 0.21232296E+02</pdfrwt>
<totfact> 0.10919005E+04</totfact>
</mgrwt>
</event>
<event>
 7    1  0.3113151E-004  0.7850851E+02  0.7546771E-02  0.1449326E+00
          2   -1    0    0  502    0  0.00000000000E+00  0.00000000000E+00  0.16513993431E+04  0.16513993431E+04  0.00000000000E+00 0. -1.
          1   -1    0    0  503    0 -0.00000000000E+00 -0.00000000000E+00 -0.49525459576E+02  0.49525459576E+02  0.00000000000E+00 0. -1.
         25    2    1    2    0    0  0.48927709482E+02  0.19499138138E+02  0.35113947582E+03  0.37642852252E+03  0.12500145577E+03 0.  0.
          4    1    3    3  501    0 -0.13832357773E+02 -0.20224357051E+02  0.24860151146E+03  0.24980929354E+03  0.12700000000E+01 0.  1.
         -4    1    3    3    0  501  0.62760067255E+02  0.39723495189E+02  0.10253796436E+03  0.12661922898E+03  0.12700000000E+01 0.  1.
          2    1    1    2  502    0  0.21410476565E+02  0.22306643759E+02  0.12418011034E+04  0.12421859665E+04  0.00000000000E+00 0. -1.
          1    1    1    2  503    0 -0.70338186047E+02 -0.41805781898E+02  0.89333043131E+01  0.82310313706E+02  0.00000000000E+00 0. -1.
<mgrwt>
<rscale>  0 0.49268830E+02</rscale>
<asrwt>0</asrwt>
<pdfrwt beam="1">  1        2 0.25406139E+00 0.30919167E+02</pdfrwt>
<pdfrwt beam="2">  1        1 0.76193028E-02 0.78508507E+02</pdfrwt>
<totfact> 0.16008600E+03</totfact>
</mgrwt>
</event>
<event>
 7    1  0.3113151E-004  0.1095175E+03  0.7546771E-02  0.1374817E+00
          1   -1    0    0  503    0  0.00000000000E+00  0.00000000000E+00  0.77905067521E+03  0.77905067521E+03  0.00000000000E+00 0. -1.
         -2   -1    0    0    0  501 -0.00000000000E+00 -0.00000000000E+00 -0.54691572341E+03  0.54691572341E+03  0.00000000000E+00 0.  1.
         25    2    1    2    0    0  0.12561906947E+03  0.28100398748E+02 -0.27404090042E+03  0.32755684175E+03  0.12500114579E+03 0.  0.
          4    1    3    3  502    0  0.10789381108E+03 -0.35101322488E+02 -0.18274849499E+03  0.21510881579E+03  0.12700000000E+01 0.  1.
         -4    1    3    3    0  502  0.17725258385E+02  0.63201721236E+02 -0.91292405432E+02  0.11244802596E+03  0.12700000000E+01 0.  1.
          1    1    1    2  503    0 -0.34389617398E+02  0.19612873080E+02  0.74097451239E+03  0.74203135957E+03  0.00000000000E+00 0. -1.
         -2    1    1    2    0  501 -0.91229452070E+02 -0.47713271828E+02 -0.23479866016E+03  0.25637819729E+03  0.00000000000E+00 0.  1.
<mgrwt>
<rscale>  0 0.65846159E+02</rscale>
<asrwt>0</asrwt>
<pdfrwt beam="1">  1        1 0.11985395E+00 0.39589273E+02</pdfrwt>
<pdfrwt beam="2">  1       -2 0.84140881E-01 0.10951746E+03</pdfrwt>
<totfact> 0.30511299E+01</totfact>
</mgrwt>
</event>
<event>
 7    1  0.3113151E-004  0.6566927E+02  0.7546771E-02  0.1424305E+00
          1   -1    0    0  503    0  0.00000000000E+00  0.00000000000E+00  0.53401678407E+02  0.53401678407E+02  0.00000000000E+00 0. -1.
         -1   -1    0    0    0  501 -0.00000000000E+00 -0.00000000000E+00 -0.43030413143E+03  0.43030413143E+03  0.00000000000E+00 0.  1.
         25    2    1    2    0    0 -0.26023587440E+02 -0.87050031775E+02 -0.12142346529E+03  0.19652649840E+03  0.12499628600E+03 0.  0.
          4    1    3    3  502    0 -0.59548792839E+02 -0.10154119438E+03 -0.87683657753E+02  0.14678797506E+03  0.12700000000E+01 0. -1.
         -4    1    3    3    0  502  0.33525205399E+02  0.14491162608E+02 -0.33739807541E+02  0.49738523336E+02  0.12700000000E+01 0. -1.
          1    1    1    2  503    0 -0.12341838460E+02  0.42861120892E+02 -0.20530761963E+03  0.21009668093E+03  0.00000000000E+00 0.  1.
         -1    1    1    2    0  501  0.38365425900E+02  0.44188910882E+02 -0.50171368104E+02  0.77082630513E+02  0.00000000000E+00 0. -1.
<mgrwt>
<rscale>  0 0.54120456E+02</rscale>
<asrwt>0</asrwt>
<pdfrwt beam="1">  1        1 0.82156430E-02 0.44602653E+02</pdfrwt>
<pdfrwt beam="2">  1       -1 0.66200635E-01 0.65669271E+02</pdfrwt>
<totfact> 0.18230658E+03</totfact>
</mgrwt>
</event>
<event>
 7    1  0.4629522E-004  0.7359762E+02  0.7546771E-02  0.1435812E+00
          1   -1    0    0  503    0  0.00000000000E+00  0.00000000000E+00  0.65944699807E+03  0.65944699807E+03  0.00000000000E+00 0. -1.
         -2   -1    0    0    0  501 -0.00000000000E+00 -0.00000000000E+00 -0.49499185309E+02  0.49499185309E+02  0.00000000000E+00 0.  1.
         25    2    1    2    0    0 -0.58176424734E+02  0.48493493438E+02  0.57421569997E+03  0.59252524219E+03  0.12500550884E+03 0.  0.
          4    1    3    3  502    0 -0.88589735359E+01 -0.36143464287E+02  0.74378617843E+02  0.83178261073E+02  0.12700000000E+01 0.  1.
         -4    1    3    3    0  502 -0.49317451198E+02  0.84636957725E+02  0.49983708212E+03  0.50934698111E+03  0.12700000000E+01 0.  1.
          1    1    1    2  503    0  0.27508947976E+02 -0.68237479389E+02  0.17417026007E+02  0.75607199439E+02  0.00000000000E+00 0. -1.
         -2    1    1    2    0  501  0.30667476758E+02  0.19743985951E+02  0.18315086791E+02  0.40813741756E+02  0.00000000000E+00 0.  1.
<mgrwt>
<rscale>  0 0.51810864E+02</rscale>
<asrwt>0</asrwt>
<pdfrwt beam="1">  1        1 0.10145338E+00 0.73597618E+02</pdfrwt>
<pdfrwt beam="2">  1       -2 0.76152597E-02 0.36473540E+02</pdfrwt>
<totfact> 0.24685332E+03</totfact>
</mgrwt>
</event>
<event>
 7    1  0.3113151E-004  0.1219006E+03  0.7546771E-02  0.1368084E+00
          1   -1    0    0  503    0  0.00000000000E+00  0.00000000000E+00  0.12035249918E+03  0.12035249918E+03  0.00000000000E+00 0. -1.
         -2   -1    0    0    0  501 -0.00000000000E+00 -0.00000000000E+00 -0.28728234536E+03  0.28728234536E+03  0.00000000000E+00 0.  1.
         25    2    1    2    0    0 -0.11881375731E+03 -0.20172065075E+02 -0.16659770528E+03  0.24063089948E+03  0.12499925298E+03 0.  0.
          4    1    3    3  502    0 -0.85075448898E+02  0.47480720059E+02 -0.10354254535E+03  0.14217919109E+03  0.12700000000E+01 0.  1.
         -4    1    3    3    0  502 -0.33738308409E+02 -0.67652785134E+02 -0.63055159928E+02  0.98451708386E+02  0.12700000000E+01 0.  1.
          1    1    1    2  503    0  0.49791373234E+01 -0.37270481736E+02  0.10493804865E+02  0.39038449737E+02  0.00000000000E+00 0. -1.
         -2    1    1    2    0  501  0.11383461998E+03  0.57442546811E+02 -0.10825945769E+02  0.12796549532E+03  0.00000000000E+00 0.  1.
<mgrwt>
<rscale>  0 0.67702725E+02</rscale>
<asrwt>0</asrwt>
<pdfrwt beam="1">  1        1 0.18515769E-01 0.37601604E+02</pdfrwt>
<pdfrwt beam="2">  1       -2 0.44197284E-01 0.12190062E+03</pdfrwt>
<totfact> 0.11277980E+03</totfact>
</mgrwt>
</event>
<event>
 7    1  0.3113151E-004  0.1500603E+03  0.7546771E-02  0.1272144E+00
         -3   -1    0    0    0  501 -0.00000000000E+00  0.00000000000E+00  0.10573120464E+03  0.10573120464E+03  0.00000000000E+00 0.  1.
          1   -1    0    0  503    0  0.00000000000E+00 -0.00000000000E+00 -0.14004718807E+04  0.14004718807E+04  0.00000000000E+00 0. -1.
         25    2    1    2    0    0  0.19254746112E+03  0.16494908472E+02 -0.66804546623E+03  0.70658079286E+03  0.12500026043E+03 0.  0.
          4    1    3    3  502    0  0.19447536507E+02  0.42945640752E+02 -0.78494950153E+02  0.91572948164E+02  0.12700000000E+01 0. -1.
         -4    1    3    3    0  502  0.17309992461E+03 -0.26450732281E+02 -0.58955051607E+03  0.61500784470E+03  0.12700000000E+01 0. -1.
          1    1    1    2  503    0 -0.13426687191E+03  0.25865520723E+02 -0.69018002699E+03  0.70359440568E+03  0.00000000000E+00 0. -1.
         -3    1    1    2    0  501 -0.58280589207E+02 -0.42360429195E+02  0.63484817132E+02  0.96027886815E+02  0.00000000000E+00 0.  1.
<mgrwt>
<rscale>  0 0.10397917E+03</rscale>
<asrwt>0</asrwt>
<pdfrwt beam="2">  1        1 0.21545721E+00 0.15006029E+03</pdfrwt>
<pdfrwt beam="1">  1       -3 0.16266339E-01 0.72048824E+02</pdfrwt>
<totfact> 0.14000166E+02</totfact>
</mgrwt>
</event>
<event>
 7    1  0.3113151E-004  0.8207680E+02  0.7546771E-02  0.1404740E+00
          2   -1    0    0  502    0  0.00000000000E+00  0.00000000000E+00  0.10589330621E+04  0.10589330621E+04  0.00000000000E+00 0. -1.
          1   -1    0    0  503    0 -0.00000000000E+00 -0.00000000000E+00 -0.12780316309E+03  0.12780316309E+03  0.00000000000E+00 0. -1.
         25    2    1    2    0    0  0.58442715913E+02  0.30790242624E+02 -0.17689412233E+02  0.14248153992E+03  0.12499793530E+03 0.  0.
          4    1    3    3  501    0  0.24474956542E+02  0.40240929985E+02  0.48411326699E+02  0.67554610476E+02  0.12700000000E+01 0. -1.
         -4    1    3    3    0  501  0.33967759371E+02 -0.94506873615E+01 -0.66100738932E+02  0.74926929442E+02  0.12700000000E+01 0. -1.
          2    1    1    2  502    0  0.66491372194E+01  0.40995259114E+02  0.94641140030E+03  0.94732220544E+03  0.00000000000E+00 0. -1.
          1    1    1    2  503    0 -0.65091853132E+02 -0.71785501738E+02  0.24079108939E+01  0.96932479793E+02  0.00000000000E+00 0. -1.
<mgrwt>
<rscale>  0 0.58384329E+02</rscale>
<asrwt>0</asrwt>
<pdfrwt beam="1">  1        2 0.16291277E+00 0.41530980E+02</pdfrwt>
<pdfrwt beam="2">  1        1 0.19662026E-01 0.82076799E+02</pdfrwt>
<totfact> 0.91540266E+02</totfact>
</mgrwt>
</event>
<event>
 7    1  0.3113151E-004  0.1122169E+03  0.7546771E-02  0.1335510E+00
          1   -1    0    0  503    0 -0.00000000000E+00  0.00000000000E+00  0.36635970161E+03  0.36635970161E+03  0.00000000000E+00 0.  1.
          2   -1    0    0  502    0  0.00000000000E+00 -0.00000000000E+00 -0.46782219393E+03  0.46782219393E+03  0.00000000000E+00 0.  1.
         25    2    1    2    0    0  0.96892102696E+02 -0.29171045265E+02 -0.23114197519E+02  0.16247287946E+03  0.12499656389E+03 0.  0.
          4    1    3    3  501    0  0.24131953445E+02 -0.45522845354E+02  0.39623245544E+02  0.65009961649E+02  0.12700000000E+01 0. -1.
         -4    1    3    3    0  501  0.72760149251E+02  0.16351800089E+02 -0.62737443063E+02  0.97462917806E+02  0.12700000000E+01 0. -1.
          2    1    1    2  502    0 -0.15321344208E+02 -0.51669403594E+02 -0.36184389582E+03  0.36583531239E+03  0.00000000000E+00 0.  1.
          1    1    1    2  503    0 -0.81570758487E+02  0.80840448860E+02  0.28349560102E+03  0.30587370369E+03  0.00000000000E+00 0.  1.
<mgrwt>
<rscale>  0 0.77767098E+02</rscale>
<asrwt>0</asrwt>
<pdfrwt beam="2">  1        2 0.71972645E-01 0.53893143E+02</pdfrwt>
<pdfrwt beam="1">  1        1 0.56363031E-01 0.11221690E+03</pdfrwt>
<totfact> 0.63747452E+02</totfact>
</mgrwt>
</event>
<event>
 7    1  0.3113151E-004  0.7030822E+02  0.7546771E-02  0.1375168E+00
         -1   -1    0    0    0  501 -0.00000000000E+00  0.00000000000E+00  0.68794183658E+02  0.68794183658E+02  0.00000000000E+00 0.  1.
          2   -1    0    0  503    0  0.00000000000E+00 -0.00000000000E+00 -0.34905078135E+03  0.34905078135E+03  0.00000000000E+00 0. -1.
         25    2    1    2    0    0 -0.99419734952E+02 -0.27221062413E+02 -0.85132892152E+02  0.18302353235E+03  0.12499893652E+03 0.  0.
          4    1    3    3  502    0 -0.11257760618E+03 -0.47144058260E+02 -0.97395204887E+02  0.15615286894E+03  0.12700000000E+01 0. -1.
         -4    1    3    3    0  502  0.13157871226E+02  0.19922995847E+02  0.12262312735E+02  0.26870663415E+02  0.12700000000E+01 0. -1.
          2    1    1    2  503    0  0.61644010306E+02 -0.21296168739E+02 -0.71672795925E+02  0.96904594758E+02  0.00000000000E+00 0. -1.
         -1    1    1    2    0  501  0.37775724646E+02  0.48517231151E+02 -0.12345090961E+03  0.13791683790E+03  0.00000000000E+00 0.  1.
<mgrwt>
<rscale>  0 0.65751040E+02</rscale>
<asrwt>0</asrwt>
<pdfrwt beam="2">  1        2 0.53700121E-01 0.70308219E+02</pdfrwt>
<pdfrwt beam="1">  1       -1 0.10583720E-01 0.61489244E+02</pdfrwt>
<totfact> 0.53620689E+03</totfact>
</mgrwt>
</event>
<event>
 7    1  0.3113151E-004  0.8461825E+02  0.7546771E-02  0.1372018E+00
          1   -1    0    0  503    0 -0.00000000000E+00  0.00000000000E+00  0.10973951727E+04  0.10973951727E+04  0.00000000000E+00 0. -1.
          2   -1    0    0  502    0  0.00000000000E+00 -0.00000000000E+00 -0.30120846296E+02  0.30120846296E+02  0.00000000000E+00 0. -1.
         25    2    1    2    0    0 -0.42244219008E+02 -0.65953868127E+02  0.30758112326E+03  0.34112341411E+03  0.12499819802E+03 0.  0.
          4    1    3    3  501    0 -0.23760882555E+02 -0.99355185212E+02  0.26451739907E+03  0.28356145661E+03  0.12700000000E+01 0.  1.
         -4    1    3    3    0  501 -0.18483336453E+02  0.33401317085E+02  0.43063724191E+02  0.57561957496E+02  0.12700000000E+01 0.  1.
          2    1    1    2  502    0 -0.25309227776E+01  0.93238064712E+02  0.16616809773E+03  0.19055597337E+03  0.00000000000E+00 0. -1.
          1    1    1    2  503    0  0.44775141786E+02 -0.27284196585E+02  0.59352510546E+03  0.59583663156E+03  0.00000000000E+00 0. -1.
<mgrwt>
<rscale>  0 0.66609353E+02</rscale>
<asrwt>0</asrwt>
<pdfrwt beam="2">  1        2 0.46339772E-02 0.84618251E+02</pdfrwt>
<pdfrwt beam="1">  1        1 0.16883000E+00 0.52433202E+02</pdfrwt>
<totfact> 0.32462101E+03</totfact>
</mgrwt>
</event>
<event>
 7    1  0.3113151E-004  0.7070764E+02  0.7546771E-02  0.1500897E+00
         -1   -1    0    0    0  501 -0.00000000000E+00  0.00000000000E+00  0.38851627321E+02  0.38851627321E+02  0.00000000000E+00 0.  1.
          2   -1    0    0  503    0  0.00000000000E+00 -0.00000000000E+00 -0.41227890327E+03  0.41227890327E+03  0.00000000000E+00 0. -1.
         25    2    1    2    0    0 -0.49308709589E+02 -0.45925585552E+02 -0.16906103737E+03  0.22078645993E+03  0.12499807311E+03 0.  0.
          4    1    3    3  502    0 -0.43901637513E+02  0.54547765309E+01 -0.26702541537E+00  0.44258248563E+02  0.12700000000E+01 0.  1.
         -4    1    3    3    0  502 -0.54070720763E+01 -0.51380362083E+02 -0.16879401196E+03  0.17652821137E+03  0.12700000000E+01 0.  1.
          2    1    1    2  503    0  0.13988765062E+02 -0.19239197276E+02 -0.97024839930E+02  0.99898207308E+02  0.00000000000E+00 0. -1.
         -1    1    1    2    0  501  0.35319944527E+02  0.65164782828E+02 -0.10734139864E+03  0.13044586335E+03  0.00000000000E+00 0.  1.
<mgrwt>
<rscale>  0 0.41011447E+02</rscale>
<asrwt>0</asrwt>
<pdfrwt beam="2">  1        2 0.63427520E-01 0.23787229E+02</pdfrwt>
<pdfrwt beam="1">  1       -1 0.59771738E-02 0.70707639E+02</pdfrwt>
<totfact> 0.10632301E+04</totfact>
</mgrwt>
</event>
<event>
 7    1  0.3113151E-004  0.4105699E+02  0.7546771E-02  0.1565059E+00
          2   -1    0    0  502    0  0.00000000000E+00  0.00000000000E+00  0.11401088633E+04  0.11401088633E+04  0.00000000000E+00 0. -1.
          2   -1    0    0  503    0 -0.00000000000E+00 -0.00000000000E+00 -0.16615917067E+03  0.16615917067E+03  0.00000000000E+00 0. -1.
         25    2    1    2    0    0 -0.48428381318E+01 -0.14539493736E+02  0.49350171525E+02  0.13526253765E+03  0.12500265878E+03 0.  0.
          4    1    3    3  501    0 -0.90189861286E+01  0.29932531943E+02  0.76724477305E+02  0.82858656138E+02  0.12700000000E+01 0. -1.
         -4    1    3    3    0  501  0.41761479968E+01 -0.44472025679E+02 -0.27374305781E+02  0.52403881508E+02  0.12700000000E+01 0. -1.
          2    1    1    2  502    0 -0.42112309752E+01 -0.26536912302E+02  0.10440345141E+04  0.10443802032E+04  0.00000000000E+00 0. -1.
          2    1    1    2  503    0  0.90540691070E+01  0.41076406039E+02 -0.11943499302E+03  0.12662529312E+03  0.00000000000E+00 0. -1.
<mgrwt>
<rscale>  0 0.33213845E+02</rscale>
<asrwt>0</asrwt>
<pdfrwt beam="1">  1        2 0.17540136E+00 0.26868982E+02</pdfrwt>
<pdfrwt beam="2">  1        2 0.25562950E-01 0.41056989E+02</pdfrwt>
<totfact> 0.76720251E+02</totfact>
</mgrwt>
</event>
<event>
 7    1  0.3113151E-004  0.6626876E+02  0.7546771E-02  0.1428559E+00
          1   -1    0    0  502    0  0.00000000000E+00  0.00000000000E+00  0.17786294902E+03  0.17786294902E+03  0.00000000000E+00 0.  1.
          1   -1    0    0  503    0 -0.00000000000E+00 -0.00000000000E+00 -0.65358995573E+03  0.65358995573E+03  0.00000000000E+00 0. -1.
         25    2    1    2    0    0  0.72789956524E+02  0.59840758922E+02 -0.70835513690E+02  0.17182671649E+03  0.12500982481E+03 0.  0.
          4    1    3    3  501    0  0.38983680607E+02  0.68437082409E+02 -0.99326214651E+02  0.12677015193E+03  0.12700000000E+01 0.  1.
         -4    1    3    3    0  501  0.33806275917E+02 -0.85963234874E+01  0.28490700961E+02  0.45056564562E+02  0.12700000000E+01 0.  1.
          1    1    1    2  502    0 -0.42755379073E+02 -0.17022578949E+01  0.12169029263E+03  0.12899398219E+03  0.00000000000E+00 0.  1.
          1    1    1    2  503    0 -0.30034577451E+02 -0.58138501027E+02 -0.52658178564E+03  0.53063220607E+03  0.00000000000E+00 0. -1.
<mgrwt>
<rscale>  0 0.53250266E+02</rscale>
<asrwt>0</asrwt>
<pdfrwt beam="1">  1        1 0.27363531E-01 0.42789252E+02</pdfrwt>
<pdfrwt beam="2">  1        1 0.10055230E+00 0.66268764E+02</pdfrwt>
<totfact> 0.64229856E+02</totfact>
</mgrwt>
</event>
<event>
 7    1  0.3113151E-004  0.9746888E+02  0.7546771E-02  0.1464435E+00
         -3   -1    0    0    0  501 -0.00000000000E+00  0.00000000000E+00  0.48043784310E+03  0.48043784310E+03  0.00000000000E+00 0.  1.
          2   -1    0    0  503    0  0.00000000000E+00 -0.00000000000E+00 -0.20129965225E+04  0.20129965225E+04  0.00000000000E+00 0. -1.
         25    2    1    2    0    0  0.19022081157E+02 -0.83805932413E+02 -0.36156726324E+02  0.15594201718E+03  0.12500131993E+03 0.  0.
          4    1    3    3  502    0 -0.14064985846E+01 -0.39407874262E+02 -0.80684791241E+02  0.89814293015E+02  0.12700000000E+01 0.  1.
         -4    1    3    3    0  502  0.20428579742E+02 -0.44398058151E+02  0.44528064917E+02  0.66127724165E+02  0.12700000000E+01 0.  1.
          2    1    1    2  503    0 -0.40749999801E+02  0.88846872927E+02 -0.19154042893E+04  0.19178967440E+04  0.00000000000E+00 0. -1.
         -3    1    1    2    0  501  0.21727918644E+02 -0.50409405135E+01  0.41900233618E+03  0.41959560442E+03  0.00000000000E+00 0.  1.
<mgrwt>
<rscale>  0 0.46626649E+02</rscale>
<asrwt>0</asrwt>
<pdfrwt beam="2">  1        2 0.30969178E+00 0.97468876E+02</pdfrwt>
<pdfrwt beam="1">  1       -3 0.73913514E-01 0.22305011E+02</pdfrwt>
<totfact> 0.80684613E+00</totfact>
</mgrwt>
</event>
<event>
 7    1  0.3113151E-004  0.1031448E+03  0.7546771E-02  0.1395821E+00
          1   -1    0    0  502    0  0.00000000000E+00  0.00000000000E+00  0.11271555146E+04  0.11271555146E+04  0.00000000000E+00 0. -1.
          1   -1    0    0  503    0 -0.00000000000E+00 -0.00000000000E+00 -0.34922283127E+03  0.34922283127E+03  0.00000000000E+00 0. -1.
         25    2    1    2    0    0  0.70818626044E+02 -0.20171962379E+02  0.42252179539E+01  0.14513886030E+03  0.12500100176E+03 0.  0.
          4    1    3    3  501    0  0.48596098917E+02 -0.70249170124E+02  0.20725777783E+02  0.87907323346E+02  0.12700000000E+01 0.  1.
         -4    1    3    3    0  501  0.22222527126E+02  0.50077207745E+02 -0.16500559829E+02  0.57231536954E+02  0.12700000000E+01 0.  1.
          1    1    1    2  502    0  0.27887345041E+02 -0.21910771223E+02  0.10418348469E+04  0.10424383119E+04  0.00000000000E+00 0. -1.
          1    1    1    2  503    0 -0.98705971085E+02  0.42082733602E+02 -0.26812738151E+03  0.28880117367E+03  0.00000000000E+00 0. -1.
<mgrwt>
<rscale>  0 0.60481890E+02</rscale>
<asrwt>0</asrwt>
<pdfrwt beam="1">  1        1 0.17340854E+00 0.35465278E+02</pdfrwt>
<pdfrwt beam="2">  1        1 0.53726590E-01 0.10314480E+03</pdfrwt>
<totfact> 0.13109661E+02</totfact>
</mgrwt>
</event>
<event>
 7    1  0.3113151E-004  0.3972694E+02  0.7546771E-02  0.1614559E+00
          3   -1    0    0  503    0 -0.00000000000E+00  0.00000000000E+00  0.71075725173E+02  0.71075725173E+02  0.00000000000E+00 0. -1.
          1   -1    0    0  502    0  0.00000000000E+00 -0.00000000000E+00 -0.81170804133E+03  0.81170804133E+03  0.00000000000E+00 0. -1.
         25    2    1    2    0    0  0.24791265628E+02 -0.21616684571E+01 -0.53737980023E+03  0.55228718629E+03  0.12499922713E+03 0.  0.
          4    1    3    3  501    0  0.68610472060E+02 -0.30266174122E+02 -0.29594958045E+03  0.30530510189E+03  0.12700000000E+01 0.  1.
         -4    1    3    3    0  501 -0.43819206432E+02  0.28104505665E+02 -0.24143021977E+03  0.24698208439E+03  0.12700000000E+01 0.  1.
          1    1    1    2  502    0  0.95738783240E+01 -0.18165304109E+02 -0.26016579149E+03  0.26097485794E+03  0.00000000000E+00 0. -1.
          3    1    1    2  503    0 -0.34365143952E+02  0.20326972566E+02  0.56913275558E+02  0.69521722269E+02  0.00000000000E+00 0. -1.
<mgrwt>
<rscale>  0 0.28561260E+02</rscale>
<asrwt>0</asrwt>
<pdfrwt beam="2">  1        1 0.12487816E+00 0.20533812E+02</pdfrwt>
<pdfrwt beam="1">  1        3 0.10934727E-01 0.39726944E+02</pdfrwt>
<totfact> 0.72905408E+02</totfact>
</mgrwt>
</event>
<event>
 7    1  0.3113151E-004  0.4514948E+02  0.7546771E-02  0.1537957E+00
          2   -1    0    0  503    0  0.00000000000E+00  0.00000000000E+00  0.13140249329E+03  0.13140249329E+03  0.00000000000E+00 0. -1.
         -1   -1    0    0    0  501 -0.00000000000E+00 -0.00000000000E+00 -0.93858839411E+02  0.93858839411E+02  0.00000000000E+00 0.  1.
         25    2    1    2    0    0  0.22592365415E+02  0.34929424638E+01  0.57560171221E+02  0.13951027942E+03  0.12500931617E+03 0.  0.
          4    1    3    3  502    0  0.14624743987E+02 -0.27585465188E+02  0.89149588519E+02  0.94467470906E+02  0.12700000000E+01 0.  1.
         -4    1    3    3    0  502  0.79676214285E+01  0.31078407652E+02 -0.31589417297E+02  0.45042808511E+02  0.12700000000E+01 0.  1.
          2    1    1    2  503    0  0.18591968103E+02  0.22346851159E+02  0.73151946762E+01  0.29975908791E+02  0.00000000000E+00 0. -1.
         -1    1    1    2    0  501 -0.41184333519E+02 -0.25839793623E+02 -0.27331712016E+02  0.55775144496E+02  0.00000000000E+00 0.  1.
<mgrwt>
<rscale>  0 0.36228143E+02</rscale>
<asrwt>0</asrwt>
<pdfrwt beam="1">  1        2 0.20215768E-01 0.29069624E+02</pdfrwt>
<pdfrwt beam="2">  1       -1 0.14439821E-01 0.45149478E+02</pdfrwt>
<totfact> 0.88678740E+03</totfact>
</mgrwt>
</event>
<event>
 7    1  0.3113151E-004  0.4688888E+02  0.7546771E-02  0.1470648E+00
          1   -1    0    0  503    0 -0.00000000000E+00  0.00000000000E+00  0.10149438787E+04  0.10149438787E+04  0.00000000000E+00 0. -1.
          2   -1    0    0  502    0  0.00000000000E+00 -0.00000000000E+00 -0.23488552156E+02  0.23488552156E+02  0.00000000000E+00 0. -1.
         25    2    1    2    0    0 -0.39761945771E+02  0.62151975310E+02  0.65150471337E+03  0.66747838053E+03  0.12500046624E+03 0.  0.
          4    1    3    3  501    0 -0.31287410142E+02  0.56317957027E+02  0.12286724732E+03  0.13873927952E+03  0.12700000000E+01 0.  1.
         -4    1    3    3    0  501 -0.84745356288E+01  0.58340182829E+01  0.52863746605E+03  0.52873910101E+03  0.12700000000E+01 0.  1.
          2    1    1    2  502    0  0.42411270090E+02 -0.17890216563E+02  0.24007689477E+02  0.51914784343E+02  0.00000000000E+00 0. -1.
          1    1    1    2  503    0 -0.26493243188E+01 -0.44261758747E+02  0.31594292367E+03  0.31903926596E+03  0.00000000000E+00 0. -1.
<mgrwt>
<rscale>  0 0.45597137E+02</rscale>
<asrwt>0</asrwt>
<pdfrwt beam="2">  1        2 0.36136242E-02 0.46888884E+02</pdfrwt>
<pdfrwt beam="1">  1        1 0.15614518E+00 0.44340977E+02</pdfrwt>
<totfact> 0.48346293E+03</totfact>
</mgrwt>
</event>
<event>
 7    1  0.3113151E-004  0.3344264E+02  0.7546771E-02  0.1615037E+00
          2   -1    0    0  502    0  0.00000000000E+00  0.00000000000E+00  0.99953442578E+03  0.99953442578E+03  0.00000000000E+00 0. -1.
          1   -1    0    0  503    0 -0.00000000000E+00 -0.00000000000E+00 -0.22893357991E+02  0.22893357991E+02  0.00000000000E+00 0. -1.
         25    2    1    2    0    0  0.55569373407E+02  0.52093335532E+01  0.41987714479E+03  0.44163172513E+03  0.12500668584E+03 0.  0.
          4    1    3    3  501    0  0.32713677647E+02 -0.18872743392E+02  0.40224751597E+03  0.40401861610E+03  0.12700000000E+01 0. -1.
         -4    1    3    3    0  501  0.22855695759E+02  0.24082076945E+02  0.17629628822E+02  0.37613109032E+02  0.12700000000E+01 0. -1.
          2    1    1    2  502    0 -0.24191968072E+02  0.25276182627E+01  0.54627942548E+03  0.54682067524E+03  0.00000000000E+00 0. -1.
          1    1    1    2  503    0 -0.31377405335E+02 -0.77369518160E+01  0.10484497520E+02  0.33975383400E+02  0.00000000000E+00 0. -1.
<mgrwt>
<rscale>  0 0.28520997E+02</rscale>
<asrwt>0</asrwt>
<pdfrwt beam="1">  1        2 0.15377449E+00 0.24323655E+02</pdfrwt>
<pdfrwt beam="2">  1        1 0.35220558E-02 0.33442643E+02</pdfrwt>
<totfact> 0.87100656E+03</totfact>
</mgrwt>
</event>
<event>
 7    1  0.3113151E-004  0.7228683E+02  0.7546771E-02  0.1365719E+00
          2   -1    0    0  503    0  0.00000000000E+00  0.00000000000E+00  0.76983694626E+03  0.76983694626E+03  0.00000000000E+00 0. -1.
          2   -1    0    0  502    0 -0.00000000000E+00 -0.00000000000E+00 -0.88732257161E+03  0.88732257161E+03  0.00000000000E+00 0. -1.
         25    2    1    2    0    0  0.12444751852E+02 -0.10382138135E+03 -0.29159421721E+03  0.33404522105E+03  0.12500108447E+03 0.  0.
          4    1    3    3  501    0  0.14261887443E+02 -0.51148602971E+02 -0.19017171117E+02  0.56416723732E+02  0.12700000000E+01 0. -1.
         -4    1    3    3    0  501 -0.18171355905E+01 -0.52672778380E+02 -0.27257704610E+03  0.27762849732E+03  0.12700000000E+01 0. -1.
          2    1    1    2  502    0 -0.49465277439E+02  0.50797747041E+02 -0.57090916715E+03  0.57529514331E+03  0.00000000000E+00 0. -1.
          2    1    1    2  503    0  0.37020525587E+02  0.53023634311E+02  0.74501775901E+03  0.74781915351E+03  0.00000000000E+00 0. -1.
<mgrwt>
<rscale>  0 0.68371679E+02</rscale>
<asrwt>0</asrwt>
<pdfrwt beam="1">  1        2 0.11843645E+00 0.64668579E+02</pdfrwt>
<pdfrwt beam="2">  1        2 0.13651116E+00 0.72286829E+02</pdfrwt>
<totfact> 0.20037391E+02</totfact>
</mgrwt>
</event>
<event>
 7    1  0.3113151E-004  0.3254205E+02  0.7546771E-02  0.1600307E+00
          2   -1    0    0  503    0  0.00000000000E+00  0.00000000000E+00  0.34978265805E+03  0.34978265805E+03  0.00000000000E+00 0. -1.
          2   -1    0    0  502    0 -0.00000000000E+00 -0.00000000000E+00 -0.14641415937E+04  0.14641415937E+04  0.00000000000E+00 0. -1.
         25    2    1    2    0    0 -0.35093670084E+02 -0.45031462190E+02  0.18224047485E+03  0.22824448076E+03  0.12499821621E+03 0.  0.
          4    1    3    3  501    0 -0.26487297717E+02 -0.88837459839E+02  0.12018421953E+03  0.15178778190E+03  0.12700000000E+01 0. -1.
         -4    1    3    3    0  501 -0.86063723665E+01  0.43805997649E+02  0.62056255326E+02  0.76456698859E+02  0.12700000000E+01 0. -1.
          2    1    1    2  502    0  0.12126303736E+02  0.24447244888E+02 -0.14393635465E+04  0.14396222192E+04  0.00000000000E+00 0. -1.
          2    1    1    2  503    0  0.22967366347E+02  0.20584217302E+02  0.14276413598E+03  0.14605755181E+03  0.00000000000E+00 0. -1.
<mgrwt>
<rscale>  0 0.29800253E+02</rscale>
<asrwt>0</asrwt>
<pdfrwt beam="1">  1        2 0.53812716E-01 0.32542046E+02</pdfrwt>
<pdfrwt beam="2">  1        2 0.22525255E+00 0.27289467E+02</pdfrwt>
<totfact> 0.24643958E+02</totfact>
</mgrwt>
</event>
<event>
 7    1  0.3113151E-004  0.2530894E+03  0.7546771E-02  0.1240351E+00
          2   -1    0    0  502    0  0.00000000000E+00  0.00000000000E+00  0.20937778814E+04  0.20937778814E+04  0.00000000000E+00 0. -1.
          2   -1    0    0  503    0 -0.00000000000E+00 -0.00000000000E+00 -0.82216759549E+03  0.82216759549E+03  0.00000000000E+00 0. -1.
         25    2    1    2    0    0  0.19470201597E+02 -0.20669280786E+03  0.74589317907E+02  0.25355370971E+03  0.12499964716E+03 0.  0.
          4    1    3    3  501    0 -0.16781689958E+02 -0.15080278197E+03  0.10056632436E+03  0.18203928879E+03  0.12700000000E+01 0.  1.
         -4    1    3    3    0  501  0.36251891555E+02 -0.55890025893E+02 -0.25977006450E+02  0.71514420922E+02  0.12700000000E+01 0.  1.
          2    1    1    2  502    0 -0.24997367329E+02 -0.52891832921E+02  0.19062409131E+04  0.19071383886E+04  0.00000000000E+00 0. -1.
          2    1    1    2  503    0  0.55271657313E+01  0.25958464078E+03 -0.70921994513E+03  0.75525337858E+03  0.00000000000E+00 0. -1.
<mgrwt>
<rscale>  0 0.12168027E+03</rscale>
<asrwt>0</asrwt>
<pdfrwt beam="1">  1        2 0.32211967E+00 0.58501405E+02</pdfrwt>
<pdfrwt beam="2">  1        2 0.12648732E+00 0.25308945E+03</pdfrwt>
<totfact> 0.42274936E+01</totfact>
</mgrwt>
</event>
<event>
 7    1  0.3113151E-004  0.1123107E+03  0.7546771E-02  0.1333203E+00
          1   -1    0    0  502    0  0.00000000000E+00  0.00000000000E+00  0.67067135443E+03  0.67067135443E+03  0.00000000000E+00 0. -1.
          1   -1    0    0  503    0 -0.00000000000E+00 -0.00000000000E+00 -0.34712888828E+03  0.34712888828E+03  0.00000000000E+00 0. -1.
         25    2    1    2    0    0  0.34032251051E+02 -0.17875458815E+02 -0.26052479805E+03  0.29148900736E+03  0.12495977303E+03 0.  0.
          4    1    3    3  501    0  0.16039714929E+02  0.47084018726E+02 -0.17854546146E+03  0.18534905444E+03  0.12700000000E+01 0. -1.
         -4    1    3    3    0  501  0.17992536122E+02 -0.64959477541E+02 -0.81979336587E+02  0.10613995292E+03  0.12700000000E+01 0. -1.
          1    1    1    2  502    0  0.11197614945E+03 -0.86620698798E+01  0.56574365675E+03  0.57678381968E+03  0.00000000000E+00 0. -1.
          1    1    1    2  503    0 -0.14600840050E+03  0.26537528695E+02  0.18323607459E+02  0.14952741566E+03  0.00000000000E+00 0. -1.
<mgrwt>
<rscale>  0 0.78554999E+02</rscale>
<asrwt>0</asrwt>
<pdfrwt beam="1">  1        1 0.10318021E+00 0.11231068E+03</pdfrwt>
<pdfrwt beam="2">  1        1 0.53404445E-01 0.54944799E+02</pdfrwt>
<totfact> 0.27403718E+02</totfact>
</mgrwt>
</event>
<event>
 7    1  0.3113151E-004  0.9878796E+02  0.7546771E-02  0.1289106E+00
          1   -1    0    0  503    0  0.00000000000E+00  0.00000000000E+00  0.85149814082E+03  0.85149814082E+03  0.00000000000E+00 0. -1.
         -3   -1    0    0    0  501 -0.00000000000E+00 -0.00000000000E+00 -0.21977880471E+03  0.21977880471E+03  0.00000000000E+00 0.  1.
         25    2    1    2    0    0 -0.18480405355E+03 -0.36678835067E+02  0.58330582897E+02  0.23350247992E+03  0.12499230407E+03 0.  0.
          4    1    3    3  502    0 -0.86223866322E+02 -0.36919182018E+02  0.89955129751E+02  0.12996583933E+03  0.12700000000E+01 0.  1.
         -4    1    3    3    0  502 -0.98580187227E+02  0.24034695135E+00 -0.31624546854E+02  0.10353664059E+03  0.12700000000E+01 0.  1.
          1    1    1    2  503    0  0.94242660730E+02  0.14891693702E+02  0.68544870702E+03  0.69205734704E+03  0.00000000000E+00 0. -1.
         -3    1    1    2    0  501  0.90561392818E+02  0.21787141365E+02 -0.11205995380E+03  0.14571711857E+03  0.00000000000E+00 0.  1.
<mgrwt>
<rscale>  0 0.95925146E+02</rscale>
<asrwt>0</asrwt>
<pdfrwt beam="1">  1        1 0.13099971E+00 0.98787962E+02</pdfrwt>
<pdfrwt beam="2">  1       -3 0.33812124E-01 0.93145292E+02</pdfrwt>
<totfact> 0.98007658E+01</totfact>
</mgrwt>
</event>
<event>
 7    1  0.3113151E-004  0.1143246E+03  0.7546771E-02  0.1280152E+00
          1   -1    0    0  503    0 -0.00000000000E+00  0.00000000000E+00  0.59880139812E+03  0.59880139812E+03  0.00000000000E+00 0. -1.
          2   -1    0    0  502    0  0.00000000000E+00 -0.00000000000E+00 -0.15803375758E+04  0.15803375758E+04  0.00000000000E+00 0. -1.
         25    2    1    2    0    0  0.11529932937E+03 -0.13832150162E+03  0.17794042141E+03  0.28233712210E+03  0.12499873510E+03 0.  0.
          4    1    3    3  501    0  0.11768964714E+02 -0.99909070309E+02  0.12326124437E+03  0.15910775633E+03  0.12700000000E+01 0. -1.
         -4    1    3    3    0  501  0.10353036466E+03 -0.38412431313E+02  0.54679177045E+02  0.12322936577E+03  0.12700000000E+01 0. -1.
          2    1    1    2  502    0 -0.32750154728E+02  0.10903606729E+03 -0.15207786869E+04  0.15250341803E+04  0.00000000000E+00 0. -1.
          1    1    1    2  503    0 -0.82549174643E+02  0.29285434334E+02  0.36130208783E+03  0.37176767149E+03  0.00000000000E+00 0. -1.
<mgrwt>
<rscale>  0 0.10006842E+03</rscale>
<asrwt>0</asrwt>
<pdfrwt beam="2">  1        2 0.24312885E+00 0.11432461E+03</pdfrwt>
<pdfrwt beam="1">  1        1 0.92123293E-01 0.87589970E+02</pdfrwt>
<totfact> 0.66741396E+01</totfact>
</mgrwt>
</event>
<event>
 7    1  0.3113151E-004  0.5376831E+02  0.7546771E-02  0.1542355E+00
          2   -1    0    0  503    0  0.00000000000E+00  0.00000000000E+00  0.28086774235E+03  0.28086774235E+03  0.00000000000E+00 0. -1.
         -1   -1    0    0    0  501 -0.00000000000E+00 -0.00000000000E+00 -0.43650627204E+02  0.43650627204E+02  0.00000000000E+00 0.  1.
         25    2    1    2    0    0  0.46885355993E+01 -0.36306062767E+02  0.10286895087E+03  0.16597181626E+03  0.12499804071E+03 0.  0.
          4    1    3    3  502    0  0.42036491081E+02  0.24380830800E+02  0.11249612062E+02  0.49896474469E+02  0.12700000000E+01 0. -1.
         -4    1    3    3    0  502 -0.37347955481E+02 -0.60686893568E+02  0.91619338806E+02  0.11607534179E+03  0.12700000000E+01 0. -1.
          2    1    1    2  503    0 -0.20420899593E+02  0.54059514369E+02  0.11163260293E+03  0.12570315140E+03  0.00000000000E+00 0. -1.
         -1    1    1    2    0  501  0.15732363994E+02 -0.17753451602E+02  0.22715561345E+02  0.32843401892E+02  0.00000000000E+00 0.  1.
<mgrwt>
<rscale>  0 0.35713379E+02</rscale>
<asrwt>0</asrwt>
<pdfrwt beam="1">  1        2 0.43210421E-01 0.53768312E+02</pdfrwt>
<pdfrwt beam="2">  1       -1 0.67154813E-02 0.23721137E+02</pdfrwt>
<totfact> 0.11834733E+04</totfact>
</mgrwt>
</event>
<event>
 7    1  0.3113151E-004  0.5186687E+02  0.7546771E-02  0.1528778E+00
         -2   -1    0    0    0  501 -0.00000000000E+00  0.00000000000E+00  0.25665686070E+02  0.25665686070E+02  0.00000000000E+00 0.  1.
          1   -1    0    0  503    0  0.00000000000E+00 -0.00000000000E+00 -0.52632093826E+03  0.52632093826E+03  0.00000000000E+00 0. -1.
         25    2    1    2    0    0  0.39286653840E+02  0.28266219323E+02 -0.34944679747E+03  0.37426480843E+03  0.12497464639E+03 0.  0.
          4    1    3    3  502    0  0.60414038609E+02  0.25998888998E+01 -0.33048212513E+03  0.33597122409E+03  0.12700000000E+01 0. -1.
         -4    1    3    3    0  502 -0.21127384769E+02  0.25666330423E+02 -0.18964672338E+02  0.38293584338E+02  0.12700000000E+01 0. -1.
          1    1    1    2  503    0 -0.17399563247E+02  0.20484952703E+02 -0.10057665883E+03  0.10410591909E+03  0.00000000000E+00 0. -1.
         -2    1    1    2    0  501 -0.21887090593E+02 -0.48751172026E+02 -0.50631795891E+02  0.73615896813E+02  0.00000000000E+00 0.  1.
<mgrwt>
<rscale>  0 0.37336720E+02</rscale>
<asrwt>0</asrwt>
<pdfrwt beam="2">  1        1 0.80972453E-01 0.26877092E+02</pdfrwt>
<pdfrwt beam="1">  1       -2 0.39485670E-02 0.51866870E+02</pdfrwt>
<totfact> 0.92701228E+03</totfact>
</mgrwt>
</event>
<event>
 7    1  0.3113151E-004  0.4993172E+02  0.7546771E-02  0.1542731E+00
          1   -1    0    0  503    0  0.00000000000E+00  0.00000000000E+00  0.15330287782E+03  0.15330287782E+03  0.00000000000E+00 0. -1.
          1   -1    0    0  502    0 -0.00000000000E+00 -0.00000000000E+00 -0.14003239555E+04  0.14003239555E+04  0.00000000000E+00 0. -1.
         25    2    1    2    0    0  0.54189092049E+02  0.10208678596E+02 -0.23661867246E+03  0.27321598572E+03  0.12497161229E+03 0.  0.
          4    1    3    3  501    0  0.40921213034E+02 -0.36214255625E+02 -0.21214010334E+03  0.21906860645E+03  0.12700000000E+01 0. -1.
         -4    1    3    3    0  501  0.13267879015E+02  0.46422934221E+02 -0.24478569123E+02  0.54147379267E+02  0.12700000000E+01 0. -1.
          1    1    1    2  502    0 -0.39276500095E+02 -0.30870817739E+02 -0.11436540799E+04  0.11447446463E+04  0.00000000000E+00 0. -1.
          1    1    1    2  503    0 -0.14912591954E+02  0.20662139143E+02  0.13325167462E+03  0.13566620133E+03  0.00000000000E+00 0. -1.
<mgrwt>
<rscale>  0 0.35669843E+02</rscale>
<asrwt>0</asrwt>
<pdfrwt beam="1">  1        1 0.23585059E-01 0.25481550E+02</pdfrwt>
<pdfrwt beam="2">  1        1 0.21543445E+00 0.49931722E+02</pdfrwt>
<totfact> 0.22268526E+02</totfact>
</mgrwt>
</event>
<event>
 7    1  0.3113151E-004  0.2041564E+03  0.7546771E-02  0.1314618E+00
          3   -1    0    0  503    0 -0.00000000000E+00  0.00000000000E+00  0.64143424506E+03  0.64143424506E+03  0.00000000000E+00 0. -1.
          1   -1    0    0  502    0  0.00000000000E+00 -0.00000000000E+00 -0.65495093682E+03  0.65495093682E+03  0.00000000000E+00 0. -1.
         25    2    1    2    0    0  0.16381789266E+03 -0.11112407747E+03 -0.27927356707E+03  0.36442176238E+03  0.12499853234E+03 0.  0.
          4    1    3    3  501    0  0.55420266751E+02 -0.85279562625E+02 -0.59064733902E+02  0.11761915430E+03  0.12700000000E+01 0.  1.
         -4    1    3    3    0  501  0.10839762591E+03 -0.25844514842E+02 -0.22020883317E+03  0.24680260808E+03  0.12700000000E+01 0.  1.
          1    1    1    2  502    0 -0.16931024111E+02 -0.31373000872E+02 -0.31458334322E+03  0.31659691185E+03  0.00000000000E+00 0. -1.
          3    1    1    2  503    0 -0.14688686855E+03  0.14249707834E+03  0.58034021853E+03  0.61536650764E+03  0.00000000000E+00 0. -1.
<mgrwt>
<rscale>  0 0.85312255E+02</rscale>
<asrwt>0</asrwt>
<pdfrwt beam="2">  1        1 0.10076168E+00 0.35650032E+02</pdfrwt>
<pdfrwt beam="1">  1        3 0.98682192E-01 0.20415636E+03</pdfrwt>
<totfact> 0.17006191E+01</totfact>
</mgrwt>
</event>
<event>
 7    1  0.3113151E-004  0.1438656E+03  0.7546771E-02  0.1303578E+00
          2   -1    0    0  502    0  0.00000000000E+00  0.00000000000E+00  0.28464809676E+03  0.28464809676E+03  0.00000000000E+00 0.  1.
          2   -1    0    0  503    0 -0.00000000000E+00 -0.00000000000E+00 -0.14533640152E+04  0.14533640152E+04  0.00000000000E+00 0. -1.
         25    2    1    2    0    0 -0.72522084225E+02  0.91579951412E+02 -0.76571199195E+03  0.78459293028E+03  0.12499948572E+03 0.  0.
          4    1    3    3  501    0 -0.67867887539E+02  0.52168116503E+02 -0.20081453734E+03  0.21830174952E+03  0.12700000000E+01 0.  1.
         -4    1    3    3    0  501 -0.46541966858E+01  0.39411834910E+02 -0.56489745461E+03  0.56629118076E+03  0.12700000000E+01 0.  1.
          2    1    1    2  502    0  0.42057528957E+02 -0.13848312652E+03  0.25491095106E+03  0.29313137847E+03  0.00000000000E+00 0.  1.
          2    1    1    2  503    0  0.30464555268E+02  0.46903175112E+02 -0.65791487760E+03  0.66028780326E+03  0.00000000000E+00 0. -1.
<mgrwt>
<rscale>  0 0.89700551E+02</rscale>
<asrwt>0</asrwt>
<pdfrwt beam="1">  1        2 0.43792015E-01 0.14386563E+03</pdfrwt>
<pdfrwt beam="2">  1        2 0.22359446E+00 0.55928499E+02</pdfrwt>
<totfact> 0.29311626E+02</totfact>
</mgrwt>
</event>
<event>
 7    1  0.3113151E-004  0.1433478E+03  0.7546771E-02  0.1415522E+00
          3   -1    0    0  503    0 -0.00000000000E+00  0.00000000000E+00  0.57931006532E+03  0.57931006532E+03  0.00000000000E+00 0. -1.
          2   -1    0    0  502    0  0.00000000000E+00 -0.00000000000E+00 -0.12459594765E+03  0.12459594765E+03  0.00000000000E+00 0. -1.
         25    2    1    2    0    0 -0.58628587848E+02  0.11571513553E+03  0.14436829553E+03  0.23085730843E+03  0.12500235276E+03 0.  0.
          4    1    3    3  501    0  0.28679062107E+00 -0.15642420935E+02 -0.10902272378E+02  0.19111253872E+02  0.12700000000E+01 0.  1.
         -4    1    3    3    0  501 -0.58915378469E+02  0.13135755646E+03  0.15527056791E+03  0.21174605455E+03  0.12700000000E+01 0.  1.
          2    1    1    2  502    0 -0.19518677810E+02  0.98451174226E+01 -0.65553367849E+02  0.69102454058E+02  0.00000000000E+00 0. -1.
          3    1    1    2  503    0  0.78147265658E+02 -0.12556025295E+03  0.37589918998E+03  0.40394625048E+03  0.00000000000E+00 0. -1.
<mgrwt>
<rscale>  0 0.55979746E+02</rscale>
<asrwt>0</asrwt>
<pdfrwt beam="2">  1        2 0.19168608E-01 0.21861041E+02</pdfrwt>
<pdfrwt beam="1">  1        3 0.89124624E-01 0.14334779E+03</pdfrwt>
<totfact> 0.18721209E+02</totfact>
</mgrwt>
</event>
<event>
 7    1  0.3113151E-004  0.7234982E+02  0.7546771E-02  0.1424974E+00
         -3   -1    0    0    0  501 -0.00000000000E+00  0.00000000000E+00  0.36609882061E+03  0.36609882061E+03  0.00000000000E+00 0.  1.
          2   -1    0    0  503    0  0.00000000000E+00 -0.00000000000E+00 -0.60344852433E+03  0.60344852433E+03  0.00000000000E+00 0. -1.
         25    2    1    2    0    0 -0.20189607122E+02  0.10163993458E+03 -0.66367770964E+02  0.17540798529E+03  0.12499993497E+03 0.  0.
          4    1    3    3  502    0  0.36402796639E+02  0.69114249953E+02 -0.76497681675E+02  0.10934098660E+03  0.12700000000E+01 0.  1.
         -4    1    3    3    0  502 -0.56592403761E+02  0.32525684629E+02  0.10129910711E+02  0.66066998683E+02  0.12700000000E+01 0.  1.
          2    1    1    2  503    0  0.26325843759E+02 -0.30483330187E+02 -0.47760901777E+03  0.47930434728E+03  0.00000000000E+00 0. -1.
         -3    1    1    2    0  501 -0.61362366364E+01 -0.71156604395E+02  0.30662708502E+03  0.31483501237E+03  0.00000000000E+00 0.  1.
<mgrwt>
<rscale>  0 0.53982178E+02</rscale>
<asrwt>0</asrwt>
<pdfrwt beam="2">  1        2 0.92838233E-01 0.40277580E+02</pdfrwt>
<pdfrwt beam="1">  1       -3 0.56322897E-01 0.72349815E+02</pdfrwt>
<totfact> 0.97058036E+01</totfact>
</mgrwt>
</event>
<event>
 7    1  0.3113151E-004  0.7885614E+02  0.7546771E-02  0.1332905E+00
          2   -1    0    0  502    0  0.00000000000E+00  0.00000000000E+00  0.15002151779E+04  0.15002151779E+04  0.00000000000E+00 0. -1.
          1   -1    0    0  503    0 -0.00000000000E+00 -0.00000000000E+00 -0.11652653108E+03  0.11652653108E+03  0.00000000000E+00 0. -1.
         25    2    1    2    0    0  0.63417088724E+01 -0.57499312612E+02  0.50480056408E+02  0.14669694542E+03  0.12500147791E+03 0.  0.
          4    1    3    3  501    0  0.98466224126E+01  0.39466329117E+02  0.15473732493E+02  0.43538447424E+02  0.12700000000E+01 0. -1.
         -4    1    3    3    0  501 -0.35049135402E+01 -0.96965641729E+02  0.35006323915E+02  0.10315849800E+03  0.12700000000E+01 0. -1.
          2    1    1    2  502    0  0.76999272714E+02  0.17011845443E+02  0.13685931168E+04  0.13708630166E+04  0.00000000000E+00 0. -1.
          1    1    1    2  503    0 -0.83340981587E+02  0.40487467169E+02 -0.35384526445E+02  0.99181746916E+02  0.00000000000E+00 0. -1.
<mgrwt>
<rscale>  0 0.78657393E+02</rscale>
<asrwt>0</asrwt>
<pdfrwt beam="1">  1        2 0.23080232E+00 0.78856140E+02</pdfrwt>
<pdfrwt beam="2">  1        1 0.17927160E-01 0.78459147E+02</pdfrwt>
<totfact> 0.57699979E+02</totfact>
</mgrwt>
</event>
<event>
 7    1  0.3113151E-004  0.5328579E+02  0.7546771E-02  0.1545631E+00
          2   -1    0    0  503    0  0.00000000000E+00  0.00000000000E+00  0.22435515619E+03  0.22435515619E+03  0.00000000000E+00 0. -1.
         -1   -1    0    0    0  501 -0.00000000000E+00 -0.00000000000E+00 -0.57215316962E+02  0.57215316962E+02  0.00000000000E+00 0.  1.
         25    2    1    2    0    0 -0.45143690260E+02 -0.20633377370E+01  0.10606923532E+03  0.17005846071E+03  0.12500794873E+03 0.  0.
          4    1    3    3  502    0 -0.45211028638E+02 -0.59909396282E+02  0.59724310287E+02  0.95925903763E+02  0.12700000000E+01 0.  1.
         -4    1    3    3    0  502  0.67338378148E-01  0.57846058545E+02  0.46344925030E+02  0.74132556948E+02  0.12700000000E+01 0.  1.
          2    1    1    2  503    0 -0.51661905529E+01 -0.22857020731E+02  0.48666489379E+02  0.54014443532E+02  0.00000000000E+00 0. -1.
         -1    1    1    2    0  501  0.50309880813E+02  0.24920358468E+02  0.12404114535E+02  0.57497568913E+02  0.00000000000E+00 0.  1.
<mgrwt>
<rscale>  0 0.35336625E+02</rscale>
<asrwt>0</asrwt>
<pdfrwt beam="1">  1        2 0.34516178E-01 0.23433585E+02</pdfrwt>
<pdfrwt beam="2">  1       -1 0.88023565E-02 0.53285789E+02</pdfrwt>
<totfact> 0.10716772E+04</totfact>
</mgrwt>
</event>
<event>
 7    1  0.3113151E-004  0.8148211E+02  0.7546771E-02  0.1496349E+00
          2   -1    0    0  503    0  0.00000000000E+00  0.00000000000E+00  0.10412103412E+03  0.10412103412E+03  0.00000000000E+00 0. -1.
          2   -1    0    0  502    0 -0.00000000000E+00 -0.00000000000E+00 -0.72094154350E+03  0.72094154350E+03  0.00000000000E+00 0. -1.
         25    2    1    2    0    0 -0.22017029370E+02 -0.99192008738E+02 -0.63949682088E+03  0.65947402274E+03  0.12500399423E+03 0.  0.
          4    1    3    3  501    0 -0.33807660896E+02 -0.10434276857E+03 -0.63691264251E+03  0.64628917551E+03  0.12700000000E+01 0.  1.
         -4    1    3    3    0  501  0.11790631527E+02  0.51507598312E+01 -0.25841783664E+01  0.13184847230E+02  0.12700000000E+01 0.  1.
          2    1    1    2  502    0  0.89763108002E+01  0.19314517838E+02 -0.51546158206E+02  0.55773032737E+02  0.00000000000E+00 0. -1.
          2    1    1    2  503    0  0.13040718569E+02  0.79877490900E+02  0.74222469713E+02  0.10981552214E+03  0.00000000000E+00 0. -1.
<mgrwt>
<rscale>  0 0.41658661E+02</rscale>
<asrwt>0</asrwt>
<pdfrwt beam="1">  1        2 0.16018621E-01 0.81482107E+02</pdfrwt>
<pdfrwt beam="2">  1        2 0.11091408E+00 0.21298468E+02</pdfrwt>
<totfact> 0.23181845E+03</totfact>
</mgrwt>
</event>
<event>
 7    1  0.3113151E-004  0.1023724E+03  0.7546771E-02  0.1287170E+00
          2   -1    0    0  503    0  0.00000000000E+00  0.00000000000E+00  0.40761061594E+03  0.40761061594E+03  0.00000000000E+00 0. -1.
          2   -1    0    0  502    0 -0.00000000000E+00 -0.00000000000E+00 -0.40897549246E+03  0.40897549246E+03  0.00000000000E+00 0. -1.
         25    2    1    2    0    0 -0.14105159317E+02 -0.40057535801E+02  0.50610360192E+02  0.14138750272E+03  0.12500182268E+03 0.  0.
          4    1    3    3  501    0 -0.13262119048E+02 -0.61536024577E+02  0.81962081492E+02  0.10335357674E+03  0.12700000000E+01 0.  1.
         -4    1    3    3    0  501 -0.84304026871E+00  0.21478488777E+02 -0.31351721300E+02  0.38033925981E+02  0.12700000000E+01 0.  1.
          2    1    1    2  502    0 -0.63352646797E+02  0.88829270697E+02 -0.34833641476E+03  0.36502391022E+03  0.00000000000E+00 0. -1.
          2    1    1    2  503    0  0.77457806114E+02 -0.48771734897E+02  0.29636117804E+03  0.31017469546E+03  0.00000000000E+00 0. -1.
<mgrwt>
<rscale>  0 0.96801377E+02</rscale>
<asrwt>0</asrwt>
<pdfrwt beam="1">  1        2 0.62709325E-01 0.91533567E+02</pdfrwt>
<pdfrwt beam="2">  1        2 0.62919307E-01 0.10237235E+03</pdfrwt>
<totfact> 0.95641532E+02</totfact>
</mgrwt>
</event>
<event>
 7    1  0.3113151E-004  0.1642785E+03  0.7546771E-02  0.1224765E+00
          1   -1    0    0  503    0  0.00000000000E+00  0.00000000000E+00  0.23936871118E+04  0.23936871118E+04  0.00000000000E+00 0. -1.
         -3   -1    0    0    0  501 -0.00000000000E+00 -0.00000000000E+00 -0.37620494679E+03  0.37620494679E+03  0.00000000000E+00 0.  1.
         25    2    1    2    0    0  0.11534396151E+03  0.22840978065E+02  0.22318239106E+02  0.17305856599E+03  0.12500089492E+03 0.  0.
          4    1    3    3  502    0  0.10492508010E+03  0.67990609930E+02  0.20208544755E+02  0.12665699212E+03  0.12700000000E+01 0. -1.
         -4    1    3    3    0  502  0.10418881408E+02 -0.45149631865E+02  0.21096943513E+01  0.46401573870E+02  0.12700000000E+01 0. -1.
          1    1    1    2  503    0  0.14683728737E+02  0.10476717244E+03  0.22670692035E+04  0.22695361962E+04  0.00000000000E+00 0. -1.
         -3    1    1    2    0  501 -0.13002769024E+03 -0.12760815051E+03 -0.27190527755E+03  0.32729729646E+03  0.00000000000E+00 0.  1.
<mgrwt>
<rscale>  0 0.13183027E+03</rscale>
<asrwt>0</asrwt>
<pdfrwt beam="1">  1        1 0.36825955E+00 0.10579117E+03</pdfrwt>
<pdfrwt beam="2">  1       -3 0.57877686E-01 0.16427854E+03</pdfrwt>
<totfact> 0.33964877E+00</totfact>
</mgrwt>
</event>
<event>
 7    1  0.3113151E-004  0.5960440E+02  0.7546771E-02  0.1508364E+00
          1   -1    0    0  503    0  0.00000000000E+00  0.00000000000E+00  0.82465189227E+02  0.82465189227E+02  0.00000000000E+00 0. -1.
         -2   -1    0    0    0  501 -0.00000000000E+00 -0.00000000000E+00 -0.16764547764E+03  0.16764547764E+03  0.00000000000E+00 0.  1.
         25    2    1    2    0    0  0.22373688442E+02 -0.47187859828E+02 -0.15522475345E+02  0.13635530348E+03  0.12499818197E+03 0.  0.
          4    1    3    3  502    0 -0.12821737941E+02 -0.45028878445E+02  0.45862920921E+02  0.65551638220E+02  0.12700000000E+01 0. -1.
         -4    1    3    3    0  502  0.35195426383E+02 -0.21589813822E+01 -0.61385396266E+02  0.70803665256E+02  0.12700000000E+01 0. -1.
          1    1    1    2  503    0 -0.22169839812E+02 -0.15085919058E+02 -0.14082251982E+02  0.30288555132E+02  0.00000000000E+00 0. -1.
         -2    1    1    2    0  501 -0.20384862998E+00  0.62273778886E+02 -0.55575561085E+02  0.83466808259E+02  0.00000000000E+00 0.  1.
<mgrwt>
<rscale>  0 0.39979236E+02</rscale>
<asrwt>0</asrwt>
<pdfrwt beam="1">  1        1 0.12686952E-01 0.26815793E+02</pdfrwt>
<pdfrwt beam="2">  1       -2 0.25791612E-01 0.59604402E+02</pdfrwt>
<totfact> 0.46116641E+03</totfact>
</mgrwt>
</event>
<event>
 7    1  0.3113151E-004  0.7616347E+02  0.7546771E-02  0.1354927E+00
         -1   -1    0    0    0  501 -0.00000000000E+00  0.00000000000E+00  0.93334384990E+02  0.93334384990E+02  0.00000000000E+00 0.  1.
          1   -1    0    0  503    0  0.00000000000E+00 -0.00000000000E+00 -0.31332416457E+03  0.31332416457E+03  0.00000000000E+00 0. -1.
         25    2    1    2    0    0 -0.62437667251E+02 -0.84414938621E+02 -0.27488534051E+02  0.16554913446E+03  0.12500620890E+03 0.  0.
          4    1    3    3  502    0 -0.74652912025E+02 -0.10840730338E+03 -0.72264936043E+01  0.13182957108E+03  0.12700000000E+01 0.  1.
         -4    1    3    3    0  502  0.12215244774E+02  0.23992364763E+02 -0.20262040446E+02  0.33719563385E+02  0.12700000000E+01 0.  1.
          1    1    1    2  503    0  0.72691247225E+02  0.18001136067E+02 -0.12594991067E+03  0.14653135610E+03  0.00000000000E+00 0. -1.
         -1    1    1    2    0  501 -0.10253579974E+02  0.66413802554E+02 -0.66551334864E+02  0.94578059000E+02  0.00000000000E+00 0.  1.
<mgrwt>
<rscale>  0 0.71541847E+02</rscale>
<asrwt>0</asrwt>
<pdfrwt beam="2">  1        1 0.48203718E-01 0.76163474E+02</pdfrwt>
<pdfrwt beam="1">  1       -1 0.14359136E-01 0.67200663E+02</pdfrwt>
<totfact> 0.26808668E+03</totfact>
</mgrwt>
</event>
<event>
 7    1  0.3113151E-004  0.6623791E+02  0.7546771E-02  0.1427458E+00
          1   -1    0    0  503    0  0.00000000000E+00  0.00000000000E+00  0.31039250224E+03  0.31039250224E+03  0.00000000000E+00 0. -1.
          1   -1    0    0  502    0 -0.00000000000E+00 -0.00000000000E+00 -0.53065493237E+03  0.53065493237E+03  0.00000000000E+00 0. -1.
         25    2    1    2    0    0  0.10452343254E+03 -0.72255383906E+01 -0.22649891535E+03  0.27910858513E+03  0.12498994873E+03 0.  0.
          4    1    3    3  501    0  0.63788954915E+02  0.10682814396E+02 -0.22548568244E+03  0.23458166846E+03  0.12700000000E+01 0.  1.
         -4    1    3    3    0  501  0.40734477625E+02 -0.17908352787E+02 -0.10132329095E+01  0.44526916667E+02  0.12700000000E+01 0.  1.
          1    1    1    2  502    0 -0.41583253670E+02 -0.11593209436E+02 -0.27233038813E+03  0.27573068344E+03  0.00000000000E+00 0. -1.
          1    1    1    2  503    0 -0.62940178870E+02  0.18818747827E+02  0.27856687335E+03  0.28620816605E+03  0.00000000000E+00 0. -1.
<mgrwt>
<rscale>  0 0.53473633E+02</rscale>
<asrwt>0</asrwt>
<pdfrwt beam="1">  1        1 0.47752693E-01 0.66237905E+02</pdfrwt>
<pdfrwt beam="2">  1        1 0.81639220E-01 0.43169080E+02</pdfrwt>
<totfact> 0.44104329E+02</totfact>
</mgrwt>
</event>
<event>
 7    1  0.3113151E-004  0.3443892E+02  0.7546771E-02  0.1619270E+00
         -2   -1    0    0    0  501 -0.00000000000E+00  0.00000000000E+00  0.96524932680E+01  0.96524932680E+01  0.00000000000E+00 0.  1.
          1   -1    0    0  503    0  0.00000000000E+00 -0.00000000000E+00 -0.13512508000E+04  0.13512508000E+04  0.00000000000E+00 0. -1.
         25    2    1    2    0    0  0.16051913857E+02 -0.36967331787E+02 -0.63008844225E+03  0.64362953908E+03  0.12499316365E+03 0.  0.
          4    1    3    3  502    0 -0.16783133247E+02  0.36287627279E+02 -0.10359401184E+03  0.11104862738E+03  0.12700000000E+01 0. -1.
         -4    1    3    3    0  502  0.32835047104E+02 -0.73254959066E+02 -0.52649443042E+03  0.53258091170E+03  0.12700000000E+01 0. -1.
          1    1    1    2  503    0 -0.29338319319E+02  0.18145546053E+02 -0.65935681996E+03  0.66025859619E+03  0.00000000000E+00 0. -1.
         -2    1    1    2    0  501  0.13286405462E+02  0.18821785734E+02 -0.52153044526E+02  0.57015157999E+02  0.00000000000E+00 0.  1.
<mgrwt>
<rscale>  0 0.28167941E+02</rscale>
<asrwt>0</asrwt>
<pdfrwt beam="2">  1        1 0.20788479E+00 0.34438923E+02</pdfrwt>
<pdfrwt beam="1">  1       -2 0.14849986E-02 0.23038841E+02</pdfrwt>
<totfact> 0.77511602E+03</totfact>
</mgrwt>
</event>
<event>
 7    1  0.3113151E-004  0.8263732E+02  0.7546771E-02  0.1461662E+00
          1   -1    0    0  503    0  0.00000000000E+00  0.00000000000E+00  0.14615147792E+04  0.14615147792E+04  0.00000000000E+00 0. -1.
         -2   -1    0    0    0  501 -0.00000000000E+00 -0.00000000000E+00 -0.15897075432E+02  0.15897075432E+02  0.00000000000E+00 0.  1.
         25    2    1    2    0    0 -0.69323648164E+02 -0.54353981698E+02  0.46525176612E+03  0.48973943357E+03  0.12500153359E+03 0.  0.
          4    1    3    3  502    0 -0.63205098409E+02  0.88353500365E+01  0.36866223959E+03  0.37414757473E+03  0.12700000000E+01 0. -1.
         -4    1    3    3    0  502 -0.61185497556E+01 -0.63189331735E+02  0.96589526523E+02  0.11559185884E+03  0.12700000000E+01 0. -1.
          1    1    1    2  503    0  0.46275159131E+02  0.68109858602E+02  0.87775789738E+03  0.88161174539E+03  0.00000000000E+00 0. -1.
         -2    1    1    2    0  501  0.23048489034E+02 -0.13755876904E+02  0.10260804031E+03  0.10606067571E+03  0.00000000000E+00 0.  1.
<mgrwt>
<rscale>  0 0.47096663E+02</rscale>
<asrwt>0</asrwt>
<pdfrwt beam="1">  1        1 0.22484832E+00 0.82637323E+02</pdfrwt>
<pdfrwt beam="2">  1       -2 0.24457051E-02 0.26841330E+02</pdfrwt>
<totfact> 0.31469364E+03</totfact>
</mgrwt>
</event>
<event>
 7    1  0.3113151E-004  0.6787767E+02  0.7546771E-02  0.1523150E+00
          2   -1    0    0  503    0  0.00000000000E+00  0.00000000000E+00  0.13390849607E+04  0.13390849607E+04  0.00000000000E+00 0. -1.
         -1   -1    0    0    0  501 -0.00000000000E+00 -0.00000000000E+00 -0.14961808583E+02  0.14961808583E+02  0.00000000000E+00 0.  1.
         25    2    1    2    0    0  0.80628728647E+01 -0.85645606917E+02  0.82308091976E+03  0.83695084912E+03  0.12499737383E+03 0.  0.
          4    1    3    3  502    0 -0.10710979810E+02 -0.11471425071E+03  0.57159929795E+03  0.58309643690E+03  0.12700000000E+01 0.  1.
         -4    1    3    3    0  502  0.18773852674E+02  0.29068643796E+02  0.25148162181E+03  0.25385441222E+03  0.12700000000E+01 0.  1.
          2    1    1    2  503    0 -0.44960200499E+01  0.20839011469E+02  0.37238016733E+03  0.37298990283E+03  0.00000000000E+00 0. -1.
         -1    1    1    2    0  501 -0.35668528148E+01  0.64806595448E+02  0.12866206498E+03  0.14410601729E+03  0.00000000000E+00 0.  1.
<mgrwt>
<rscale>  0 0.38040114E+02</rscale>
<asrwt>0</asrwt>
<pdfrwt beam="1">  1        2 0.20601298E+00 0.21318504E+02</pdfrwt>
<pdfrwt beam="2">  1       -1 0.23018178E-02 0.67877668E+02</pdfrwt>
<totfact> 0.10859443E+04</totfact>
</mgrwt>
</event>
<event>
 7    1  0.3113151E-004  0.5525886E+02  0.7546771E-02  0.1419695E+00
          1   -1    0    0  503    0  0.00000000000E+00  0.00000000000E+00  0.45883987244E+03  0.45883987244E+03  0.00000000000E+00 0. -1.
         -1   -1    0    0    0  501 -0.00000000000E+00 -0.00000000000E+00 -0.10282835690E+04  0.10282835690E+04  0.00000000000E+00 0.  1.
         25    2    1    2    0    0  0.27989912640E+02 -0.50443867446E+01 -0.21360623782E+03  0.24912280211E+03  0.12500265857E+03 0.  0.
          4    1    3    3  502    0 -0.87181291420E+01  0.48897495644E+02 -0.14991581066E+03  0.15793458786E+03  0.12700000000E+01 0.  1.
         -4    1    3    3    0  502  0.36708041782E+02 -0.53941882389E+02 -0.63690427161E+02  0.91188214255E+02  0.12700000000E+01 0.  1.
          1    1    1    2  503    0 -0.19137607405E+02 -0.51839115098E+02  0.43830485259E+03  0.44177447377E+03  0.00000000000E+00 0. -1.
         -1    1    1    2    0  501 -0.88523052343E+01  0.56883501843E+02 -0.79414231132E+03  0.79622616556E+03  0.00000000000E+00 0.  1.
<mgrwt>
<rscale>  0 0.55085502E+02</rscale>
<asrwt>0</asrwt>
<pdfrwt beam="1">  1        1 0.70590750E-01 0.55258862E+02</pdfrwt>
<pdfrwt beam="2">  1       -1 0.15819747E+00 0.54912685E+02</pdfrwt>
<totfact> 0.19399825E+01</totfact>
</mgrwt>
</event>
<event>
 7    1  0.3113151E-004  0.2715468E+03  0.7546771E-02  0.1101517E+00
          1   -1    0    0  502    0  0.00000000000E+00  0.00000000000E+00  0.53014756910E+03  0.53014756910E+03  0.00000000000E+00 0. -1.
          1   -1    0    0  503    0 -0.00000000000E+00 -0.00000000000E+00 -0.93489994196E+03  0.93489994196E+03  0.00000000000E+00 0. -1.
         25    2    1    2    0    0  0.25345238316E+03  0.11870439238E+02 -0.14133741653E+03  0.31619608371E+03  0.12499872074E+03 0.  0.
          4    1    3    3  501    0  0.15731123817E+03 -0.18322212484E+02 -0.14586551915E+03  0.21531579529E+03  0.12700000000E+01 0. -1.
         -4    1    3    3    0  501  0.96141144989E+02  0.30192651722E+02  0.45281026267E+01  0.10088028842E+03  0.12700000000E+01 0. -1.
          1    1    1    2  502    0 -0.94319089382E+02  0.25464012024E+03  0.36088784621E+03  0.45163892547E+03  0.00000000000E+00 0. -1.
          1    1    1    2  503    0 -0.15913329378E+03 -0.26651055948E+03 -0.62430280254E+03  0.69721250187E+03  0.00000000000E+00 0. -1.
<mgrwt>
<rscale>  0 0.26958486E+03</rscale>
<asrwt>0</asrwt>
<pdfrwt beam="1">  1        1 0.81561165E-01 0.27154683E+03</pdfrwt>
<pdfrwt beam="2">  1        1 0.14383076E+00 0.26763706E+03</pdfrwt>
<totfact> 0.90388842E+01</totfact>
</mgrwt>
</event>
<event>
 7    1  0.3113151E-004  0.8357014E+02  0.7546771E-02  0.1354534E+00
          1   -1    0    0  503    0 -0.00000000000E+00  0.00000000000E+00  0.29852074626E+04  0.29852074626E+04  0.00000000000E+00 0. -1.
          2   -1    0    0  502    0  0.00000000000E+00 -0.00000000000E+00 -0.14490098394E+03  0.14490098394E+03  0.00000000000E+00 0. -1.
         25    2    1    2    0    0 -0.16999889234E+02  0.37472728335E+02  0.72248759759E+03  0.73437511495E+03  0.12500111671E+03 0.  0.
          4    1    3    3  501    0 -0.46566280568E+02  0.71816690478E+02  0.50625423608E+03  0.51344037626E+03  0.12700000000E+01 0. -1.
         -4    1    3    3    0  501  0.29566391334E+02 -0.34343962143E+02  0.21623336150E+03  0.22093473869E+03  0.12700000000E+01 0. -1.
          2    1    1    2  502    0 -0.60546130574E+02  0.10494612109E+02 -0.13119452190E+03  0.14487226577E+03  0.00000000000E+00 0. -1.
          1    1    1    2  503    0  0.77546019808E+02 -0.47967340444E+02  0.22490134030E+04  0.22508610658E+04  0.00000000000E+00 0. -1.
<mgrwt>
<rscale>  0 0.71660976E+02</rscale>
<asrwt>0</asrwt>
<pdfrwt beam="2">  1        2 0.22292461E-01 0.61448928E+02</pdfrwt>
<pdfrwt beam="1">  1        1 0.45926264E+00 0.83570138E+02</pdfrwt>
<totfact> 0.28645797E+01</totfact>
</mgrwt>
</event>
<event>
 7    1  0.3113151E-004  0.3756496E+02  0.7546771E-02  0.1625700E+00
          2   -1    0    0  503    0  0.00000000000E+00  0.00000000000E+00  0.19691700778E+04  0.19691700778E+04  0.00000000000E+00 0. -1.
         -3   -1    0    0    0  501 -0.00000000000E+00 -0.00000000000E+00 -0.11402556390E+04  0.11402556390E+04  0.00000000000E+00 0.  1.
         25    2    1    2    0    0  0.24965979745E+02  0.38733108916E+01  0.63391147175E+03  0.64661112584E+03  0.12499556536E+03 0.  0.
          4    1    3    3  502    0  0.54863199431E+02 -0.41244042814E+02  0.43839991334E+03  0.44374219840E+03  0.12700000000E+01 0.  1.
         -4    1    3    3    0  502 -0.29897219686E+02  0.45117353705E+02  0.19551155841E+03  0.20286892744E+03  0.12700000000E+01 0.  1.
          2    1    1    2  503    0  0.41106537368E+01  0.19922742894E+02  0.13285196433E+04  0.13286753763E+04  0.00000000000E+00 0. -1.
         -3    1    1    2    0  501 -0.29076633482E+02 -0.23796053785E+02 -0.11335166762E+04  0.11341392146E+04  0.00000000000E+00 0.  1.
<mgrwt>
<rscale>  0 0.27643468E+02</rscale>
<asrwt>0</asrwt>
<pdfrwt beam="1">  1        2 0.30294924E+00 0.20342398E+02</pdfrwt>
<pdfrwt beam="2">  1       -3 0.17542395E+00 0.37564957E+02</pdfrwt>
<totfact> 0.15058924E+00</totfact>
</mgrwt>
</event>
<event>
 7    1  0.3113151E-004  0.1470271E+03  0.7546771E-02  0.1213234E+00
          2   -1    0    0  502    0  0.00000000000E+00  0.00000000000E+00  0.13150334666E+04  0.13150334666E+04  0.00000000000E+00 0. -1.
          2   -1    0    0  503    0 -0.00000000000E+00 -0.00000000000E+00 -0.18782883070E+04  0.18782883070E+04  0.00000000000E+00 0. -1.
         25    2    1    2    0    0 -0.21564925991E+03  0.10833328035E+02  0.32815279371E+03  0.41222715827E+03  0.12500003882E+03 0.  0.
          4    1    3    3  501    0 -0.20686422920E+03  0.46898826772E+02  0.27267774899E+03  0.34546646287E+03  0.12700000000E+01 0. -1.
         -4    1    3    3    0  501 -0.87850307038E+01 -0.36065498738E+02  0.55475044719E+02  0.66760695400E+02  0.12700000000E+01 0. -1.
          2    1    1    2  502    0  0.10362187494E+03  0.84079804606E+02  0.93717445116E+03  0.94662709575E+03  0.00000000000E+00 0. -1.
          2    1    1    2  503    0  0.11202738496E+03 -0.94913132641E+02 -0.18285820853E+04  0.18344675196E+04  0.00000000000E+00 0. -1.
<mgrwt>
<rscale>  0 0.14007023E+03</rscale>
<asrwt>0</asrwt>
<pdfrwt beam="1">  1        2 0.20231284E+00 0.13344252E+03</pdfrwt>
<pdfrwt beam="2">  1        2 0.28896743E+00 0.14702712E+03</pdfrwt>
<totfact> 0.25858947E+01</totfact>
</mgrwt>
</event>
<event>
 7    1  0.3113151E-004  0.8415135E+02  0.7546771E-02  0.1454244E+00
         -2   -1    0    0    0  501 -0.00000000000E+00  0.00000000000E+00  0.31901127180E+02  0.31901127180E+02  0.00000000000E+00 0.  1.
          3   -1    0    0  503    0  0.00000000000E+00 -0.00000000000E+00 -0.11849165873E+04  0.11849165873E+04  0.00000000000E+00 0. -1.
         25    2    1    2    0    0 -0.14848370441E+02  0.90654106953E+02 -0.24218300120E+03  0.28760361211E+03  0.12499836164E+03 0.  0.
          4    1    3    3  502    0 -0.64898211860E+02  0.68143074344E+02 -0.11180800387E+03  0.14614341967E+03  0.12700000000E+01 0.  1.
         -4    1    3    3    0  502  0.50049841419E+02  0.22511032610E+02 -0.13037499733E+03  0.14146019243E+03  0.12700000000E+01 0.  1.
          3    1    1    2  503    0 -0.20747065707E+02 -0.18536983172E+02 -0.73866717590E+03  0.73919094775E+03  0.00000000000E+00 0. -1.
         -2    1    1    2    0  501  0.35595436148E+02 -0.72117123781E+02 -0.17216528302E+03  0.19002315463E+03  0.00000000000E+00 0.  1.
<mgrwt>
<rscale>  0 0.48386506E+02</rscale>
<asrwt>0</asrwt>
<pdfrwt beam="2">  1        3 0.18229487E+00 0.27821942E+02</pdfrwt>
<pdfrwt beam="1">  1       -2 0.49078655E-02 0.84151348E+02</pdfrwt>
<totfact> 0.15454824E+02</totfact>
</mgrwt>
</event>
<event>
 7    1  0.3113151E-004  0.1100274E+03  0.7546771E-02  0.1265611E+00
          2   -1    0    0  502    0  0.00000000000E+00  0.00000000000E+00  0.17262350469E+04  0.17262350469E+04  0.00000000000E+00 0. -1.
          3   -1    0    0  503    0 -0.00000000000E+00 -0.00000000000E+00 -0.70659672156E+02  0.70659672156E+02  0.00000000000E+00 0. -1.
         25    2    1    2    0    0  0.32743107383E+02 -0.87339762360E+02  0.27151281642E+03  0.31311885019E+03  0.12499543871E+03 0.  0.
          4    1    3    3  501    0  0.25583860886E+02 -0.17804357231E+02 -0.15637429743E+01  0.31234392364E+02  0.12700000000E+01 0. -1.
         -4    1    3    3    0  501  0.71592464967E+01 -0.69535405128E+02  0.27307655939E+03  0.28188445783E+03  0.12700000000E+01 0. -1.
          2    1    1    2  502    0  0.71820768999E+02  0.92327857823E+02  0.13735999511E+04  0.13785715368E+04  0.00000000000E+00 0. -1.
          3    1    1    2  503    0 -0.10456387638E+03 -0.49880954630E+01  0.10462607167E+02  0.10520433208E+03  0.00000000000E+00 0. -1.
<mgrwt>
<rscale>  0 0.10732181E+03</rscale>
<asrwt>0</asrwt>
<pdfrwt beam="1">  1        2 0.26557459E+00 0.11002737E+03</pdfrwt>
<pdfrwt beam="2">  1        3 0.10870720E-01 0.10468278E+03</pdfrwt>
<totfact> 0.41702209E+02</totfact>
</mgrwt>
</event>
<event>
 7    1  0.3113151E-004  0.3869332E+03  0.7546771E-02  0.1266032E+00
          2   -1    0    0  503    0  0.00000000000E+00  0.00000000000E+00  0.87123378123E+03  0.87123378123E+03  0.00000000000E+00 0. -1.
          2   -1    0    0  502    0 -0.00000000000E+00 -0.00000000000E+00 -0.77999819294E+03  0.77999819294E+03  0.00000000000E+00 0. -1.
         25    2    1    2    0    0 -0.30656585687E+03  0.27162450643E+03  0.36269811235E+03  0.56119258517E+03  0.12499879942E+03 0.  0.
          4    1    3    3  501    0 -0.13807120191E+03  0.18521159783E+03  0.25190842188E+03  0.34179885706E+03  0.12700000000E+01 0.  1.
         -4    1    3    3    0  501 -0.16849465496E+03  0.86412908601E+02  0.11078969047E+03  0.21939372812E+03  0.12700000000E+01 0.  1.
          2    1    1    2  502    0  0.27748191770E+03 -0.26588135442E+03 -0.62584511908E+03  0.73441896922E+03  0.00000000000E+00 0. -1.
          2    1    1    2  503    0  0.29083939163E+02 -0.57431520176E+01  0.35438259502E+03  0.35562041978E+03  0.00000000000E+00 0. -1.
<mgrwt>
<rscale>  0 0.10710207E+03</rscale>
<asrwt>0</asrwt>
<pdfrwt beam="1">  1        2 0.13403597E+00 0.29645561E+02</pdfrwt>
<pdfrwt beam="2">  1        2 0.11999972E+00 0.38693323E+03</pdfrwt>
<totfact> 0.19696399E+02</totfact>
</mgrwt>
</event>
<event>
 7    1  0.3113151E-004  0.5410130E+02  0.7546771E-02  0.1537405E+00
          2   -1    0    0  502    0  0.00000000000E+00  0.00000000000E+00  0.52746029230E+02  0.52746029230E+02  0.00000000000E+00 0. -1.
          2   -1    0    0  503    0 -0.00000000000E+00 -0.00000000000E+00 -0.63199000329E+03  0.63199000329E+03  0.00000000000E+00 0. -1.
         25    2    1    2    0    0 -0.54941950813E+02  0.21236179541E+02 -0.53219627380E+03  0.54984300821E+03  0.12499946621E+03 0.  0.
          4    1    3    3  501    0  0.17520238376E+02  0.98744099263E+01 -0.99578136534E+01  0.22477403696E+02  0.12700000000E+01 0.  1.
         -4    1    3    3    0  501 -0.72462189190E+02  0.11361769614E+02 -0.52223846014E+03  0.52736560451E+03  0.12700000000E+01 0.  1.
          2    1    1    2  502    0  0.54022220269E+02  0.30937622217E+01  0.24439136056E+02  0.59373756986E+02  0.00000000000E+00 0. -1.
          2    1    1    2  503    0  0.91973054451E+00 -0.24329941762E+02 -0.71486836322E+02  0.75519267328E+02  0.00000000000E+00 0. -1.
<mgrwt>
<rscale>  0 0.36293550E+02</rscale>
<asrwt>0</asrwt>
<pdfrwt beam="1">  1        2 0.81147734E-02 0.54101304E+02</pdfrwt>
<pdfrwt beam="2">  1        2 0.97229235E-01 0.24347320E+02</pdfrwt>
<totfact> 0.57874948E+03</totfact>
</mgrwt>
</event>
<event>
 7    1  0.3113151E-004  0.1243074E+03  0.7546771E-02  0.1257866E+00
          2   -1    0    0  502    0  0.00000000000E+00  0.00000000000E+00  0.13570875286E+04  0.13570875286E+04  0.00000000000E+00 0. -1.
          2   -1    0    0  503    0 -0.00000000000E+00 -0.00000000000E+00 -0.50310498509E+04  0.50310498509E+04  0.00000000000E+00 0. -1.
         25    2    1    2    0    0 -0.15484882562E+03  0.11060413256E+03 -0.36825385386E+03  0.43294807215E+03  0.12498679673E+03 0.  0.
          4    1    3    3  501    0 -0.16952429697E+03  0.11724299051E+03 -0.30831315280E+03  0.37086792687E+03  0.12700000000E+01 0.  1.
         -4    1    3    3    0  501  0.14675471350E+02 -0.66388579561E+01 -0.59940701061E+02  0.62080145281E+02  0.12700000000E+01 0.  1.
          2    1    1    2  502    0  0.54887031476E+02 -0.11118099181E+03  0.13212981031E+04  0.13271030391E+04  0.00000000000E+00 0. -1.
          2    1    1    2  503    0  0.99961794146E+02  0.57685924712E+00 -0.46270065716E+04  0.46280862683E+04  0.00000000000E+00 0. -1.
<mgrwt>
<rscale>  0 0.11147285E+03</rscale>
<asrwt>0</asrwt>
<pdfrwt beam="1">  1        2 0.20878270E+00 0.12430738E+03</pdfrwt>
<pdfrwt beam="2">  1        2 0.77400768E+00 0.99963459E+02</pdfrwt>
<totfact> 0.16498539E-01</totfact>
</mgrwt>
</event>
<event>
 7    1  0.3113151E-004  0.1487603E+03  0.7546771E-02  0.1283741E+00
          2   -1    0    0  502    0  0.00000000000E+00  0.00000000000E+00  0.21266891430E+04  0.21266891430E+04  0.00000000000E+00 0. -1.
          1   -1    0    0  503    0 -0.00000000000E+00 -0.00000000000E+00 -0.18303670281E+03  0.18303670281E+03  0.00000000000E+00 0. -1.
         25    2    1    2    0    0 -0.40742558897E+01  0.12312402480E+03  0.13501637501E+03  0.22142920626E+03  0.12500138727E+03 0.  0.
          4    1    3    3  501    0 -0.15007802279E+02  0.63312273340E+01 -0.20762250457E+02  0.26419737183E+02  0.12700000000E+01 0. -1.
         -4    1    3    3    0  501  0.10933546389E+02  0.11679279747E+03  0.15577862546E+03  0.19500946907E+03  0.12700000000E+01 0. -1.
          2    1    1    2  502    0  0.68028011308E+02 -0.13507877161E+03  0.19377887654E+04  0.19436819143E+04  0.00000000000E+00 0. -1.
          1    1    1    2  503    0 -0.63953755418E+02  0.11954746809E+02 -0.12915270016E+03  0.14461472526E+03  0.00000000000E+00 0. -1.
<mgrwt>
<rscale>  0 0.98379710E+02</rscale>
<asrwt>0</asrwt>
<pdfrwt beam="1">  1        2 0.32718293E+00 0.14876029E+03</pdfrwt>
<pdfrwt beam="2">  1        1 0.28159494E-01 0.65061500E+02</pdfrwt>
<totfact> 0.14825456E+02</totfact>
</mgrwt>
</event>
<event>
 7    1  0.3113151E-004  0.7292820E+02  0.7546771E-02  0.1486503E+00
         -2   -1    0    0    0  501 -0.00000000000E+00  0.00000000000E+00  0.86573232624E+02  0.86573232624E+02  0.00000000000E+00 0.  1.
          1   -1    0    0  503    0  0.00000000000E+00 -0.00000000000E+00 -0.20344692798E+03  0.20344692798E+03  0.00000000000E+00 0. -1.
         25    2    1    2    0    0 -0.68370809967E+02  0.44731866189E+02 -0.58474692154E+02  0.16037026443E+03  0.12499529824E+03 0.  0.
          4    1    3    3  502    0 -0.73433767514E+02 -0.16324843712E+01 -0.80322729074E+02  0.10885098494E+03  0.12700000000E+01 0. -1.
         -4    1    3    3    0  502  0.50629575470E+01  0.46364350560E+02  0.21848036921E+02  0.51519279491E+02  0.12700000000E+01 0. -1.
          1    1    1    2  503    0  0.23446015448E+02  0.99823615663E+01 -0.52807920015E+02  0.58634798534E+02  0.00000000000E+00 0. -1.
         -2    1    1    2    0  501  0.44924794519E+02 -0.54714227755E+02 -0.55910831866E+01  0.71015097639E+02  0.00000000000E+00 0.  1.
<mgrwt>
<rscale>  0 0.43109171E+02</rscale>
<asrwt>0</asrwt>
<pdfrwt beam="2">  1        1 0.31299527E-01 0.25482605E+02</pdfrwt>
<pdfrwt beam="1">  1       -2 0.13318959E-01 0.72928203E+02</pdfrwt>
<totfact> 0.46743823E+03</totfact>
</mgrwt>
</event>
<event>
 7    1  0.3113151E-004  0.6395424E+02  0.7546771E-02  0.1405625E+00
         -1   -1    0    0    0  501 -0.00000000000E+00  0.00000000000E+00  0.27870934074E+03  0.27870934074E+03  0.00000000000E+00 0. -1.
          2   -1    0    0  503    0  0.00000000000E+00 -0.00000000000E+00 -0.61504500835E+03  0.61504500835E+03  0.00000000000E+00 0. -1.
         25    2    1    2    0    0  0.18163490732E+02  0.18286950094E+01 -0.14537079914E+03  0.19259182259E+03  0.12500273742E+03 0.  0.
          4    1    3    3  502    0  0.44289578535E+02 -0.14270842986E+02 -0.26730511382E+01  0.46625978046E+02  0.12700000000E+01 0.  1.
         -4    1    3    3    0  502 -0.26126087803E+02  0.16099537996E+02 -0.14269774801E+03  0.14596584454E+03  0.12700000000E+01 0.  1.
          2    1    1    2  503    0  0.34749332044E+02 -0.39926008235E+02 -0.44028636984E+03  0.44345652513E+03  0.00000000000E+00 0. -1.
         -1    1    1    2    0  501 -0.52912822776E+02  0.38097313226E+02  0.24932150138E+03  0.25770600136E+03  0.00000000000E+00 0. -1.
<mgrwt>
<rscale>  0 0.58181686E+02</rscale>
<asrwt>0</asrwt>
<pdfrwt beam="2">  1        2 0.94622308E-01 0.52930164E+02</pdfrwt>
<pdfrwt beam="1">  1       -1 0.42878361E-01 0.63954244E+02</pdfrwt>
<totfact> 0.31875041E+02</totfact>
</mgrwt>
</event>
<event>
 7    1  0.3113151E-004  0.1835335E+03  0.7546771E-02  0.1207848E+00
          1   -1    0    0  503    0 -0.00000000000E+00  0.00000000000E+00  0.12827653874E+04  0.12827653874E+04  0.00000000000E+00 0. -1.
          2   -1    0    0  502    0  0.00000000000E+00 -0.00000000000E+00 -0.88050937322E+03  0.88050937322E+03  0.00000000000E+00 0. -1.
         25    2    1    2    0    0  0.23866210780E+01  0.22672930957E+03 -0.54463328909E+02  0.26458480626E+03  0.12500795865E+03 0.  0.
          4    1    3    3  501    0  0.23189371453E+02 -0.87914005078E+00  0.12536541748E+02  0.26406393442E+02  0.12700000000E+01 0. -1.
         -4    1    3    3    0  501 -0.20802750375E+02  0.22760844962E+03 -0.66999870657E+02  0.23817841281E+03  0.12700000000E+01 0. -1.
          2    1    1    2  502    0 -0.91540454917E+02 -0.15693922130E+03 -0.70674751257E+03  0.72972708638E+03  0.00000000000E+00 0. -1.
          1    1    1    2  503    0  0.89153833839E+02 -0.69790088272E+02  0.11634668556E+04  0.11689628679E+04  0.00000000000E+00 0. -1.
<mgrwt>
<rscale>  0 0.14415237E+03</rscale>
<asrwt>0</asrwt>
<pdfrwt beam="2">  1        2 0.13546298E+00 0.18353354E+03</pdfrwt>
<pdfrwt beam="1">  1        1 0.19734852E+00 0.11322130E+03</pdfrwt>
<totfact> 0.47034682E+01</totfact>
</mgrwt>
</event>
<event>
 7    1  0.3113151E-004  0.7547873E+02  0.7546771E-02  0.1416988E+00
         -3   -1    0    0    0  502 -0.00000000000E+00  0.00000000000E+00  0.19507605343E+03  0.19507605343E+03  0.00000000000E+00 0.  1.
         -2   -1    0    0    0  501  0.00000000000E+00 -0.00000000000E+00 -0.54842082471E+03  0.54842082471E+03  0.00000000000E+00 0.  1.
         25    2    1    2    0    0 -0.15059071995E+02 -0.62362092763E+02 -0.34580121108E+02  0.14469862536E+03  0.12500440450E+03 0.  0.
          4    1    3    3  503    0  0.60134848888E+01  0.27653042633E+02 -0.43394112109E+02  0.51821951267E+02  0.12700000000E+01 0. -1.
         -4    1    3    3    0  503 -0.21072556884E+02 -0.90015135396E+02  0.88139910009E+01  0.92876674097E+02  0.12700000000E+01 0. -1.
         -2    1    1    2    0  501  0.39353067170E+02 -0.11680609184E+02 -0.44692500661E+03  0.44880626340E+03  0.00000000000E+00 0.  1.
         -3    1    1    2    0  502 -0.24293995176E+02  0.74042701947E+02  0.12816035644E+03  0.14999198938E+03  0.00000000000E+00 0.  1.
<mgrwt>
<rscale>  0 0.55663274E+02</rscale>
<asrwt>0</asrwt>
<pdfrwt beam="2">  1       -2 0.84372434E-01 0.41049976E+02</pdfrwt>
<pdfrwt beam="1">  1       -3 0.30011701E-01 0.75478730E+02</pdfrwt>
<totfact> 0.52937468E+01</totfact>
</mgrwt>
</event>
<event>
 7    1  0.3113151E-004  0.3763773E+02  0.7546771E-02  0.1572422E+00
         -2   -1    0    0    0  501 -0.00000000000E+00  0.00000000000E+00  0.59805862383E+03  0.59805862383E+03  0.00000000000E+00 0.  1.
          2   -1    0    0  503    0  0.00000000000E+00 -0.00000000000E+00 -0.14943072865E+04  0.14943072865E+04  0.00000000000E+00 0. -1.
         25    2    1    2    0    0  0.25820420848E+02 -0.17004487646E+02  0.16411383228E+02  0.12980486855E+03  0.12499649462E+03 0.  0.
          4    1    3    3  502    0 -0.31881892629E+02 -0.51586813420E+02  0.47175165833E+00  0.60658798587E+02  0.12700000000E+01 0.  1.
         -4    1    3    3    0  502  0.57702313477E+02  0.34582325774E+02  0.15939631569E+02  0.69146069961E+02  0.12700000000E+01 0.  1.
          2    1    1    2  503    0 -0.19305098431E+02 -0.20264803208E+02 -0.14367923712E+04  0.14370649487E+04  0.00000000000E+00 0. -1.
         -2    1    1    2    0  501 -0.65153224168E+01  0.37269290854E+02  0.52413232524E+03  0.52549609307E+03  0.00000000000E+00 0.  1.
<mgrwt>
<rscale>  0 0.32456415E+02</rscale>
<asrwt>0</asrwt>
<pdfrwt beam="2">  1        2 0.22989343E+00 0.27988374E+02</pdfrwt>
<pdfrwt beam="1">  1       -2 0.92009020E-01 0.37637731E+02</pdfrwt>
<totfact> 0.18351736E+01</totfact>
</mgrwt>
</event>
<event>
 7    1  0.3113151E-004  0.4816547E+02  0.7546771E-02  0.1507564E+00
         -2   -1    0    0    0  501 -0.00000000000E+00  0.00000000000E+00  0.23894368592E+03  0.23894368592E+03  0.00000000000E+00 0.  1.
          1   -1    0    0  503    0  0.00000000000E+00 -0.00000000000E+00 -0.82388110787E+03  0.82388110787E+03  0.00000000000E+00 0. -1.
         25    2    1    2    0    0 -0.36041407564E+02  0.35266695193E+02 -0.58079090991E+02  0.14676370034E+03  0.12499472021E+03 0.  0.
          4    1    3    3  502    0 -0.69314848654E+02  0.18734771118E+02  0.66479315762E+01  0.72120370126E+02  0.12700000000E+01 0. -1.
         -4    1    3    3    0  502  0.33273441090E+02  0.16531924075E+02 -0.64727022567E+02  0.74643330218E+02  0.12700000000E+01 0. -1.
          1    1    1    2  503    0 -0.12202464463E+02 -0.31053895308E+02 -0.71805347089E+03  0.71882823512E+03  0.00000000000E+00 0. -1.
         -2    1    1    2    0  501  0.48243872027E+02 -0.42127998848E+01  0.19119513993E+03  0.19723285833E+03  0.00000000000E+00 0.  1.
<mgrwt>
<rscale>  0 0.40088108E+02</rscale>
<asrwt>0</asrwt>
<pdfrwt beam="2">  1        1 0.12675094E+00 0.33365320E+02</pdfrwt>
<pdfrwt beam="1">  1       -2 0.36760567E-01 0.48165474E+02</pdfrwt>
<totfact> 0.14917064E+02</totfact>
</mgrwt>
</event>
<event>
 7    1  0.3113151E-004  0.7804990E+02  0.7546771E-02  0.1445396E+00
          3   -1    0    0  503    0  0.00000000000E+00  0.00000000000E+00  0.17292291073E+02  0.17292291073E+02  0.00000000000E+00 0. -1.
         -3   -1    0    0    0  501 -0.00000000000E+00 -0.00000000000E+00 -0.15078021957E+04  0.15078021957E+04  0.00000000000E+00 0.  1.
         25    2    1    2    0    0  0.20857301148E+02 -0.54603913462E+02 -0.46200767634E+03  0.48217549284E+03  0.12500199407E+03 0.  0.
          4    1    3    3  502    0  0.21225573865E+01 -0.49092687648E+02 -0.45986964770E+03  0.46248924637E+03  0.12700000000E+01 0.  1.
         -4    1    3    3    0  502  0.18734743761E+02 -0.55112258132E+01 -0.21380286437E+01  0.19686246474E+02  0.12700000000E+01 0.  1.
          3    1    1    2  503    0 -0.34208669489E+02  0.83705090272E+02 -0.29108281410E+03  0.30480482258E+03  0.00000000000E+00 0. -1.
         -3    1    1    2    0  501  0.13351368341E+02 -0.29101176810E+02 -0.73741941423E+03  0.73811417139E+03  0.00000000000E+00 0.  1.
<mgrwt>
<rscale>  0 0.49989835E+02</rscale>
<asrwt>0</asrwt>
<pdfrwt beam="1">  1        3 0.26603524E-02 0.78049899E+02</pdfrwt>
<pdfrwt beam="2">  1       -3 0.23196958E+00 0.32017769E+02</pdfrwt>
<totfact> 0.14685501E+02</totfact>
</mgrwt>
</event>
<event>
 7    1  0.3113151E-004  0.9464328E+02  0.7546771E-02  0.1370470E+00
          2   -1    0    0  503    0  0.00000000000E+00  0.00000000000E+00  0.70055073033E+03  0.70055073033E+03  0.00000000000E+00 0. -1.
         -1   -1    0    0    0  501 -0.00000000000E+00 -0.00000000000E+00 -0.42273209053E+02  0.42273209053E+02  0.00000000000E+00 0.  1.
         25    2    1    2    0    0  0.18016677168E+02 -0.11318848511E+03  0.19429288486E+03  0.25789847549E+03  0.12500265892E+03 0.  0.
          4    1    3    3  502    0  0.62041109462E+02 -0.45779045022E+02  0.47778153431E+02  0.90714855849E+02  0.12700000000E+01 0. -1.
         -4    1    3    3    0  502 -0.44024432294E+02 -0.67409440086E+02  0.14651473142E+03  0.16718361964E+03  0.12700000000E+01 0. -1.
          2    1    1    2  503    0 -0.49624408548E+02  0.77754889277E+02  0.33544469908E+03  0.34789589085E+03  0.00000000000E+00 0. -1.
         -1    1    1    2    0  501  0.31607731379E+02  0.35433595831E+02  0.12853993735E+03  0.13702957305E+03  0.00000000000E+00 0.  1.
<mgrwt>
<rscale>  0 0.67036558E+02</rscale>
<asrwt>0</asrwt>
<pdfrwt beam="1">  1        2 0.10777703E+00 0.94643280E+02</pdfrwt>
<pdfrwt beam="2">  1       -1 0.65035711E-02 0.47482506E+02</pdfrwt>
<totfact> 0.50290643E+03</totfact>
</mgrwt>
</event>
<event>
 7    1  0.3113151E-004  0.1282285E+03  0.7546771E-02  0.1359640E+00
         -2   -1    0    0    0  501 -0.00000000000E+00  0.00000000000E+00  0.10364986887E+03  0.10364986887E+03  0.00000000000E+00 0.  1.
          1   -1    0    0  503    0  0.00000000000E+00 -0.00000000000E+00 -0.20532263575E+04  0.20532263575E+04  0.00000000000E+00 0. -1.
         25    2    1    2    0    0  0.12192676518E+03 -0.77720861944E+01 -0.30572056040E+03  0.35216758525E+03  0.12502162076E+03 0.  0.
          4    1    3    3  502    0  0.58817164718E+02 -0.18508715459E+02 -0.29028606253E+02  0.68163804870E+02  0.12700000000E+01 0. -1.
         -4    1    3    3    0  502  0.63109600458E+02  0.10736629264E+02 -0.27669195415E+03  0.28400378038E+03  0.12700000000E+01 0. -1.
          1    1    1    2  503    0 -0.43472120973E+00 -0.38356239891E+02 -0.16714225460E+04  0.16718626490E+04  0.00000000000E+00 0. -1.
         -2    1    1    2    0  501 -0.12149204397E+03  0.46128326086E+02  0.27566617689E+02  0.13284599213E+03  0.00000000000E+00 0.  1.
<mgrwt>
<rscale>  0 0.70133305E+02</rscale>
<asrwt>0</asrwt>
<pdfrwt beam="2">  1        1 0.31588097E+00 0.38358703E+02</pdfrwt>
<pdfrwt beam="1">  1       -2 0.15946134E-01 0.12822854E+03</pdfrwt>
<totfact> 0.10576212E+02</totfact>
</mgrwt>
</event>
<event>
 7    1  0.3113151E-004  0.1498423E+03  0.7546771E-02  0.1412188E+00
          1   -1    0    0  502    0  0.00000000000E+00  0.00000000000E+00  0.55593045234E+03  0.55593045234E+03  0.00000000000E+00 0. -1.
          1   -1    0    0  503    0 -0.00000000000E+00 -0.00000000000E+00 -0.50744252642E+03  0.50744252642E+03  0.00000000000E+00 0. -1.
         25    2    1    2    0    0 -0.80183159073E+02 -0.14362768488E+03  0.63204528931E+02  0.21605155023E+03  0.12500083605E+03 0.  0.
          4    1    3    3  501    0 -0.46444768578E+02 -0.12375451472E+03 -0.10475640480E+02  0.13260334982E+03  0.12700000000E+01 0.  1.
         -4    1    3    3    0  501 -0.33738390495E+02 -0.19873170167E+02  0.73680169412E+02  0.83448200401E+02  0.12700000000E+01 0.  1.
          1    1    1    2  502    0  0.19988878563E+02  0.78131955356E+01  0.40320811153E+03  0.40377887822E+03  0.00000000000E+00 0. -1.
          1    1    1    2  503    0  0.60194280510E+02  0.13581448935E+03 -0.41792471454E+03  0.44354255032E+03  0.00000000000E+00 0. -1.
<mgrwt>
<rscale>  0 0.56708546E+02</rscale>
<asrwt>0</asrwt>
<pdfrwt beam="1">  1        1 0.85527762E-01 0.21461624E+02</pdfrwt>
<pdfrwt beam="2">  1        1 0.78068081E-01 0.14984231E+03</pdfrwt>
<totfact> 0.22686346E+02</totfact>
</mgrwt>
</event>
<event>
 7    1  0.3113151E-004  0.3971521E+02  0.7546771E-02  0.1556181E+00
         -2   -1    0    0    0  501 -0.00000000000E+00  0.00000000000E+00  0.14335849381E+02  0.14335849381E+02  0.00000000000E+00 0.  1.
          1   -1    0    0  503    0  0.00000000000E+00 -0.00000000000E+00 -0.89845289552E+03  0.89845289552E+03  0.00000000000E+00 0. -1.
         25    2    1    2    0    0  0.13012549706E+01 -0.12586901355E+02 -0.67093480082E+03  0.68259574458E+03  0.12499328069E+03 0.  0.
          4    1    3    3  502    0  0.43206313271E+02 -0.45915456600E+02 -0.48560397080E+03  0.48968136989E+03  0.12700000000E+01 0.  1.
         -4    1    3    3    0  502 -0.41905058300E+02  0.33328555245E+02 -0.18533083002E+03  0.19291437469E+03  0.12700000000E+01 0.  1.
          1    1    1    2  503    0  0.38277906482E+02  0.15871400708E+02 -0.14954302255E+03  0.15517801094E+03  0.00000000000E+00 0. -1.
         -2    1    1    2    0  501 -0.39579161453E+02 -0.32844993535E+01 -0.63639222761E+02  0.75014989375E+02  0.00000000000E+00 0.  1.
<mgrwt>
<rscale>  0 0.34160866E+02</rscale>
<asrwt>0</asrwt>
<pdfrwt beam="2">  1        1 0.13822352E+00 0.29383320E+02</pdfrwt>
<pdfrwt beam="1">  1       -2 0.22055153E-02 0.39715211E+02</pdfrwt>
<totfact> 0.99885631E+03</totfact>
</mgrwt>
</event>
<event>
 7    1  0.3113151E-004  0.5860684E+02  0.7546771E-02  0.1509147E+00
          2   -1    0    0  502    0  0.00000000000E+00  0.00000000000E+00  0.27863490141E+04  0.27863490141E+04  0.00000000000E+00 0. -1.
          3   -1    0    0  503    0 -0.00000000000E+00 -0.00000000000E+00 -0.24508246984E+03  0.24508246984E+03  0.00000000000E+00 0. -1.
         25    2    1    2    0    0 -0.42549598140E+02  0.23655216558E+00  0.80993970553E+03  0.82063348043E+03  0.12500583323E+03 0.  0.
          4    1    3    3  501    0 -0.27516481554E+02 -0.46187098903E+02  0.67495203943E+03  0.67709103767E+03  0.12700000000E+01 0. -1.
         -4    1    3    3    0  501 -0.15033116586E+02  0.46423651068E+02  0.13498766610E+03  0.14354244276E+03  0.12700000000E+01 0. -1.
          2    1    1    2  502    0  0.55452977054E+02  0.23625845516E+02  0.19698325239E+04  0.19707545219E+04  0.00000000000E+00 0. -1.
          3    1    1    2  503    0 -0.12903378914E+02 -0.23862397681E+02 -0.23850568518E+03  0.24004348163E+03  0.00000000000E+00 0. -1.
<mgrwt>
<rscale>  0 0.39873146E+02</rscale>
<asrwt>0</asrwt>
<pdfrwt beam="1">  1        2 0.42866906E+00 0.58606840E+02</pdfrwt>
<pdfrwt beam="2">  1        3 0.37704997E-01 0.27127683E+02</pdfrwt>
<totfact> 0.12876654E+01</totfact>
</mgrwt>
</event>
<event>
 7    1  0.3113151E-004  0.1396038E+03  0.7546771E-02  0.1225058E+00
          1   -1    0    0  503    0 -0.00000000000E+00  0.00000000000E+00  0.68242068702E+03  0.68242068702E+03  0.00000000000E+00 0. -1.
          2   -1    0    0  502    0  0.00000000000E+00 -0.00000000000E+00 -0.44337766057E+03  0.44337766057E+03  0.00000000000E+00 0. -1.
         25    2    1    2    0    0  0.12922601006E+03 -0.63475853151E+01 -0.10800043400E+03  0.20983586446E+03  0.12500937066E+03 0.  0.
          4    1    3    3  501    0  0.54034478465E+02  0.58037172105E+02 -0.34255654327E+02  0.86389241010E+02  0.12700000000E+01 0.  1.
         -4    1    3    3    0  501  0.75191531594E+02 -0.64384757421E+02 -0.73744779673E+02  0.12344662345E+03  0.12700000000E+01 0.  1.
          2    1    1    2  502    0 -0.10958229951E+03 -0.11619766041E+03 -0.25520199178E+03  0.30106184291E+03  0.00000000000E+00 0. -1.
          1    1    1    2  503    0 -0.19643710547E+02  0.12254524572E+03  0.60224545223E+03  0.61490064022E+03  0.00000000000E+00 0. -1.
<mgrwt>
<rscale>  0 0.13162895E+03</rscale>
<asrwt>0</asrwt>
<pdfrwt beam="2">  1        2 0.68211948E-01 0.13960377E+03</pdfrwt>
<pdfrwt beam="1">  1        1 0.10498780E+00 0.12410968E+03</pdfrwt>
<totfact> 0.29592337E+02</totfact>
</mgrwt>
</event>
<event>
 7    1  0.3113151E-004  0.9879622E+02  0.7546771E-02  0.1435930E+00
          2   -1    0    0  503    0  0.00000000000E+00  0.00000000000E+00  0.44786495944E+03  0.44786495944E+03  0.00000000000E+00 0.  1.
         -1   -1    0    0    0  501 -0.00000000000E+00 -0.00000000000E+00 -0.13751671301E+03  0.13751671301E+03  0.00000000000E+00 0.  1.
         25    2    1    2    0    0 -0.28074716742E+01 -0.86760226796E+02  0.17477887013E+03  0.23174036324E+03  0.12498289347E+03 0.  0.
          4    1    3    3  502    0 -0.31887483441E+01  0.18120692223E+02  0.10300940599E+03  0.10464739952E+03  0.12700000000E+01 0. -1.
         -4    1    3    3    0  502  0.38127666993E+00 -0.10488091902E+03  0.71769464143E+02  0.12709296373E+03  0.12700000000E+01 0. -1.
          2    1    1    2  503    0  0.24689495977E+02 -0.11285693519E+02  0.22045599841E+03  0.22212110509E+03  0.00000000000E+00 0.  1.
         -1    1    1    2    0  501 -0.21882024303E+02  0.98045920315E+02 -0.84886622116E+02  0.13152020412E+03  0.00000000000E+00 0.  1.
<mgrwt>
<rscale>  0 0.51787855E+02</rscale>
<asrwt>0</asrwt>
<pdfrwt beam="1">  1        2 0.68902301E-01 0.27146604E+02</pdfrwt>
<pdfrwt beam="2">  1       -1 0.21156418E-01 0.98796224E+02</pdfrwt>
<totfact> 0.14613303E+03</totfact>
</mgrwt>
</event>
<event>
 7    1  0.3113151E-004  0.9102891E+02  0.7546771E-02  0.1438234E+00
          2   -1    0    0  502    0  0.00000000000E+00  0.00000000000E+00  0.14838162685E+04  0.14838162685E+04  0.00000000000E+00 0. -1.
          2   -1    0    0  503    0 -0.00000000000E+00 -0.00000000000E+00 -0.44527879429E+03  0.44527879429E+03  0.00000000000E+00 0. -1.
         25    2    1    2    0    0  0.74732604119E+02  0.81944156138E+02  0.83766761823E+02  0.18692582508E+03  0.12499834739E+03 0.  0.
          4    1    3    3  501    0  0.36188127741E+02 -0.63016351795E+01 -0.22830313884E+02  0.43268086708E+02  0.12700000000E+01 0. -1.
         -4    1    3    3    0  501  0.38544476378E+02  0.88245791318E+02  0.10659707571E+03  0.14365773837E+03  0.12700000000E+01 0. -1.
          2    1    1    2  502    0 -0.73355536314E+02 -0.53018827606E+02  0.13464160512E+04  0.13494547838E+04  0.00000000000E+00 0. -1.
          2    1    1    2  503    0 -0.13770678051E+01 -0.28925328532E+02 -0.39164533874E+03  0.39271445390E+03  0.00000000000E+00 0. -1.
<mgrwt>
<rscale>  0 0.51342217E+02</rscale>
<asrwt>0</asrwt>
<pdfrwt beam="1">  1        2 0.22827942E+00 0.91028908E+02</pdfrwt>
<pdfrwt beam="2">  1        2 0.68504430E-01 0.28958089E+02</pdfrwt>
<totfact> 0.17052650E+02</totfact>
</mgrwt>
</event>
<event>
 7    1  0.3113151E-004  0.1041775E+03  0.7546771E-02  0.1396519E+00
         -1   -1    0    0    0  501 -0.00000000000E+00  0.00000000000E+00  0.15932520838E+03  0.15932520838E+03  0.00000000000E+00 0.  1.
          2   -1    0    0  503    0  0.00000000000E+00 -0.00000000000E+00 -0.41030782256E+03  0.41030782256E+03  0.00000000000E+00 0. -1.
         25    2    1    2    0    0  0.10232536718E+03 -0.31998988147E+02 -0.36089174920E+03  0.39668796415E+03  0.12499628093E+03 0.  0.
          4    1    3    3  502    0  0.57037726387E+02 -0.79917625909E+02 -0.19993713853E+03  0.22274784270E+03  0.12700000000E+01 0. -1.
         -4    1    3    3    0  502  0.45287640797E+02  0.47918637762E+02 -0.16095461067E+03  0.17394012145E+03  0.12700000000E+01 0. -1.
          2    1    1    2  503    0 -0.93973536796E+02 -0.19065221978E+01  0.58209663548E+02  0.11055779202E+03  0.00000000000E+00 0. -1.
         -1    1    1    2    0  501 -0.83518303875E+01  0.33905510345E+02  0.51699471481E+02  0.62387274776E+02  0.00000000000E+00 0.  1.
<mgrwt>
<rscale>  0 0.60313974E+02</rscale>
<asrwt>0</asrwt>
<pdfrwt beam="2">  1        2 0.63124281E-01 0.10417753E+03</pdfrwt>
<pdfrwt beam="1">  1       -1 0.24511570E-01 0.34919002E+02</pdfrwt>
<totfact> 0.12103386E+03</totfact>
</mgrwt>
</event>
<event>
 7    1  0.3113151E-004  0.4404611E+02  0.7546771E-02  0.1514864E+00
          1   -1    0    0  503    0  0.00000000000E+00  0.00000000000E+00  0.67513053590E+02  0.67513053590E+02  0.00000000000E+00 0. -1.
          1   -1    0    0  502    0 -0.00000000000E+00 -0.00000000000E+00 -0.25670919509E+04  0.25670919509E+04  0.00000000000E+00 0. -1.
         25    2    1    2    0    0  0.16337982951E+02 -0.26322395702E+02 -0.16219396294E+03  0.20710088643E+03  0.12499638933E+03 0.  0.
          4    1    3    3  501    0  0.61708722021E+00  0.47554947513E+02 -0.93897852662E+02  0.10526287790E+03  0.12700000000E+01 0.  1.
         -4    1    3    3    0  501  0.15720895731E+02 -0.73877343215E+02 -0.68296110274E+02  0.10183800853E+03  0.12700000000E+01 0.  1.
          1    1    1    2  502    0  0.14783799431E+02  0.41731052310E+02 -0.23755164049E+04  0.23759289197E+04  0.00000000000E+00 0. -1.
          1    1    1    2  503    0 -0.31121782382E+02 -0.15408656608E+02  0.38131470556E+02  0.51575198340E+02  0.00000000000E+00 0. -1.
<mgrwt>
<rscale>  0 0.39110185E+02</rscale>
<asrwt>0</asrwt>
<pdfrwt beam="1">  1        1 0.10386626E-01 0.34727396E+02</pdfrwt>
<pdfrwt beam="2">  1        1 0.39493715E+00 0.44046105E+02</pdfrwt>
<totfact> 0.12024105E+02</totfact>
</mgrwt>
</event>
<event>
 7    1  0.3113151E-004  0.3996581E+02  0.7546771E-02  0.1548999E+00
         -2   -1    0    0    0  501 -0.00000000000E+00  0.00000000000E+00  0.35888619667E+02  0.35888619667E+02  0.00000000000E+00 0.  1.
          1   -1    0    0  503    0  0.00000000000E+00 -0.00000000000E+00 -0.34630528405E+03  0.34630528405E+03  0.00000000000E+00 0. -1.
         25    2    1    2    0    0 -0.20767893669E+02  0.94246435364E+01 -0.21818545041E+03  0.25248734124E+03  0.12499934962E+03 0.  0.
          4    1    3    3  502    0 -0.15014538026E+02  0.60850707884E+01 -0.23437532661E+03  0.23493801537E+03  0.12700000000E+01 0. -1.
         -4    1    3    3    0  502 -0.57533556430E+01  0.33395727480E+01  0.16189876204E+02  0.17549325878E+02  0.12700000000E+01 0. -1.
          1    1    1    2  503    0  0.46555506849E+01  0.30216154071E+02 -0.79324611189E+02  0.85012258288E+02  0.00000000000E+00 0. -1.
         -2    1    1    2    0  501  0.16112342984E+02 -0.39640797608E+02 -0.12906602788E+02  0.44694304189E+02  0.00000000000E+00 0.  1.
<mgrwt>
<rscale>  0 0.34955152E+02</rscale>
<asrwt>0</asrwt>
<pdfrwt beam="2">  1        1 0.53277734E-01 0.30572702E+02</pdfrwt>
<pdfrwt beam="1">  1       -2 0.55213263E-02 0.39965805E+02</pdfrwt>
<totfact> 0.90936306E+03</totfact>
</mgrwt>
</event>
<event>
 7    1  0.3113151E-004  0.6646048E+02  0.7546771E-02  0.1472418E+00
          2   -1    0    0  503    0  0.00000000000E+00  0.00000000000E+00  0.95384086155E+03  0.95384086155E+03  0.00000000000E+00 0. -1.
         -1   -1    0    0    0  501 -0.00000000000E+00 -0.00000000000E+00 -0.16700825415E+02  0.16700825415E+02  0.00000000000E+00 0.  1.
         25    2    1    2    0    0  0.66267815678E+02  0.27204783629E+02  0.55777986522E+03  0.57608626296E+03  0.12500192268E+03 0.  0.
          4    1    3    3  502    0  0.26638361400E+02  0.70003926708E+02  0.41733864785E+03  0.42400862249E+03  0.12700000000E+01 0.  1.
         -4    1    3    3    0  502  0.39629454278E+02 -0.42799143079E+02  0.14044121737E+03  0.15207764047E+03  0.12700000000E+01 0.  1.
          2    1    1    2  503    0 -0.44597512064E+02 -0.49218203902E+02  0.32687715523E+03  0.33355665828E+03  0.00000000000E+00 0. -1.
         -1    1    1    2    0  501 -0.21670303614E+02  0.22013420273E+02  0.52483015686E+02  0.60898765721E+02  0.00000000000E+00 0.  1.
<mgrwt>
<rscale>  0 0.45309657E+02</rscale>
<asrwt>0</asrwt>
<pdfrwt beam="1">  1        2 0.14674470E+00 0.66460485E+02</pdfrwt>
<pdfrwt beam="2">  1       -1 0.25693585E-02 0.30890010E+02</pdfrwt>
<totfact> 0.12277328E+04</totfact>
</mgrwt>
</event>
<event>
 7    1  0.3113151E-004  0.3767781E+02  0.7546771E-02  0.1538439E+00
          1   -1    0    0  503    0  0.00000000000E+00  0.00000000000E+00  0.59931899555E+03  0.59931899555E+03  0.00000000000E+00 0. -1.
         -2   -1    0    0    0  501 -0.00000000000E+00 -0.00000000000E+00 -0.20590685374E+02  0.20590685374E+02  0.00000000000E+00 0.  1.
         25    2    1    2    0    0  0.23224281328E+02  0.20232607442E+02  0.26453932198E+03  0.29420055192E+03  0.12499674488E+03 0.  0.
          4    1    3    3  502    0  0.72164841988E+02 -0.25324490594E+01  0.17932741434E+03  0.19332385303E+03  0.12700000000E+01 0.  1.
         -4    1    3    3    0  502 -0.48940560660E+02  0.22765056501E+02  0.85211907636E+02  0.10087669889E+03  0.12700000000E+01 0.  1.
          1    1    1    2  503    0  0.20360900892E+02 -0.28129334044E+02  0.20427565918E+03  0.20720610670E+03  0.00000000000E+00 0. -1.
         -2    1    1    2    0  501 -0.43585182220E+02  0.78967266021E+01  0.10991332901E+03  0.11850302230E+03  0.00000000000E+00 0.  1.
<mgrwt>
<rscale>  0 0.36171287E+02</rscale>
<asrwt>0</asrwt>
<pdfrwt beam="1">  1        1 0.92202909E-01 0.34725001E+02</pdfrwt>
<pdfrwt beam="2">  1       -2 0.31677982E-02 0.37677810E+02</pdfrwt>
<totfact> 0.10267889E+04</totfact>
</mgrwt>
</event>
<event>
 7    1  0.3113151E-004  0.4507748E+02  0.7546771E-02  0.1503131E+00
         -2   -1    0    0    0  501 -0.00000000000E+00  0.00000000000E+00  0.15367368964E+02  0.15367368964E+02  0.00000000000E+00 0.  1.
          1   -1    0    0  503    0  0.00000000000E+00 -0.00000000000E+00 -0.12772315779E+04  0.12772315779E+04  0.00000000000E+00 0. -1.
         25    2    1    2    0    0  0.45905206794E+02 -0.33046141801E+02 -0.35674578518E+03  0.38221952463E+03  0.12499949705E+03 0.  0.
          4    1    3    3  502    0  0.82127903785E+02 -0.21469845663E+02 -0.15322528210E+03  0.17517290552E+03  0.12700000000E+01 0.  1.
         -4    1    3    3    0  502 -0.36222696991E+02 -0.11576296138E+02 -0.20352050308E+03  0.20704661911E+03  0.12700000000E+01 0.  1.
          1    1    1    2  503    0 -0.10755071465E+02  0.43756098110E+02 -0.23662511839E+03  0.24087696929E+03  0.00000000000E+00 0. -1.
         -2    1    1    2    0  501 -0.35150135330E+02 -0.10709956308E+02 -0.66849330537E+03  0.66950245295E+03  0.00000000000E+00 0.  1.
<mgrwt>
<rscale>  0 0.40698853E+02</rscale>
<asrwt>0</asrwt>
<pdfrwt beam="2">  1        1 0.19649719E+00 0.45077480E+02</pdfrwt>
<pdfrwt beam="1">  1       -2 0.23642103E-02 0.36745546E+02</pdfrwt>
<totfact> 0.48248397E+03</totfact>
</mgrwt>
</event>
<event>
 7    1  0.3113151E-004  0.2825040E+03  0.7546771E-02  0.1177601E+00
          2   -1    0    0  502    0  0.00000000000E+00  0.00000000000E+00  0.14760438757E+04  0.14760438757E+04  0.00000000000E+00 0. -1.
          2   -1    0    0  503    0 -0.00000000000E+00 -0.00000000000E+00 -0.14590481371E+04  0.14590481371E+04  0.00000000000E+00 0. -1.
         25    2    1    2    0    0 -0.39390548150E+02 -0.74196379658E+02  0.86183457496E+03  0.87489492177E+03  0.12500228604E+03 0.  0.
          4    1    3    3  501    0  0.42007849027E+02 -0.43989338617E+02  0.27333083203E+03  0.28001978131E+03  0.12700000000E+01 0.  1.
         -4    1    3    3    0  501 -0.81398397177E+02 -0.30207041041E+02  0.58850374293E+03  0.59487514046E+03  0.12700000000E+01 0.  1.
          2    1    1    2  502    0  0.31898404547E+03  0.33748723089E+02  0.55018165893E+03  0.63685921160E+03  0.00000000000E+00 0. -1.
          2    1    1    2  503    0 -0.27959349732E+03  0.40447656569E+02 -0.13950204953E+04  0.14233378795E+04  0.00000000000E+00 0. -1.
<mgrwt>
<rscale>  0 0.17023662E+03</rscale>
<asrwt>0</asrwt>
<pdfrwt beam="1">  1        2 0.22708367E+00 0.10258440E+03</pdfrwt>
<pdfrwt beam="2">  1        2 0.22446894E+00 0.28250405E+03</pdfrwt>
<totfact> 0.34038989E+01</totfact>
</mgrwt>
</event>
<event>
 7    1  0.3113151E-004  0.1313466E+03  0.7546771E-02  0.1242914E+00
          2   -1    0    0  502    0  0.00000000000E+00  0.00000000000E+00  0.79436966196E+03  0.79436966196E+03  0.00000000000E+00 0. -1.
          1   -1    0    0  503    0 -0.00000000000E+00 -0.00000000000E+00 -0.86554727288E+03  0.86554727288E+03  0.00000000000E+00 0. -1.
         25    2    1    2    0    0  0.27849854612E+02 -0.42634480023E+02 -0.49793958868E+02  0.14387088133E+03  0.12500431540E+03 0.  0.
          4    1    3    3  501    0  0.25832465729E+02  0.97242167691E+01  0.34751075254E+02  0.44397373895E+02  0.12700000000E+01 0. -1.
         -4    1    3    3    0  501  0.20173888824E+01 -0.52358696792E+02 -0.84545034122E+02  0.99473507439E+02  0.12700000000E+01 0. -1.
          2    1    1    2  502    0  0.10982417043E+03 -0.16352052951E+01  0.73642041049E+03  0.74456634580E+03  0.00000000000E+00 0. -1.
          1    1    1    2  503    0 -0.13767402504E+03  0.44269685318E+02 -0.75780406254E+03  0.77147970771E+03  0.00000000000E+00 0. -1.
<mgrwt>
<rscale>  0 0.12011092E+03</rscale>
<asrwt>0</asrwt>
<pdfrwt beam="1">  1        2 0.12221072E+00 0.10983634E+03</pdfrwt>
<pdfrwt beam="2">  1        1 0.13316112E+00 0.13134663E+03</pdfrwt>
<totfact> 0.10743250E+02</totfact>
</mgrwt>
</event>
<event>
 7    1  0.3113151E-004  0.1223565E+03  0.7546771E-02  0.1429578E+00
          2   -1    0    0  502    0  0.00000000000E+00  0.00000000000E+00  0.18012415001E+04  0.18012415001E+04  0.00000000000E+00 0. -1.
          1   -1    0    0  503    0 -0.00000000000E+00 -0.00000000000E+00 -0.10840603628E+03  0.10840603628E+03  0.00000000000E+00 0. -1.
         25    2    1    2    0    0  0.14029218791E+03 -0.18283711152E+02  0.42250743704E+03  0.46276911496E+03  0.12500610912E+03 0.  0.
          4    1    3    3  501    0  0.47564200482E+01  0.38004959909E+02  0.12963201390E+03  0.13517792881E+03  0.12700000000E+01 0.  1.
         -4    1    3    3    0  501  0.13553576786E+03 -0.56288671061E+02  0.29287542314E+03  0.32759118615E+03  0.12700000000E+01 0.  1.
          2    1    1    2  502    0 -0.19871716753E+02  0.11573557828E+02  0.13172606130E+04  0.13174613296E+04  0.00000000000E+00 0. -1.
          1    1    1    2  503    0 -0.12042047115E+03  0.67101533244E+01 -0.46932586175E+02  0.12941709190E+03  0.00000000000E+00 0. -1.
<mgrwt>
<rscale>  0 0.53044825E+02</rscale>
<asrwt>0</asrwt>
<pdfrwt beam="1">  1        2 0.27711405E+00 0.22996356E+02</pdfrwt>
<pdfrwt beam="2">  1        1 0.16677853E-01 0.12235649E+03</pdfrwt>
<totfact> 0.51981674E+02</totfact>
</mgrwt>
</event>
<event>
 7    1  0.3113151E-004  0.8198156E+02  0.7546771E-02  0.1426547E+00
         -1   -1    0    0    0  501 -0.00000000000E+00  0.00000000000E+00  0.21102596205E+03  0.21102596205E+03  0.00000000000E+00 0.  1.
          2   -1    0    0  503    0  0.00000000000E+00 -0.00000000000E+00 -0.16783764217E+04  0.16783764217E+04  0.00000000000E+00 0. -1.
         25    2    1    2    0    0 -0.84390354410E+02  0.28723214838E+02  0.44571234557E+02  0.15987050907E+03  0.12500091893E+03 0.  0.
          4    1    3    3  502    0 -0.66745206623E+02 -0.76588884247E+01  0.81130130480E+02  0.10534368586E+03  0.12700000000E+01 0.  1.
         -4    1    3    3    0  502 -0.17645147787E+02  0.36382103263E+02 -0.36558895924E+02  0.54526823210E+02  0.12700000000E+01 0.  1.
          2    1    1    2  503    0  0.81738971577E+02  0.62983344619E+01 -0.16168266360E+04  0.16189037338E+04  0.00000000000E+00 0. -1.
         -1    1    1    2    0  501  0.26513828330E+01 -0.35021549300E+02  0.10490494177E+03  0.11062814088E+03  0.00000000000E+00 0.  1.
<mgrwt>
<rscale>  0 0.53659458E+02</rscale>
<asrwt>0</asrwt>
<pdfrwt beam="2">  1        2 0.25821175E+00 0.81981557E+02</pdfrwt>
<pdfrwt beam="1">  1       -1 0.32465534E-01 0.35121770E+02</pdfrwt>
<totfact> 0.12117706E+02</totfact>
</mgrwt>
</event>
<event>
 7    1  0.3113151E-004  0.8667539E+02  0.7546771E-02  0.1328754E+00
          2   -1    0    0  502    0  0.00000000000E+00  0.00000000000E+00  0.47768273205E+02  0.47768273205E+02  0.00000000000E+00 0. -1.
          1   -1    0    0  503    0 -0.00000000000E+00 -0.00000000000E+00 -0.10340333906E+04  0.10340333906E+04  0.00000000000E+00 0. -1.
         25    2    1    2    0    0  0.10229910326E+03 -0.30770707182E+01 -0.28005229556E+03  0.32330820386E+03  0.12499732615E+03 0.  0.
          4    1    3    3  501    0  0.37775642684E+02 -0.49337414481E+02 -0.20438091976E+03  0.21362198601E+03  0.12700000000E+01 0.  1.
         -4    1    3    3    0  501  0.64523460577E+02  0.46260343763E+02 -0.75671375801E+02  0.10968621785E+03  0.12700000000E+01 0.  1.
          2    1    1    2  502    0 -0.41880622800E+02 -0.61047607676E+02 -0.35652497261E+02  0.82169930814E+02  0.00000000000E+00 0. -1.
          1    1    1    2  503    0 -0.60418480461E+02  0.64124678394E+02 -0.67056032459E+03  0.67632352914E+03  0.00000000000E+00 0. -1.
<mgrwt>
<rscale>  0 0.80104852E+02</rscale>
<asrwt>0</asrwt>
<pdfrwt beam="1">  1        2 0.73489654E-02 0.74032405E+02</pdfrwt>
<pdfrwt beam="2">  1        1 0.15908205E+00 0.86675387E+02</pdfrwt>
<totfact> 0.19082776E+03</totfact>
</mgrwt>
</event>
<event>
 7    1  0.3113151E-004  0.1344609E+03  0.7546771E-02  0.1249724E+00
         -1   -1    0    0    0  501 -0.00000000000E+00  0.00000000000E+00  0.41084149246E+03  0.41084149246E+03  0.00000000000E+00 0.  1.
          2   -1    0    0  503    0  0.00000000000E+00 -0.00000000000E+00 -0.34470748857E+03  0.34470748857E+03  0.00000000000E+00 0. -1.
         25    2    1    2    0    0 -0.18652504239E+03 -0.45246725896E+02  0.10925766523E+03  0.25377448522E+03  0.12500157715E+03 0.  0.
          4    1    3    3  502    0 -0.11778459294E+02  0.22831207992E+02 -0.14066090749E+02  0.29316615949E+02  0.12700000000E+01 0. -1.
         -4    1    3    3    0  502 -0.17474658310E+03 -0.68077933888E+02  0.12332375598E+03  0.22445786927E+03  0.12700000000E+01 0. -1.
          2    1    1    2  503    0  0.12645031801E+03 -0.34942020806E+02 -0.24414887793E+03  0.27716295268E+03  0.00000000000E+00 0. -1.
         -1    1    1    2    0  501  0.60074724388E+02  0.80188746702E+02  0.20102521658E+03  0.22461154314E+03  0.00000000000E+00 0.  1.
<mgrwt>
<rscale>  0 0.11607075E+03</rscale>
<asrwt>0</asrwt>
<pdfrwt beam="2">  1        2 0.53031922E-01 0.13446085E+03</pdfrwt>
<pdfrwt beam="1">  1       -1 0.63206383E-01 0.10019585E+03</pdfrwt>
<totfact> 0.28879992E+02</totfact>
</mgrwt>
</event>
<event>
 7    1  0.3113151E-004  0.1105104E+03  0.7546771E-02  0.1358147E+00
          1   -1    0    0  503    0  0.00000000000E+00  0.00000000000E+00  0.14593359715E+02  0.14593359715E+02  0.00000000000E+00 0. -1.
         -2   -1    0    0    0  501 -0.00000000000E+00 -0.00000000000E+00 -0.23785066558E+04  0.23785066558E+04  0.00000000000E+00 0.  1.
         25    2    1    2    0    0  0.16236797489E+02  0.14379136628E+03 -0.16314850620E+04  0.16426531626E+04  0.12500525871E+03 0.  0.
          4    1    3    3  502    0  0.46586272278E+02  0.26441400616E+01 -0.37001300640E+03  0.37294571998E+03  0.12700000000E+01 0. -1.
         -4    1    3    3    0  502 -0.30349474789E+02  0.14114722622E+03 -0.12614720556E+04  0.12697074427E+04  0.12700000000E+01 0. -1.
          1    1    1    2  503    0 -0.26846493665E+02 -0.99986262935E+02 -0.33928598144E+03  0.35472942393E+03  0.00000000000E+00 0. -1.
         -2    1    1    2    0  501  0.10609696176E+02 -0.43805103345E+02 -0.39314225271E+03  0.39571742898E+03  0.00000000000E+00 0.  1.
<mgrwt>
<rscale>  0 0.70575392E+02</rscale>
<asrwt>0</asrwt>
<pdfrwt beam="1">  1        1 0.22451325E-02 0.11051042E+03</pdfrwt>
<pdfrwt beam="2">  1       -2 0.36592407E+00 0.45071640E+02</pdfrwt>
<totfact> 0.77708660E+01</totfact>
</mgrwt>
</event>
<event>
 7    1  0.3113151E-004  0.6769747E+02  0.7546771E-02  0.1521575E+00
         -1   -1    0    0    0  501 -0.00000000000E+00  0.00000000000E+00  0.81865578452E+02  0.81865578452E+02  0.00000000000E+00 0.  1.
          2   -1    0    0  503    0  0.00000000000E+00 -0.00000000000E+00 -0.86351525409E+03  0.86351525409E+03  0.00000000000E+00 0. -1.
         25    2    1    2    0    0  0.43755285212E+02 -0.49723933778E+02 -0.27064439494E+03  0.30538618966E+03  0.12500136699E+03 0.  0.
          4    1    3    3  502    0  0.75661999290E+02  0.68303147549E+01 -0.13256971640E+03  0.15279965296E+03  0.12700000000E+01 0.  1.
         -4    1    3    3    0  502 -0.31906714078E+02 -0.56554248533E+02 -0.13807467853E+03  0.15258653670E+03  0.12700000000E+01 0.  1.
          2    1    1    2  503    0  0.15011455099E+02  0.15532397589E+02 -0.55731391753E+03  0.55773237474E+03  0.00000000000E+00 0. -1.
         -1    1    1    2    0  501 -0.58766740311E+02  0.34191536189E+02  0.46308636836E+02  0.82262268139E+02  0.00000000000E+00 0.  1.
<mgrwt>
<rscale>  0 0.38240382E+02</rscale>
<asrwt>0</asrwt>
<pdfrwt beam="2">  1        2 0.13284850E+00 0.21600906E+02</pdfrwt>
<pdfrwt beam="1">  1       -1 0.12594704E-01 0.67697473E+02</pdfrwt>
<totfact> 0.16079509E+03</totfact>
</mgrwt>
</event>
<event>
 7    1  0.3113151E-004  0.9406313E+02  0.7546771E-02  0.1382223E+00
          2   -1    0    0  502    0  0.00000000000E+00  0.00000000000E+00  0.18262324830E+04  0.18262324830E+04  0.00000000000E+00 0.  1.
          1   -1    0    0  503    0 -0.00000000000E+00 -0.00000000000E+00 -0.37775333316E+03  0.37775333316E+03  0.00000000000E+00 0. -1.
         25    2    1    2    0    0 -0.47051520289E+02 -0.99890606655E+02 -0.11804518878E+03  0.20433285719E+03  0.12500108429E+03 0.  0.
          4    1    3    3  501    0 -0.69226577590E+02 -0.11017752410E+03 -0.64023434395E+02  0.14502420113E+03  0.12700000000E+01 0. -1.
         -4    1    3    3    0  501  0.22175057301E+02  0.10286917444E+02 -0.54021754382E+02  0.59308656058E+02  0.12700000000E+01 0. -1.
          2    1    1    2  502    0  0.42616878083E+02  0.81340093100E+01  0.17730694870E+04  0.17736002273E+04  0.00000000000E+00 0.  1.
          1    1    1    2  503    0  0.44346422058E+01  0.91756597345E+02 -0.20654514837E+03  0.22605273173E+03  0.00000000000E+00 0. -1.
<mgrwt>
<rscale>  0 0.63883017E+02</rscale>
<asrwt>0</asrwt>
<pdfrwt beam="1">  1        2 0.28095884E+00 0.43386178E+02</pdfrwt>
<pdfrwt beam="2">  1        1 0.58115899E-01 0.94063135E+02</pdfrwt>
<totfact> 0.99488337E+01</totfact>
</mgrwt>
</event>
<event>
 7    1  0.3113151E-004  0.7857950E+02  0.7546771E-02  0.1449483E+00
          1   -1    0    0  502    0  0.00000000000E+00  0.00000000000E+00  0.11965136023E+03  0.11965136023E+03  0.00000000000E+00 0.  1.
          1   -1    0    0  503    0 -0.00000000000E+00 -0.00000000000E+00 -0.17956844338E+04  0.17956844338E+04  0.00000000000E+00 0. -1.
         25    2    1    2    0    0 -0.95241941554E+02  0.27263363456E+02 -0.12208482451E+01  0.15951081684E+03  0.12501156666E+03 0.  0.
          4    1    3    3  501    0 -0.49114567165E+02 -0.14722230466E+02  0.55232078451E+02  0.75373603919E+02  0.12700000000E+01 0. -1.
         -4    1    3    3    0  501 -0.46127374388E+02  0.41985593922E+02 -0.56452926696E+02  0.84137212917E+02  0.12700000000E+01 0. -1.
          1    1    1    2  502    0  0.70343168206E+02 -0.90395234850E+01  0.92126424676E+01  0.71517459961E+02  0.00000000000E+00 0.  1.
          1    1    1    2  503    0  0.24898773348E+02 -0.18223839971E+02 -0.16840248678E+04  0.16843075173E+04  0.00000000000E+00 0. -1.
<mgrwt>
<rscale>  0 0.49240268E+02</rscale>
<asrwt>0</asrwt>
<pdfrwt beam="1">  1        1 0.18407902E-01 0.78579504E+02</pdfrwt>
<pdfrwt beam="2">  1        1 0.27625913E+00 0.30855425E+02</pdfrwt>
<totfact> 0.19168231E+02</totfact>
</mgrwt>
</event>
<event>
 7    1  0.3113151E-004  0.9609302E+02  0.7546771E-02  0.1355124E+00
         -3   -1    0    0    0  501 -0.00000000000E+00  0.00000000000E+00  0.81195230042E+02  0.81195230042E+02  0.00000000000E+00 0.  1.
          2   -1    0    0  503    0  0.00000000000E+00 -0.00000000000E+00 -0.22956413794E+04  0.22956413794E+04  0.00000000000E+00 0. -1.
         25    2    1    2    0    0 -0.52674229756E+02  0.38944493991E+02 -0.33900050654E+02  0.14513626913E+03  0.12499630030E+03 0.  0.
          4    1    3    3  502    0 -0.72680080385E+02  0.69225178021E+02 -0.83352865049E+01  0.10072541515E+03  0.12700000000E+01 0.  1.
         -4    1    3    3    0  502  0.20005850629E+02 -0.30280684030E+02 -0.25564764149E+02  0.44410853975E+02  0.12700000000E+01 0.  1.
          2    1    1    2  503    0  0.36676850051E+02 -0.89655779016E+02 -0.21761928872E+04  0.21783477299E+04  0.00000000000E+00 0. -1.
         -3    1    1    2    0  501  0.15997379705E+02  0.50711285025E+02 -0.43532114868E+01  0.53352610400E+02  0.00000000000E+00 0.  1.
<mgrwt>
<rscale>  0 0.71482301E+02</rscale>
<asrwt>0</asrwt>
<pdfrwt beam="2">  1        2 0.35317551E+00 0.96093022E+02</pdfrwt>
<pdfrwt beam="1">  1       -3 0.12491577E-01 0.53174718E+02</pdfrwt>
<totfact> 0.15906459E+02</totfact>
</mgrwt>
</event>
<event>
 7    1  0.3113151E-004  0.4722781E+02  0.7546771E-02  0.1519077E+00
          1   -1    0    0  503    0  0.00000000000E+00  0.00000000000E+00  0.12818123403E+04  0.12818123403E+04  0.00000000000E+00 0. -1.
         -2   -1    0    0    0  501 -0.00000000000E+00 -0.00000000000E+00 -0.22176159323E+04  0.22176159323E+04  0.00000000000E+00 0.  1.
         25    2    1    2    0    0 -0.29054880064E+02  0.34159803166E+02 -0.56636275785E+02  0.14437460124E+03  0.12500111815E+03 0.  0.
          4    1    3    3  502    0  0.39636832101E+02  0.43515027189E+02 -0.74088952446E+01  0.59339200188E+02  0.12700000000E+01 0.  1.
         -4    1    3    3    0  502 -0.68691712165E+02 -0.93552240233E+01 -0.49227380541E+02  0.85035401049E+02  0.12700000000E+01 0.  1.
          1    1    1    2  503    0  0.28610236769E+02  0.13142684502E+02  0.12374786812E+04  0.12378791387E+04  0.00000000000E+00 0. -1.
         -2    1    1    2    0  501  0.44464329551E+00 -0.47302487667E+02 -0.21166459974E+04  0.21171745326E+04  0.00000000000E+00 0.  1.
<mgrwt>
<rscale>  0 0.38560932E+02</rscale>
<asrwt>0</asrwt>
<pdfrwt beam="1">  1        1 0.19720190E+00 0.31484533E+02</pdfrwt>
<pdfrwt beam="2">  1       -2 0.34117168E+00 0.47227807E+02</pdfrwt>
<totfact> 0.28265597E-01</totfact>
</mgrwt>
</event>
<event>
 7    1  0.3113151E-004  0.2207590E+03  0.7546771E-02  0.1251299E+00
          2   -1    0    0  503    0  0.00000000000E+00  0.00000000000E+00  0.18066166592E+03  0.18066166592E+03  0.00000000000E+00 0. -1.
          2   -1    0    0  502    0 -0.00000000000E+00 -0.00000000000E+00 -0.14988859857E+04  0.14988859857E+04  0.00000000000E+00 0. -1.
         25    2    1    2    0    0 -0.24195215451E+03  0.65742412015E+02 -0.38588141680E+03  0.47685436043E+03  0.12499081333E+03 0.  0.
          4    1    3    3  501    0 -0.54874696186E+02  0.15220573465E+02 -0.15805944498E+02  0.59112933607E+02  0.12700000000E+01 0.  1.
         -4    1    3    3    0  501 -0.18707745833E+03  0.50521838550E+02 -0.37007547231E+03  0.41774142683E+03  0.12700000000E+01 0.  1.
          2    1    1    2  502    0  0.26637697657E+02 -0.53847383781E+02 -0.98000619701E+03  0.98184584017E+03  0.00000000000E+00 0. -1.
          2    1    1    2  503    0  0.21531445686E+03 -0.11895028234E+02  0.47663294018E+02  0.22084745103E+03  0.00000000000E+00 0. -1.
<mgrwt>
<rscale>  0 0.11516200E+03</rscale>
<asrwt>0</asrwt>
<pdfrwt beam="1">  1        2 0.27794102E-01 0.22075902E+03</pdfrwt>
<pdfrwt beam="2">  1        2 0.23059785E+00 0.60075849E+02</pdfrwt>
<totfact> 0.45437132E+02</totfact>
</mgrwt>
</event>
<event>
 7    1  0.3113151E-004  0.1579372E+03  0.7546771E-02  0.1308973E+00
          1   -1    0    0  503    0 -0.00000000000E+00  0.00000000000E+00  0.39020561425E+03  0.39020561425E+03  0.00000000000E+00 0. -1.
          2   -1    0    0  502    0  0.00000000000E+00 -0.00000000000E+00 -0.36654532540E+03  0.36654532540E+03  0.00000000000E+00 0.  1.
         25    2    1    2    0    0 -0.83449522149E+02  0.11227793012E+03  0.22099288645E+03  0.28988026605E+03  0.12499022541E+03 0.  0.
          4    1    3    3  501    0 -0.25499783333E+02  0.10995262396E+03  0.82754108744E+02  0.13996311614E+03  0.12700000000E+01 0.  1.
         -4    1    3    3    0  501 -0.57949738816E+02  0.23253061583E+01  0.13823877770E+03  0.14991714991E+03  0.12700000000E+01 0.  1.
          2    1    1    2  502    0  0.12865330705E+03 -0.94709558428E+02 -0.30748802350E+03  0.34651184463E+03  0.00000000000E+00 0.  1.
          1    1    1    2  503    0 -0.45203784902E+02 -0.17568371687E+02  0.11015542591E+03  0.12035882897E+03  0.00000000000E+00 0. -1.
<mgrwt>
<rscale>  0 0.87519116E+02</rscale>
<asrwt>0</asrwt>
<pdfrwt beam="2">  1        2 0.56391589E-01 0.15793720E+03</pdfrwt>
<pdfrwt beam="1">  1        1 0.60031633E-01 0.48497730E+02</pdfrwt>
<totfact> 0.76450329E+02</totfact>
</mgrwt>
</event>
<event>
 7    1  0.3113151E-004  0.6583168E+02  0.7546771E-02  0.1425481E+00
         -1   -1    0    0    0  501 -0.00000000000E+00  0.00000000000E+00  0.20561766389E+02  0.20561766389E+02  0.00000000000E+00 0.  1.
          2   -1    0    0  503    0  0.00000000000E+00 -0.00000000000E+00 -0.12786949862E+04  0.12786949862E+04  0.00000000000E+00 0. -1.
         25    2    1    2    0    0 -0.41413064477E+02 -0.78121823143E+02 -0.10348094855E+04  0.10460749208E+04  0.12499602969E+03 0.  0.
          4    1    3    3  502    0  0.16909533349E+02  0.18796618457E+02 -0.66080892474E+02  0.70763991081E+02  0.12700000000E+01 0. -1.
         -4    1    3    3    0  502 -0.58322597827E+02 -0.96918441600E+02 -0.96872859304E+03  0.97531092971E+03  0.12700000000E+01 0. -1.
          2    1    1    2  503    0  0.42004922333E+02  0.13413511663E+02 -0.14514827723E+03  0.15169824711E+03  0.00000000000E+00 0. -1.
         -1    1    1    2    0  501 -0.59185785588E+00  0.64708311480E+02 -0.78175457032E+02  0.10148358465E+03  0.00000000000E+00 0.  1.
<mgrwt>
<rscale>  0 0.53877855E+02</rscale>
<asrwt>0</asrwt>
<pdfrwt beam="2">  1        2 0.19672236E+00 0.44094623E+02</pdfrwt>
<pdfrwt beam="1">  1       -1 0.31633477E-02 0.65831682E+02</pdfrwt>
<totfact> 0.69625512E+03</totfact>
</mgrwt>
</event>
<event>
 7    1  0.3113151E-004  0.7946065E+02  0.7546771E-02  0.1455973E+00
          1   -1    0    0  503    0 -0.00000000000E+00  0.00000000000E+00  0.74294469378E+02  0.74294469378E+02  0.00000000000E+00 0. -1.
          2   -1    0    0  502    0  0.00000000000E+00 -0.00000000000E+00 -0.65306072893E+03  0.65306072893E+03  0.00000000000E+00 0.  1.
         25    2    1    2    0    0  0.93577674388E+02  0.15225621934E+01 -0.15152719304E+03  0.21758865634E+03  0.12500093519E+03 0.  0.
          4    1    3    3  501    0  0.39126837307E+02 -0.58626774701E+02 -0.96657144054E+02  0.11963370974E+03  0.12700000000E+01 0.  1.
         -4    1    3    3    0  501  0.54450837081E+02  0.60149336894E+02 -0.54870048984E+02  0.97954946599E+02  0.12700000000E+01 0.  1.
          2    1    1    2  502    0 -0.75460982536E+02  0.21242403477E+02 -0.45960701687E+03  0.46624479573E+03  0.00000000000E+00 0.  1.
          1    1    1    2  503    0 -0.18116691852E+02 -0.22764965671E+02  0.32367950354E+02  0.43521746240E+02  0.00000000000E+00 0. -1.
<mgrwt>
<rscale>  0 0.48081437E+02</rscale>
<asrwt>0</asrwt>
<pdfrwt beam="2">  1        2 0.10047088E+00 0.79460652E+02</pdfrwt>
<pdfrwt beam="1">  1        1 0.11429918E-01 0.29093954E+02</pdfrwt>
<totfact> 0.29841190E+03</totfact>
</mgrwt>
</event>
<event>
 7    1  0.3113151E-004  0.7028284E+02  0.7546771E-02  0.1443219E+00
          2   -1    0    0  503    0  0.00000000000E+00  0.00000000000E+00  0.27951813666E+04  0.27951813666E+04  0.00000000000E+00 0.  1.
         -1   -1    0    0    0  501 -0.00000000000E+00 -0.00000000000E+00 -0.18317181076E+02  0.18317181076E+02  0.00000000000E+00 0.  1.
         25    2    1    2    0    0 -0.50243993297E+02 -0.85816802168E+02  0.61885872354E+03  0.63913956483E+03  0.12499712487E+03 0.  0.
          4    1    3    3  502    0 -0.71488769309E+02 -0.10408713367E+03  0.42831556498E+03  0.44654295609E+03  0.12700000000E+01 0. -1.
         -4    1    3    3    0  502  0.21244776012E+02  0.18270331498E+02  0.19054315857E+03  0.19259660874E+03  0.12700000000E+01 0. -1.
          2    1    1    2  503    0  0.23974715357E+02  0.27037081092E+02  0.20367531554E+04  0.20370736871E+04  0.00000000000E+00 0.  1.
         -1    1    1    2    0  501  0.26269277941E+02  0.58779721075E+02  0.12125230663E+03  0.13728529578E+03  0.00000000000E+00 0.  1.
<mgrwt>
<rscale>  0 0.50395649E+02</rscale>
<asrwt>0</asrwt>
<pdfrwt beam="1">  1        2 0.43002757E+00 0.36135727E+02</pdfrwt>
<pdfrwt beam="2">  1       -1 0.28180301E-02 0.70282838E+02</pdfrwt>
<totfact> 0.15128378E+03</totfact>
</mgrwt>
</event>
<event>
 7    1  0.3113151E-004  0.1968439E+03  0.7546771E-02  0.1217265E+00
          3   -1    0    0  503    0 -0.00000000000E+00  0.00000000000E+00  0.11353030675E+03  0.11353030675E+03  0.00000000000E+00 0. -1.
          2   -1    0    0  502    0  0.00000000000E+00 -0.00000000000E+00 -0.23055987233E+04  0.23055987233E+04  0.00000000000E+00 0. -1.
         25    2    1    2    0    0 -0.26632300815E+02 -0.13003949707E+03 -0.55745121651E+03  0.58651218924E+03  0.12500055636E+03 0.  0.
          4    1    3    3  501    0 -0.65869391812E+01 -0.78584791476E+00 -0.27672334857E+03  0.27680576199E+03  0.12700000000E+01 0.  1.
         -4    1    3    3    0  501 -0.20045361634E+02 -0.12925364915E+03 -0.28072786794E+03  0.30970642725E+03  0.12700000000E+01 0.  1.
          2    1    1    2  502    0 -0.80290645886E+02 -0.51724275503E+02 -0.16182892106E+04  0.16211051655E+04  0.00000000000E+00 0. -1.
          3    1    1    2  503    0  0.10692294670E+03  0.18176377257E+03 -0.16327989438E+02  0.21151167530E+03  0.00000000000E+00 0. -1.
<mgrwt>
<rscale>  0 0.13711451E+03</rscale>
<asrwt>0</asrwt>
<pdfrwt beam="2">  1        2 0.35470748E+00 0.95509102E+02</pdfrwt>
<pdfrwt beam="1">  1        3 0.17466202E-01 0.19684395E+03</pdfrwt>
<totfact> 0.10198199E+02</totfact>
</mgrwt>
</event>
<event>
 7    1  0.3113151E-004  0.4859032E+02  0.7546771E-02  0.1538934E+00
          2   -1    0    0  503    0  0.00000000000E+00  0.00000000000E+00  0.64413719355E+03  0.64413719355E+03  0.00000000000E+00 0. -1.
         -1   -1    0    0    0  501 -0.00000000000E+00 -0.00000000000E+00 -0.21848323894E+02  0.21848323894E+02  0.00000000000E+00 0.  1.
         25    2    1    2    0    0  0.51268783629E+02  0.17891737472E+02  0.41055631185E+03  0.43258541964E+03  0.12500023057E+03 0.  0.
          4    1    3    3  502    0  0.80321184054E+02  0.46816189461E+02  0.24571335276E+03  0.26271641142E+03  0.12700000000E+01 0. -1.
         -4    1    3    3    0  502 -0.29052400425E+02 -0.28924451989E+02  0.16484295909E+03  0.16986900822E+03  0.12700000000E+01 0. -1.
          2    1    1    2  503    0 -0.34060677023E+01 -0.26622537045E+02  0.16057073566E+03  0.16279840885E+03  0.00000000000E+00 0. -1.
         -1    1    1    2    0  501 -0.47862715927E+02  0.87307995731E+01  0.51161822154E+02  0.70601688954E+02  0.00000000000E+00 0.  1.
<mgrwt>
<rscale>  0 0.36112902E+02</rscale>
<asrwt>0</asrwt>
<pdfrwt beam="1">  1        2 0.99098015E-01 0.26839538E+02</pdfrwt>
<pdfrwt beam="2">  1       -1 0.33612811E-02 0.48590320E+02</pdfrwt>
<totfact> 0.14756482E+04</totfact>
</mgrwt>
</event>
<event>
 7    1  0.3113151E-004  0.1666258E+03  0.7546771E-02  0.1278550E+00
         -1   -1    0    0    0  501 -0.00000000000E+00  0.00000000000E+00  0.34958256294E+03  0.34958256294E+03  0.00000000000E+00 0.  1.
          2   -1    0    0  503    0  0.00000000000E+00 -0.00000000000E+00 -0.22036390908E+03  0.22036390908E+03  0.00000000000E+00 0. -1.
         25    2    1    2    0    0  0.14339640326E+03 -0.39202859871E+02  0.90025657637E+02  0.21407930887E+03  0.12500375499E+03 0.  0.
          4    1    3    3  502    0 -0.58444527998E+00 -0.35676525871E+02 -0.11897744547E+02  0.37634097569E+02  0.12700000000E+01 0. -1.
         -4    1    3    3    0  502  0.14398084854E+03 -0.35263339997E+01  0.10192340218E+03  0.17644521130E+03  0.12700000000E+01 0. -1.
          2    1    1    2  503    0  0.38996618842E+02  0.46934050990E+02 -0.10620324417E+03  0.12248538891E+03  0.00000000000E+00 0. -1.
         -1    1    1    2    0  501 -0.18239302210E+03 -0.77311911192E+01  0.14539624040E+03  0.23338177425E+03  0.00000000000E+00 0.  1.
<mgrwt>
<rscale>  0 0.10083473E+03</rscale>
<asrwt>0</asrwt>
<pdfrwt beam="2">  1        2 0.33902140E-01 0.61020828E+02</pdfrwt>
<pdfrwt beam="1">  1       -1 0.53781933E-01 0.16662578E+03</pdfrwt>
<totfact> 0.61610385E+02</totfact>
</mgrwt>
</event>
<event>
 7    1  0.3113151E-004  0.3076487E+02  0.7546771E-02  0.1649314E+00
         -1   -1    0    0    0  501 -0.00000000000E+00  0.00000000000E+00  0.14426372086E+02  0.14426372086E+02  0.00000000000E+00 0.  1.
          2   -1    0    0  503    0  0.00000000000E+00 -0.00000000000E+00 -0.87423727805E+03  0.87423727805E+03  0.00000000000E+00 0. -1.
         25    2    1    2    0    0 -0.27891749829E+02  0.52561106362E+01 -0.37252652637E+03  0.39396270871E+03  0.12500010637E+03 0.  0.
          4    1    3    3  502    0  0.10835595300E+02  0.58728486767E+02 -0.21527222205E+03  0.22340588123E+03  0.12700000000E+01 0. -1.
         -4    1    3    3    0  502 -0.38727345129E+02 -0.53472376131E+02 -0.15725430432E+03  0.17055682747E+03  0.12700000000E+01 0. -1.
          2    1    1    2  503    0  0.18800413779E+02 -0.24951202572E+02 -0.45335369242E+03  0.45442885967E+03  0.00000000000E+00 0. -1.
         -1    1    1    2    0  501  0.90913360500E+01  0.19695091936E+02 -0.33930687180E+02  0.40272081769E+02  0.00000000000E+00 0.  1.
<mgrwt>
<rscale>  0 0.25833232E+02</rscale>
<asrwt>0</asrwt>
<pdfrwt beam="2">  1        2 0.13449809E+00 0.30764867E+02</pdfrwt>
<pdfrwt beam="1">  1       -1 0.22194411E-02 0.21692142E+02</pdfrwt>
<totfact> 0.16294614E+04</totfact>
</mgrwt>
</event>
<event>
 7    1  0.3113151E-004  0.8839815E+02  0.7546771E-02  0.1457153E+00
          2   -1    0    0  502    0  0.00000000000E+00  0.00000000000E+00  0.19320447759E+04  0.19320447759E+04  0.00000000000E+00 0. -1.
          1   -1    0    0  503    0 -0.00000000000E+00 -0.00000000000E+00 -0.32142677536E+03  0.32142677536E+03  0.00000000000E+00 0. -1.
         25    2    1    2    0    0  0.92436558849E+02  0.53750616250E+02  0.13863448132E+03  0.21512343310E+03  0.12499970359E+03 0.  0.
          4    1    3    3  501    0  0.57677928160E+02 -0.94807593660E+01 -0.40941802610E+00  0.58467159313E+02  0.12700000000E+01 0.  1.
         -4    1    3    3    0  501  0.34758630689E+02  0.63231375616E+02  0.13904389935E+03  0.15665627378E+03  0.12700000000E+01 0.  1.
          2    1    1    2  502    0 -0.82744243478E+02 -0.29702167654E+02  0.17534687644E+04  0.17556712495E+04  0.00000000000E+00 0. -1.
          1    1    1    2  503    0 -0.96923153714E+01 -0.24048448596E+02 -0.28148524515E+03  0.28267686870E+03  0.00000000000E+00 0. -1.
<mgrwt>
<rscale>  0 0.47874840E+02</rscale>
<asrwt>0</asrwt>
<pdfrwt beam="1">  1        2 0.29723765E+00 0.88398150E+02</pdfrwt>
<pdfrwt beam="2">  1        1 0.49450274E-01 0.25928148E+02</pdfrwt>
<totfact> 0.99511463E+01</totfact>
</mgrwt>
</event>
<event>
 7    1  0.3113151E-004  0.4206381E+02  0.7546771E-02  0.1537764E+00
         -2   -1    0    0    0  501 -0.00000000000E+00  0.00000000000E+00  0.29150586339E+02  0.29150586339E+02  0.00000000000E+00 0.  1.
          1   -1    0    0  503    0  0.00000000000E+00 -0.00000000000E+00 -0.46278587443E+03  0.46278587443E+03  0.00000000000E+00 0. -1.
         25    2    1    2    0    0  0.41068295953E+02  0.24127668846E+01 -0.18536316937E+03  0.22732843593E+03  0.12500514728E+03 0.  0.
          4    1    3    3  502    0  0.43735974453E+02  0.46119597545E+02 -0.39073043697E+02  0.74620160699E+02  0.12700000000E+01 0. -1.
         -4    1    3    3    0  502 -0.26676784998E+01 -0.43706830660E+02 -0.14629012567E+03  0.15270827523E+03  0.12700000000E+01 0. -1.
          1    1    1    2  503    0 -0.91755902691E+01  0.29863534621E+02 -0.17961396571E+03  0.18231072057E+03  0.00000000000E+00 0. -1.
         -2    1    1    2    0  501 -0.31892705684E+02 -0.32276301506E+02 -0.68658153006E+02  0.82297304263E+02  0.00000000000E+00 0.  1.
<mgrwt>
<rscale>  0 0.36250937E+02</rscale>
<asrwt>0</asrwt>
<pdfrwt beam="2">  1        1 0.71197822E-01 0.31241353E+02</pdfrwt>
<pdfrwt beam="1">  1       -2 0.44847059E-02 0.42063813E+02</pdfrwt>
<totfact> 0.87627620E+03</totfact>
</mgrwt>
</event>
<event>
 7    1  0.3113151E-004  0.6647009E+02  0.7546771E-02  0.1378972E+00
         -1   -1    0    0    0  501 -0.00000000000E+00  0.00000000000E+00  0.19700603039E+03  0.19700603039E+03  0.00000000000E+00 0.  1.
          1   -1    0    0  503    0  0.00000000000E+00 -0.00000000000E+00 -0.62824268941E+03  0.62824268941E+03  0.00000000000E+00 0. -1.
         25    2    1    2    0    0  0.86572667046E+01 -0.31214241625E+02 -0.69301360742E+02  0.14654213668E+03  0.12499056794E+03 0.  0.
          4    1    3    3  502    0  0.31734853933E+02  0.41240127406E+02 -0.19247878202E+02  0.55497232164E+02  0.12700000000E+01 0.  1.
         -4    1    3    3    0  502 -0.23077587228E+02 -0.72454369031E+02 -0.50053482540E+02  0.91044904516E+02  0.12700000000E+01 0.  1.
          1    1    1    2  503    0  0.52745281277E+02  0.45509324318E+02 -0.51159166494E+03  0.51631307841E+03  0.00000000000E+00 0. -1.
         -1    1    1    2    0  501 -0.61402547982E+02 -0.14295082693E+02  0.14965636667E+03  0.16239350471E+03  0.00000000000E+00 0.  1.
<mgrwt>
<rscale>  0 0.64734695E+02</rscale>
<asrwt>0</asrwt>
<pdfrwt beam="2">  1        1 0.96652721E-01 0.66470092E+02</pdfrwt>
<pdfrwt beam="1">  1       -1 0.30308620E-01 0.63044606E+02</pdfrwt>
<totfact> 0.34264811E+02</totfact>
</mgrwt>
</event>
